Membrane in water
40167
    1TCq1    O1    1   0.369   0.178  11.107  0.3487 -0.0506 -0.2513
    1TCq1    C1    2   0.295   0.074  11.147  0.3197 -0.3473 -0.5782
    1TCq1    O2    3   0.297   4.682  11.103 -0.4191  0.4420  0.0970
    1TCq1    C2    4   0.244   0.094  11.281 -0.0257 -0.2056  0.0037
    1TCq1    C3    5   0.277   0.203  11.354  0.5449 -0.1848  0.3092
    1TCq1    C4    6   0.228   0.203  11.483  0.1667  0.3050 -0.4959
    1TCq1    C5    7   0.141   0.115  11.540  0.4346 -0.4918  0.6680
    1TCq1    C6    8   0.119   0.003  11.460 -0.0445 -0.1364 -0.0197
    1TCq1    C7    9   0.171   4.709  11.331  0.0938  0.4218  0.3309
    1TCq1    C8   10   0.039   4.617  11.515 -0.4763 -0.0598  0.2977
    1TCq1    O4   11   0.028   4.517  11.444 -0.3033  0.6915  0.1515
    1TCq1    C9   12   0.272   0.308  11.570  0.7890  0.0983  0.5606
    1TCq1    O5   13   0.333   0.412  11.526 -0.0424  0.3000  0.1559
    1TCq1    O6   14   0.220   0.315  11.683 -0.2182  0.6490  0.1634
    1TCq1    H1   15   0.324   0.259  11.139  0.7407  0.3200 -0.6312
    1TCq1    H2   16   0.344   0.284  11.328 -0.2916  0.7469  1.0599
    1TCq1    H3   17   0.113   0.122  11.644 -1.1201 -2.8786  0.4054
    1TCq1    H4   18   0.146   4.619  11.276 -1.5401 -0.0211  1.8219
    2MPD2     C   19   4.512   4.353  11.864 -0.3008 -0.2429  0.4617
    2MPD2    C1   20   4.484   4.488  11.886 -0.3071  0.0107  0.3248
    2MPD2    C2   21   4.549   4.585  11.812 -0.1232  0.3029  0.2099
    2MPD2    C3   22   4.628   4.547  11.706 -0.0289 -0.1561 -1.0864
    2MPD2    C4   23   4.643   4.411  11.680  0.9824  0.3110 -0.3601
    2MPD2    C5   24   4.597   4.317  11.763 -0.9447 -0.7142  0.5849
    2MPD2     H   25   4.533   4.686  11.846  0.4540  0.4630  0.0008
    2MPD2    H1   26   4.701   4.382  11.593  0.6333  0.5758 -0.6887
    2MPD2    H2   27   4.471   4.271  11.923 -0.2058  0.2719  1.2327
    2MPD2    H3   28   4.608   4.212  11.739  0.1524 -0.4857  0.0883
    2MPD2     N   29   4.690   4.644  11.636 -0.0566  0.1726 -0.0730
    2MPD2    H5   30   4.695   0.014  11.679 -2.8273  1.1436 -1.8089
    2MPD2    N1   31   4.387   4.524  11.981  0.4773 -0.0157  0.8350
    2MPD2    H7   32   4.356   4.621  11.980  1.2878  0.2493  2.0302
    3TCq1    O1   33   3.441   0.161  10.365 -0.1594 -0.0995 -0.1624
    3TCq1    C1   34   3.440   0.145  10.500 -0.1221  0.1245 -0.6732
    3TCq1    O2   35   3.369   0.067  10.560  0.6381 -0.1521  0.1277
    3TCq1    C2   36   3.473   0.266  10.569 -0.5267  0.0462 -0.4018
    3TCq1    C3   37   3.579   0.332  10.534  0.3887 -0.1880 -0.6124
    3TCq1    C4   38   3.633   0.418  10.627 -0.2185 -0.2073 -0.0755
    3TCq1    C5   39   3.576   0.437  10.745 -0.1509 -0.2408 -0.0971
    3TCq1    C6   40   3.464   0.371  10.774  0.2256  0.0127  0.0831
    3TCq1    C7   41   3.419   0.276  10.692 -0.0969 -0.8094  0.0743
    3TCq1    C8   42   3.380   0.413  10.881 -0.5343  0.1778 -0.6816
    3TCq1    O4   43   3.296   0.336  10.926 -0.0771 -0.5791  0.1599
    3TCq1    C9   44   3.751   0.494  10.594 -0.1969  0.3477  0.1426
    3TCq1    O5   45   3.812   0.470  10.487  0.1429 -0.2379  0.2463
    3TCq1    O6   46   3.784   0.584  10.676 -0.0345  0.7005 -0.5304
    3TCq1    H1   47   3.489   0.238  10.329 -0.5165  0.7106  1.0858
    3TCq1    H2   48   3.646   0.311  10.451  3.1086  1.6166  1.1261
    3TCq1    H3   49   3.607   0.493  10.833  0.9987 -0.4183 -0.3924
    3TCq1    H4   50   3.331   0.219  10.719  0.3029 -1.0883  0.7860
    4MPD2     C   51   3.206   0.784  11.182  0.6959 -0.4758  0.9856
    4MPD2    C1   52   3.280   0.840  11.086 -0.0030  0.4164  0.6639
    4MPD2    C2   53   3.342   0.758  10.993  0.0303 -0.1762  0.3058
    4MPD2    C3   54   3.332   0.624  10.996  0.9129 -0.9471  0.4469
    4MPD2    C4   55   3.251   0.566  11.097  0.1764 -0.6046 -0.3196
    4MPD2    C5   56   3.185   0.646  11.184 -0.3683  0.3267 -0.4659
    4MPD2     H   57   3.408   0.805  10.921 -2.6375  1.5471 -1.0004
    4MPD2    H1   58   3.240   0.460  11.117  0.6014 -0.2486  1.7599
    4MPD2    H2   59   3.151   0.839  11.258 -0.2057  0.4074 -0.3137
    4MPD2    H3   60   3.119   0.603  11.258  0.8316 -0.6777  0.0253
    4MPD2     N   61   3.393   0.547  10.897  0.4291 -0.1764 -0.3564
    4MPD2    H5   62   3.460   0.599  10.840  0.5043 -0.5420 -0.6013
    4MPD2    N1   63   3.317   0.979  11.085 -0.2728 -0.3172 -0.0858
    4MPD2    H7   64   3.407   0.999  11.043  0.5246 -0.5918  1.4934
    5TCq1    O1   65   4.671   3.045  12.032 -0.0267  0.0936 -0.4206
    5TCq1    C1   66   4.566   2.962  12.012  0.1880 -0.2595 -0.3460
    5TCq1    O2   67   4.451   3.001  12.029 -0.4788 -0.0330  0.2704
    5TCq1    C2   68   4.615   2.821  12.001  0.3577  0.1581 -0.6185
    5TCq1    C3   69   0.025   2.781  12.045  0.4202 -0.7058 -0.0876
    5TCq1    C4   70   0.084   2.665  11.995 -0.2440  0.0948 -0.6652
    5TCq1    C5   71   0.016   2.586  11.901  0.8805 -0.2434 -0.2126
    5TCq1    C6   72   4.607   2.624  11.864  0.4182 -0.0174  1.2078
    5TCq1    C7   73   4.550   2.741  11.902  0.0106  0.2438  0.3007
    5TCq1    C8   74   4.540   2.539  11.772 -0.3002  0.3608 -1.1486
    5TCq1    O4   75   4.607   2.449  11.720 -0.9989 -0.5223 -0.1154
    5TCq1    C9   76   0.224   2.651  12.024  0.4358 -0.2045 -0.5718
    5TCq1    O5   77   0.278   2.566  11.954  0.2837  0.0818  0.3907
    5TCq1    O6   78   0.280   2.751  12.078 -0.0386 -0.1039 -0.1327
    5TCq1    H1   79   0.023   2.982  12.016  0.6841  0.5482  1.0148
    5TCq1    H2   80   0.074   2.840  12.122  0.2161  0.5096 -0.9055
    5TCq1    H3   81   0.064   2.503  11.851 -0.1039 -1.7974  1.4069
    5TCq1    H4   82   4.456   2.774  11.859  0.4506  1.4412  0.2632
    6MPD2     C   83   4.176   2.527  11.678  0.3385  0.0368 -0.3184
    6MPD2    C1   84   4.311   2.497  11.678 -0.5974 -1.1074 -0.1832
    6MPD2    C2   85   4.351   2.397  11.591  0.4029 -0.4019 -0.0682
    6MPD2    C3   86   4.263   2.326  11.514 -0.6398  0.5357 -0.3923
    6MPD2    C4   87   4.131   2.358  11.515  0.2266 -0.3181  0.8101
    6MPD2    C5   88   4.094   2.466  11.589  0.2032  1.4780  0.0152
    6MPD2     H   89   4.457   2.377  11.579  0.2136  0.1277 -2.5903
    6MPD2    H1   90   4.058   2.310  11.451  1.7595 -0.9960 -0.4379
    6MPD2    H2   91   4.139   2.601  11.748  1.2334 -0.0106  0.2028
    6MPD2    H3   92   3.990   2.497  11.592  0.1821  1.2775  1.2063
    6MPD2     N   93   4.320   2.215  11.444 -0.5731  0.5079  0.1849
    6MPD2    H5   94   4.419   2.193  11.447 -0.6165  0.2941 -0.0192
    6MPD2    N1   95   4.401   2.562  11.768 -0.4011 -0.2646  0.2690
    6MPD2    H7   96   4.353   2.628  11.828  1.6058  0.0223  1.5794
    7TCq1    O1   97   1.788   2.913  13.385 -0.0183  0.3991 -0.2637
    7TCq1    C1   98   1.850   2.824  13.463 -0.6782  0.1504 -0.9226
    7TCq1    O2   99   1.968   2.807  13.473 -0.3703  0.2998 -0.4093
    7TCq1    C2  100   1.754   2.714  13.495  0.5303  0.2885 -0.3984
    7TCq1    C3  101   1.622   2.744  13.519  0.1551 -0.2855 -0.0103
    7TCq1    C4  102   1.542   2.640  13.566  0.6341 -0.0271  0.4632
    7TCq1    C5  103   1.591   2.516  13.581  0.3695  0.6226  0.7769
    7TCq1    C6  104   1.720   2.493  13.553  0.5082 -0.6339  0.5037
    7TCq1    C7  105   1.804   2.585  13.501  0.2656  0.6185 -0.2295
    7TCq1    C8  106   1.766   2.352  13.552 -0.1718  0.7641  0.0957
    7TCq1    O4  107   1.690   2.271  13.598 -0.8477  0.7180  0.3829
    7TCq1    C9  108   1.400   2.657  13.576  0.3371  0.4273  0.3763
    7TCq1    O5  109   1.369   2.779  13.571  0.0468  0.3263  0.2638
    7TCq1    O6  110   1.331   2.560  13.611 -0.0724  0.3391  0.4771
    7TCq1    H1  111   1.697   2.887  13.360  0.7762 -0.2424 -2.4558
    7TCq1    H2  112   1.587   2.847  13.524  0.1231 -0.1933 -2.2445
    7TCq1    H3  113   1.528   2.437  13.623 -2.0742  1.2028 -1.8155
    7TCq1    H4  114   1.911   2.572  13.488  0.5849 -0.0919  3.0804
    8MPD2     C  115   2.104   1.988  13.415  0.0377  0.2453 -0.3434
    8MPD2    C1  116   1.997   1.975  13.500 -0.5264 -0.4008  0.2848
    8MPD2    C2  117   1.916   2.090  13.519 -0.0914  0.1455  0.3550
    8MPD2    C3  118   1.949   2.214  13.459 -0.3702 -0.0530 -0.5077
    8MPD2    C4  119   2.058   2.219  13.381  0.3688 -0.3790  0.1395
    8MPD2    C5  120   2.129   2.106  13.350  0.6295 -0.8491  0.0786
    8MPD2     H  121   1.833   2.091  13.588 -0.4211 -0.1168 -0.0346
    8MPD2    H1  122   2.085   2.318  13.348 -1.0516 -0.3086 -0.8126
    8MPD2    H2  123   2.162   1.901  13.389  0.1822  0.2957 -0.1900
    8MPD2    H3  124   2.214   2.111  13.283  1.0137  0.2036  0.6455
    8MPD2     N  125   1.875   2.329  13.472 -0.1309  0.1123 -0.6670
    8MPD2    H5  126   1.920   2.409  13.427  0.5357  0.3731  0.4703
    8MPD2    N1  127   1.958   1.856  13.568 -0.1257 -0.0565  0.1291
    8MPD2    H7  128   1.871   1.855  13.619  0.7464  0.4837  1.6409
    9TCq1    O1  129   4.042   4.575  11.159  0.1282  0.5345 -0.3312
    9TCq1    C1  130   4.088   4.694  11.196 -0.7902  0.7943  0.8876
    9TCq1    O2  131   4.064   0.016  11.303 -0.0372  0.0141  0.0132
    9TCq1    C2  132   4.175   0.020  11.099  0.3228  0.2544 -0.2661
    9TCq1    C3  133   4.208   4.674  10.986  0.1682  0.5447 -0.1911
    9TCq1    C4  134   4.291   0.018  10.897 -0.3684  0.2835 -1.0232
    9TCq1    C5  135   4.343   0.144  10.925  0.1335 -0.0930 -0.3021
    9TCq1    C6  136   4.307   0.207  11.041 -0.1934  0.0681 -0.2230
    9TCq1    C7  137   4.222   0.146  11.132  0.7584  0.4161  1.0068
    9TCq1    C8  138   4.375   0.337  11.067  0.1599  0.3941  0.3154
    9TCq1    O4  139   4.468   0.370  10.993  0.5246  0.0538  1.0104
    9TCq1    C9  140   4.314   4.667  10.779  0.1241 -1.0208 -0.5490
    9TCq1    O5  141   4.285   4.546  10.774  0.6618 -0.3046 -0.2196
    9TCq1    O6  142   4.379   0.001  10.684  0.4420  0.4906  0.2290
    9TCq1    H1  143   3.987   4.535  11.230 -2.3185  1.0721 -1.9212
    9TCq1    H2  144   4.164   4.577  10.967 -3.0326  1.7479  0.9331
    9TCq1    H3  145   4.409   0.191  10.854 -0.1164  1.6982  0.6379
    9TCq1    H4  146   4.190   0.193  11.225 -2.3952  1.3768 -0.5885
   10MPD2     C  147   4.498   0.577  11.191 -0.3501  0.7053 -0.5759
   10MPD2    C1  148   4.380   0.514  11.233 -0.3650  0.0901 -0.6384
   10MPD2    C2  149   4.314   0.581  11.333 -0.1479 -0.1365 -0.0817
   10MPD2    C3  150   4.372   0.683  11.410  0.1684  0.3136 -0.4032
   10MPD2    C4  151   4.486   0.737  11.360  0.5315 -0.0000  0.9489
   10MPD2    C5  152   4.550   0.683  11.258 -0.0431 -0.2237  0.7713
   10MPD2     H  153   4.222   0.532  11.363 -0.2976 -1.8540 -3.3439
   10MPD2    H1  154   4.531   0.829  11.395 -0.1085  1.3065 -1.6829
   10MPD2    H2  155   4.562   0.538  11.113  1.7250  1.0856  0.9346
   10MPD2    H3  156   4.644   0.731  11.230 -0.0210 -0.6450  0.1162
   10MPD2     N  157   4.310   0.742  11.525  0.0210 -0.7054  0.1191
   10MPD2    H5  158   4.343   0.831  11.560 -3.4020  0.2792  0.8011
   10MPD2    N1  159   4.316   0.405  11.177 -0.0534 -0.3237 -0.2858
   10MPD2    H7  160   4.232   0.373  11.221 -1.1860 -0.1220 -2.2757
   11TCq1    O1  161   0.487   1.077  13.511  0.2058 -0.3716  0.8761
   11TCq1    C1  162   0.549   1.111  13.633 -0.0207 -0.3463  0.0462
   11TCq1    O2  163   0.550   1.224  13.687 -0.0803  0.3855 -0.1278
   11TCq1    C2  164   0.527   0.994  13.719  0.3553 -0.9092 -0.7281
   11TCq1    C3  165   0.530   0.867  13.661 -0.8321  0.4373  0.2990
   11TCq1    C4  166   0.452   0.768  13.715 -0.1127 -0.1323  0.8305
   11TCq1    C5  167   0.374   0.788  13.829  0.3791 -0.5680 -0.2574
   11TCq1    C6  168   0.372   0.919  13.877 -0.3980 -0.3018  0.0692
   11TCq1    C7  169   0.451   1.015  13.827  0.8388 -0.4934  0.3398
   11TCq1    C8  170   0.256   0.965  13.955  0.5398  0.9276 -0.0815
   11TCq1    O4  171   0.249   1.073  14.021  0.0197 -0.2420 -0.4272
   11TCq1    C9  172   0.460   0.635  13.657  0.0177  0.0622  0.3514
   11TCq1    O5  173   0.545   0.610  13.567  0.3251 -0.2756 -0.3670
   11TCq1    O6  174   0.364   0.557  13.683  0.3468 -0.2354 -0.6662
   11TCq1    H1  175   0.492   0.984  13.479 -1.0180 -1.3710  3.6243
   11TCq1    H2  176   0.606   0.848  13.586 -2.5564  0.3992 -1.4258
   11TCq1    H3  177   0.334   0.702  13.882 -1.0783  0.1330 -0.2163
   11TCq1    H4  178   0.424   1.117  13.856  0.9494  0.2265 -2.1461
   12MPD2     C  179   4.700   1.025  14.018  0.2308 -0.2443 -0.2601
   12MPD2    C1  180   0.022   0.898  13.987 -0.0903 -0.2936 -0.5514
   12MPD2    C2  181   4.649   0.800  13.970  0.4289  0.5027 -0.3225
   12MPD2    C3  182   4.516   0.820  13.997 -0.2369 -0.4051 -0.7065
   12MPD2    C4  183   4.472   0.945  14.037  0.0943 -0.1497  0.7832
   12MPD2    C5  184   4.569   1.048  14.040 -0.9438  0.1198 -0.6657
   12MPD2     H  185   4.682   0.701  13.941 -1.1608  0.0941 -0.7173
   12MPD2    H1  186   4.371   0.969  14.068 -1.2088 -5.8847  1.0909
   12MPD2    H2  187   0.037   1.116  14.026 -2.2612  1.2752  0.3430
   12MPD2    H3  188   4.550   1.149  14.074  1.5305  0.5252 -0.4807
   12MPD2     N  189   4.425   0.714  13.973  0.0505 -0.2898  0.4222
   12MPD2    H5  190   4.466   0.622  13.960 -1.9590 -0.8575 -1.7636
   12MPD2    N1  191   0.159   0.869  13.963  0.1743  0.3492  1.0202
   12MPD2    H7  192   0.182   0.775  13.931 -0.4761  0.1199  1.2095
   13TCq1    O1  193   4.472   0.201  10.565  0.1127 -0.1835  0.1162
   13TCq1    C1  194   4.416   0.260  10.463 -0.0180 -0.1115  0.1380
   13TCq1    O2  195   4.473   0.343  10.389  0.0253 -0.5866  0.0714
   13TCq1    C2  196   4.277   0.225  10.458 -0.4517  0.3405  0.0549
   13TCq1    C3  197   4.208   0.256  10.339 -0.1175  0.0022 -0.6229
   13TCq1    C4  198   4.074   0.272  10.339  0.0868 -0.2677  0.5111
   13TCq1    C5  199   4.002   0.248  10.449 -0.3065 -1.2563  0.0850
   13TCq1    C6  200   4.072   0.216  10.565 -0.3687  0.4904 -0.0876
   13TCq1    C7  201   4.207   0.220  10.578 -0.0997 -0.5323 -0.1021
   13TCq1    C8  202   4.003   0.217  10.688 -0.0714  0.0810 -1.0112
   13TCq1    O4  203   4.055   0.271  10.785 -0.1439 -0.0005 -0.0870
   13TCq1    C9  204   4.007   0.291  10.208 -0.3587 -0.3887  0.5676
   13TCq1    O5  205   3.903   0.359  10.207 -0.7415  0.0101  0.2747
   13TCq1    O6  206   4.058   0.253  10.096 -0.1563  0.3195  0.4186
   13TCq1    H1  207   4.424   0.131  10.614 -1.1553  0.9051  0.4271
   13TCq1    H2  208   4.261   0.271  10.245 -0.9964  2.7225 -0.6722
   13TCq1    H3  209   3.896   0.230  10.432 -0.5566 -1.4002  1.8436
   13TCq1    H4  210   4.259   0.216  10.673 -1.1227  0.3654  0.4891
   14MPD2     C  211   3.688   0.042  10.751  0.4054  0.6293  0.6004
   14MPD2    C1  212   3.803   0.115  10.779  0.0587  0.1353  0.2924
   14MPD2    C2  213   3.834   0.130  10.915 -0.0464  0.0390 -0.3850
   14MPD2    C3  214   3.751   0.081  11.015  0.6448 -0.8959  0.1338
   14MPD2    C4  215   3.642   0.011  10.983 -0.0959  0.4715  0.4619
   14MPD2    C5  216   3.610   4.712  10.847 -0.0683  0.0756 -0.6541
   14MPD2     H  217   3.929   0.170  10.948  1.2142 -3.0280 -0.2754
   14MPD2    H1  218   3.567   4.701  11.053 -2.0030  2.2587 -0.7692
   14MPD2    H2  219   3.655   0.029  10.649  1.4846  0.6099  0.2618
   14MPD2    H3  220   3.515   4.663  10.832 -0.9609  1.8625 -0.8535
   14MPD2     N  221   3.787   0.118  11.146 -0.3487  0.6109  0.1765
   14MPD2    H5  222   3.862   0.183  11.170  0.5364 -0.0019 -0.9181
   14MPD2    N1  223   3.882   0.157  10.671  0.0474 -0.4392 -0.3089
   14MPD2    H7  224   3.847   0.132  10.579 -0.8872 -3.4081  0.8724
   15TCq1    O1  225   1.085   4.544   1.865 -1.0560  0.2532 -0.0367
   15TCq1    C1  226   0.991   4.635   1.826 -0.4568  0.4151 -0.6491
   15TCq1    O2  227   0.999   0.029   1.859  0.2392  0.2061 -0.2397
   15TCq1    C2  228   0.858   4.568   1.835 -0.1345 -0.7152 -0.5311
   15TCq1    C3  229   0.755   4.642   1.880  0.5310  0.4287 -0.3329
   15TCq1    C4  230   0.628   4.584   1.900 -0.1720 -0.5410  0.6231
   15TCq1    C5  231   0.616   4.455   1.875 -0.2486 -0.0911  0.0191
   15TCq1    C6  232   0.720   4.387   1.826 -0.8829  0.2396 -0.3516
   15TCq1    C7  233   0.839   4.437   1.794 -0.1350 -0.0712 -0.7156
   15TCq1    C8  234   0.699   4.250   1.789  0.8392  0.3547  0.1410
   15TCq1    O4  235   0.799   4.182   1.766  0.1536 -0.3912  0.4589
   15TCq1    C9  236   0.520   4.650   1.967  0.6230  0.0728  0.4272
   15TCq1    O5  237   0.402   4.603   1.951  0.5948  0.0055 -0.2562
   15TCq1    O6  238   0.541   0.021   2.054 -0.0653  0.0611 -0.0110
   15TCq1    H1  239   1.067   4.448   1.851  0.5929  0.1913 -1.7788
   15TCq1    H2  240   0.767   0.020   1.921 -1.1929  0.4133  0.2235
   15TCq1    H3  241   0.528   4.403   1.912  1.5891 -1.8733  1.8866
   15TCq1    H4  242   0.906   4.374   1.737 -0.2957 -0.2268 -0.7325
   16MPD2     C  243   0.395   4.047   1.797  0.5755 -0.8507  0.1891
   16MPD2    C1  244   0.530   4.077   1.767  0.0449 -0.1689  1.2931
   16MPD2    C2  245   0.607   3.979   1.712  0.3845 -0.3396  0.7624
   16MPD2    C3  246   0.561   3.856   1.695 -1.0986 -0.0569 -0.2555
   16MPD2    C4  247   0.428   3.825   1.727  0.0749  0.6509  0.1031
   16MPD2    C5  248   0.353   3.919   1.785 -0.2361  0.1557  0.1665
   16MPD2     H  249   0.705   4.001   1.673 -0.6577  1.2797 -0.9910
   16MPD2    H1  250   0.383   3.728   1.710  1.5548  0.2029 -1.1998
   16MPD2    H2  251   0.325   4.118   1.840  1.0654  1.0009 -2.1134
   16MPD2    H3  252   0.249   3.905   1.813 -0.5558  2.2432 -0.0251
   16MPD2     N  253   0.642   3.765   1.633  1.1750  0.2967  0.9029
   16MPD2    H5  254   0.736   3.786   1.600 -0.7085  3.0469 -2.7294
   16MPD2    N1  255   0.569   4.206   1.786 -0.0979 -0.0147 -0.0266
   16MPD2    H7  256   0.496   4.266   1.825  0.8874  0.0629  1.7078
   17TCq1    O1  257   4.305   4.607  11.536  0.1718 -0.3246 -0.3348
   17TCq1    C1  258   4.327   4.487  11.479 -0.3342  0.5899  0.3223
   17TCq1    O2  259   4.253   4.390  11.492  0.5280 -0.8236  0.2706
   17TCq1    C2  260   4.416   4.488  11.359  0.1647  0.5969  0.0196
   17TCq1    C3  261   4.412   4.373  11.281 -0.4038  0.1062 -0.3919
   17TCq1    C4  262   4.453   4.382  11.152 -0.8337 -0.0990  1.2113
   17TCq1    C5  263   4.498   4.500  11.097  0.0768 -0.4564 -0.5511
   17TCq1    C6  264   4.509   4.611  11.167 -0.2944 -0.2377  0.1495
   17TCq1    C7  265   4.461   4.610  11.304  0.2229 -0.0762  0.3413
   17TCq1    C8  266   4.588   0.008  11.124 -0.4516  0.1859 -1.3360
   17TCq1    O4  267   4.600   0.099  11.206  0.9844  0.3003 -0.6076
   17TCq1    C9  268   4.455   4.263  11.071 -0.0689 -0.2477 -0.4686
   17TCq1    O5  269   4.407   4.159  11.125  0.4590  0.2477  0.2834
   17TCq1    O6  270   4.478   4.271  10.946  0.2766 -0.1721  0.6920
   17TCq1    H1  271   4.357   4.683  11.502  1.0835 -1.0883 -0.6451
   17TCq1    H2  272   4.392   4.283  11.338  1.0665  0.3870  0.5449
   17TCq1    H3  273   4.543   4.490  10.999 -1.3630  1.5789 -1.4218
   17TCq1    H4  274   4.479   4.699  11.364 -0.9256  0.6729 -0.4265
   18MPD2     C  275   0.030   0.227  10.966 -0.1220  0.7096  0.5876
   18MPD2    C1  276   0.019   0.094  10.931 -0.3482  0.3693 -0.4271
   18MPD2    C2  277   0.075   0.055  10.811 -0.7579  0.4665  0.5547
   18MPD2    C3  278   0.125   0.155  10.720 -0.1421  0.2752  0.0387
   18MPD2    C4  279   0.146   0.280  10.772  0.5444 -0.5000  0.0477
   18MPD2    C5  280   0.107   0.309  10.902  0.8496  0.0375 -0.9905
   18MPD2     H  281   0.072   4.673  10.781 -2.0806  0.4212  0.8511
   18MPD2    H1  282   0.196   0.361  10.720  1.0802 -0.8471  0.0240
   18MPD2    H2  283   4.706   0.259  11.059 -0.1929  0.8545  0.5022
   18MPD2    H3  284   0.110   0.408  10.946  0.3202 -0.1695 -0.4920
   18MPD2     N  285   0.171   0.129  10.592 -0.3952 -0.1242 -0.0556
   18MPD2    H5  286   0.213   0.209  10.546  2.7350 -1.4075  0.5838
   18MPD2    N1  287   4.663   4.715  11.007  0.4059 -0.1063  0.2726
   18MPD2    H7  288   4.663   4.623  10.965  1.5759 -0.2497  0.6042
   19TMC2    C1  289   0.752   0.413  13.806  0.6155  0.6860 -0.3835
   19TMC2    C2  290   0.710   0.392  13.679 -0.1069  0.3408 -0.2489
   19TMC2    C3  291   0.619   0.291  13.665 -0.0247 -0.8373  0.0112
   19TMC2    C4  292   0.694   0.351  13.914 -0.2103  0.6230  0.1090
   19TMC2    C5  293   0.606   0.250  13.890  0.1255  0.2013 -0.8807
   19TMC2    C6  294   0.571   0.214  13.768  0.2323 -0.5616 -0.5269
   19TMC2     C  295   0.849   0.523  13.832 -0.0767 -0.7093  0.1846
   19TMC2     O  296   0.875   0.586  13.732  0.2430 -0.7416 -0.4962
   19TMC2     H  297   0.768   0.434  13.597 -0.3744  0.6152 -0.2998
   19TMC2    H1  298   0.714   0.386  14.014 -0.5411 -0.8741  0.6990
   19TMC2    H2  299   0.491   0.143  13.755  0.3353 -1.1782  2.2660
   19TMC2    C7  300   0.547   0.174  13.998  0.3276  0.2782  0.2640
   19TMC2    C8  301   0.557   0.260  13.540 -0.4333 -0.1567  0.0251
   19TMC2    O1  302   0.436   0.123  13.980 -0.0188  0.6904  0.1968
   19TMC2    O2  303   0.495   0.159  13.505  0.4333  0.4235 -0.1181
   19TMC2    O5  304   0.571   0.377  13.469 -0.7014 -0.4400  0.2870
   19TMC2    H5  305   0.566   0.455  13.528 -1.5472 -0.1963 -0.1131
   20MPD2     C  306   1.102   0.683  13.910 -0.0918  0.5965  0.1733
   20MPD2    C1  307   1.029   0.597  13.993  0.2640 -0.6820 -0.0499
   20MPD2    C2  308   1.078   0.572  14.119 -0.0389  0.2828 -0.1102
   20MPD2    C3  309   1.196   0.631  14.165  0.8138 -0.6226 -0.0411
   20MPD2    C4  310   1.261   0.715  14.081  0.6839 -0.5276 -0.4703
   20MPD2    C5  311   1.214   0.745  13.955  0.0976 -0.5010  0.2308
   20MPD2     H  312   1.019   0.504  14.180 -2.5078  1.0121 -1.6642
   20MPD2    H1  313   1.347   0.766  14.124 -1.1981 -1.6094  4.5386
   20MPD2    H2  314   1.058   0.721  13.818 -0.0803  0.9948  0.3334
   20MPD2    H3  315   1.257   0.824  13.895 -2.2511  1.4327  1.1064
   20MPD2     N  316   1.232   0.634  14.302 -0.2301  0.3766  0.0269
   20MPD2    H5  317   1.298   0.707  14.327 -0.3070  0.5338 -0.2354
   20MPD2    N1  318   0.907   0.528  13.954 -0.4852 -0.2369  0.1924
   20MPD2    H7  319   0.864   0.462  14.018 -1.8540  0.0558 -0.4145
   21MPD2     C  320   3.833   1.195  14.443 -0.7677  0.3573 -0.1757
   21MPD2    C1  321   3.843   1.065  14.495  0.2874  0.2918 -0.2363
   21MPD2    C2  322   3.759   1.022  14.591 -0.8107  0.3769  0.5338
   21MPD2    C3  323   3.664   1.110  14.634 -0.1025  0.2503  0.2243
   21MPD2    C4  324   3.648   1.238  14.583 -0.2294 -0.1843 -0.8402
   21MPD2    C5  325   3.735   1.278  14.488 -0.0826  0.1121 -0.4377
   21MPD2     H  326   3.759   0.919  14.623 -0.1079  0.7707  1.8098
   21MPD2    H1  327   3.583   1.314  14.623  3.2357  2.6005 -0.5119
   21MPD2    H2  328   3.896   1.222  14.359  1.0848 -0.3190  1.0049
   21MPD2    H3  329   3.736   1.380  14.451 -2.3078  0.7342  1.2010
   21MPD2     N  330   3.582   1.079  14.744  0.1482 -0.4812  0.2156
   21MPD2    H5  331   3.508   1.140  14.776 -0.8196 -1.1928 -0.7053
   21MPD2    N1  332   3.933   0.971  14.438 -0.5656 -0.1991 -0.0432
   21MPD2    H7  333   3.928   0.884  14.490 -0.9076 -0.1428  0.0199
   22TCq2    C1  334   3.587   0.960  14.816 -0.3907 -0.5061  0.0941
   22TCq2    O2  335   3.672   0.874  14.825  0.0161  0.4988  0.5423
   22TCq2    C2  336   3.486   0.947  14.912  0.1342 -0.0286  0.4528
   22TCq2    C3  337   3.522   0.885  15.024 -0.9325 -0.3495 -0.0932
   22TCq2    C4  338   3.426   0.865  15.124  0.4689  0.5189 -0.4403
   22TCq2    C5  339   3.306   0.927  15.112  0.1133 -0.0020 -0.1577
   22TCq2    C6  340   3.278   0.999  14.995 -0.2493  0.1665 -0.2511
   22TCq2    C7  341   3.368   1.006  14.889  0.6332 -0.5258  0.7438
   22TCq2    C8  342   3.143   1.062  14.995  0.5401  0.1184  0.2046
   22TCq2    O4  343   3.061   1.036  15.080 -0.1490 -0.3257 -0.0670
   22TCq2    C9  344   3.465   0.794  15.242 -0.8529  0.2824  0.1251
   22TCq2    O5  345   3.366   0.753  15.311  0.1841  0.0937 -0.0188
   22TCq2    O6  346   3.583   0.747  15.245 -0.1735  0.1315  0.2117
   22TCq2    H2  347   3.623   0.850  15.042 -0.5829 -0.2221 -1.8580
   22TCq2    H3  348   3.238   0.926  15.197  1.1263 -0.6707  0.6462
   22TCq2    H4  349   3.348   1.070  14.804 -0.1437 -1.4222  0.2450
   23MPD2     C  350   0.249   1.592  14.456 -0.4103 -0.9867  0.2408
   23MPD2    C1  351   0.272   1.659  14.575 -0.0873 -0.2383  0.2701
   23MPD2    C2  352   0.290   1.794  14.577 -0.4793  0.4790  0.3101
   23MPD2    C3  353   0.283   1.879  14.471  0.5542 -0.2025  0.1666
   23MPD2    C4  354   0.247   1.813  14.355 -0.5398  0.1954 -0.4032
   23MPD2    C5  355   0.225   1.676  14.350 -0.2778 -0.4221  0.0220
   23MPD2     H  356   0.322   1.838  14.670  0.5810  2.3771 -0.9493
   23MPD2    H1  357   0.204   1.871  14.273 -0.2237 -1.5350 -1.7787
   23MPD2    H2  358   0.231   1.485  14.451 -0.0042 -1.0941  1.0867
   23MPD2    H3  359   0.180   1.637  14.259  2.7742  1.4991 -2.2808
   23MPD2     N  360   0.304   2.020  14.480  0.7373  0.3211  0.3312
   23MPD2    H5  361   0.274   2.074  14.400  0.2821 -0.8930 -0.3296
   23MPD2    N1  362   0.286   1.597  14.703 -0.0648 -0.9651  0.5586
   23MPD2    H7  363   0.314   1.651  14.784 -0.4410  0.2915 -0.1430
   24TCq2    C1  364   0.363   2.091  14.582 -0.2540 -0.5705  0.5985
   24TCq2    O2  365   0.415   2.049  14.685  0.1592  0.2164 -0.5678
   24TCq2    C2  366   0.352   2.232  14.560 -0.1639 -0.6876  0.3629
   24TCq2    C3  367   0.412   2.303  14.664 -0.0995  0.2436  0.1685
   24TCq2    C4  368   0.379   2.437  14.682  0.6730  0.1069 -0.6353
   24TCq2    C5  369   0.307   2.506  14.591 -0.1880 -0.8773  0.3166
   24TCq2    C6  370   0.254   2.430  14.480 -0.3341  0.4493 -1.1092
   24TCq2    C7  371   0.272   2.291  14.465 -0.0741 -0.3140  0.0095
   24TCq2    C8  372   0.161   2.494  14.392  1.0056 -0.0177 -0.6804
   24TCq2    O4  373   0.188   2.609  14.366  0.0002 -0.3941  0.4390
   24TCq2    C9  374   0.448   2.508  14.788  0.2556 -0.0675 -0.1573
   24TCq2    O5  375   0.435   2.632  14.797  0.0414 -0.2970  0.0868
   24TCq2    O6  376   0.541   2.448  14.842  0.3757  0.0078 -0.5007
   24TCq2    H2  377   0.466   2.258  14.747 -0.3854 -1.6574 -0.6735
   24TCq2    H3  378   0.297   2.613  14.606 -0.9121 -0.9876  0.6283
   24TCq2    H4  379   0.231   2.237  14.381  0.5289 -0.2586 -0.3248
   25TMC2    C1  380   3.723   4.349  11.695 -0.0944 -0.0835  0.6446
   25TMC2    C2  381   3.811   4.436  11.750 -0.5295  0.3255  0.5246
   25TMC2    C3  382   3.788   4.478  11.879  0.2624 -0.6769 -0.1237
   25TMC2    C4  383   3.603   4.318  11.743 -0.4861  0.0952  0.0594
   25TMC2    C5  384   3.579   4.363  11.872 -0.6844 -0.2783 -0.2810
   25TMC2    C6  385   3.664   4.444  11.947  0.0687  0.3191  0.3737
   25TMC2     C  386   3.779   4.259  11.599 -0.2801  0.0219  0.2394
   25TMC2     O  387   3.861   4.302  11.525  0.4134  0.0459 -0.1837
   25TMC2     H  388   3.901   4.449  11.690 -0.6133 -1.7627 -0.0589
   25TMC2    H1  389   3.539   4.253  11.685  1.5609 -0.8063 -1.1904
   25TMC2    H2  390   3.639   4.493  12.040  0.1517  1.3493 -0.1478
   25TMC2    C7  391   3.461   4.330  11.950  0.4408 -0.1996 -0.1711
   25TMC2    C8  392   3.870   4.583  11.936 -0.2135  0.2972 -1.2151
   25TMC2    O1  393   3.449   4.380  12.060  0.2464  0.4260 -0.1557
   25TMC2    O2  394   3.857   4.625  12.050  0.4523 -0.0243 -1.0387
   25TMC2    O5  395   3.972   4.615  11.856  0.0990 -0.1333 -0.3373
   25TMC2    H5  396   3.954   4.589  11.764  2.7801 -1.0945 -0.5819
   26MPD2     C  397   3.823   3.839  11.315 -0.7695  0.3317 -0.0739
   26MPD2    C1  398   3.738   3.811  11.417 -0.0176 -0.1219  0.5120
   26MPD2    C2  399   3.699   3.910  11.509  0.9022 -0.0785  0.5234
   26MPD2    C3  400   3.749   4.039  11.490 -0.3422  0.4427 -0.4357
   26MPD2    C4  401   3.826   4.066  11.380 -0.6018 -0.1397  0.6886
   26MPD2    C5  402   3.864   3.965  11.297  0.4626 -0.4331 -0.4517
   26MPD2     H  403   3.637   3.874  11.590  1.0686  1.8503  1.5307
   26MPD2    H1  404   3.873   4.159  11.352 -0.2911 -0.6818 -0.5986
   26MPD2    H2  405   3.859   3.769  11.240 -1.6452  0.0679 -0.2461
   26MPD2    H3  406   3.921   3.999  11.211  1.2002 -0.4181  0.0518
   26MPD2     N  407   3.709   4.139  11.589  0.2224 -0.2469  0.1301
   26MPD2    H5  408   3.655   4.104  11.668  2.7408 -1.0542  1.4823
   26MPD2    N1  409   3.694   3.677  11.422 -0.4692 -0.7250  0.0618
   26MPD2    H7  410   3.736   3.616  11.352 -0.5270  0.4912 -1.0280
   27TMC2    C1  411   2.578   1.649  12.255 -0.6652 -0.7616 -0.5943
   27TMC2    C2  412   2.471   1.733  12.287 -1.1404  0.3227 -0.0606
   27TMC2    C3  413   2.483   1.868  12.263 -0.4160  0.2446  0.2998
   27TMC2    C4  414   2.692   1.701  12.201  0.6582  0.5944  0.0444
   27TMC2    C5  415   2.695   1.838  12.179 -0.2765 -0.3743 -0.5743
   27TMC2    C6  416   2.592   1.922  12.206 -0.0690 -0.5606 -0.0478
   27TMC2     C  417   2.577   1.521  12.325  0.0962  1.2336 -0.3457
   27TMC2     O  418   2.676   1.451  12.297  0.2056  0.4014  0.0308
   27TMC2     H  419   2.379   1.692  12.326  0.2620 -1.4560  1.3425
   27TMC2    H1  420   2.771   1.644  12.153 -0.8061 -1.6059  0.2364
   27TMC2    H2  421   2.600   2.029  12.193 -0.9597 -0.6694 -1.5989
   27TMC2    C7  422   2.806   1.901  12.107  0.0389  0.2130 -0.0683
   27TMC2    C8  423   2.379   1.956  12.303  0.1000  0.2085  0.7602
   27TMC2    O1  424   2.769   1.991  12.037  0.0684  0.5125  0.4185
   27TMC2    O2  425   2.260   1.942  12.280  0.4241 -0.1902 -0.0309
   27TMC2    O5  426   2.432   2.069  12.364 -0.1088 -0.4183 -0.0961
   27TMC2    H5  427   2.527   2.070  12.387 -0.0972 -1.9025 -0.0783
   28MPD2     C  428   2.414   1.187  12.669  0.1077  0.5515 -0.2393
   28MPD2    C1  429   2.355   1.307  12.702  0.6777  0.2058 -1.0219
   28MPD2    C2  430   2.388   1.420  12.633 -0.2880  0.1401  0.7496
   28MPD2    C3  431   2.472   1.406  12.518 -0.0972  0.3612 -0.0381
   28MPD2    C4  432   2.525   1.282  12.491  0.0864 -0.7899 -0.1048
   28MPD2    C5  433   2.509   1.172  12.574  0.4143  0.2513 -0.4304
   28MPD2     H  434   2.357   1.518  12.667 -1.4244 -0.1134  0.4517
   28MPD2    H1  435   2.589   1.262  12.405 -0.3478  0.5666 -0.7499
   28MPD2    H2  436   2.386   1.105  12.735 -0.0413  0.3012 -0.6145
   28MPD2    H3  437   2.563   1.084  12.542  1.2561  1.5124 -2.4842
   28MPD2     N  438   2.499   1.521  12.440 -0.1334 -0.6407  0.4215
   28MPD2    H5  439   2.452   1.610  12.456 -0.9024 -0.2659 -3.7685
   28MPD2    N1  440   2.276   1.311  12.816  0.3373 -0.1688  0.1197
   28MPD2    H7  441   2.278   1.223  12.867  0.4623 -0.6193 -0.6771
   29MPD2     C  442   2.407   3.961  14.093  0.0348  0.0069  0.0790
   29MPD2    C1  443   2.369   3.941  14.225 -0.0204  0.1904  0.6142
   29MPD2    C2  444   2.354   4.046  14.321  0.6777 -0.0221 -0.0311
   29MPD2    C3  445   2.388   4.169  14.276  0.3453  0.5134  0.5269
   29MPD2    C4  446   2.426   4.190  14.147  0.2404  0.7000  0.1211
   29MPD2    C5  447   2.436   4.088  14.060 -0.3633  0.5527 -0.2871
   29MPD2     H  448   2.338   4.014  14.423  2.0323 -2.4046 -0.5759
   29MPD2    H1  449   2.436   4.290  14.108  0.8686  1.3230  1.8823
   29MPD2    H2  450   2.414   3.885  14.015 -2.8334 -0.5955  0.4188
   29MPD2    H3  451   2.469   4.108  13.958 -3.0890  0.6625 -1.1448
   29MPD2     N  452   2.377   4.277  14.362  0.4142  0.2225  0.1118
   29MPD2    H5  453   2.405   4.370  14.332 -3.6390  1.8125  1.2611
   29MPD2    N1  454   2.354   3.812  14.284 -0.4051 -0.1171  0.3232
   29MPD2    H7  455   2.352   3.806  14.385 -1.7871  0.1159  0.3077
   30TCq2    C1  456   2.321   4.272  14.483  0.0612  0.5131  0.0819
   30TCq2    O2  457   2.264   4.184  14.544  0.0935  0.3909  0.2931
   30TCq2    C2  458   2.351   4.383  14.564  0.8449  0.1082  0.2606
   30TCq2    C3  459   2.254   4.428  14.658  0.1188  0.0621  0.1814
   30TCq2    C4  460   2.263   4.549  14.717 -0.4232 -0.4637  0.3574
   30TCq2    C5  461   2.364   4.633  14.693  0.8110  0.8166 -0.1188
   30TCq2    C6  462   2.459   4.592  14.598  0.5791 -0.1494 -0.5461
   30TCq2    C7  463   2.451   4.474  14.532  0.1123 -0.0258 -0.7275
   30TCq2    C8  464   2.600   4.635  14.618  0.0814 -0.1491 -0.5723
   30TCq2    O4  465   2.688   4.584  14.551  0.0515  0.2684  0.5520
   30TCq2    C9  466   2.168   4.573  14.815 -0.3610 -0.1793 -1.0704
   30TCq2    O5  467   2.182   4.669  14.897 -1.0989  0.0506 -0.1116
   30TCq2    O6  468   2.072   4.488  14.828  0.3954 -0.0913 -0.1624
   30TCq2    H2  469   2.176   4.354  14.673 -0.1464  0.5416  1.1670
   30TCq2    H3  470   2.365   0.013  14.734  0.1139  1.8164 -2.5726
   30TCq2    H4  471   2.530   4.439  14.465 -0.0984  0.7188 -1.3617
   31MPD2     C  472   4.703   2.961  14.857 -1.2231  0.0900 -0.7524
   31MPD2    C1  473   4.608   2.925  14.766 -0.1763 -0.0428 -0.9051
   31MPD2    C2  474   4.512   2.825  14.797  0.3874 -0.5401  0.1369
   31MPD2    C3  475   4.515   2.766  14.921  0.0834 -0.1115  0.1751
   31MPD2    C4  476   4.620   2.790  15.007  0.6470  0.2633  0.1633
   31MPD2    C5  477   4.710   2.891  14.976  0.0914 -0.0450 -0.8178
   31MPD2     H  478   4.428   2.803  14.733 -0.3991  0.9289  0.6745
   31MPD2    H1  479   4.622   2.740  15.103 -1.7906  0.7454  0.4745
   31MPD2    H2  480   0.043   3.048  14.841 -0.7132 -0.1549 -0.1406
   31MPD2    H3  481   0.071   2.929  15.035 -1.5822  1.1369  0.7529
   31MPD2     N  482   4.426   2.673  14.966 -0.2663  0.2456  0.2435
   31MPD2    H5  483   4.459   2.626  15.050 -1.1014  1.8073  1.4386
   31MPD2    N1  484   4.598   2.996  14.648 -0.1798 -0.4772 -0.1132
   31MPD2    H7  485   4.661   3.073  14.631  0.6462 -1.0357  0.4546
   32TCq2    C1  486   4.300   2.651  14.915  0.2871 -0.1195 -0.0809
   32TCq2    O2  487   4.240   2.708  14.822 -0.0139  0.0360 -0.3269
   32TCq2    C2  488   4.216   2.562  14.999  0.0697  0.3388  0.9325
   32TCq2    C3  489   4.079   2.567  14.975  0.0291  0.5244 -0.0141
   32TCq2    C4  490   3.993   2.487  15.047  0.2998 -0.1100  0.7449
   32TCq2    C5  491   4.048   2.413  15.151  0.9247 -0.6173  0.0539
   32TCq2    C6  492   4.179   2.410  15.176 -0.2132  0.7355 -0.1431
   32TCq2    C7  493   4.264   2.491  15.106 -0.0089 -0.4306  0.0269
   32TCq2    C8  494   4.223   2.381  15.306  0.4156  0.1156  0.5115
   32TCq2    O4  495   4.324   2.313  15.315 -0.2290 -0.4735 -0.6249
   32TCq2    C9  496   3.854   2.476  15.001 -0.0178 -0.1999 -0.6761
   32TCq2    O5  497   3.789   2.397  15.067 -0.4285  0.7878  0.5536
   32TCq2    O6  498   3.800   2.558  14.928  0.5639 -0.1191  0.1598
   32TCq2    H2  499   4.038   2.624  14.892  1.5257 -1.4747 -2.1307
   32TCq2    H3  500   3.977   2.345  15.196 -2.1016  2.2023 -0.4563
   32TCq2    H4  501   4.368   2.494  15.133 -0.1348 -2.2733  0.6944
   33MPD2     C  502   4.633   4.398   9.989 -0.0559  0.1935 -0.4675
   33MPD2    C1  503   0.021   4.464   9.957 -0.4737 -0.7021  0.6497
   33MPD2    C2  504   0.072   4.454   9.828  0.6640 -0.6907  0.1978
   33MPD2    C3  505   4.707   4.401   9.733  0.6411  0.8256 -0.4203
   33MPD2    C4  506   4.591   4.341   9.770 -0.1431 -0.5244  0.3369
   33MPD2    C5  507   4.559   4.320   9.901 -0.0590 -0.2673  0.3243
   33MPD2     H  508   0.162   4.509   9.802  0.9094 -0.8578  0.6829
   33MPD2    H1  509   4.536   4.300   9.686 -1.1429 -1.7858  1.6032
   33MPD2    H2  510   4.605   4.410  10.093  1.0690 -3.6785  0.2906
   33MPD2    H3  511   4.465   4.276   9.932 -0.0898 -0.9867 -0.8141
   33MPD2     N  512   0.009   4.407   9.593  0.3509 -0.0166 -0.4261
   33MPD2    H5  513   4.679   4.348   9.528  1.9819 -2.4026  0.4644
   33MPD2    N1  514   0.073   4.549  10.064 -0.1825 -0.7569  0.0820
   33MPD2    H7  515   0.008   4.565  10.141 -0.4503 -0.1437 -0.2709
   34TCq2    C1  516   0.103   4.485   9.531  0.4361  0.4148  0.1956
   34TCq2    O2  517   0.174   4.577   9.574 -0.0004  0.0335 -0.0518
   34TCq2    C2  518   0.098   4.473   9.388  0.2577  0.3625 -0.2616
   34TCq2    C3  519   0.003   4.402   9.322  0.0374  0.6215  0.0845
   34TCq2    C4  520   4.706   4.425   9.184  0.1847 -0.2685  0.3630
   34TCq2    C5  521   0.066   4.511   9.113  0.1512 -0.5193  0.2339
   34TCq2    C6  522   0.172   4.562   9.180  0.4602  0.6263  0.8655
   34TCq2    C7  523   0.188   4.541   9.312 -0.0538  0.4729  0.5544
   34TCq2    C8  524   0.246   4.685   9.131  0.2900 -0.0990  0.0105
   34TCq2    O4  525   0.364   4.674   9.160 -0.9203 -0.1783  0.4690
   34TCq2    C9  526   4.595   4.359   9.125  0.9598 -0.0181  0.0273
   34TCq2    O5  527   4.522   4.285   9.200  0.1651  0.8877 -0.4834
   34TCq2    O6  528   4.569   4.393   9.006 -0.1476 -0.0799 -0.5657
   34TCq2    H2  529   4.653   4.339   9.373  1.5509 -0.8959  0.3442
   34TCq2    H3  530   0.044   4.531   9.008  0.3936 -0.0251  0.2749
   34TCq2    H4  531   0.256   4.610   9.362  0.4895  2.7372 -3.3387
   35MPD2     C  532   2.328   1.391  11.917 -0.3968  0.6070  0.2115
   35MPD2    C1  533   2.242   1.490  11.885  0.4239 -0.1049  0.0231
   35MPD2    C2  534   2.214   1.514  11.752  0.3898 -0.6493 -0.9046
   35MPD2    C3  535   2.265   1.431  11.652 -0.1876  0.0442  0.1075
   35MPD2    C4  536   2.344   1.329  11.685  0.5788 -0.1123  0.1809
   35MPD2    C5  537   2.379   1.314  11.814 -0.4682  0.1341 -0.8290
   35MPD2     H  538   2.154   1.601  11.728  2.2450  0.6935 -0.6562
   35MPD2    H1  539   2.400   1.276  11.608 -0.4370 -0.2975 -0.4402
   35MPD2    H2  540   2.351   1.361  12.019 -1.6384  0.9526  0.5918
   35MPD2    H3  541   2.448   1.237  11.843 -0.0921  0.7367 -0.1305
   35MPD2     N  542   2.224   1.463  11.517 -0.3338  0.0401 -0.9631
   35MPD2    H5  543   2.155   1.537  11.515  1.3699  1.6156 -1.7313
   35MPD2    N1  544   2.175   1.569  11.982  0.2702  0.2925 -0.5223
   35MPD2    H7  545   2.128   1.649  11.940  0.4832  0.5047 -0.3559
   36TCq2    C1  546   2.274   1.412  11.401 -0.5978 -0.6868 -0.3032
   36TCq2    O2  547   2.353   1.325  11.382  0.0171 -0.1972 -0.3299
   36TCq2    C2  548   2.194   1.466  11.292 -0.5159 -0.5704 -0.0429
   36TCq2    C3  549   2.127   1.585  11.314  0.6625  0.1249 -0.1696
   36TCq2    C4  550   2.015   1.613  11.242 -0.1989 -0.1776 -0.4507
   36TCq2    C5  551   1.960   1.521  11.161  0.4823 -0.3277 -0.0893
   36TCq2    C6  552   2.029   1.397  11.149  0.2179  0.9246 -0.3595
   36TCq2    C7  553   2.152   1.367  11.207  0.0179  0.3254  0.3263
   36TCq2    C8  554   1.954   1.288  11.090  0.0622  0.3532  0.2380
   36TCq2    O4  555   1.832   1.301  11.113 -0.7073 -0.2284  0.5756
   36TCq2    C9  556   1.953   1.737  11.279  0.3697  0.1750  0.1554
   36TCq2    O5  557   2.028   1.827  11.328 -0.5621  0.0059  0.0406
   36TCq2    O6  558   1.828   1.730  11.284 -0.2434 -0.3240 -0.4792
   36TCq2    H2  559   2.180   1.666  11.363  0.7699  0.0380 -0.1425
   36TCq2    H3  560   1.876   1.557  11.104  0.4422  0.5559  0.5295
   36TCq2    H4  561   2.189   1.266  11.217  1.6313  0.7687 -1.0683
   37TMC2    C1  562   3.869   1.331  11.333  0.0313 -0.3035 -0.3231
   37TMC2    C2  563   3.859   1.256  11.224 -0.9124  0.1527  0.1192
   37TMC2    C3  564   3.956   1.267  11.124  0.0118  0.2779  0.7126
   37TMC2    C4  565   3.986   1.401  11.355 -0.5707 -0.2556 -0.1135
   37TMC2    C5  566   4.087   1.403  11.255  0.0129  0.0852  0.2787
   37TMC2    C6  567   4.075   1.333  11.143 -0.1658  0.8251 -0.2360
   37TMC2     C  568   3.749   1.348  11.422 -0.2629  0.3406  0.4600
   37TMC2     O  569   3.662   1.261  11.422  0.2853 -0.0820  0.0739
   37TMC2     H  570   3.766   1.204  11.203 -0.9876  0.1084  0.5610
   37TMC2    H1  571   4.000   1.455  11.448  0.5483 -0.4875 -0.1420
   37TMC2    H2  572   4.144   1.349  11.061  0.1579  0.2376 -0.0802
   37TMC2    C7  573   4.219   1.448  11.303 -0.0527 -0.4472  0.2926
   37TMC2    C8  574   3.943   1.194  11.003 -0.3855  0.7782 -0.5332
   37TMC2    O1  575   4.219   1.543  11.384 -0.7687 -0.7732  0.8626
   37TMC2    O2  576   4.039   1.122  10.975 -0.0212  0.2919  0.6212
   37TMC2    O5  577   3.818   1.144  11.002  0.3922  0.4590  0.7099
   37TMC2    H5  578   3.746   1.209  10.989 -1.9659 -2.0839  1.0644
   38MPD2     C  579   3.541   1.556  11.838 -0.2633 -0.2497 -0.3317
   38MPD2    C1  580   3.668   1.609  11.821 -0.2535 -0.5919  0.2496
   38MPD2    C2  581   3.743   1.563  11.711  0.0556  0.0746 -0.0278
   38MPD2    C3  582   3.683   1.484  11.616  0.8402 -0.0548 -0.1125
   38MPD2    C4  583   3.564   1.425  11.642  0.4348 -0.5479 -0.1904
   38MPD2    C5  584   3.489   1.466  11.749  0.5328 -0.3247 -0.1732
   38MPD2     H  585   3.840   1.610  11.699  0.0245  0.2063  0.2244
   38MPD2    H1  586   3.517   1.353  11.576  1.8839 -0.4791 -1.3174
   38MPD2    H2  587   3.473   1.588  11.916  2.3819 -1.6395  2.5348
   38MPD2    H3  588   3.390   1.427  11.770  0.8591 -0.8003  0.4887
   38MPD2     N  589   3.761   1.453  11.506 -0.0717  0.1086 -0.7087
   38MPD2    H5  590   3.841   1.514  11.491 -1.9387  1.8170 -3.7465
   38MPD2    N1  591   3.728   1.711  11.907 -0.8524 -0.4494 -0.2306
   38MPD2    H7  592   3.822   1.740  11.881 -0.3955 -0.7676  1.0635
   39MPD2     C  593   1.080   3.212   1.798  0.0827  0.0737  0.8991
   39MPD2    C1  594   0.990   3.311   1.827  0.3908  0.2234 -0.4475
   39MPD2    C2  595   0.867   3.298   1.770  0.4515 -0.0403 -0.4803
   39MPD2    C3  596   0.833   3.200   1.675 -0.1608 -0.3407  0.8256
   39MPD2    C4  597   0.923   3.098   1.655  0.0137 -0.0028 -0.3996
   39MPD2    C5  598   1.043   3.104   1.722 -0.1392  0.0870 -0.2501
   39MPD2     H  599   0.794   3.377   1.783  1.3299  0.3591  2.0043
   39MPD2    H1  600   0.904   3.015   1.587  1.9148  0.8468 -1.9484
   39MPD2    H2  601   1.178   3.220   1.843  0.1035 -1.8437  1.2141
   39MPD2    H3  602   1.116   3.034   1.684 -1.7650 -1.0620 -1.2562
   39MPD2     N  603   0.712   3.202   1.601  1.4452 -0.6205  0.5531
   39MPD2    H5  604   0.706   3.135   1.525 -0.4324 -0.6237  0.7057
   39MPD2    N1  605   1.030   3.420   1.908  0.2169 -0.4350 -0.3136
   39MPD2    H7  606   1.129   3.424   1.931  0.3350 -0.6333 -0.7749
   40TCq2    C1  607   0.943   3.518   1.947 -0.4013 -1.0320  0.3371
   40TCq2    O2  608   0.819   3.519   1.951 -0.5390  0.8432 -0.0696
   40TCq2    C2  609   1.001   3.633   2.018 -0.0177  0.2368  0.6987
   40TCq2    C3  610   0.928   3.748   2.007 -0.1621 -0.3007 -0.0581
   40TCq2    C4  611   0.982   3.868   2.017 -0.3986 -0.0275  0.9000
   40TCq2    C5  612   1.120   3.883   2.027  0.4811  0.2308  0.2465
   40TCq2    C6  613   1.196   3.767   2.030 -0.1324 -0.0312 -0.2322
   40TCq2    C7  614   1.135   3.643   2.039 -0.3258 -0.0499  0.0099
   40TCq2    C8  615   1.340   3.778   2.042 -0.4540  0.0881  0.2361
   40TCq2    O4  616   1.393   3.690   2.112 -0.1861 -0.2782  0.5757
   40TCq2    C9  617   0.911   3.984   2.031 -0.7457 -0.1106  0.2399
   40TCq2    O5  618   0.980   4.092   2.018 -0.3548  0.2066 -0.5370
   40TCq2    O6  619   0.789   3.970   2.067 -0.3278  0.6405 -0.1948
   40TCq2    H2  620   0.820   3.740   2.002 -0.1564 -0.4839  0.0800
   40TCq2    H3  621   1.168   3.981   2.025 -0.5354  0.6747 -2.4807
   40TCq2    H4  622   1.199   3.557   2.053 -0.2848 -0.1473 -0.7905
   41TMC2    C1  623   1.032   2.144  13.860 -0.0728  0.1267 -0.5143
   41TMC2    C2  624   1.053   2.267  13.929  0.0594 -0.0463  0.3602
   41TMC2    C3  625   1.088   2.371  13.859 -0.3666  0.4344 -0.0328
   41TMC2    C4  626   1.046   2.129  13.726 -0.8799 -0.4014  0.3531
   41TMC2    C5  627   1.063   2.246  13.661  0.2917  0.1744 -0.4510
   41TMC2    C6  628   1.089   2.365  13.723 -0.8123 -0.6447  0.0131
   41TMC2     C  629   1.047   2.026  13.940 -0.1791  0.3799 -0.6489
   41TMC2     O  630   1.094   1.925  13.889 -0.2199 -0.8706 -0.0786
   41TMC2     H  631   1.052   2.282  14.036  2.7397 -1.1835  0.5567
   41TMC2    H1  632   1.024   2.035  13.677  0.3168 -0.0874 -0.7678
   41TMC2    H2  633   1.115   2.441  13.651 -0.4392 -0.7536  0.0354
   41TMC2    C7  634   1.035   2.257  13.522 -0.4129 -0.3817 -0.1457
   41TMC2    C8  635   1.123   2.484  13.920  0.0859 -0.1304  0.4831
   41TMC2    O1  636   0.964   2.354  13.488  0.6510 -0.0853  0.1151
   41TMC2    O2  637   1.108   2.504  14.041 -0.1303  0.5912  0.2486
   41TMC2    O5  638   1.211   2.555  13.853  0.3976 -0.4876 -0.1212
   41TMC2    H5  639   1.238   2.523  13.764 -0.1382  1.1655 -0.8879
   42MPD2     C  640   1.094   1.839  14.162 -0.5645  0.2854 -0.5589
   42MPD2    C1  641   1.037   1.957  14.180  0.2392  0.2051  0.2054
   42MPD2    C2  642   1.016   2.002  14.305  0.2650  0.1700  0.4174
   42MPD2    C3  643   1.054   1.938  14.416  0.4809  0.5270  0.3621
   42MPD2    C4  644   1.122   1.822  14.402 -0.0283  0.1009 -0.0631
   42MPD2    C5  645   1.142   1.779  14.276 -0.3176 -0.0510  0.0130
   42MPD2     H  646   0.962   2.096  14.316 -0.3874 -0.0879 -0.5807
   42MPD2    H1  647   1.164   1.765  14.485  0.4876  1.9905  0.9787
   42MPD2    H2  648   1.108   1.786  14.069 -0.1051 -1.0336  0.2462
   42MPD2    H3  649   1.186   1.682  14.258 -2.2334 -0.3266 -3.1380
   42MPD2     N  650   1.035   1.998  14.542  0.3819  0.3083 -0.1305
   42MPD2    H5  651   0.992   2.090  14.542  2.4955  1.2804  3.2411
   42MPD2    N1  652   1.011   2.039  14.073 -0.2374 -0.5283  0.6702
   42MPD2    H7  653   0.969   2.129  14.095  2.8886  0.4894  2.3877
   43MPD2     C  654   1.924   0.596   0.938  0.2619 -0.0618  0.1686
   43MPD2    C1  655   1.903   0.485   1.011 -0.3560 -0.0029 -0.2059
   43MPD2    C2  656   1.863   0.494   1.142  0.1733 -0.0331  1.0860
   43MPD2    C3  657   1.858   0.617   1.201 -0.0960 -0.4065 -0.7209
   43MPD2    C4  658   1.877   0.730   1.128  0.5072  0.0941 -0.7327
   43MPD2    C5  659   1.909   0.720   0.998  0.1584 -0.5424  1.2279
   43MPD2     H  660   1.832   0.401   1.189  0.7559  0.9619  3.4268
   43MPD2    H1  661   1.855   0.826   1.173 -1.5835  0.3572 -2.3136
   43MPD2    H2  662   1.927   0.592   0.829 -4.0475 -1.0948  0.0900
   43MPD2    H3  663   1.912   0.810   0.938  1.5257 -0.6635  1.1065
   43MPD2     N  664   1.831   0.628   1.341 -0.2588  0.1251 -0.7765
   43MPD2    H5  665   1.812   0.721   1.374 -0.2265  0.0097 -0.4357
   43MPD2    N1  666   1.895   0.354   0.956 -0.4401  0.1719 -0.3479
   43MPD2    H7  667   1.860   0.278   1.012 -1.4017 -0.3882 -1.7259
   44TCq2    C1  668   1.634   0.795   1.774  0.2899 -0.0464 -0.3732
   44TCq2    O2  669   1.588   0.874   1.692 -0.5160  0.0096 -0.2267
   44TCq2    C2  670   1.742   0.708   1.732 -0.4849  0.5882  0.0609
   44TCq2    C3  671   1.822   0.648   1.830 -0.4729  0.4486 -0.6407
   44TCq2    C4  672   1.910   0.555   1.787  0.8140 -0.1938 -0.1806
   44TCq2    C5  673   1.904   0.505   1.661  0.7902  0.0571  0.6661
   44TCq2    C6  674   1.830   0.566   1.568 -0.2308  0.2316 -0.8075
   44TCq2    C7  675   1.754   0.675   1.599  0.5951 -0.4803  0.4580
   44TCq2    C8  676   1.841   0.519   1.430  0.4713 -0.5367  0.3263
   44TCq2    O4  677   1.872   0.404   1.412 -0.2188  0.2397 -0.3599
   44TCq2    C9  678   2.002   0.481   1.884 -0.9046  0.1084  0.4926
   44TCq2    O5  679   2.072   0.385   1.833  0.4681 -0.2566  0.1462
   44TCq2    O6  680   1.976   0.492   2.004  0.1282 -0.4770 -0.0516
   44TCq2    H2  681   1.819   0.677   1.934 -5.1960  0.1874 -0.6979
   44TCq2    H3  682   1.968   0.421   1.638  0.2830 -0.1150 -0.1074
   44TCq2    H4  683   1.688   0.719   1.525  0.9650  0.4219  0.6561
   45TMC2    C1  684   3.835   1.840  10.003 -0.8111 -0.7094 -0.0316
   45TMC2    C2  685   3.913   1.900   9.912 -0.3993 -0.0901 -0.2891
   45TMC2    C3  686   3.968   2.023   9.945  0.5017 -0.5896  0.7552
   45TMC2    C4  687   3.820   1.882  10.134 -0.1868 -0.5816  0.8490
   45TMC2    C5  688   3.899   1.983  10.170  0.0037  0.4805 -0.4376
   45TMC2    C6  689   3.963   2.061  10.080 -0.6208 -0.1277  0.1532
   45TMC2     C  690   3.754   1.734   9.942 -0.5405  0.2500 -0.7618
   45TMC2     O  691   3.743   1.721   9.824  0.3749 -0.1121 -0.3001
   45TMC2     H  692   3.908   1.865   9.809  0.1050 -0.6231 -0.1296
   45TMC2    H1  693   3.752   1.829  10.199 -1.7285 -0.2636 -0.5056
   45TMC2    H2  694   4.023   2.144  10.117  0.5676 -0.3174 -1.3376
   45TMC2    C7  695   3.911   2.032  10.306  0.1321  0.4000  0.2672
   45TMC2    C8  696   4.067   2.082   9.856 -0.5140 -0.4362 -0.6210
   45TMC2    O1  697   3.941   2.149  10.326  0.2507 -0.0392  0.4164
   45TMC2    O2  698   4.101   2.200   9.872  0.0898  0.1173 -0.2601
   45TMC2    O5  699   4.160   1.986   9.871 -0.7988  0.6188  0.3169
   45TMC2    H5  700   4.119   1.897   9.878 -0.2735  0.3048 -0.4948
   46MPD2     C  701   3.618   1.435  10.114 -0.2933 -0.4790 -0.0726
   46MPD2    C1  702   3.635   1.529  10.012 -0.8366  0.5096  0.0976
   46MPD2    C2  703   3.570   1.501   9.893 -0.1571  0.7311 -0.5705
   46MPD2    C3  704   3.507   1.378   9.874 -0.6056  0.1041  0.1435
   46MPD2    C4  705   3.501   1.282   9.974 -0.2646  0.1990 -0.4247
   46MPD2    C5  706   3.561   1.310  10.097 -0.2529  0.0447 -0.4931
   46MPD2     H  707   3.577   1.563   9.804 -0.1222  2.0454  0.3387
   46MPD2    H1  708   3.451   1.186   9.969  2.1315 -0.9437 -2.7603
   46MPD2    H2  709   3.653   1.443  10.216 -0.9668 -3.3361  0.3623
   46MPD2    H3  710   3.540   1.249  10.185  0.2718  0.1716 -0.2779
   46MPD2     N  711   3.451   1.365   9.741 -0.0293  0.1236  0.0870
   46MPD2    H5  712   3.460   1.445   9.679  2.3302  1.3075  1.9306
   46MPD2    N1  713   3.712   1.647  10.037 -0.1181 -0.3166  0.4232
   46MPD2    H7  714   3.754   1.656  10.130 -1.8387  2.0869  0.9377
   47TMC2    C1  715   0.398   1.657   9.153  0.2413 -0.5981  0.5683
   47TMC2    C2  716   0.454   1.589   9.044 -0.0633  0.1546  0.0334
   47TMC2    C3  717   0.386   1.567   8.929 -0.2377 -0.9351  0.0554
   47TMC2    C4  718   0.288   1.720   9.122 -0.3264  0.7696 -0.0497
   47TMC2    C5  719   0.225   1.718   9.001  0.6740 -0.0189  0.0350
   47TMC2    C6  720   0.265   1.628   8.907  0.4057 -1.2188  0.5412
   47TMC2     C  721   0.484   1.700   9.262 -0.4333  0.7372  0.1825
   47TMC2     O  722   0.433   1.758   9.356 -0.0994  0.2067 -0.1608
   47TMC2     H  723   0.532   1.516   9.065  2.7268  2.9897 -0.4551
   47TMC2    H1  724   0.242   1.784   9.196 -0.9879 -2.2737  2.1459
   47TMC2    H2  725   0.207   1.601   8.819 -0.1181  1.8117 -0.0659
   47TMC2    C7  726   0.094   1.761   8.987 -0.5182  0.4412 -0.8166
   47TMC2    C8  727   0.453   1.487   8.831 -0.2400 -0.4188 -0.5478
   47TMC2    O1  728   0.036   1.740   8.885 -0.5072 -0.0612  0.2593
   47TMC2    O2  729   0.573   1.495   8.813  0.5223  0.0635 -0.3014
   47TMC2    O5  730   0.361   1.408   8.771 -0.3150 -0.3058 -0.0990
   47TMC2    H5  731   0.274   1.408   8.816 -0.4173  1.5764 -0.3066
   48MPD2     C  732   0.686   1.732   9.480  0.6389  0.4371  0.2127
   48MPD2    C1  733   0.709   1.677   9.355 -0.3664 -0.5020  0.3354
   48MPD2    C2  734   0.840   1.641   9.317 -0.2572  0.0356  0.0839
   48MPD2    C3  735   0.946   1.659   9.402  0.3700 -0.0162 -0.4694
   48MPD2    C4  736   0.915   1.710   9.523 -0.4202  0.0683 -0.2892
   48MPD2    C5  737   0.791   1.748   9.571 -0.0927  0.0787 -0.0394
   48MPD2     H  738   0.861   1.607   9.216  1.3875 -2.7509  1.3643
   48MPD2    H1  739   0.995   1.732   9.593 -1.0083 -0.0646  0.4291
   48MPD2    H2  740   0.591   1.763   9.523  0.8592  0.3666  0.7447
   48MPD2    H3  741   0.771   1.783   9.671 -1.3015 -1.7496  0.3537
   48MPD2     N  742   1.077   1.627   9.360 -0.1380 -0.2337  0.2343
   48MPD2    H5  743   1.084   1.579   9.271  0.1990  1.7991 -0.8206
   48MPD2    N1  744   0.613   1.659   9.258 -0.2190  0.2031 -0.0715
   48MPD2    H7  745   0.637   1.606   9.175 -0.1615 -0.6959  0.5069
   49MPD2     C  746   4.097   4.630  10.208  0.0137  0.9885  0.5088
   49MPD2    C1  747   3.978   4.570  10.236  0.1260 -0.1727  0.5351
   49MPD2    C2  748   3.942   4.541  10.369 -0.0880 -0.4604  0.5671
   49MPD2    C3  749   4.036   4.566  10.473  0.4801 -0.1323  0.2113
   49MPD2    C4  750   4.156   4.627  10.433 -0.0938  0.6111 -0.3951
   49MPD2    C5  751   4.187   4.654  10.305 -1.1275 -0.0388 -0.0561
   49MPD2     H  752   3.842   4.502  10.386 -0.4913  1.1122  1.8524
   49MPD2    H1  753   4.243   4.647  10.495 -0.1919  1.2625 -0.4752
   49MPD2    H2  754   4.134   4.652  10.109 -1.7129  0.7195 -0.1967
   49MPD2    H3  755   4.283   4.701  10.290 -0.4280 -1.3763  0.2454
   49MPD2     N  756   4.012   4.535  10.611 -0.0628  0.5490  0.1260
   49MPD2    H5  757   4.093   4.553  10.669  1.4691 -0.3736 -1.7306
   49MPD2    N1  758   3.892   4.535  10.132  0.0931  0.0706 -0.1751
   49MPD2    H7  759   3.815   4.473  10.154  0.6265 -1.1822 -1.8861
   50TCq2    C1  760   3.900   4.580  10.002  0.1344 -0.4969  0.4644
   50TCq2    O2  761   3.961   4.676   9.962  0.9425  1.0337  0.5780
   50TCq2    C2  762   3.835   4.495   9.900 -0.3222 -0.3216 -0.1253
   50TCq2    C3  763   3.845   4.529   9.767 -0.1284  0.0366 -0.7972
   50TCq2    C4  764   3.783   4.454   9.672 -0.1179  0.0102  0.7185
   50TCq2    C5  765   3.688   4.357   9.706 -0.1531  0.1535 -0.5038
   50TCq2    C6  766   3.683   4.321   9.844  0.2188 -0.6486  0.1117
   50TCq2    C7  767   3.744   4.398   9.942 -0.0961 -0.3690  0.3072
   50TCq2    C8  768   3.618   4.198   9.898 -0.3593  0.7957 -0.1706
   50TCq2    O4  769   3.624   4.162  10.012  0.9102 -0.7118 -0.3121
   50TCq2    C9  770   3.808   4.484   9.532  0.3749 -0.3308  0.3626
   50TCq2    O5  771   3.739   4.416   9.446  0.4190  0.3193  0.4976
   50TCq2    O6  772   3.887   4.578   9.500  0.6975 -0.9952  0.1412
   50TCq2    H2  773   3.909   4.612   9.738  2.0863 -1.3014  0.2258
   50TCq2    H3  774   3.642   4.302   9.625  0.5582 -0.0749 -0.7543
   50TCq2    H4  775   3.724   4.375  10.046  2.0130  0.0057  0.7819
   51MPD2     C  776   4.183   2.260   1.563  0.2334 -0.1102 -0.3328
   51MPD2    C1  777   4.083   2.295   1.472  0.4278  0.2753 -0.4341
   51MPD2    C2  778   3.968   2.364   1.515  0.3358  0.0953 -0.1791
   51MPD2    C3  779   3.948   2.380   1.648 -0.2923  0.0260 -0.6586
   51MPD2    C4  780   4.043   2.334   1.741  0.1244 -0.3008  0.3522
   51MPD2    C5  781   4.158   2.272   1.696  0.3910  0.5627 -0.4363
   51MPD2     H  782   3.893   2.392   1.441 -0.5116 -0.3350  0.5149
   51MPD2    H1  783   4.038   2.343   1.849 -0.3732 -1.2369  0.4034
   51MPD2    H2  784   4.273   2.206   1.537  1.8642  2.1992  0.4845
   51MPD2    H3  785   4.230   2.233   1.766  0.4569 -1.2329 -1.5256
   51MPD2     N  786   3.837   2.450   1.698 -0.2693 -0.1076 -0.1979
   51MPD2    H5  787   3.848   2.477   1.796  0.3642 -0.1497 -0.2584
   51MPD2    N1  788   4.093   2.267   1.335  0.7208  0.1086  0.6048
   51MPD2    H7  789   4.009   2.290   1.283  0.2587  0.6285  1.5755
   52TCq2    C1  790   3.740   2.517   1.624 -0.7920 -0.1700 -0.5756
   52TCq2    O2  791   3.719   2.528   1.507  0.2321 -0.0871  0.0177
   52TCq2    C2  792   3.648   2.583   1.711  0.4333  0.2776  0.3502
   52TCq2    C3  793   3.618   2.545   1.837  0.2634  0.2473  0.8100
   52TCq2    C4  794   3.541   2.622   1.916 -0.2991 -0.2745 -0.1923
   52TCq2    C5  795   3.474   2.727   1.861 -0.4619 -0.0912  0.3553
   52TCq2    C6  796   3.487   2.755   1.731  0.4208  0.6200 -0.0308
   52TCq2    C7  797   3.581   2.697   1.659 -0.2287  0.2473 -0.0739
   52TCq2    C8  798   3.442   2.889   1.687 -0.2346 -0.4248 -0.1228
   52TCq2    O4  799   3.503   2.944   1.595  0.2484 -0.6393 -0.0307
   52TCq2    C9  800   3.520   2.579   2.048 -0.0058 -0.1573  0.0481
   52TCq2    O5  801   3.586   2.484   2.098 -0.3230 -0.3676  0.2693
   52TCq2    O6  802   3.450   2.656   2.121 -0.0367  0.1205 -0.0972
   52TCq2    H2  803   3.665   2.457   1.879  0.5300  0.2050  0.4284
   52TCq2    H3  804   3.417   2.788   1.929 -0.7697  1.9816 -1.7393
   52TCq2    H4  805   3.603   2.741   1.563  2.8955 -0.4088  0.3704
   53TMC2    C1  806   0.138   1.616  11.699 -0.4299 -0.6404  0.2497
   53TMC2    C2  807   0.264   1.607  11.747  0.1717 -0.4464 -0.6061
   53TMC2    C3  808   0.295   1.680  11.857 -0.2205  0.0834  0.1115
   53TMC2    C4  809   0.044   1.694  11.761 -0.0043  0.5052 -0.6493
   53TMC2    C5  810   0.078   1.755  11.879 -0.4490  0.3924  0.4188
   53TMC2    C6  811   0.206   1.754  11.925 -0.1091  0.8214 -0.4990
   53TMC2     C  812   0.111   1.549  11.567 -0.0281 -0.0191  0.2781
   53TMC2     O  813   0.210   1.486  11.528 -0.3187 -0.1605 -0.2726
   53TMC2     H  814   0.340   1.547  11.699  1.0500 -1.6458  2.2501
   53TMC2    H1  815   4.662   1.701  11.728 -0.2150 -1.2543 -0.3984
   53TMC2    H2  816   0.233   1.807  12.016 -2.4902  2.1367 -0.5477
   53TMC2    C7  817   4.700   1.844  11.941 -0.0745  0.6635  0.2473
   53TMC2    C8  818   0.436   1.697  11.907 -0.0170 -0.7521 -0.0598
   53TMC2    O1  819   4.603   1.882  11.881  0.3891  0.0321  0.6138
   53TMC2    O2  820   0.463   1.803  11.960 -0.0252  0.0364 -0.6256
   53TMC2    O5  821   0.511   1.622  11.825  0.1843  0.3624  0.0076
   53TMC2    H5  822   0.497   1.525  11.832  0.8831  0.3619  1.4688
   54MPD2     C  823   4.720   1.406  11.330  0.1898 -0.2253 -0.5061
   54MPD2    C1  824   4.643   1.485  11.409 -0.2631  0.0350  0.5204
   54MPD2    C2  825   4.507   1.477  11.381  0.6814 -0.4051 -0.7470
   54MPD2    C3  826   4.456   1.400  11.280  0.0673  0.2780 -0.3089
   54MPD2    C4  827   4.542   1.326  11.199 -0.5408  0.3563  0.2957
   54MPD2    C5  828   4.673   1.333  11.230  0.1425  0.0998  0.2605
   54MPD2     H  829   4.436   1.534  11.440 -0.2330 -2.2090 -0.1247
   54MPD2    H1  830   4.520   1.262  11.115  1.5821  1.1263 -0.8370
   54MPD2    H2  831   0.106   1.400  11.344  0.0912 -1.0224 -0.1299
   54MPD2    H3  832   0.018   1.286  11.158 -1.9817 -1.5799 -0.5629
   54MPD2     N  833   4.322   1.378  11.252 -0.0907 -0.0778  0.2320
   54MPD2    H5  834   4.301   1.309  11.180  0.0752 -1.8865  1.8837
   54MPD2    N1  835   4.700   1.557  11.519 -0.4209 -0.9134 -0.2600
   54MPD2    H7  836   4.635   1.623  11.560 -1.1206 -0.1963 -2.5384
   55MPD2     C  837   0.036   4.226  17.547  0.7164 -0.0356  0.4604
   55MPD2    C1  838   0.011   4.247  17.683 -0.8837 -0.0931 -0.6840
   55MPD2    C2  839   4.688   4.373   0.029  0.9553 -0.3798 -0.6671
   55MPD2    C3  840   4.671   4.473  17.627 -0.6899  0.7084 -0.1491
   55MPD2    C4  841   4.690   4.449  17.491  1.0006 -0.3490 -0.0172
   55MPD2    C5  842   0.003   4.318  17.457 -0.0618 -0.0985 -0.6397
   55MPD2     H  843   4.680   4.404   0.133  2.9241  1.1681 -0.9674
   55MPD2    H1  844   4.661   4.510  17.406 -0.2684  0.8151  1.2609
   55MPD2    H2  845   0.074   4.130  17.514  0.9433  0.1724  0.1199
   55MPD2    H3  846   0.017   4.283  17.355 -2.1417  1.7770 -1.5549
   55MPD2     N  847   4.623   4.601  17.673  0.0034  0.1369 -0.7260
   55MPD2    H5  848   4.615   4.633   0.082  1.6179 -0.4071 -0.4186
   55MPD2    N1  849   0.036   4.142   0.089 -0.1150  0.4559 -0.1236
   55MPD2    H7  850   0.065   4.051   0.054 -1.0704  0.0943  0.0167
   56TCq2    C1  851   0.007   4.151   0.222  0.4497 -0.2055 -0.1110
   56TCq2    O2  852   4.686   4.251   0.286  0.1447 -0.2956  0.4516
   56TCq2    C2  853   0.046   4.047   0.308  0.1969 -0.0888 -0.0441
   56TCq2    C3  854   0.139   3.955   0.267 -0.1943 -0.1550 -0.5629
   56TCq2    C4  855   0.182   3.858   0.352  0.4958  0.4331  0.0709
   56TCq2    C5  856   0.153   3.872   0.482 -0.3134 -0.0746  0.2219
   56TCq2    C6  857   0.083   3.977   0.525  0.1134 -0.1831 -0.2588
   56TCq2    C7  858   0.017   4.062   0.440  0.4459  0.2947 -0.0409
   56TCq2    C8  859   0.080   3.998   0.668  0.3896  0.3089  0.1724
   56TCq2    O4  860   0.121   3.904   0.742  0.9351 -0.4464  0.2736
   56TCq2    C9  861   0.280   3.761   0.312  0.5463  0.4553  0.5335
   56TCq2    O5  862   0.316   3.768   0.191  0.4928 -0.7203 -0.5220
   56TCq2    O6  863   0.332   3.694   0.408  0.3610 -0.0195 -0.0784
   56TCq2    H2  864   0.167   3.945   0.163  0.7323  2.7811 -0.6049
   56TCq2    H3  865   0.208   3.814   0.556 -0.7826 -2.2435 -1.1397
   56TCq2    H4  866   4.674   4.141   0.477 -0.4551  1.1088 -3.3876
   57TMC2    C1  867   3.754   0.922  13.831  0.1288 -0.0127  0.2529
   57TMC2    C2  868   3.874   0.973  13.792  0.1382  0.0181  0.9311
   57TMC2    C3  869   3.936   0.907  13.690  0.2993 -0.6483  0.0191
   57TMC2    C4  870   3.708   0.801  13.787  0.3718  0.1710  0.0930
   57TMC2    C5  871   3.771   0.735  13.685  0.2225  0.1532 -0.1222
   57TMC2    C6  872   3.889   0.788  13.638  0.1912  0.2916  0.4024
   57TMC2     C  873   3.707   0.961  13.961 -0.2279  0.0971  0.3819
   57TMC2     O  874   3.703   1.080  13.983 -0.1751  0.1698  0.6099
   57TMC2     H  875   3.923   1.066  13.819 -1.4326  1.2303 -0.4174
   57TMC2    H1  876   3.616   0.760  13.827 -0.5992 -0.8819 -3.1722
   57TMC2    H2  877   3.934   0.743  13.550 -2.3488 -1.2283 -0.1279
   57TMC2    C7  878   3.702   0.622  13.621 -0.5029  1.3938  0.3743
   57TMC2    C8  879   4.062   0.968  13.648  0.5767  0.2842 -0.5834
   57TMC2    O1  880   3.588   0.600  13.654  0.4217  0.4436  0.3175
   57TMC2    O2  881   4.158   0.968  13.724  0.0193 -0.3213  0.4872
   57TMC2    O5  882   4.026   1.082  13.585 -0.4738  0.2724 -0.0649
   57TMC2    H5  883   3.945   1.067  13.532 -2.1328 -0.0427  2.5288
   58MPD2     C  884   3.522   0.862  14.428 -0.0556  0.5130  1.0653
   58MPD2    C1  885   3.506   0.965  14.336  0.1172  0.6872  0.5024
   58MPD2    C2  886   3.564   0.959  14.209 -0.4258  0.2920  0.3556
   58MPD2    C3  887   3.650   0.858  14.175 -0.1501 -0.7427  0.1002
   58MPD2    C4  888   3.666   0.755  14.264 -0.0684 -0.0320 -0.3009
   58MPD2    C5  889   3.612   0.764  14.391  0.3577 -0.0949  0.0824
   58MPD2     H  890   3.546   1.038  14.136 -0.3572  0.7216  0.8063
   58MPD2    H1  891   3.711   0.662  14.228  2.3761  1.4516 -1.1014
   58MPD2    H2  892   3.489   0.871  14.531 -0.4077  0.7434  0.9322
   58MPD2    H3  893   3.641   0.683  14.458 -1.1833 -0.5365  0.2108
   58MPD2     N  894   3.715   0.854  14.047 -0.4099  0.3927  0.2461
   58MPD2    H5  895   3.755   0.768  14.010  0.8994  0.7090  0.9341
   58MPD2    N1  896   3.416   1.072  14.363 -0.0688  0.3859 -0.2527
   58MPD2    H7  897   3.409   1.144  14.291  1.2141  1.4201  0.6688
   59MPD2     C  898   1.951   1.232  13.393 -0.2237 -0.0373  0.7179
   59MPD2    C1  899   2.037   1.152  13.324 -0.2239  0.3704  0.0588
   59MPD2    C2  900   2.173   1.170  13.331 -0.4639 -0.3581  0.2590
   59MPD2    C3  901   2.217   1.268  13.410 -0.1000  0.2376 -0.5558
   59MPD2    C4  902   2.131   1.343  13.477 -0.5009  0.3451  0.3971
   59MPD2    C5  903   1.993   1.337  13.469  0.4588  0.0332  0.3321
   59MPD2     H  904   2.231   1.098  13.275 -0.5926  1.0042 -1.6207
   59MPD2    H1  905   2.168   1.417  13.548  1.8391 -0.7946  0.3802
   59MPD2    H2  906   1.846   1.212  13.376 -0.5126  0.4920  1.8621
   59MPD2    H3  907   1.929   1.404  13.526 -1.2702 -2.1655  0.9464
   59MPD2     N  908   2.352   1.292  13.427  0.1598  0.6476  0.0298
   59MPD2    H5  909   2.372   1.363  13.497 -0.6208 -0.0441  0.9604
   59MPD2    N1  910   1.995   1.044  13.246  0.2518  0.2571 -0.1607
   59MPD2    H7  911   2.065   0.986  13.201  1.8561  1.7099  0.4666
   60TCq2    C1  912   1.869   0.988  13.236 -0.3016  0.3513  0.8325
   60TCq2    O2  913   1.770   1.017  13.307 -0.7637 -0.9726  0.3730
   60TCq2    C2  914   1.854   0.897  13.128 -0.0239 -0.9174 -0.3624
   60TCq2    C3  915   1.760   0.800  13.143 -0.8220 -0.6485 -0.9115
   60TCq2    C4  916   1.730   0.725  13.030 -0.8339 -0.2067  0.5882
   60TCq2    C5  917   1.809   0.734  12.920  0.1324 -0.2039 -0.3028
   60TCq2    C6  918   1.913   0.821  12.916  0.1992  1.0405 -0.5795
   60TCq2    C7  919   1.936   0.903  13.020 -0.1898  0.0646  0.1794
   60TCq2    C8  920   1.970   0.846  12.787 -0.4473  0.1656  0.8187
   60TCq2    O4  921   1.985   0.749  12.712 -0.2261 -0.3367  0.0439
   60TCq2    C9  922   1.619   0.633  13.044 -0.0985  0.4377  0.2569
   60TCq2    O5  923   1.584   0.617  13.162 -0.5994 -0.1164  0.3770
   60TCq2    O6  924   1.592   0.566  12.940  0.2640  0.0274  0.2553
   60TCq2    H2  925   1.715   0.784  13.240 -2.0240 -0.2805 -1.4182
   60TCq2    H3  926   1.789   0.664  12.839  0.5341 -0.5557 -0.0975
   60TCq2    H4  927   2.005   0.985  13.003 -1.3476  0.6123 -2.0227
   61MPD2     C  928   1.309   2.218  14.463 -0.5184 -0.1367 -0.1097
   61MPD2    C1  929   1.334   2.340  14.521 -0.1600  1.0371  0.1768
   61MPD2    C2  930   1.344   2.449  14.445 -0.0935 -0.2022  0.0623
   61MPD2    C3  931   1.305   2.455  14.312 -0.0050  0.3840  0.3833
   61MPD2    C4  932   1.263   2.338  14.259 -0.2710 -0.1114  0.0710
   61MPD2    C5  933   1.276   2.222  14.331  0.1088 -0.1951  0.1770
   61MPD2     H  934   1.364   2.547  14.488 -1.6233  0.0963  0.1059
   61MPD2    H1  935   1.236   2.331  14.154 -0.0387  1.0203 -0.0704
   61MPD2    H2  936   1.323   2.119  14.504 -0.9483  0.5200  1.6027
   61MPD2    H3  937   1.241   2.129  14.287 -0.6238 -0.2634  0.9054
   61MPD2     N  938   1.303   2.576  14.234 -0.0707  0.8387  0.3656
   61MPD2    H5  939   1.241   2.572  14.154 -0.9479  0.7815  1.0448
   61MPD2    N1  940   1.359   2.349  14.660 -0.5106 -0.1786  0.5398
   61MPD2    H7  941   1.397   2.438  14.691 -0.0239  0.2266 -1.2390
   62TCq2    C1  942   1.378   2.240  14.749 -0.2756  0.1251  0.3498
   62TCq2    O2  943   1.354   2.124  14.727 -0.0954  0.1423  0.0678
   62TCq2    C2  944   1.387   2.277  14.890 -0.1981  0.3353  0.1258
   62TCq2    C3  945   1.401   2.168  14.978 -0.1881  0.7651 -0.6033
   62TCq2    C4  946   1.383   2.198  15.111 -0.1328  0.6190  0.7627
   62TCq2    C5  947   1.349   2.321  15.158 -0.4407  0.4004 -0.4595
   62TCq2    C6  948   1.343   2.423  15.068  0.0023 -0.3329  0.3486
   62TCq2    C7  949   1.355   2.402  14.931 -0.5091 -0.2174  0.3794
   62TCq2    C8  950   1.301   2.556  15.102 -0.5729 -0.1174  0.2378
   62TCq2    O4  951   1.327   2.648  15.026  0.1660 -0.0310  0.7644
   62TCq2    C9  952   1.395   2.088  15.207  0.7515 -0.5734  0.1126
   62TCq2    O5  953   1.442   1.984  15.154  0.0585  1.0835 -0.5833
   62TCq2    O6  954   1.362   2.094  15.327 -0.4831  0.0124 -0.3312
   62TCq2    H2  955   1.445   2.075  14.945 -0.7310 -0.0114  0.8436
   62TCq2    H3  956   1.343   2.335  15.265  0.5559  0.6720 -0.4398
   62TCq2    H4  957   1.357   2.484  14.860 -2.8917 -2.4833 -2.2446
   63TMC2    C1  958   1.038   1.734   9.911 -0.0403 -0.3684 -0.2393
   63TMC2    C2  959   1.162   1.704   9.854  1.1354  0.3337 -1.1671
   63TMC2    C3  960   1.262   1.795   9.872 -0.2258 -0.2509 -0.5185
   63TMC2    C4  961   1.026   1.834  10.000 -0.1432 -0.3553  0.4999
   63TMC2    C5  962   1.135   1.921  10.018  0.2344  0.7494 -0.1256
   63TMC2    C6  963   1.253   1.902   9.952  0.0222 -0.7466  0.4987
   63TMC2     C  964   0.933   1.629   9.924  0.0288  0.1386  0.3740
   63TMC2     O  965   0.919   1.561   9.829 -0.0418 -0.0314  0.4118
   63TMC2     H  966   1.165   1.614   9.794 -0.3951  0.3244 -1.2400
   63TMC2    H1  967   0.931   1.857  10.046 -0.0823 -1.2424  1.0678
   63TMC2    H2  968   1.332   1.973   9.971 -0.2767  0.2371 -2.0070
   63TMC2    C7  969   1.111   2.045  10.096  0.4229  0.5255  0.0131
   63TMC2    C8  970   1.400   1.761   9.835  0.1756 -0.0112  0.0488
   63TMC2    O1  971   1.000   2.089  10.112  0.4624 -0.8988 -0.3706
   63TMC2    O2  972   1.496   1.820   9.888  0.3004  0.1778 -0.2416
   63TMC2    O5  973   1.411   1.640   9.780 -0.1016  0.3673 -0.3763
   63TMC2    H5  974   1.326   1.615   9.737 -2.2381  1.3797  3.2224
   64MPD2     C  975   0.631   1.294  10.165  0.0026  0.3400  0.1184
   64MPD2    C1  976   0.705   1.366  10.261  0.3233  0.3808  0.4125
   64MPD2    C2  977   0.767   1.486  10.220 -0.0165  0.2493  1.1842
   64MPD2    C3  978   0.780   1.519  10.085 -0.0202 -0.1788  0.4923
   64MPD2    C4  979   0.710   1.450   9.988 -0.1626  0.6517 -0.1045
   64MPD2    C5  980   0.632   1.341  10.034 -0.6186 -0.4176  0.2162
   64MPD2     H  981   0.828   1.550  10.283 -0.2485  1.0869  0.5543
   64MPD2    H1  982   0.710   1.457   9.880  2.5243 -1.1943 -0.2301
   64MPD2    H2  983   0.568   1.207  10.176  0.0277  0.9616  5.0761
   64MPD2    H3  984   0.578   1.281   9.962  0.6803 -1.1699 -0.1220
   64MPD2     N  985   0.874   1.622  10.051 -0.4341  0.2728  0.2254
   64MPD2    H5  986   0.898   1.679  10.132  1.4714  0.7963 -0.6912
   64MPD2    N1  987   0.737   1.319  10.392  0.0165  0.4148 -0.3888
   64MPD2    H7  988   0.796   1.380  10.448  1.5338 -2.0195  0.6287
   65MPD2     C  989   1.353   2.097  15.858 -0.2550  0.1562  0.4131
   65MPD2    C1  990   1.375   2.082  15.723 -0.3317  0.1125 -0.3028
   65MPD2    C2  991   1.359   1.950  15.672 -0.4085 -0.1519 -0.8017
   65MPD2    C3  992   1.323   1.841  15.757 -0.2293 -0.1321 -0.2750
   65MPD2    C4  993   1.302   1.870  15.885 -0.6244  0.3123  0.5445
   65MPD2    C5  994   1.313   1.996  15.939 -0.1194 -0.0414  0.3039
   65MPD2     H  995   1.365   1.932  15.566  1.4581  1.8430 -1.0254
   65MPD2    H1  996   1.274   1.791  15.955 -0.3137 -0.0811  0.2216
   65MPD2    H2  997   1.362   2.191  15.912 -0.3583  1.5986 -2.1177
   65MPD2    H3  998   1.298   2.014  16.045  2.7027 -0.2766  0.7314
   65MPD2     N  999   1.295   1.712  15.718 -0.2021  0.3103 -0.1135
   65MPD2    H5 1000   1.256   1.654  15.792 -0.3613 -2.1244 -2.1060
   65MPD2    N1 1001   1.398   2.182  15.630 -0.1564  0.0548  0.0240
   65MPD2    H7 1002   1.424   2.154  15.535  0.9497 -2.4910  1.0800
   66TCq2    C1 1003   1.409   2.314  15.656 -0.0302  0.2650  0.0748
   66TCq2    O2 1004   1.365   2.375  15.755 -0.3269  0.2940  0.5303
   66TCq2    C2 1005   1.479   2.384  15.550  0.0572  0.3169  0.2086
   66TCq2    C3 1006   1.544   2.308  15.458 -0.5066  0.3942  0.5658
   66TCq2    C4 1007   1.606   2.383  15.359  0.2282 -0.2157 -0.1979
   66TCq2    C5 1008   1.590   2.523  15.348 -0.3598  0.0196  0.0824
   66TCq2    C6 1009   1.519   2.591  15.447 -0.6898  0.5450  0.3076
   66TCq2    C7 1010   1.456   2.521  15.539  0.1547  0.3814 -0.3056
   66TCq2    C8 1011   1.504   2.736  15.426  0.3781 -1.0125 -0.3354
   66TCq2    O4 1012   1.541   2.779  15.316 -0.4391 -0.5409  0.0977
   66TCq2    C9 1013   1.689   2.321  15.254 -0.3441 -0.4735  0.0477
   66TCq2    O5 1014   1.718   2.196  15.271 -0.4152 -0.3434  0.4481
   66TCq2    O6 1015   1.724   2.392  15.153 -0.5526 -0.6214  0.1716
   66TCq2    H2 1016   1.539   2.200  15.452 -0.9893  0.2356  3.4984
   66TCq2    H3 1017   1.639   2.579  15.270 -0.0793 -0.7062 -0.2542
   66TCq2    H4 1018   1.389   2.574  15.606 -0.1169 -1.1300  0.6256
   67MPD2     C 1019   1.968   1.327  14.470 -0.1220 -0.2112 -0.1738
   67MPD2    C1 1020   1.910   1.446  14.498 -0.5969 -0.4612 -0.0550
   67MPD2    C2 1021   1.777   1.470  14.466  0.0254 -0.8656  0.2133
   67MPD2    C3 1022   1.704   1.372  14.404 -0.6637 -0.1825 -0.1369
   67MPD2    C4 1023   1.771   1.258  14.362 -0.4099 -0.5336 -0.0153
   67MPD2    C5 1024   1.897   1.230  14.396 -0.2014  0.3177  0.3381
   67MPD2     H 1025   1.730   1.567  14.475  1.0995 -0.4601  1.4136
   67MPD2    H1 1026   1.710   1.184  14.311 -0.0883  0.5960 -2.0475
   67MPD2    H2 1027   2.073   1.308  14.488  0.2540  1.1768 -0.8697
   67MPD2    H3 1028   1.949   1.137  14.374  1.2482  1.8895 -2.7363
   67MPD2     N 1029   1.569   1.401  14.373 -0.6206 -0.1121 -0.6396
   67MPD2    H5 1030   1.542   1.488  14.417 -0.3217  0.1548 -0.9752
   67MPD2    N1 1031   1.976   1.548  14.560 -0.0290 -0.0063 -0.2374
   67MPD2    H7 1032   1.930   1.636  14.581  0.4331  0.3270 -0.6173
   68TCq2    C1 1033   2.102   1.545  14.604  0.3266 -0.0173  0.4695
   68TCq2    O2 1034   2.170   1.446  14.629 -0.4132 -0.0779 -0.3263
   68TCq2    C2 1035   2.151   1.673  14.656  0.1172 -0.6442 -0.3217
   68TCq2    C3 1036   2.085   1.780  14.622  0.3392  0.2386  0.1303
   68TCq2    C4 1037   2.083   1.883  14.706 -0.1787 -0.1109  0.3567
   68TCq2    C5 1038   2.147   1.879  14.829  0.4712 -0.3660 -0.4674
   68TCq2    C6 1039   2.228   1.769  14.858 -1.4964 -0.4043 -0.2653
   68TCq2    C7 1040   2.238   1.668  14.765  0.0739 -0.6946 -0.2660
   68TCq2    C8 1041   2.298   1.750  14.987  0.3626 -0.1216 -0.1183
   68TCq2    O4 1042   2.390   1.666  14.993  0.3203 -0.1128 -0.1068
   68TCq2    C9 1043   2.023   2.003  14.663  0.3051  0.4749 -0.1701
   68TCq2    O5 1044   1.992   2.085  14.753 -0.5560 -0.3266 -0.4802
   68TCq2    O6 1045   1.971   2.002  14.547 -0.2536 -0.4275  0.3810
   68TCq2    H2 1046   2.044   1.786  14.522 -1.7845  0.5248  1.0195
   68TCq2    H3 1047   2.151   1.973  14.882  1.2132 -1.2773  1.1071
   68TCq2    H4 1048   2.300   1.582  14.788  1.6458  0.7105  0.8344
   69TMC2    C1 1049   4.115   2.589  12.403 -0.2786 -0.7733 -0.3501
   69TMC2    C2 1050   4.083   2.592  12.270 -0.6334  0.3007  0.4829
   69TMC2    C3 1051   4.149   2.685  12.192 -0.3841 -0.3776  1.0308
   69TMC2    C4 1052   4.212   2.667  12.458  0.2305 -0.2959  0.4942
   69TMC2    C5 1053   4.282   2.754  12.373  0.2681  0.0439 -0.1500
   69TMC2    C6 1054   4.255   2.758  12.241 -0.1649 -0.0052 -0.3709
   69TMC2     C 1055   4.093   2.464  12.469  0.1413  0.4234  0.0758
   69TMC2     O 1056   3.979   2.412  12.463  0.6880  0.4780  0.4218
   69TMC2     H 1057   3.992   2.538  12.243 -1.5078  2.4347 -0.8006
   69TMC2    H1 1058   4.232   2.672  12.564 -1.1719 -0.5979  0.7650
   69TMC2    H2 1059   4.306   2.823  12.170 -0.4819  0.7373  0.0764
   69TMC2    C7 1060   4.419   2.731  12.388 -0.1961 -0.4237 -0.0979
   69TMC2    C8 1061   4.151   2.673  12.050 -0.1818 -0.0205 -0.2729
   69TMC2    O1 1062   4.476   2.698  12.284 -0.0237  0.7268  0.1990
   69TMC2    O2 1063   4.248   2.673  11.978 -0.1637 -0.1872 -0.4442
   69TMC2    O5 1064   4.022   2.634  12.006 -0.0880 -0.2115 -0.1143
   69TMC2    H5 1065   3.953   2.642  12.075 -0.5578 -3.0906 -0.2378
   70MPD2     C 1066   4.342   2.295  12.681  0.2662 -0.6111  0.4722
   70MPD2    C1 1067   4.222   2.313  12.623  0.5402  0.2446 -0.3576
   70MPD2    C2 1068   4.126   2.211  12.641  0.1274  0.1097 -0.1348
   70MPD2    C3 1069   4.147   2.105  12.716 -0.2368  0.0706 -0.4234
   70MPD2    C4 1070   4.267   2.100  12.786  0.2251 -0.1457  0.0562
   70MPD2    C5 1071   4.356   2.199  12.771  0.2741  0.2423  0.1254
   70MPD2     H 1072   4.034   2.216  12.584 -0.2815  0.5287  0.5636
   70MPD2    H1 1073   4.287   2.007  12.839 -0.4284  1.1014  2.5124
   70MPD2    H2 1074   4.432   2.355  12.671  0.4585 -1.2790 -1.8406
   70MPD2    H3 1075   4.446   2.188  12.831  1.1816  0.3024 -1.2384
   70MPD2     N 1076   4.062   1.995  12.731 -0.0662  0.7600  0.2993
   70MPD2    H5 1077   4.092   1.909  12.776 -2.0035  0.3801  0.8392
   70MPD2    N1 1078   4.208   2.425  12.541  0.8096  0.1790  0.0657
   70MPD2    H7 1079   4.290   2.482  12.525  1.3939 -0.3311  1.2012
   71TMC2    C1 1080   4.571   2.471   1.666  0.3359  0.0155 -0.2123
   71TMC2    C2 1081   4.598   2.393   1.775 -0.0533  0.3852  0.4546
   71TMC2    C3 1082   4.506   2.393   1.877  0.3262  0.1056  0.1504
   71TMC2    C4 1083   4.466   2.552   1.659 -0.1479  0.0585  0.2352
   71TMC2    C5 1084   4.376   2.547   1.764 -0.3151 -0.6430 -0.0483
   71TMC2    C6 1085   4.397   2.466   1.870 -1.0312  0.0942  0.0667
   71TMC2     C 1086   4.663   2.482   1.556  0.2084 -0.2055  0.2771
   71TMC2     O 1087   4.670   2.594   1.502  0.2727 -0.2510  0.6947
   71TMC2     H 1088   4.671   2.314   1.776 -0.7051 -0.2423 -0.7161
   71TMC2    H1 1089   4.451   2.599   1.563  0.4512  2.7913  1.4681
   71TMC2    H2 1090   4.323   2.457   1.949 -0.3815  0.0017  0.6752
   71TMC2    C7 1091   4.249   2.612   1.746  0.3529  0.6606  0.7938
   71TMC2    C8 1092   4.498   2.275   1.966 -0.6454  0.9682  0.1239
   71TMC2    O1 1093   4.179   2.636   1.843 -0.5478  0.8912  0.3569
   71TMC2    O2 1094   4.390   2.234   2.009 -0.1305 -0.5481 -0.5156
   71TMC2    O5 1095   4.620   2.232   2.001 -0.3436 -0.2077  0.2501
   71TMC2    H5 1096   4.697   2.288   1.978 -0.7721  0.0660 -0.5367
   72MPD2     C 1097   0.293   2.293   1.233 -0.9788  0.1307 -0.8156
   72MPD2    C1 1098   0.241   2.427   1.250  0.2885  0.5425  0.6678
   72MPD2    C2 1099   0.158   2.455   1.357  1.0278  0.3237  0.2677
   72MPD2    C3 1100   0.117   2.355   1.442  0.5347  0.0892  0.8527
   72MPD2    C4 1101   0.172   2.232   1.430  0.1459  0.6968 -0.0420
   72MPD2    C5 1102   0.264   2.197   1.331  0.0975  0.2488  0.0135
   72MPD2     H 1103   0.141   2.562   1.361 -1.6497 -0.1241  0.4304
   72MPD2    H1 1104   0.150   2.154   1.503  1.9021  0.6806  0.4570
   72MPD2    H2 1105   0.367   2.267   1.159  0.3937 -0.8314  0.8777
   72MPD2    H3 1106   0.311   2.100   1.325 -0.3193  0.0698 -0.3814
   72MPD2     N 1107   0.027   2.373   1.547  0.2582  0.1577  0.0310
   72MPD2    H5 1108   0.008   2.292   1.605 -0.4248 -0.0783 -0.5240
   72MPD2    N1 1109   0.282   2.533   1.162  0.6343  1.3601 -0.2792
   72MPD2    H7 1110   0.259   2.629   1.186  1.8377  1.5752  0.0013
   73TMC2    C1 1111   1.313   0.288  13.898  0.6201  0.8136  0.3465
   73TMC2    C2 1112   1.181   0.278  13.923 -0.2723  0.0381  0.1592
   73TMC2    C3 1113   1.143   0.262  14.053 -0.1030 -0.4164  0.1235
   73TMC2    C4 1114   1.401   0.271  13.997  0.8398  0.2241 -0.2461
   73TMC2    C5 1115   1.355   0.270  14.127 -0.1686 -0.3467  0.2629
   73TMC2    C6 1116   1.227   0.256  14.162 -0.2190 -0.3626  0.0312
   73TMC2     C 1117   1.352   0.411  13.830  0.7325 -0.0280  0.6073
   73TMC2     O 1118   1.464   0.454  13.857 -0.2386  0.8142 -0.9003
   73TMC2     H 1119   1.112   0.296  13.842 -0.6628  0.1972  0.5311
   73TMC2    H1 1120   1.506   0.265  13.973  0.8234 -0.4613 -0.1467
   73TMC2    H2 1121   1.188   0.255  14.263 -2.4553 -0.9342 -0.8440
   73TMC2    C7 1122   1.424   0.367  14.213  0.0166  0.9032  0.0469
   73TMC2    C8 1123   1.007   0.216  14.071 -0.5744 -0.3962 -0.2387
   73TMC2    O1 1124   1.426   0.356  14.334  0.0395  0.1825  0.2384
   73TMC2    O2 1125   0.919   0.289  14.108  0.5329 -0.3131  0.0296
   73TMC2    O5 1126   1.020   0.094  14.108 -0.5443 -0.7503  0.2512
   73TMC2    H5 1127   1.093   0.060  14.052  0.4248  0.9981  0.4622
   74MPD2     C 1128   1.287   0.822  13.514 -0.3759  0.5773 -0.6155
   74MPD2    C1 1129   1.395   0.783  13.591 -0.3724 -0.0401  0.3008
   74MPD2    C2 1130   1.389   0.664  13.662  0.1360 -0.3382 -1.1916
   74MPD2    C3 1131   1.275   0.579  13.663 -1.0524  0.3006 -0.5482
   74MPD2    C4 1132   1.171   0.623  13.581 -0.1834  0.0893 -0.3568
   74MPD2    C5 1133   1.176   0.740  13.518  0.2241 -0.2390 -0.2109
   74MPD2     H 1134   1.473   0.623  13.719  0.4084  1.2647 -0.4414
   74MPD2    H1 1135   1.082   0.561  13.581 -0.1068 -0.0284  0.3978
   74MPD2    H2 1136   1.277   0.922  13.474 -2.3665  1.4024  1.9081
   74MPD2    H3 1137   1.085   0.776  13.471 -0.3315  0.9249  1.7704
   74MPD2     N 1138   1.260   0.464  13.740 -0.1841  0.1586  0.2781
   74MPD2    H5 1139   1.172   0.417  13.723 -0.6028  0.3896  1.8099
   74MPD2    N1 1140   1.512   0.865  13.586 -0.0955  0.4023 -0.1224
   74MPD2    H7 1141   1.502   0.945  13.525  1.6478  2.0905  1.8129
   75TCq2    C1 1142   1.486   1.338  14.286  0.2871  0.7654  0.2696
   75TCq2    O2 1143   1.502   1.233  14.222  0.1056  0.2079 -0.1914
   75TCq2    C2 1144   1.358   1.403  14.265  0.0248  0.3113 -0.3114
   75TCq2    C3 1145   1.280   1.435  14.378  0.0904 -0.3265  0.5829
   75TCq2    C4 1146   1.144   1.439  14.370 -0.2600 -0.0465  0.0536
   75TCq2    C5 1147   1.073   1.402  14.258 -0.4135 -0.1791  0.0414
   75TCq2    C6 1148   1.154   1.370  14.147 -0.7809 -0.1854 -0.1095
   75TCq2    C7 1149   1.289   1.381  14.153  0.0287  0.4332 -0.3880
   75TCq2    C8 1150   1.114   1.323  14.016 -0.0264 -0.2168  0.1021
   75TCq2    O4 1151   1.147   1.389  13.915 -0.3504 -0.0929 -0.2744
   75TCq2    C9 1152   1.065   1.455  14.493 -0.0951 -0.3742 -0.7190
   75TCq2    O5 1153   1.128   1.499  14.594 -0.1703 -0.1036 -0.3646
   75TCq2    O6 1154   0.942   1.475  14.473  0.0653  0.2644  0.0984
   75TCq2    H2 1155   1.322   1.456  14.475  0.8711  0.1897  0.1330
   75TCq2    H3 1156   0.966   1.387  14.258 -0.4590  0.1347 -0.5658
   75TCq2    H4 1157   1.345   1.357  14.063 -0.1964 -0.5082 -0.2781
   76MPD2     C 1158   0.577   1.812  12.470  0.7879  0.1473  0.0263
   76MPD2    C1 1159   0.565   1.812  12.327 -0.3164 -0.6138  0.0888
   76MPD2    C2 1160   0.658   1.750  12.245  0.0851 -0.4358  0.1922
   76MPD2    C3 1161   0.765   1.677  12.304 -0.4374  0.3402 -0.2869
   76MPD2    C4 1162   0.770   1.673  12.446 -0.4050 -0.4659  0.2605
   76MPD2    C5 1163   0.680   1.738  12.527  0.1085 -0.4327  0.0421
   76MPD2     H 1164   0.648   1.758  12.137  3.5530 -0.7810 -0.1528
   76MPD2    H1 1165   0.855   1.637  12.501  0.5014 -1.4782 -1.8364
   76MPD2    H2 1166   0.511   1.871  12.533 -1.8054 -2.1165 -0.5771
   76MPD2    H3 1167   0.685   1.729  12.635  0.5317  2.0281  0.2255
   76MPD2     N 1168   0.865   1.609  12.237 -0.7076  0.4087  0.2724
   76MPD2    H5 1169   0.931   1.561  12.298 -2.1940 -1.6333  0.2743
   76MPD2    N1 1170   0.467   1.893  12.256 -0.8519 -0.7237  0.1831
   76MPD2    H7 1171   0.471   1.893  12.155 -2.2397  3.2727  0.1478
   77TCq2    C1 1172   0.885   1.593  12.105 -0.1083  0.5708  0.4851
   77TCq2    O2 1173   0.825   1.650  12.012  0.4589  0.1381 -0.2339
   77TCq2    C2 1174   0.996   1.505  12.069 -0.8661  0.0977 -0.2889
   77TCq2    C3 1175   1.019   1.492  11.936 -0.2363 -0.2653 -0.1338
   77TCq2    C4 1176   1.126   1.416  11.894 -0.2720  0.4289 -0.0254
   77TCq2    C5 1177   1.221   1.365  11.982  0.4985 -0.1067  0.2680
   77TCq2    C6 1178   1.195   1.381  12.115  0.1593  0.2829  0.8091
   77TCq2    C7 1179   1.087   1.450  12.161  0.1210  0.2383 -0.2271
   77TCq2    C8 1180   1.282   1.315  12.210  0.5416 -0.1677 -0.3475
   77TCq2    O4 1181   1.324   1.204  12.186 -0.6031  0.0239  0.6000
   77TCq2    C9 1182   1.147   1.416  11.748  0.3032 -0.5307 -0.3914
   77TCq2    O5 1183   1.059   1.465  11.675  0.4364 -0.2651 -0.5320
   77TCq2    O6 1184   1.241   1.349  11.703  0.5259  0.1137 -0.1530
   77TCq2    H2 1185   0.955   1.533  11.859 -1.0772  0.6650  1.0688
   77TCq2    H3 1186   1.302   1.301  11.950  0.5636 -0.3372  0.9040
   77TCq2    H4 1187   1.059   1.440  12.265  0.4551  1.1798 -0.0512
   78MPD1     C 1188   4.656   1.255   2.087 -0.2589  0.1686  0.1194
   78MPD1    C1 1189   4.595   1.164   2.002  0.0073  0.7568 -0.9137
   78MPD1    C2 1190   4.460   1.189   1.979  0.7703 -0.6833 -0.2097
   78MPD1    C3 1191   4.395   1.314   2.006  0.1368  0.4736  0.3305
   78MPD1    C4 1192   4.469   1.405   2.082  0.7515  0.0851  0.3468
   78MPD1    C5 1193   4.588   1.368   2.130  0.5277  0.5725 -0.3771
   78MPD1     H 1194   4.414   1.117   1.912  2.2616 -1.2965 -0.5567
   78MPD1    H1 1195   4.422   1.498   2.109 -1.0600  0.1303 -2.9094
   78MPD1    H2 1196   0.038   1.248   2.121 -0.7522 -0.4854  1.5030
   78MPD1    H3 1197   4.632   1.437   2.201  3.4230  0.3508 -1.9406
   78MPD1     N 1198   4.267   1.342   1.963 -0.0776 -0.3420 -0.0089
   78MPD1    H5 1199   4.239   1.439   1.976  1.0244  0.1355 -1.1906
   78MPD1    N1 1200   4.657   1.042   1.982  0.2296  0.1043 -0.7116
   78MPD1    H6 1201   4.618   0.995   1.901  1.8525  0.1566 -1.5242
   78MPD1    H7 1202   0.037   1.047   1.972  0.4668 -1.9277  0.5514
   79TCq2    C1 1203   4.172   1.248   1.920 -0.5460 -0.0743  0.1663
   79TCq2    O2 1204   4.169   1.123   1.931 -0.0894  0.6689  0.0066
   79TCq2    C2 1205   4.038   1.295   1.893  0.0167  0.6669  0.6795
   79TCq2    C3 1206   3.940   1.211   1.943  0.4660  0.9504 -0.1093
   79TCq2    C4 1207   3.819   1.271   1.957 -0.7823 -0.3313 -0.1236
   79TCq2    C5 1208   3.794   1.400   1.923  0.3682  0.7744 -0.5290
   79TCq2    C6 1209   3.893   1.472   1.863 -0.7663 -0.5158  0.6457
   79TCq2    C7 1210   4.024   1.426   1.850  0.2274 -0.1422 -0.2791
   79TCq2    C8 1211   3.854   1.605   1.822 -0.3451 -0.2123 -0.9319
   79TCq2    O4 1212   3.770   1.661   1.889  0.4404 -0.1279 -0.2460
   79TCq2    C9 1213   3.713   1.189   2.020 -0.5779 -0.4987 -0.6411
   79TCq2    O5 1214   3.740   1.067   2.048 -0.2937 -0.2335  0.4519
   79TCq2    O6 1215   3.600   1.247   2.050 -0.2094 -0.1718  0.0419
   79TCq2    H2 1216   3.952   1.105   1.959  0.2327  0.9933  0.3581
   79TCq2    H3 1217   3.697   1.442   1.949  0.1676 -0.1787  0.2436
   79TCq2    H4 1218   4.102   1.489   1.811  0.5415 -0.5663 -0.3375
   80MPD2     C 1219   4.569   1.545  12.121  0.3720 -0.2122  0.3968
   80MPD2    C1 1220   4.478   1.551  12.018  0.8030  0.4388  1.0143
   80MPD2    C2 1221   4.357   1.618  12.044  0.4290 -0.0259 -0.9182
   80MPD2    C3 1222   4.337   1.690  12.158 -0.0370  0.4824  0.4381
   80MPD2    C4 1223   4.430   1.678  12.257  0.5738 -0.1231  0.0585
   80MPD2    C5 1224   4.549   1.611  12.238 -0.0907  0.1202  0.8009
   80MPD2     H 1225   4.288   1.623  11.961  0.4684 -0.2331 -0.9630
   80MPD2    H1 1226   4.426   1.735  12.350 -2.0271  1.9434 -1.3115
   80MPD2    H2 1227   4.660   1.488  12.112  0.1900 -0.1960 -1.5861
   80MPD2    H3 1228   4.619   1.606  12.321  0.2496  2.5508  0.6677
   80MPD2     N 1229   4.214   1.753  12.192  0.3250 -0.2465  0.4910
   80MPD2    H5 1230   4.204   1.791  12.286 -1.1139 -1.7003  0.9298
   80MPD2    N1 1231   4.486   1.487  11.894  0.3663 -0.0782 -0.0704
   80MPD2    H7 1232   4.402   1.484  11.837  0.0600  1.3468  0.2969
   81TCq2    C1 1233   4.592   1.415  11.850 -0.4383  0.4847 -0.2071
   81TCq2    O2 1234   4.702   1.406  11.899  0.0022  0.1251 -0.1841
   81TCq2    C2 1235   4.555   1.335  11.727  0.0594 -0.2456 -0.0516
   81TCq2    C3 1236   4.650   1.251  11.681 -0.4653  0.0555  0.0838
   81TCq2    C4 1237   4.621   1.162  11.578 -0.4528  0.0854  0.0770
   81TCq2    C5 1238   4.488   1.134  11.541 -0.3190 -0.1399 -0.0116
   81TCq2    C6 1239   4.397   1.221  11.593 -0.1226  0.2911 -0.1011
   81TCq2    C7 1240   4.424   1.316  11.689  0.0645 -0.0391 -0.1955
   81TCq2    C8 1241   4.255   1.185  11.583  0.4767 -0.1397 -0.3955
   81TCq2    O4 1242   4.216   1.136  11.478 -0.1312 -0.2535 -0.2418
   81TCq2    C9 1243   0.012   1.096  11.513  0.4742  0.1766 -0.1657
   81TCq2    O5 1244   4.710   1.006  11.430 -0.1528  0.5252  0.2844
   81TCq2    O6 1245   0.125   1.143  11.552  0.5593  0.3385  0.5985
   81TCq2    H2 1246   0.032   1.258  11.715 -1.2538  0.4675  2.3935
   81TCq2    H3 1247   4.463   1.076  11.452  0.5813  0.7611 -0.8598
   81TCq2    H4 1248   4.344   1.378  11.728 -0.9498 -1.3953 -0.1377
   82MPD2     C 1249   2.842   0.897  10.119  0.4596 -0.3465  0.1446
   82MPD2    C1 1250   2.714   0.864  10.094  0.2733  1.0872 -0.5627
   82MPD2    C2 1251   2.640   0.775  10.174  0.0837 -0.4235 -0.8151
   82MPD2    C3 1252   2.700   0.717  10.290 -0.4340  0.9193 -0.1690
   82MPD2    C4 1253   2.839   0.749  10.310  0.5398 -0.6321  0.4268
   82MPD2    C5 1254   2.905   0.838  10.228  0.6265 -0.2890 -0.0436
   82MPD2     H 1255   2.542   0.745  10.139 -0.9778  0.7222  1.2025
   82MPD2    H1 1256   2.903   0.713  10.390  3.2892  0.5625 -1.2179
   82MPD2    H2 1257   2.894   0.955  10.044 -0.2987 -0.0371 -0.1403
   82MPD2    H3 1258   3.006   0.872  10.248  0.1249  1.8171 -0.9817
   82MPD2     N 1259   2.640   0.626  10.380  0.0945 -0.4593 -0.2920
   82MPD2    H5 1260   2.702   0.587  10.450 -2.5606 -3.4841  0.3615
   82MPD2    N1 1261   2.649   0.924   9.987  0.1162 -0.5128 -0.2500
   82MPD2    H7 1262   2.705   0.989   9.933  2.4469 -1.8072  0.6261
   83TCq2    C1 1263   2.507   0.593  10.378  0.4453 -0.0747  0.4764
   83TCq2    O2 1264   2.414   0.651  10.315  0.2129  0.1572 -0.5168
   83TCq2    C2 1265   2.475   0.488  10.469 -0.0642  0.1032  0.2178
   83TCq2    C3 1266   2.578   0.428  10.537  0.0909 -0.7399  0.4210
   83TCq2    C4 1267   2.545   0.354  10.651  0.0061  0.2748 -0.1972
   83TCq2    C5 1268   2.416   0.354  10.703  0.4827  0.0596 -0.1312
   83TCq2    C6 1269   2.317   0.421  10.634 -0.2469 -0.0068 -0.3046
   83TCq2    C7 1270   2.351   0.496  10.527  0.0695  0.0046 -0.8059
   83TCq2    C8 1271   2.189   0.438  10.701 -0.1644 -0.6387 -0.3133
   83TCq2    O4 1272   2.155   0.544  10.749 -0.0177 -0.3135 -0.1360
   83TCq2    C9 1273   2.652   0.297  10.728  0.1157  0.0570 -0.1103
   83TCq2    O5 1274   2.622   0.263  10.843 -0.0331  0.4188 -0.2271
   83TCq2    O6 1275   2.770   0.321  10.693  0.1184  0.3003  0.0939
   83TCq2    H2 1276   2.678   0.401  10.504 -0.4917 -1.8334 -0.4202
   83TCq2    H3 1277   2.379   0.304  10.792  0.4463 -3.1984 -1.9597
   83TCq2    H4 1278   2.269   0.545  10.477 -0.5051 -0.3563 -0.2048
   84TCq2    C1 1279   3.898   4.492  10.665 -0.9180  0.3470  0.3161
   84TCq2    O2 1280   3.792   4.472  10.609 -0.3317 -0.0298 -0.6623
   84TCq2    C2 1281   3.909   4.463  10.808 -0.2780 -0.0340  0.0549
   84TCq2    C3 1282   4.001   4.363  10.831  1.0837  0.1236 -0.1039
   84TCq2    C4 1283   3.979   4.262  10.918 -0.9431  0.5492  0.0201
   84TCq2    C5 1284   3.862   4.249  10.984  0.4370 -0.2568  0.5664
   84TCq2    C6 1285   3.762   4.340  10.955  1.2751  0.2017 -0.1023
   84TCq2    C7 1286   3.784   4.434  10.863  0.2409  0.0468  0.7827
   84TCq2    C8 1287   3.629   4.343  11.020 -0.4956 -0.2052  0.0451
   84TCq2    O4 1288   3.547   4.432  10.999  0.0335 -0.5184  0.8213
   84TCq2    C9 1289   4.089   4.174  10.943 -0.1507  0.3722 -0.4155
   84TCq2    O5 1290   4.063   4.067  11.002  0.5367 -0.1583  0.1155
   84TCq2    O6 1291   4.190   4.193  10.873 -0.0576  0.7848 -0.1105
   84TCq2    H2 1292   4.089   4.360  10.767  1.7393  1.0607  0.7536
   84TCq2    H3 1293   3.837   4.159  11.040 -1.0479 -0.1026  0.1435
   84TCq2    H4 1294   3.693   4.481  10.826 -0.7044 -1.0225  1.7478
   85MPD2     C 1295   3.562   2.736  16.289  0.1692 -0.4599 -0.3309
   85MPD2    C1 1296   3.601   2.667  16.175 -0.0900 -0.5380  0.1278
   85MPD2    C2 1297   3.705   2.719  16.098 -0.0745 -0.2082 -0.6250
   85MPD2    C3 1298   3.775   2.828  16.128 -0.5447  1.0207  0.1280
   85MPD2    C4 1299   3.730   2.898  16.242 -0.0291  0.4265  0.2255
   85MPD2    C5 1300   3.630   2.848  16.320  0.3312 -0.6491 -0.0720
   85MPD2     H 1301   3.726   2.663  16.007 -3.2881 -0.7031 -1.0642
   85MPD2    H1 1302   3.785   2.989  16.264 -0.4537  0.9180 -0.7208
   85MPD2    H2 1303   3.472   2.715  16.346 -0.1260  2.0042  0.1288
   85MPD2    H3 1304   3.598   2.908  16.404  0.0941  0.6644 -1.0892
   85MPD2     N 1305   3.878   2.868  16.044  0.1148 -0.4785  0.6538
   85MPD2    H5 1306   3.897   2.819  15.957 -1.0862  0.3615 -0.0854
   85MPD2    N1 1307   3.537   2.546  16.128  0.2082  0.1182 -0.3685
   85MPD2    H7 1308   3.565   2.524  16.033 -0.5472  0.3594 -0.6517
   86TCq2    C1 1309   3.988   2.940  16.086  0.8736 -0.1777 -0.0474
   86TCq2    O2 1310   4.007   2.973  16.199 -0.4019 -0.2542  0.0629
   86TCq2    C2 1311   4.092   2.968  15.987  0.4671 -0.4793  0.5342
   86TCq2    C3 1312   4.206   3.027  16.036  0.0693  0.8025 -0.0289
   86TCq2    C4 1313   4.285   3.101  15.958 -0.3192  0.0316  0.3478
   86TCq2    C5 1314   4.244   3.132  15.830 -0.0187 -0.1908  0.2855
   86TCq2    C6 1315   4.128   3.083  15.784 -0.0440  0.2850  0.7442
   86TCq2    C7 1316   4.048   2.999  15.860 -0.3107 -0.0068 -0.1992
   86TCq2    C8 1317   4.112   3.106  15.643 -0.3210 -0.1065 -0.8898
   86TCq2    O4 1318   4.206   3.067  15.580 -0.2253 -0.1245 -0.2770
   86TCq2    C9 1319   4.412   3.153  16.008 -0.5014  0.3270  0.6144
   86TCq2    O5 1320   4.496   3.197  15.926 -0.0592  0.0883 -0.0602
   86TCq2    O6 1321   4.425   3.145  16.134 -0.8001 -0.4307 -0.2064
   86TCq2    H2 1322   4.239   3.004  16.137 -0.6364  0.3645  0.1044
   86TCq2    H3 1323   4.305   3.196  15.768  0.6210  0.5033  1.6350
   86TCq2    H4 1324   3.952   2.963  15.826 -1.3736 -0.2941  3.1580
   87MPD2     C 1325   1.028   1.229   1.305  0.0820 -0.2518  0.0480
   87MPD2    C1 1326   1.041   1.362   1.326 -0.0078  0.6618  0.4983
   87MPD2    C2 1327   0.954   1.448   1.258  1.1966  0.3573  0.2758
   87MPD2    C3 1328   0.834   1.396   1.192  0.0118 -0.5975  0.4984
   87MPD2    C4 1329   0.827   1.258   1.181 -0.0564  0.2537 -0.1344
   87MPD2    C5 1330   0.924   1.181   1.234  1.0177  0.1569  0.6330
   87MPD2     H 1331   0.975   1.554   1.258 -1.0923  0.8278  0.0396
   87MPD2    H1 1332   0.746   1.212   1.126  0.0915 -0.6699  0.4179
   87MPD2    H2 1333   1.102   1.160   1.344  1.7806  1.6991  0.2837
   87MPD2    H3 1334   0.931   1.074   1.219 -0.0639  0.2762 -0.6860
   87MPD2     N 1335   0.742   1.472   1.112 -0.3291  0.0223 -0.3284
   87MPD2    H5 1336   0.665   1.422   1.069 -0.7557  1.8128 -1.6735
   87MPD2    N1 1337   1.157   1.406   1.404 -0.7628  0.1713  0.1903
   87MPD2    H7 1338   1.226   1.337   1.432 -1.7581 -0.7495  0.3814
   88TCq2    C1 1339   1.173   1.536   1.442  0.5410  0.1047 -0.1396
   88TCq2    O2 1340   1.088   1.622   1.445 -0.2609  0.0706  0.0035
   88TCq2    C2 1341   1.304   1.578   1.494 -0.7292 -0.0038 -1.0002
   88TCq2    C3 1342   1.310   1.687   1.577 -0.2576 -0.0722 -0.6198
   88TCq2    C4 1343   1.429   1.749   1.609  0.0209 -0.5690 -0.5700
   88TCq2    C5 1344   1.543   1.709   1.553  0.9236  0.1195 -0.4920
   88TCq2    C6 1345   1.528   1.605   1.461  0.5235  0.0844  0.5165
   88TCq2    C7 1346   1.411   1.534   1.434 -0.1198  0.3439  0.4544
   88TCq2    C8 1347   1.647   1.560   1.380 -0.0843  0.0384  0.4137
   88TCq2    O4 1348   1.736   1.641   1.369  0.1001 -0.1184  0.4151
   88TCq2    C9 1349   1.434   1.849   1.714  0.5387  0.1266  0.6803
   88TCq2    O5 1350   1.543   1.903   1.727 -0.3635  0.4071  0.1911
   88TCq2    O6 1351   1.332   1.847   1.794 -0.0783  0.1692 -0.3299
   88TCq2    H2 1352   1.218   1.723   1.620 -0.6552 -0.1299 -1.4245
   88TCq2    H3 1353   1.642   1.752   1.568  0.7699  0.1870  0.3359
   88TCq2    H4 1354   1.411   1.448   1.368 -2.3453 -0.0996  1.0227
   89MPD2     C 1355   1.631   3.858   2.039 -0.3247 -0.7671 -0.6612
   89MPD2    C1 1356   1.528   3.930   1.980  0.2521 -0.2639 -0.7005
   89MPD2    C2 1357   1.567   4.036   1.901  0.3519 -0.3776 -0.8636
   89MPD2    C3 1358   1.698   4.083   1.898  0.0589  0.6323  0.5917
   89MPD2    C4 1359   1.797   4.005   1.948 -0.3390  0.4026  0.5792
   89MPD2    C5 1360   1.759   3.899   2.026 -0.4445  0.6996  0.3192
   89MPD2     H 1361   1.489   4.093   1.852  0.4594 -0.8096 -1.5380
   89MPD2    H1 1362   1.901   4.034   1.957 -0.3354  0.1882  1.2870
   89MPD2    H2 1363   1.611   3.764   2.090 -0.4960  0.2699  1.1940
   89MPD2    H3 1364   1.832   3.839   2.080 -0.1597  1.8532  1.2129
   89MPD2     N 1365   1.723   4.204   1.828  0.2727  0.1474 -0.2904
   89MPD2    H5 1366   1.647   4.259   1.790  0.3605  0.0731 -0.5716
   89MPD2    N1 1367   1.393   3.889   1.980  0.4770 -0.8244  0.7544
   89MPD2    H7 1368   1.331   3.936   1.914  0.3126 -1.5306  0.4025
   90TCq2    C1 1369   1.851   4.253   1.800 -0.2355 -0.8172  0.1408
   90TCq2    O2 1370   1.957   4.196   1.804 -0.2212 -0.0430  0.8654
   90TCq2    C2 1371   1.844   4.373   1.724 -0.5150 -0.1707  0.4191
   90TCq2    C3 1372   1.739   4.460   1.735 -0.0395  0.3656 -0.3687
   90TCq2    C4 1373   1.743   4.572   1.661 -1.0248 -0.6733  0.5130
   90TCq2    C5 1374   1.855   4.607   1.586 -0.4967  0.4238  0.3631
   90TCq2    C6 1375   1.956   4.515   1.583  0.6699  0.3670 -0.8183
   90TCq2    C7 1376   1.960   4.408   1.663 -0.1058 -0.2166 -0.2000
   90TCq2    C8 1377   2.033   4.500   1.457  0.2675  0.8110 -0.2762
   90TCq2    O4 1378   2.098   4.398   1.430 -0.2633 -0.2410  0.2484
   90TCq2    C9 1379   1.625   4.664   1.661  0.0391 -0.3211  0.4042
   90TCq2    O5 1380   1.536   4.631   1.746 -0.5689 -0.1519 -0.3310
   90TCq2    O6 1381   1.630   0.046   1.589 -0.0664 -0.9521  0.0740
   90TCq2    H2 1382   1.649   4.452   1.795 -0.0391 -0.5225 -0.4907
   90TCq2    H3 1383   1.842   4.684   1.511 -1.1398  0.8642  0.9278
   90TCq2    H4 1384   2.035   4.332   1.643  0.2647  0.4213 -1.2587
   91TMC2    C1 1385   3.726   4.159  16.801  1.2459 -0.0565 -0.7019
   91TMC2    C2 1386   3.794   4.144  16.920  0.4599  0.6897  0.2419
   91TMC2    C3 1387   3.725   4.067  17.010  0.4441 -0.1387 -0.2971
   91TMC2    C4 1388   3.602   4.107  16.772 -0.2427  0.1950 -0.2922
   91TMC2    C5 1389   3.543   4.033  16.873  0.0713  0.2751 -0.3536
   91TMC2    C6 1390   3.601   4.012  16.997  0.1890 -0.0193 -0.0214
   91TMC2     C 1391   3.812   4.208  16.688 -0.6946  0.2171 -0.2242
   91TMC2     O 1392   3.753   4.206  16.580  0.1490 -0.2927  0.2347
   91TMC2     H 1393   3.892   4.175  16.953 -0.3105  2.3895  0.9666
   91TMC2    H1 1394   3.554   4.139  16.680  0.4355  0.5655 -0.5148
   91TMC2    H2 1395   3.551   3.951  17.071  1.4138 -0.5796  0.3495
   91TMC2    C7 1396   3.402   4.008  16.863  0.3591 -0.7276  0.5880
   91TMC2    C8 1397   3.810   4.014  17.116  0.7327  0.4747  0.0800
   91TMC2    O1 1398   3.338   4.025  16.967  0.2409  0.6367 -0.4455
   91TMC2    O2 1399   3.830   3.895  17.145 -0.0954  0.3518  0.3702
   91TMC2    O5 1400   3.813   4.109  17.215  0.0658  0.2060  0.0638
   91TMC2    H5 1401   3.797   4.203  17.191 -0.8659  0.3619  1.2860
   92MPD2     C 1402   4.037   4.203  16.488 -0.3698  0.6420 -0.0163
   92MPD2    C1 1403   4.047   4.240  16.623 -0.2372 -0.4615 -0.1585
   92MPD2    C2 1404   4.168   4.267  16.670  0.1041 -0.5797 -0.2054
   92MPD2    C3 1405   4.279   4.258  16.592  0.3400  0.4714  0.3441
   92MPD2    C4 1406   4.266   4.242  16.456 -1.3475 -0.4562  0.2490
   92MPD2    C5 1407   4.142   4.216  16.408 -0.0400  0.3831 -0.2090
   92MPD2     H 1408   4.184   4.294  16.774  0.3723 -1.0937 -0.1126
   92MPD2    H1 1409   4.348   4.233  16.386 -0.3074 -2.3070  1.7002
   92MPD2    H2 1410   3.947   4.171  16.436  0.2202  0.1096 -0.7096
   92MPD2    H3 1411   4.122   4.203  16.302  0.5920  1.4412 -0.4631
   92MPD2     N 1412   4.402   4.274  16.659 -0.3421 -0.1696 -0.5981
   92MPD2    H5 1413   4.402   4.303  16.756 -1.0485  0.4211 -0.7699
   92MPD2    N1 1414   3.943   4.238  16.722  0.2928 -0.1447 -0.1403
   92MPD2    H7 1415   3.972   4.255  16.818  1.4568 -1.1917 -0.3010
   93MPD2     C 1416   0.602   4.450  13.704  0.5224 -0.0920 -0.3287
   93MPD2    C1 1417   0.566   4.311  13.708  0.2270 -0.3461  0.3195
   93MPD2    C2 1418   0.473   4.273  13.805 -0.2651  0.6837 -0.2695
   93MPD2    C3 1419   0.408   4.365  13.891 -0.3292  0.1011 -0.6823
   93MPD2    C4 1420   0.449   4.497  13.879  0.0503 -0.2513  0.2811
   93MPD2    C5 1421   0.553   4.537  13.801  0.5068 -0.3975  1.0779
   93MPD2     H 1422   0.446   4.168  13.803  3.1401 -0.1720 -1.0554
   93MPD2    H1 1423   0.387   4.575  13.923  1.8294  1.7623 -0.7376
   93MPD2    H2 1424   0.655   4.492  13.619  0.9606 -0.9755 -0.4938
   93MPD2    H3 1425   0.586   4.640  13.801 -0.7931  0.0157 -1.1221
   93MPD2     N 1426   0.309   4.331  13.980 -0.2453 -0.3418 -0.0850
   93MPD2    H5 1427   0.259   4.403  14.031  2.0970  1.5801 -0.5008
   93MPD2    N1 1428   0.601   4.223  13.609  0.0370  0.0586 -0.7120
   93MPD2    H7 1429   0.563   4.130  13.622 -1.9459  1.3447  2.8014
   94TCq2    C1 1430   0.699   4.245  13.515 -0.1026 -0.1743  0.3159
   94TCq2    O2 1431   0.752   4.348  13.484  0.3939 -0.6634 -0.1824
   94TCq2    C2 1432   0.748   4.122  13.446  0.1652 -0.8291  0.4512
   94TCq2    C3 1433   0.707   4.000  13.489  0.0660  0.4640 -0.1985
   94TCq2    C4 1434   0.776   3.892  13.450 -0.0316  0.5643 -0.4060
   94TCq2    C5 1435   0.877   3.905  13.362 -0.3193 -0.3390 -0.1963
   94TCq2    C6 1436   0.928   4.025  13.321  0.3051 -0.5208 -0.5668
   94TCq2    C7 1437   0.859   4.137  13.361 -0.3400  0.8007 -1.1092
   94TCq2    C8 1438   1.049   4.028  13.245 -0.2679  0.2829 -0.7698
   94TCq2    O4 1439   1.124   3.935  13.260 -0.4310  0.4533  0.5145
   94TCq2    C9 1440   0.743   3.761  13.510 -0.0094 -0.9956 -0.4005
   94TCq2    O5 1441   0.675   3.760  13.617  0.0277  0.6619  0.3130
   94TCq2    O6 1442   0.812   3.666  13.467 -0.2912 -0.1536  0.4644
   94TCq2    H2 1443   0.613   3.991  13.542 -0.2533 -1.5245 -1.1012
   94TCq2    H3 1444   0.931   3.815  13.335  0.2081 -0.2655  0.5844
   94TCq2    H4 1445   0.903   4.234  13.342  0.5393  0.4743 -0.7392
   95TMC2    C1 1446   0.687   1.016  16.218 -0.1709 -0.1742  0.6129
   95TMC2    C2 1447   0.657   1.103  16.320  0.1777  0.2329 -0.4295
   95TMC2    C3 1448   0.537   1.088  16.386  0.2719 -0.0926 -0.6991
   95TMC2    C4 1449   0.619   0.898  16.197 -0.4031 -1.0060  0.6810
   95TMC2    C5 1450   0.509   0.877  16.277  0.2362 -0.9457 -0.0231
   95TMC2    C6 1451   0.463   0.976  16.365  0.2098 -0.2978  0.1089
   95TMC2     C 1452   0.795   1.047  16.127 -0.7059 -0.6918 -1.0671
   95TMC2     O 1453   0.832   1.162  16.117 -0.5543 -0.4595 -0.0591
   95TMC2     H 1454   0.709   1.197  16.331 -0.9930  0.5536  2.5532
   95TMC2    H1 1455   0.645   0.833  16.114  0.1594  0.0132  0.0514
   95TMC2    H2 1456   0.379   0.954  16.430  0.1061  0.6778  0.3022
   95TMC2    C7 1457   0.446   0.751  16.293  0.0460  0.0615 -0.6718
   95TMC2    C8 1458   0.511   1.174  16.489  0.0073 -0.0166  0.4978
   95TMC2    O1 1459   0.339   0.747  16.355 -0.6173  0.4335  0.1013
   95TMC2    O2 1460   0.535   1.293  16.478 -0.0348  0.0120  0.2400
   95TMC2    O5 1461   0.462   1.111  16.595  0.4236 -0.2836  0.5399
   95TMC2    H5 1462   0.458   1.013  16.584 -0.2216 -0.1478 -0.4094
   96MPD2     C 1463   1.088   0.873  15.715  0.3517 -0.6083  1.0925
   96MPD2    C1 1464   1.071   0.998  15.774  0.9253 -0.2266  0.0831
   96MPD2    C2 1465   1.000   1.022  15.891  0.1493  0.0046  0.2676
   96MPD2    C3 1466   0.928   0.921  15.946  0.1742 -0.2945  0.0696
   96MPD2    C4 1467   0.940   0.796  15.885  0.9807 -0.5119 -0.4723
   96MPD2    C5 1468   1.012   0.775  15.774  0.3028  0.0276  0.1288
   96MPD2     H 1469   0.984   1.126  15.920 -0.5326 -0.3367  1.1222
   96MPD2    H1 1470   0.888   0.708  15.920  1.3243 -0.7374 -0.5265
   96MPD2    H2 1471   1.150   0.854  15.628 -0.6933 -2.8263  0.8181
   96MPD2    H3 1472   1.014   0.677  15.727  1.0112 -0.5429  1.3398
   96MPD2     N 1473   0.837   0.938  16.054 -0.1200  0.3978 -0.5146
   96MPD2    H5 1474   0.799   0.848  16.081 -0.2783  0.8050  0.6408
   96MPD2    N1 1475   1.133   1.105  15.698 -0.5475  0.2253 -0.0953
   96MPD2    H7 1476   1.199   1.078  15.625 -1.0081 -0.3890 -0.2806
   97MPD2     C 1477   3.216   2.878   1.227 -0.3220 -0.5884  0.0398
   97MPD2    C1 1478   3.151   2.992   1.192 -0.5855  0.5650  0.4570
   97MPD2    C2 1479   3.173   3.040   1.068  0.4055  0.6399 -0.7879
   97MPD2    C3 1480   3.272   2.980   0.983  0.0187 -0.7103  0.6014
   97MPD2    C4 1481   3.352   2.879   1.026 -0.3690 -0.1958 -0.3117
   97MPD2    C5 1482   3.323   2.832   1.157  0.2606  0.0082  0.3320
   97MPD2     H 1483   3.111   3.121   1.031  0.5349  1.1145  0.0530
   97MPD2    H1 1484   3.435   2.832   0.975 -0.4895 -1.1230  0.3461
   97MPD2    H2 1485   3.198   2.828   1.322  0.2053  1.7759  1.3784
   97MPD2    H3 1486   3.379   2.747   1.193  0.8728  0.3390  0.1784
   97MPD2     N 1487   3.302   3.034   0.860 -0.3232  0.3312 -0.3591
   97MPD2    H5 1488   3.364   2.992   0.792  0.1371 -0.0005  0.2673
   97MPD2    N1 1489   3.053   3.048   1.276 -0.6888  0.6770  0.1369
   97MPD2    H7 1490   3.014   2.995   1.354 -1.1433 -1.1030 -1.2979
   98TCq2    C1 1491   3.269   3.155   0.821 -0.1474  0.0436 -0.2030
   98TCq2    O2 1492   3.251   3.259   0.876 -0.3307 -0.0817 -0.3411
   98TCq2    C2 1493   3.315   3.172   0.686  0.2871  0.0650  0.1855
   98TCq2    C3 1494   3.309   3.065   0.600  0.4673 -0.1110  0.1015
   98TCq2    C4 1495   3.333   3.089   0.473 -0.2010 -0.3571 -0.2306
   98TCq2    C5 1496   3.386   3.206   0.431 -0.3910 -0.5076 -0.2775
   98TCq2    C6 1497   3.404   3.304   0.525 -0.3358  0.1252  0.0330
   98TCq2    C7 1498   3.364   3.292   0.653  0.7546 -0.9451  0.3972
   98TCq2    C8 1499   3.449   3.442   0.486  0.1735  0.4019  0.0587
   98TCq2    O4 1500   3.541   3.447   0.403  0.3767 -0.4271 -0.0122
   98TCq2    C9 1501   3.293   2.992   0.368 -0.2398 -0.0981  0.1183
   98TCq2    O5 1502   3.346   3.000   0.260 -0.5457  0.1858 -1.0366
   98TCq2    O6 1503   3.202   2.909   0.393  0.1740 -0.4937  0.6038
   98TCq2    H2 1504   3.249   2.979   0.629  1.9354 -0.3195  2.5917
   98TCq2    H3 1505   3.397   3.236   0.327  2.0468  2.9918  0.9761
   98TCq2    H4 1506   3.380   3.376   0.719 -1.3089  0.3012 -0.6852
   99MPD2     C 1507   1.302   0.979   2.109  0.0494  0.3044 -0.3568
   99MPD2    C1 1508   1.354   0.856   2.157 -0.7781 -0.3209 -0.9808
   99MPD2    C2 1509   1.462   0.795   2.097  0.0189 -0.7548  0.2388
   99MPD2    C3 1510   1.510   0.844   1.977  0.0121  0.6009 -0.2136
   99MPD2    C4 1511   1.466   0.964   1.933  0.8623 -1.0737 -0.4724
   99MPD2    C5 1512   1.372   1.029   2.002 -0.4737  0.4138 -0.4630
   99MPD2     H 1513   1.498   0.708   2.151  0.5859 -2.0794 -2.2777
   99MPD2    H1 1514   1.510   1.014   1.848  0.4397  0.6798  0.3516
   99MPD2    H2 1515   1.215   1.026   2.153  0.4455  0.8996 -0.2165
   99MPD2    H3 1516   1.340   1.130   1.976  0.4336  0.8977  0.3161
   99MPD2     N 1517   1.591   0.761   1.899 -0.2287 -1.0706 -0.4404
   99MPD2    H5 1518   1.624   0.673   1.935  0.1075 -0.8982 -0.3309
   99MPD2    N1 1519   1.298   0.800   2.273 -0.0218 -0.0842  0.4124
   99MPD2    H7 1520   1.334   0.710   2.304  0.9198 -0.5369 -2.0106
  100TCq2    C1 1521   1.217   0.862   2.362 -0.2361  0.4355  0.2354
  100TCq2    O2 1522   1.203   0.984   2.373  0.0159 -0.1739  0.2199
  100TCq2    C2 1523   1.184   0.782   2.478 -1.0807  0.4123  0.5926
  100TCq2    C3 1524   1.208   0.833   2.603  0.1302  0.1906 -0.4492
  100TCq2    C4 1525   1.185   0.749   2.706  0.1813 -0.3895 -0.0864
  100TCq2    C5 1526   1.164   0.614   2.697 -0.1699 -0.1488 -0.4771
  100TCq2    C6 1527   1.150   0.567   2.565  1.1923  0.1242  1.0584
  100TCq2    C7 1528   1.155   0.652   2.455 -0.3976 -0.0436  0.5496
  100TCq2    C8 1529   1.079   0.444   2.544 -0.1936 -0.9897  0.0819
  100TCq2    O4 1530   1.082   0.365   2.637  0.4522  0.3369  0.0620
  100TCq2    C9 1531   1.216   0.807   2.833 -0.1441 -0.3776 -0.1850
  100TCq2    O5 1532   1.212   0.731   2.935 -0.1316 -0.3312 -1.0354
  100TCq2    O6 1533   1.255   0.924   2.835 -0.1105 -0.2355 -0.1899
  100TCq2    H2 1534   1.242   0.934   2.618  2.2496 -0.8904  2.0937
  100TCq2    H3 1535   1.153   0.548   2.783  1.9349 -1.9931 -1.6096
  100TCq2    H4 1536   1.151   0.618   2.352 -1.0354  1.9941 -0.1029
  101MPD2     C 1537   3.189   1.596  12.836  0.5923 -0.5576  0.9611
  101MPD2    C1 1538   3.100   1.687  12.878 -0.2663  0.6166  0.5440
  101MPD2    C2 1539   3.015   1.661  12.976  0.8727 -0.1407 -0.1303
  101MPD2    C3 1540   3.016   1.537  13.037  0.4778 -0.4110  0.5462
  101MPD2    C4 1541   3.109   1.444  12.994 -0.5071  0.6304  0.9882
  101MPD2    C5 1542   3.192   1.472  12.891  0.6742  0.0905  0.0533
  101MPD2     H 1543   2.948   1.739  13.010  1.8210  1.6170 -2.2608
  101MPD2    H1 1544   3.119   1.347  13.042  0.0184  0.7553  1.1255
  101MPD2    H2 1545   3.267   1.632  12.770 -0.5077  1.7502  0.9394
  101MPD2    H3 1546   3.279   1.409  12.876 -0.5290 -2.0434  2.1512
  101MPD2     N 1547   2.925   1.513  13.145 -0.0288  0.5514 -0.5442
  101MPD2    H5 1548   2.878   1.591  13.189 -1.1076 -0.4645  0.0889
  101MPD2    N1 1549   3.110   1.813  12.815 -0.0719  0.1112  0.1890
  101MPD2    H7 1550   3.179   1.816  12.740  0.6566  1.0653  0.8877
  102TCq2    C1 1551   3.230   2.071  12.407  0.9389 -0.0905  0.5318
  102TCq2    O2 1552   3.330   2.010  12.450  0.2501 -0.4342  0.5507
  102TCq2    C2 1553   3.114   2.047  12.488 -0.0962 -0.4272  0.5151
  102TCq2    C3 1554   2.995   2.102  12.443 -0.0341 -0.2505  0.3883
  102TCq2    C4 1555   2.883   2.076  12.518  0.3104 -0.4303 -0.1185
  102TCq2    C5 1556   2.896   2.014  12.637  0.3176 -0.3851  0.5514
  102TCq2    C6 1557   3.018   1.984  12.686  0.4922  0.2599  0.3759
  102TCq2    C7 1558   3.129   1.996  12.610 -0.1330  0.4084  0.7574
  102TCq2    C8 1559   3.016   1.906  12.809 -0.7501 -0.3141 -0.0879
  102TCq2    O4 1560   2.908   1.904  12.867 -0.0277 -0.3859 -0.0187
  102TCq2    C9 1561   2.755   2.130  12.470 -1.0345  0.0433 -0.4091
  102TCq2    O5 1562   2.654   2.066  12.507  0.3463 -0.3413  0.9803
  102TCq2    O6 1563   2.756   2.199  12.363  0.0566  0.4664 -0.0933
  102TCq2    H2 1564   2.998   2.163  12.353  2.4253 -2.1699 -0.8431
  102TCq2    H3 1565   2.801   2.006  12.690 -1.0073 -1.2692 -1.9313
  102TCq2    H4 1566   3.227   1.964  12.644 -0.2477 -0.8651 -0.1129
  103TMC2    C1 1567   1.577   1.652  12.918  0.5996  0.1246 -0.4326
  103TMC2    C2 1568   1.640   1.733  12.824 -0.3367  0.6435 -0.0159
  103TMC2    C3 1569   1.647   1.870  12.844 -0.4824 -0.6903  0.4560
  103TMC2    C4 1570   1.499   1.709  13.014  0.6423  0.8553 -0.1669
  103TMC2    C5 1571   1.503   1.844  13.025  0.0435 -0.7783  0.2978
  103TMC2    C6 1572   1.592   1.921  12.956  0.0998  0.4180 -0.4095
  103TMC2     C 1573   1.518   1.531  12.871  0.2901 -0.2070  0.6327
  103TMC2     O 1574   1.486   1.452  12.955  0.6853 -0.0279 -0.0559
  103TMC2     H 1575   1.691   1.681  12.744  2.7816  2.9939  0.4551
  103TMC2    H1 1576   1.436   1.648  13.077  1.8442  0.5095  0.7080
  103TMC2    H2 1577   1.620   2.023  12.980 -0.0315  0.5799 -0.9299
  103TMC2    C7 1578   1.414   1.912  13.119 -0.3860 -0.0836  1.5250
  103TMC2    C8 1579   1.737   1.938  12.762 -0.4895 -0.1319 -0.5620
  103TMC2    O1 1580   1.354   1.844  13.200 -0.2654 -0.3116  0.2329
  103TMC2    O2 1581   1.735   2.060  12.752  0.4181  0.3922  0.1542
  103TMC2    O5 1582   1.846   1.860  12.742  0.1306  0.0529  0.3397
  103TMC2    H5 1583   1.846   1.774  12.790  0.8168 -1.3846 -2.1953
  104MPD2     C 1584   1.459   1.309  12.706  0.1522  0.8194  0.2268
  104MPD2    C1 1585   1.442   1.435  12.659 -0.1550 -0.6213 -0.0925
  104MPD2    C2 1586   1.393   1.464  12.530 -0.2539 -0.3469  0.2132
  104MPD2    C3 1587   1.361   1.360  12.444  0.0435 -1.4589  0.4399
  104MPD2    C4 1588   1.390   1.229  12.492  0.4319 -0.2781 -0.3555
  104MPD2    C5 1589   1.441   1.213  12.617 -1.3727  0.5743 -0.5771
  104MPD2     H 1590   1.387   1.567  12.499 -0.4584 -0.4770 -0.1819
  104MPD2    H1 1591   1.369   1.139  12.435 -1.5827  0.1675 -0.3141
  104MPD2    H2 1592   1.498   1.278  12.802  1.7358 -0.6989 -0.9018
  104MPD2    H3 1593   1.464   1.112  12.651 -0.0794  0.2722 -2.3731
  104MPD2     N 1594   1.304   1.399  12.318  0.0828 -0.2499  0.3214
  104MPD2    H5 1595   1.275   1.495  12.303  0.2931 -0.2912 -0.3591
  104MPD2    N1 1596   1.488   1.544  12.736  0.0766  0.4841 -0.1511
  104MPD2    H7 1597   1.508   1.632  12.691 -0.2380  0.3143 -0.6307
  105MPD2     C 1598   2.415   1.209   0.052 -0.2638 -1.3177 -0.0720
  105MPD2    C1 1599   2.304   1.290   0.021  0.3532  1.1614  0.8422
  105MPD2    C2 1600   2.262   1.368   0.124 -0.1757 -0.1924  0.1733
  105MPD2    C3 1601   2.321   1.373   0.251 -0.9191  0.4377  0.8654
  105MPD2    C4 1602   2.432   1.293   0.273  0.7491  0.4706  0.8097
  105MPD2    C5 1603   2.472   1.208   0.177 -0.4454  0.2487  0.6272
  105MPD2     H 1604   2.179   1.435   0.102  0.8849  1.0452 -0.0608
  105MPD2    H1 1605   2.487   1.301   0.366 -0.7406 -0.5011  1.7830
  105MPD2    H2 1606   2.467   1.162  17.656  0.1877 -2.9246  1.1119
  105MPD2    H3 1607   2.562   1.149   0.190  0.2759  1.1574 -0.1996
  105MPD2     N 1608   2.257   1.459   0.347 -0.2983 -0.0526  0.1905
  105MPD2    H5 1609   2.174   1.512   0.322 -1.0331 -0.9030  0.8045
  105MPD2    N1 1610   2.231   1.279  17.588  0.4621  0.0031  0.4036
  105MPD2    H7 1611   2.158   1.348  17.576  0.6000 -0.0702 -0.8652
  106TCq2    C1 1612   2.289   1.461   0.479 -0.4283 -0.4472  0.0496
  106TCq2    O2 1613   2.359   1.387   0.541 -0.2160 -0.2205  0.4083
  106TCq2    C2 1614   2.201   1.544   0.563  0.5719 -0.3488  0.1624
  106TCq2    C3 1615   2.107   1.616   0.499  0.5416  0.4983  0.2164
  106TCq2    C4 1616   1.984   1.643   0.560  0.6666 -0.1941 -0.0139
  106TCq2    C5 1617   1.960   1.599   0.688 -0.4970  0.4094 -0.9526
  106TCq2    C6 1618   2.063   1.534   0.749 -0.3189 -0.4140 -0.4569
  106TCq2    C7 1619   2.187   1.504   0.692 -0.3870 -0.0638 -0.3817
  106TCq2    C8 1620   2.035   1.437   0.853  0.4084 -0.6187  0.8321
  106TCq2    O4 1621   2.096   1.337   0.851  0.4803 -0.0441  0.2769
  106TCq2    C9 1622   1.883   1.724   0.489 -0.3567  0.0316  0.6492
  106TCq2    O5 1623   1.778   1.749   0.553  0.4782 -0.1671  0.3631
  106TCq2    O6 1624   1.900   1.735   0.361  0.0251  0.0020 -0.5764
  106TCq2    H2 1625   2.125   1.662   0.403 -0.1392  1.6560  0.6467
  106TCq2    H3 1626   1.864   1.611   0.737  0.0324  0.4303  0.0621
  106TCq2    H4 1627   2.265   1.445   0.738  0.0798  1.8060  1.2300
  107TMC2    C1 1628   3.155   0.198  11.601 -0.6355  0.3312 -0.4916
  107TMC2    C2 1629   3.198   0.294  11.513 -0.3085 -0.0257 -1.0018
  107TMC2    C3 1630   3.284   0.248  11.419  0.5140 -0.6811  0.8789
  107TMC2    C4 1631   3.207   0.074  11.616 -0.5545 -0.2346 -0.3824
  107TMC2    C5 1632   3.288   0.034  11.515 -0.1540 -0.2211  0.0715
  107TMC2    C6 1633   3.321   0.117  11.409  0.7489 -0.2623 -0.2789
  107TMC2     C 1634   3.050   0.239  11.692  0.3449  0.1261 -0.3582
  107TMC2     O 1635   3.021   0.357  11.719 -0.4380  0.2564  0.7938
  107TMC2     H 1636   3.154   0.393  11.508 -0.5778 -0.0405  1.0976
  107TMC2    H1 1637   3.192   0.011  11.703  0.5760 -2.5412 -1.8700
  107TMC2    H2 1638   3.394   0.085  11.335  0.6750 -1.0677 -0.0006
  107TMC2    C7 1639   3.318   4.611  11.513  0.3322 -0.2744 -0.5038
  107TMC2    C8 1640   3.389   0.345  11.392 -0.2024 -0.3792 -0.4551
  107TMC2    O1 1641   3.241   4.553  11.585  0.0229  0.1165  0.1157
  107TMC2    O2 1642   3.409   0.445  11.460 -0.1537  0.1688 -0.0043
  107TMC2    O5 1643   3.462   0.297  11.288 -0.5051  0.2710  0.1171
  107TMC2    H5 1644   3.402   0.235  11.242  0.9282  0.0301 -1.4259
  108MPD2     C 1645   2.787   0.005  11.801 -0.2224  0.1460 -0.0200
  108MPD2    C1 1646   2.853   0.121  11.793 -0.1062  0.1023 -0.7898
  108MPD2    C2 1647   2.799   0.229  11.871 -0.7232  1.0537 -0.2826
  108MPD2    C3 1648   2.698   0.210  11.957 -0.7220 -0.8241  0.0688
  108MPD2    C4 1649   2.642   0.085  11.969 -0.3354 -0.2003 -0.1103
  108MPD2    C5 1650   2.685   4.708  11.894  0.1722  1.0357  0.3808
  108MPD2     H 1651   2.840   0.329  11.871  0.1188  0.7115  2.1067
  108MPD2    H1 1652   2.561   0.072  12.039  0.9520 -2.4343  0.9548
  108MPD2    H2 1653   2.813   4.638  11.743 -2.4643  0.5772 -1.6601
  108MPD2    H3 1654   2.635   4.613  11.905  0.7910  0.4986 -1.3973
  108MPD2     N 1655   2.650   0.310  12.049  0.2163 -0.2140 -0.3992
  108MPD2    H5 1656   2.579   0.284  12.116 -0.4704  0.4165 -0.8929
  108MPD2    N1 1657   2.966   0.131  11.712 -0.5876  0.1396  0.8414
  108MPD2    H7 1658   2.994   0.045  11.666 -2.6533 -1.2294  2.1367
  109MPD2     C 1659   3.156   2.004   1.992  0.3779  0.1820  0.7550
  109MPD2    C1 1660   3.180   2.139   1.974  0.5680 -0.6076  0.5603
  109MPD2    C2 1661   3.063   2.218   1.998  0.1218 -0.4184 -0.0652
  109MPD2    C3 1662   2.950   2.177   2.062  0.0577 -0.2430 -0.3130
  109MPD2    C4 1663   2.942   2.044   2.101  0.2436 -0.5727 -0.0549
  109MPD2    C5 1664   3.043   1.967   2.062  0.1084  0.3318  0.1193
  109MPD2     H 1665   3.083   2.322   1.975  0.3146 -0.5350 -0.4465
  109MPD2    H1 1666   2.860   2.009   2.164 -0.3554  0.9599  0.0141
  109MPD2    H2 1667   3.237   1.937   1.964  0.0141  0.9808 -2.2653
  109MPD2    H3 1668   3.025   1.861   2.072 -0.2794  0.7213  3.3373
  109MPD2     N 1669   2.853   2.263   2.086  0.0828 -0.6621 -0.5228
  109MPD2    H5 1670   2.867   2.362   2.069  2.7795 -0.4896  2.7916
  109MPD2    N1 1671   3.295   2.188   1.908 -0.4140  0.3563 -0.3740
  109MPD2    H7 1672   3.361   2.120   1.871 -0.4916  0.0624  0.0303
  110TCq2    C1 1673   2.735   2.236   2.145 -0.3771 -0.1230  0.9259
  110TCq2    O2 1674   2.675   2.134   2.171 -0.1730 -0.6628 -0.1053
  110TCq2    C2 1675   2.664   2.360   2.168  0.2042  0.0676  0.2854
  110TCq2    C3 1676   2.563   2.360   2.260  0.2434 -0.3110  0.1136
  110TCq2    C4 1677   2.490   2.474   2.266 -0.1832  0.3257 -0.8001
  110TCq2    C5 1678   2.503   2.585   2.187 -0.0353  0.2918 -0.3352
  110TCq2    C6 1679   2.598   2.574   2.089  0.4549 -0.4184 -0.5604
  110TCq2    C7 1680   2.684   2.464   2.076 -0.1870 -0.5421  0.3257
  110TCq2    C8 1681   2.640   2.696   2.017  0.3633  0.0258 -0.7872
  110TCq2    O4 1682   2.712   2.685   1.918  0.0853  0.2387  0.0620
  110TCq2    C9 1683   2.380   2.469   2.360  0.0839  0.0188  0.2947
  110TCq2    O5 1684   2.381   2.372   2.435  0.3591 -0.0623  0.8444
  110TCq2    O6 1685   2.303   2.566   2.364 -0.2525  0.0236  0.4270
  110TCq2    H2 1686   2.540   2.268   2.311 -0.8647 -1.1192 -1.8321
  110TCq2    H3 1687   2.429   2.665   2.193  0.7348  0.9685  0.0778
  110TCq2    H4 1688   2.756   2.461   1.995  1.3758 -1.0773  1.7503
  111TMC2    C1 1689   3.181   2.174  11.620  0.2230  0.1411  0.4435
  111TMC2    C2 1690   3.123   2.075  11.690  0.1791  0.2373 -0.2096
  111TMC2    C3 1691   3.208   1.971  11.727 -0.3079  0.4686 -0.1239
  111TMC2    C4 1692   3.316   2.180  11.593 -0.1508 -0.2050 -0.3418
  111TMC2    C5 1693   3.398   2.081  11.635 -0.5362 -0.5055  0.5502
  111TMC2    C6 1694   3.344   1.973  11.702 -0.0993  0.1251  0.1918
  111TMC2     C 1695   3.101   2.252  11.530  0.4545 -0.1102 -0.3653
  111TMC2     O 1696   3.157   2.276  11.422 -0.1925  0.0921 -0.3264
  111TMC2     H 1697   3.016   2.077  11.710  0.3032  0.9821  0.3713
  111TMC2    H1 1698   3.357   2.268  11.544  0.9938  0.0982  1.1821
  111TMC2    H2 1699   3.408   1.909  11.761 -1.1435  0.1301  1.3281
  111TMC2    C7 1700   3.537   2.110  11.651 -0.3923  0.7223 -0.2948
  111TMC2    C8 1701   3.164   1.885  11.836 -0.0299 -0.4439 -0.2541
  111TMC2    O1 1702   3.556   2.234  11.651 -0.0248 -0.1629  0.2895
  111TMC2    O2 1703   3.056   1.895  11.891 -0.3093 -0.0176  0.4242
  111TMC2    O5 1704   3.239   1.772  11.833  0.4401 -0.5339 -0.2215
  111TMC2    H5 1705   3.281   1.760  11.745  1.6796  0.0500  0.2998
  112MPD2     C 1706   2.635   2.354  11.330  0.5710 -0.0094 -0.7331
  112MPD2    C1 1707   2.758   2.360  11.270 -0.5807 -0.4876  0.3219
  112MPD2    C2 1708   2.871   2.341  11.352  0.3357 -0.1470 -0.5317
  112MPD2    C3 1709   2.860   2.321  11.485  0.8657  0.2395 -0.4999
  112MPD2    C4 1710   2.742   2.337  11.549  0.3049  0.1053 -0.5949
  112MPD2    C5 1711   2.628   2.346  11.469  0.2140 -0.4300 -0.3233
  112MPD2     H 1712   2.963   2.338  11.295  0.8017  0.0908  0.2011
  112MPD2    H1 1713   2.738   2.334  11.657 -0.9660  0.3480 -0.6370
  112MPD2    H2 1714   2.545   2.370  11.273  0.0316  0.0822  0.1343
  112MPD2    H3 1715   2.528   2.355  11.510  0.9883  4.8001  0.4517
  112MPD2     N 1716   2.970   2.272  11.565 -0.2589 -1.0173 -0.6004
  112MPD2    H5 1717   2.944   2.235  11.656  1.4919 -1.2240 -0.1952
  112MPD2    N1 1718   2.778   2.380  11.135 -0.0289  0.2161 -0.0774
  112MPD2    H7 1719   2.875   2.384  11.106 -0.0274 -0.1833 -0.1396
  113MPD2     C 1720   0.997   0.411   1.357 -0.8800 -0.1508  1.1877
  113MPD2    C1 1721   0.889   0.482   1.406  0.8219  0.2518  0.4911
  113MPD2    C2 1722   0.758   0.426   1.376  0.3406 -0.2693  0.2367
  113MPD2    C3 1723   0.749   0.307   1.307 -0.3755  0.5249 -0.7473
  113MPD2    C4 1724   0.860   0.240   1.265  0.4199 -0.0921  0.5750
  113MPD2    C5 1725   0.978   0.301   1.288  0.5108  1.3205  0.3147
  113MPD2     H 1726   0.668   0.482   1.400  0.7008  0.3227  0.1765
  113MPD2    H1 1727   0.864   0.144   1.216  0.4241  0.9182 -1.4277
  113MPD2    H2 1728   1.100   0.437   1.378 -0.5170 -1.5062  1.0499
  113MPD2    H3 1729   1.070   0.252   1.258 -1.2663 -1.6423 -0.3533
  113MPD2     N 1730   0.621   0.252   1.271  0.7111  0.0120  0.7121
  113MPD2    H5 1731   0.638   0.177   1.205 -0.1246  0.2289  0.2498
  113MPD2    N1 1732   0.881   0.606   1.478  0.8130  0.0853  0.2599
  113MPD2    H7 1733   0.788   0.637   1.504  0.3847 -0.6185 -0.4307
  114TCq2    C1 1734   0.496   0.307   1.294 -0.1734 -0.1054  0.0659
  114TCq2    O2 1735   0.466   0.412   1.351  0.0503  0.2604  0.6324
  114TCq2    C2 1736   0.392   0.204   1.267 -0.2003 -0.3823  0.3769
  114TCq2    C3 1737   0.267   0.259   1.282 -0.1048 -0.0162 -0.1313
  114TCq2    C4 1738   0.165   0.179   1.333 -0.9444  0.0246 -0.6292
  114TCq2    C5 1739   0.187   0.048   1.369 -0.1545 -0.0306  0.1205
  114TCq2    C6 1740   0.315   0.001   1.349 -0.9087  0.2431  0.0462
  114TCq2    C7 1741   0.417   0.072   1.297  0.0903 -0.0362  0.0272
  114TCq2    C8 1742   0.338   4.580   1.367  0.2687 -0.0332  0.5027
  114TCq2    O4 1743   0.450   4.537   1.356  0.0460 -0.5759  0.4055
  114TCq2    C9 1744   0.044   0.256   1.375 -0.1351 -0.0515  0.6121
  114TCq2    O5 1745   0.030   0.378   1.345 -0.0586  0.4777  0.5575
  114TCq2    O6 1746   4.696   0.196   1.455 -0.1197 -0.9673  0.0390
  114TCq2    H2 1747   0.264   0.366   1.264  0.0079  0.0182  0.0594
  114TCq2    H3 1748   0.108   0.001   1.427 -1.6278  0.1307 -1.7439
  114TCq2    H4 1749   0.515   0.027   1.288  0.6504  1.6320 -1.9925
  115TMC2    C1 1750   1.298   3.237   0.079 -0.8229 -0.1736  0.4518
  115TMC2    C2 1751   1.316   3.285   0.207 -0.1550  0.3771 -0.4728
  115TMC2    C3 1752   1.366   3.411   0.212 -1.1813 -0.7867  0.5645
  115TMC2    C4 1753   1.338   3.302  17.653 -0.0577 -0.4142  0.7154
  115TMC2    C5 1754   1.398   3.423  17.673  0.3590 -0.3358 -0.6300
  115TMC2    C6 1755   1.415   3.480   0.107 -0.0713 -0.1529  0.2472
  115TMC2     C 1756   1.225   3.121   0.049  0.0371  0.1235 -0.2197
  115TMC2     O 1757   1.248   3.071  17.631  0.2200  0.0842 -0.3206
  115TMC2     H 1758   1.284   3.236   0.298  0.2254 -2.7083 -2.0085
  115TMC2    H1 1759   1.329   3.268  17.551 -0.5074 -0.7625  0.8708
  115TMC2    H2 1760   1.449   3.583   0.108  1.8907 -0.8046  0.9599
  115TMC2    C7 1761   1.420   3.508  17.557  0.3993  0.2221 -0.5460
  115TMC2    C8 1762   1.362   3.477   0.340  0.0651  0.2738 -0.0686
  115TMC2    O1 1763   1.374   3.469  17.449  1.0523  0.0704 -0.4626
  115TMC2    O2 1764   1.275   3.457   0.424  0.2684  0.8479  0.8116
  115TMC2    O5 1765   1.491   3.497   0.379  0.3937 -0.4677  0.8110
  115TMC2    H5 1766   1.561   3.507   0.310 -2.7103 -0.1855 -2.2801
  116MPD2     C 1767   0.844   2.783   0.121 -0.1068 -0.1567 -0.4647
  116MPD2    C1 1768   0.921   2.810   0.006  0.3748  0.4373 -0.6587
  116MPD2    C2 1769   1.009   2.920   0.012 -0.2746  0.2122 -0.0944
  116MPD2    C3 1770   1.029   2.988   0.132 -0.1706 -0.0011 -0.0219
  116MPD2    C4 1771   0.934   2.978   0.230  0.1915 -0.0032 -0.5399
  116MPD2    C5 1772   0.847   2.868   0.226  0.0290  0.9263  0.1784
  116MPD2     H 1773   1.078   2.939  17.618 -0.5895 -1.0105 -0.6349
  116MPD2    H1 1774   0.930   3.037   0.321  1.5609  0.6864 -0.9286
  116MPD2    H2 1775   0.771   2.704   0.133 -0.6821  0.6190  1.1736
  116MPD2    H3 1776   0.782   2.839   0.308  1.1903  0.2602  0.8550
  116MPD2     N 1777   1.131   3.092   0.149  0.1645  0.4804 -0.5095
  116MPD2    H5 1778   1.125   3.153   0.229  0.5419 -0.3390  0.1436
  116MPD2    N1 1779   0.904   2.730  17.581  0.0399 -0.2439 -0.2223
  116MPD2    H7 1780   0.841   2.652  17.596  0.4159 -0.7473 -1.2656
  117TMC2    C1 1781   4.648   4.398  14.322 -0.0546 -0.0421 -0.5407
  117TMC2    C2 1782   4.661   4.313  14.433  0.0411 -0.7076 -0.3045
  117TMC2    C3 1783   0.064   4.292  14.484 -0.2137  0.2417  0.1670
  117TMC2    C4 1784   0.031   4.472  14.266 -0.2589  0.1863 -0.1445
  117TMC2    C5 1785   0.156   4.451  14.322 -0.3051  0.4213 -0.3814
  117TMC2    C6 1786   0.173   4.372  14.438 -0.3337 -0.5473  0.1349
  117TMC2     C 1787   4.518   4.390  14.257 -0.1300 -0.4987  0.3410
  117TMC2     O 1788   4.473   4.281  14.219 -0.5960 -0.2168 -0.4069
  117TMC2     H 1789   4.573   4.260  14.467 -0.5555 -0.4174 -1.3584
  117TMC2    H1 1790   0.021   4.539  14.182 -0.6560  0.3626  0.0429
  117TMC2    H2 1791   0.262   4.364  14.499 -0.8982 -1.9337  0.7696
  117TMC2    C7 1792   0.266   4.519  14.262 -0.3034 -0.4317 -0.3557
  117TMC2    C8 1793   0.066   4.276  14.625 -0.3686 -0.1245  0.0945
  117TMC2    O1 1794   0.244   4.558  14.145  0.7763  0.5824 -0.1906
  117TMC2    O2 1795   0.144   4.332  14.699 -0.9611  0.4132 -0.0414
  117TMC2    O5 1796   4.704   4.170  14.664 -0.1651  0.5275 -0.5242
  117TMC2    H5 1797   4.675   4.132  14.579 -1.7028 -0.2672  0.3614
  118MPD2     C 1798   0.611   4.575  14.396 -0.3455  0.0019  0.6848
  118MPD2    C1 1799   0.499   4.599  14.312  0.2411  0.0333 -0.1231
  118MPD2    C2 1800   0.507   4.686  14.207  0.0826 -0.4018  0.4406
  118MPD2    C3 1801   0.623   0.042  14.199 -0.1482  0.3287 -0.3960
  118MPD2    C4 1802   0.736   0.020  14.276  1.1597 -0.0543 -0.3095
  118MPD2    C5 1803   0.725   4.647  14.376 -0.2116  0.3646  0.1059
  118MPD2     H 1804   0.421   4.708  14.145  1.6151 -0.9508 -1.8868
  118MPD2    H1 1805   0.833   0.061  14.250  0.5533  0.7708 -1.2922
  118MPD2    H2 1806   0.603   4.499  14.472  2.6836  0.4844  1.4737
  118MPD2    H3 1807   0.811   4.632  14.440  0.7342 -0.5403 -1.3847
  118MPD2     N 1808   0.644   0.133  14.093  0.5270  0.2929 -0.9136
  118MPD2    H5 1809   0.737   0.172  14.085  1.4456 -1.7200  0.0320
  118MPD2    N1 1810   0.381   4.525  14.342  0.1605 -0.3497 -0.3994
  118MPD2    H7 1811   0.384   4.463  14.422 -0.6670  0.1997  0.0648
  119MPD2     C 1812   3.692   1.543  14.144  0.4578  0.8112 -0.2909
  119MPD2    C1 1813   3.577   1.475  14.122 -0.3282  0.7863  0.4247
  119MPD2    C2 1814   3.558   1.417  13.993  0.0642  0.3542  0.2932
  119MPD2    C3 1815   3.652   1.439  13.893  0.5992  0.5173 -0.1653
  119MPD2    C4 1816   3.770   1.510  13.918 -0.4397  0.8972  0.4029
  119MPD2    C5 1817   3.775   1.567  14.039  0.2173 -0.0959 -0.2758
  119MPD2     H 1818   3.473   1.352  13.975 -1.8559  3.1789 -0.8849
  119MPD2    H1 1819   3.839   1.540  13.839 -0.5022 -1.2594 -0.4675
  119MPD2    H2 1820   3.703   1.609  14.229  0.9518 -0.7449  0.8516
  119MPD2    H3 1821   3.858   1.635  14.056  1.1641 -1.8201  2.0331
  119MPD2     N 1822   3.634   1.383  13.765  0.4437 -0.0923 -0.2130
  119MPD2    H5 1823   3.719   1.370  13.711  0.0381  0.5786 -1.0170
  119MPD2    N1 1824   3.479   1.464  14.226  0.5271  0.2175 -0.4985
  119MPD2    H7 1825   3.504   1.487  14.321  0.7967 -0.5819 -0.3768
  120TCq2    C1 1826   3.507   1.356  13.715 -1.2346 -0.1249 -0.2615
  120TCq2    O2 1827   3.398   1.402  13.749  0.2616  0.4769 -0.3082
  120TCq2    C2 1828   3.501   1.274  13.593  0.4726 -0.0561  0.2978
  120TCq2    C3 1829   3.612   1.190  13.563 -0.0263  0.3088  0.4406
  120TCq2    C4 1830   3.587   1.086  13.471  0.1439  0.6796 -0.4089
  120TCq2    C5 1831   3.455   1.066  13.432  0.7796 -0.4975  0.3131
  120TCq2    C6 1832   3.349   1.148  13.466  0.1066 -0.1344 -0.4483
  120TCq2    C7 1833   3.375   1.251  13.547  0.2822  0.0531 -0.0396
  120TCq2    C8 1834   3.211   1.093  13.452 -0.0830  0.2572 -0.0303
  120TCq2    O4 1835   3.172   1.030  13.356 -0.1437  0.0869  0.2533
  120TCq2    C9 1836   3.698   1.005  13.422 -0.7105 -0.2139  0.3991
  120TCq2    O5 1837   3.676   0.902  13.351  0.8686  0.8146  0.0645
  120TCq2    O6 1838   3.808   1.052  13.449 -0.2001 -0.2266  0.3839
  120TCq2    H2 1839   3.712   1.214  13.596  0.3409 -0.9845  0.2890
  120TCq2    H3 1840   3.427   0.985  13.366  0.1857  0.1650 -0.2544
  120TCq2    H4 1841   3.294   1.318  13.574  2.0255  1.9547  0.5110
  121TMC2    C1 1842   0.024   2.567  13.693  0.1566 -0.1039  0.2765
  121TMC2    C2 1843   0.112   2.471  13.644  0.6870  0.2684 -0.2012
  121TMC2    C3 1844   0.052   2.366  13.583  0.1192 -0.7774  0.2777
  121TMC2    C4 1845   4.611   2.551  13.671  0.1687 -0.3872 -0.3757
  121TMC2    C5 1846   4.558   2.432  13.607 -0.6894  0.2624  0.3009
  121TMC2    C6 1847   4.641   2.339  13.560 -1.4880  0.2786  0.0390
  121TMC2     C 1848   0.082   2.680  13.764 -0.8614 -0.4005 -0.2391
  121TMC2     O 1849   0.010   2.748  13.839 -0.0362  0.4177 -0.3400
  121TMC2     H 1850   0.220   2.486  13.641  0.7248 -0.4366 -2.5780
  121TMC2    H1 1851   4.541   2.627  13.702 -0.2920 -0.8236 -0.3491
  121TMC2    H2 1852   4.600   2.259  13.499 -2.1889  0.4393  0.3046
  121TMC2    C7 1853   4.421   2.431  13.563 -0.6025 -0.1934  0.4702
  121TMC2    C8 1854   0.135   2.265  13.533 -0.0351 -1.5272 -0.3984
  121TMC2    O1 1855   4.379   2.319  13.528 -0.1777 -0.2484 -0.0251
  121TMC2    O2 1856   0.256   2.287  13.514 -0.3687 -0.6024 -0.6241
  121TMC2    O5 1857   0.072   2.144  13.542 -0.0680 -0.5241 -0.3441
  121TMC2    H5 1858   4.713   2.152  13.598  1.4178 -3.5960  2.2292
  122MPD2     C 1859   0.273   2.875  13.884  0.4909 -0.1549 -0.1842
  122MPD2    C1 1860   0.280   2.824  13.754  0.2308  0.1817 -0.3873
  122MPD2    C2 1861   0.369   2.884  13.663  0.5297  0.2073 -0.1108
  122MPD2    C3 1862   0.445   2.997  13.699  0.1146 -0.5742  0.0931
  122MPD2    C4 1863   0.427   3.045  13.822 -0.2800 -0.2239 -0.0685
  122MPD2    C5 1864   0.345   2.985  13.915  0.1049 -0.1144  0.2672
  122MPD2     H 1865   0.373   2.843  13.562 -1.6327 -1.2015  0.3602
  122MPD2    H1 1866   0.484   3.134  13.848 -2.1114  1.5134 -1.9952
  122MPD2    H2 1867   0.210   2.830  13.959 -1.1502  0.6849 -1.0606
  122MPD2    H3 1868   0.340   3.021  14.017 -0.2329  1.5984 -0.3670
  122MPD2     N 1869   0.538   3.050  13.606 -0.0082  0.5972  0.7283
  122MPD2    H5 1870   0.572   3.144  13.620  0.7060  0.4908 -0.3389
  122MPD2    N1 1871   0.203   2.717  13.707  0.3586  0.1141  0.1100
  122MPD2    H7 1872   0.237   2.660  13.629  2.5208 -1.2549  2.0467
  123MPD2     C 1873   2.204   4.661   9.464  0.6789  0.2695 -0.2242
  123MPD2    C1 1874   2.316   4.685   9.539 -0.2004 -0.7884 -0.0635
  123MPD2    C2 1875   2.416   0.047   9.479 -0.5387 -0.6966  0.0483
  123MPD2    C3 1876   2.391   0.097   9.351  0.2021 -0.5033  0.0168
  123MPD2    C4 1877   2.287   0.064   9.277  0.7657  0.0623 -0.0589
  123MPD2    C5 1878   2.191   4.709   9.340 -0.0297  0.5594  0.1323
  123MPD2     H 1879   2.499   0.089   9.534 -1.1087 -1.6322  1.6252
  123MPD2    H1 1880   2.269   0.101   9.177  0.8428 -2.0085 -0.8502
  123MPD2    H2 1881   2.118   4.609   9.503  0.0798  3.3813  2.6276
  123MPD2    H3 1882   2.098   4.686   9.288  0.9112  0.7656 -1.6487
  123MPD2     N 1883   2.492   0.180   9.293  1.0856 -0.5084  0.4157
  123MPD2    H5 1884   2.581   0.183   9.343  0.8004 -0.9954  0.9537
  123MPD2    N1 1885   2.317   4.639   9.673  0.2519  0.4572  0.4141
  123MPD2    H7 1886   2.240   4.578   9.702  1.4418 -1.7814 -1.1213
  124TCq2    C1 1887   2.478   0.250   9.176 -0.2317  1.1494  1.1661
  124TCq2    O2 1888   2.381   0.278   9.107  0.5273 -0.3505 -0.0690
  124TCq2    C2 1889   2.606   0.298   9.128 -0.4535  0.0200 -0.9136
  124TCq2    C3 1890   2.623   0.289   8.990 -0.4181 -0.1777 -0.6288
  124TCq2    C4 1891   2.745   0.307   8.930 -0.0327  0.4025  0.1608
  124TCq2    C5 1892   2.850   0.328   9.011 -0.1653 -0.7565  0.5364
  124TCq2    C6 1893   2.832   0.341   9.150  0.1852  0.6060  0.3004
  124TCq2    C7 1894   2.709   0.325   9.208 -1.1292  0.1299 -0.7067
  124TCq2    C8 1895   2.953   0.349   9.227  0.1745 -0.2583  0.2480
  124TCq2    O4 1896   2.966   0.315   9.344  0.3377  0.2175  0.1997
  124TCq2    C9 1897   2.776   0.280   8.792 -0.4230  0.0344 -0.2081
  124TCq2    O5 1898   2.885   0.333   8.754  0.0301  0.1048 -0.8094
  124TCq2    O6 1899   2.727   0.181   8.732  0.4907 -0.0171 -0.0066
  124TCq2    H2 1900   2.537   0.257   8.931  0.0736 -1.2772 -0.7541
  124TCq2    H3 1901   2.948   0.328   8.964  1.1146 -0.1942  3.2254
  124TCq2    H4 1902   2.682   0.344   9.312  1.1611 -0.8410  0.0869
  125TMC2    C1 1903   3.878   1.717   8.803  0.7245 -0.0880 -0.3838
  125TMC2    C2 1904   3.928   1.669   8.682 -0.7270 -0.1408  0.6040
  125TMC2    C3 1905   4.060   1.699   8.658  0.1693 -0.0318  0.2096
  125TMC2    C4 1906   3.953   1.792   8.878  0.0547 -0.0871  0.3958
  125TMC2    C5 1907   4.090   1.800   8.858 -0.1002 -0.2261  0.5731
  125TMC2    C6 1908   4.150   1.753   8.746  0.4560  0.3604  0.3955
  125TMC2     C 1909   3.761   1.667   8.865  0.0957 -0.6489  0.1617
  125TMC2     O 1910   3.701   1.736   8.949 -0.1907  0.3260 -0.3121
  125TMC2     H 1911   3.878   1.600   8.615 -0.5953 -0.4140  0.7879
  125TMC2    H1 1912   3.907   1.826   8.970 -0.2227 -0.6255  0.4588
  125TMC2    H2 1913   4.256   1.744   8.725  0.4796 -0.3889  0.8096
  125TMC2    C7 1914   4.165   1.867   8.967 -1.3864 -0.1911  0.2498
  125TMC2    C8 1915   4.111   1.648   8.535 -0.1314  0.8705  0.5242
  125TMC2    O1 1916   4.098   1.926   9.053  0.3747 -0.2644  0.3856
  125TMC2    O2 1917   4.068   1.550   8.480  0.0637 -0.0825  0.2922
  125TMC2    O5 1918   4.220   1.721   8.490 -0.3908  0.2824 -0.1160
  125TMC2    H5 1919   4.233   1.803   8.541 -1.4313  0.9719 -0.9471
  126MPD1     C 1920   3.381   1.320   8.897  0.1105 -0.2135 -0.2413
  126MPD1    C1 1921   3.402   1.433   8.966 -0.5147 -0.1628  0.0967
  126MPD1    C2 1922   3.524   1.497   8.951  0.0391 -0.2156  0.0103
  126MPD1    C3 1923   3.609   1.477   8.840 -0.2876  0.2948  0.2387
  126MPD1    C4 1924   3.585   1.363   8.768  0.1141 -0.0669 -0.3898
  126MPD1    C5 1925   3.472   1.289   8.800 -0.0806  0.2979  0.0011
  126MPD1     H 1926   3.554   1.577   9.017  0.0622 -0.0296 -0.2271
  126MPD1    H1 1927   3.654   1.339   8.689  1.0315 -0.2958  0.4808
  126MPD1    H2 1928   3.292   1.258   8.901  0.2227 -0.2054  2.4056
  126MPD1    H3 1929   3.454   1.196   8.746 -0.6677  2.0868 -2.8669
  126MPD1     N 1930   3.724   1.556   8.806 -0.3233 -0.4520  0.0353
  126MPD1    H5 1931   3.787   1.516   8.738 -1.3213 -1.0088 -0.5625
  126MPD1    N1 1932   3.321   1.465   9.075 -0.2925  0.1395 -0.6751
  126MPD1    H6 1933   3.336   1.555   9.119 -0.4264 -1.6621  3.0140
  126MPD1    H7 1934   3.223   1.461   9.049 -0.4692 -0.6350  0.1392
  127MPD2     C 1935   1.045   0.962   8.884 -0.7718  0.8642  0.1197
  127MPD2    C1 1936   0.992   0.981   9.009 -0.3075  0.0472  0.3639
  127MPD2    C2 1937   1.059   1.067   9.094  0.3094 -0.6430 -0.2758
  127MPD2    C3 1938   1.162   1.152   9.057  0.2615  1.2019 -0.4112
  127MPD2    C4 1939   1.217   1.131   8.932  0.3540 -0.4377 -0.3791
  127MPD2    C5 1940   1.162   1.036   8.852  0.0422  0.4453  0.2267
  127MPD2     H 1941   1.022   1.072   9.195 -2.3491  0.4287 -1.2965
  127MPD2    H1 1942   1.299   1.183   8.884 -0.3914  0.6234 -0.4918
  127MPD2    H2 1943   1.003   0.890   8.815 -0.3860  0.8449 -0.0967
  127MPD2    H3 1944   1.206   1.017   8.754 -3.3234  1.3054 -1.4287
  127MPD2     N 1945   1.222   1.233   9.155  0.3663 -0.0631  0.3699
  127MPD2    H5 1946   1.170   1.261   9.238  0.6410  1.3870  0.0483
  127MPD2    N1 1947   0.891   0.895   9.058  0.8742 -0.3875 -0.8675
  127MPD2    H7 1948   0.843   0.840   8.987  0.5163 -0.7079 -0.3723
  128TCq2    C1 1949   0.845   0.873   9.186  0.2615  0.6603  0.6033
  128TCq2    O2 1950   0.882   0.931   9.285  0.6963  0.4058  0.0897
  128TCq2    C2 1951   0.728   0.786   9.198  0.4402  0.7189 -0.3760
  128TCq2    C3 1952   0.680   0.761   9.323 -0.1171 -0.0249 -0.5527
  128TCq2    C4 1953   0.590   0.669   9.341 -0.1740 -0.7451 -0.1999
  128TCq2    C5 1954   0.528   0.599   9.239 -0.5836 -0.0011 -0.3716
  128TCq2    C6 1955   0.574   0.617   9.112  0.2078  0.6628  0.6430
  128TCq2    C7 1956   0.683   0.703   9.097 -1.2031  0.9034  0.3138
  128TCq2    C8 1957   0.550   0.521   9.010  0.3972  0.2658 -0.1542
  128TCq2    O4 1958   0.590   0.545   8.895 -0.3779 -0.2683 -0.2329
  128TCq2    C9 1959   0.537   0.656   9.470  0.3002 -0.4061 -0.0016
  128TCq2    O5 1960   0.481   0.543   9.488 -0.4420 -0.5610  0.4294
  128TCq2    O6 1961   0.533   0.760   9.549 -0.7448 -0.0106  0.3270
  128TCq2    H2 1962   0.730   0.804   9.409 -0.2671 -1.6200  0.3285
  128TCq2    H3 1963   0.443   0.533   9.259  0.3153 -0.3583  2.2337
  128TCq2    H4 1964   0.724   0.728   8.999  1.1687 -0.7901  0.8637
  129MPD2     C 1965   4.154   1.437   1.137 -0.6445  0.7851  0.2151
  129MPD2    C1 1966   4.092   1.535   1.221  0.2369  0.5480 -0.4004
  129MPD2    C2 1967   4.116   1.666   1.193 -0.0351 -0.6193 -0.4978
  129MPD2    C3 1968   4.180   1.706   1.079 -0.0057 -0.9404  0.0332
  129MPD2    C4 1969   4.243   1.617   1.001 -0.1255  0.6392 -0.1195
  129MPD2    C5 1970   4.230   1.480   1.031 -0.6204  0.7844  0.0930
  129MPD2     H 1971   4.073   1.740   1.259  1.8715 -0.8750  1.0042
  129MPD2    H1 1972   4.299   1.633   0.910  0.2443  2.0207  0.3413
  129MPD2    H2 1973   4.156   1.329   1.150  3.0301  0.9479  0.9192
  129MPD2    H3 1974   4.277   1.397   0.980 -0.7580  0.7540  0.0167
  129MPD2     N 1975   4.178   1.842   1.048  0.0180  0.3200 -0.1360
  129MPD2    H5 1976   4.131   1.899   1.118 -1.3673 -0.5800 -0.3362
  129MPD2    N1 1977   4.014   1.499   1.328 -0.0107  0.3681  0.6244
  129MPD2    H7 1978   3.971   1.577   1.377  0.6565  0.6502  0.7562
  130TCq2    C1 1979   3.999   1.375   1.385  0.3736  0.6341 -0.1255
  130TCq2    O2 1980   4.056   1.268   1.362  0.5098 -0.3035 -0.1149
  130TCq2    C2 1981   3.884   1.368   1.471  0.3294  0.1546 -0.1719
  130TCq2    C3 1982   3.854   1.241   1.527 -0.3278 -0.4891 -0.4758
  130TCq2    C4 1983   3.736   1.218   1.583 -0.0502 -0.5253  0.1004
  130TCq2    C5 1984   3.648   1.308   1.591  0.7939 -0.6015  0.3800
  130TCq2    C6 1985   3.672   1.437   1.543 -0.3000 -0.7710 -0.1120
  130TCq2    C7 1986   3.787   1.464   1.471  0.1414 -0.0540 -0.1648
  130TCq2    C8 1987   3.590   1.540   1.588 -0.7022  0.1116 -0.1311
  130TCq2    O4 1988   3.519   1.520   1.682 -0.2038 -0.4338 -0.5386
  130TCq2    C9 1989   3.710   1.093   1.638  0.1621  0.3020  0.6374
  130TCq2    O5 1990   3.588   1.072   1.659  0.0704 -0.3108 -0.1692
  130TCq2    O6 1991   3.803   1.012   1.666 -0.1146 -0.1254  0.4575
  130TCq2    H2 1992   3.916   1.153   1.510  1.1945 -0.2646  4.0403
  130TCq2    H3 1993   3.558   1.287   1.647  1.9595 -0.4454  2.2894
  130TCq2    H4 1994   3.800   1.566   1.437  0.3994  1.1884  3.6203
  131MPD2     C 1995   3.114   4.675  10.296 -0.5396 -0.0168 -0.1473
  131MPD2    C1 1996   3.089   4.720  10.174 -0.2072 -0.0577 -0.0612
  131MPD2    C2 1997   2.959   4.704  10.121 -0.2053  0.3294  0.1005
  131MPD2    C3 1998   2.861   4.630  10.181 -0.6755  0.3293 -0.1063
  131MPD2    C4 1999   2.899   4.571  10.302  1.0621  0.2100  0.4656
  131MPD2    C5 2000   3.023   4.590  10.354  0.7734  0.1254 -0.1280
  131MPD2     H 2001   2.931   0.034  10.029  2.1089  1.3200 -0.0447
  131MPD2    H1 2002   2.830   4.503  10.350 -2.2925  1.7313 -2.2923
  131MPD2    H2 2003   3.203   4.698  10.352 -0.6924 -2.1502  0.9490
  131MPD2    H3 2004   3.059   4.532  10.438 -1.1118 -0.1874  0.4547
  131MPD2     N 2005   2.735   4.621  10.119  0.2071  0.4063  0.3817
  131MPD2    H5 2006   2.714   4.667  10.031 -1.7665  1.1726  1.2668
  131MPD2    N1 2007   3.189   0.078  10.101  0.2070 -0.3167 -0.2363
  131MPD2    H7 2008   3.280   0.091  10.143  0.2761 -0.6790 -0.2772
  132TCq2    C1 2009   3.350   0.492   9.694 -0.1660  0.0201  0.0866
  132TCq2    O2 2010   3.262   0.476   9.616  0.0284  0.0910  0.0340
  132TCq2    C2 2011   3.368   0.408   9.812 -0.2597  0.0346  0.3176
  132TCq2    C3 2012   3.480   0.427   9.896 -0.3000 -0.1132  0.1219
  132TCq2    C4 2013   3.468   0.364  10.018 -0.2826  0.1447  0.2816
  132TCq2    C5 2014   3.390   0.255  10.036  0.1838  0.7402  0.1501
  132TCq2    C6 2015   3.299   0.224   9.945 -0.2577 -0.1575  0.0954
  132TCq2    C7 2016   3.284   0.300   9.838  0.0105  0.1049 -0.0081
  132TCq2    C8 2017   3.189   0.131   9.974 -0.3626  0.3210 -0.8864
  132TCq2    O4 2018   3.108   0.124   9.884  0.0525 -0.6623  0.0603
  132TCq2    C9 2019   3.573   0.386  10.114  0.6080  0.2946  0.7950
  132TCq2    O5 2020   3.666   0.465  10.080  0.1300  0.3751 -0.0621
  132TCq2    O6 2021   3.572   0.340  10.228  0.4146 -0.1442 -0.1652
  132TCq2    H2 2022   3.570   0.479   9.863  1.6818 -2.1757  2.3223
  132TCq2    H3 2023   3.410   0.187  10.118  2.3251 -0.9181 -1.7400
  132TCq2    H4 2024   3.202   0.279   9.771 -2.1398  1.6137  2.1631
  133MPD2     C 2025   3.143   0.837   8.910 -0.4633 -1.0742  0.6783
  133MPD2    C1 2026   3.030   0.853   8.989  0.5548  0.3720 -0.8864
  133MPD2    C2 2027   3.040   0.924   9.106  0.1898  0.4720  0.3363
  133MPD2    C3 2028   3.164   0.978   9.137  0.1021 -0.3179  0.0620
  133MPD2    C4 2029   3.272   0.964   9.059  0.0332 -0.6803  0.1688
  133MPD2    C5 2030   3.260   0.892   8.945 -0.0746  0.6769  0.2709
  133MPD2     H 2031   2.953   0.935   9.170 -0.1620  1.2588 -0.2776
  133MPD2    H1 2032   3.369   1.003   9.086 -1.1548  2.0413  0.5425
  133MPD2    H2 2033   3.148   0.787   8.814 -1.9188  0.8116 -0.3810
  133MPD2    H3 2034   3.344   0.880   8.878 -0.0110 -1.8005  0.7866
  133MPD2     N 2035   3.181   1.062   9.251 -0.3684 -0.0091  0.1804
  133MPD2    H5 2036   3.276   1.095   9.259 -0.2936 -0.9038  2.9868
  133MPD2    N1 2037   2.909   0.784   8.952 -0.4706 -0.2635  0.7604
  133MPD2    H7 2038   2.910   0.711   8.882 -1.7152  1.1956 -0.7889
  134TCq2    C1 2039   2.784   0.807   9.006 -0.9459  0.0557 -0.3276
  134TCq2    O2 2040   2.750   0.912   9.059  0.3196  0.4381  0.5045
  134TCq2    C2 2041   2.681   0.705   8.987  0.7976 -0.1494  0.1343
  134TCq2    C3 2042   2.664   0.649   8.867 -0.0311  0.5891  0.0687
  134TCq2    C4 2043   2.552   0.577   8.849  0.6683  0.4396  0.7130
  134TCq2    C5 2044   2.463   0.555   8.952  0.0380 -0.0361  0.3040
  134TCq2    C6 2045   2.485   0.620   9.067 -0.1144 -0.3699  0.2659
  134TCq2    C7 2046   2.590   0.695   9.087  0.5410 -0.0843  0.2245
  134TCq2    C8 2047   2.382   0.644   9.164 -0.4849 -0.5048  0.1074
  134TCq2    O4 2048   2.383   0.752   9.221  0.0876 -0.7038  1.0172
  134TCq2    C9 2049   2.506   0.547   8.718 -1.0436 -0.2093 -0.2057
  134TCq2    O5 2050   2.422   0.457   8.713  0.3956  0.5692  0.4330
  134TCq2    O6 2051   2.591   0.581   8.628  0.3687  0.6118 -0.2616
  134TCq2    H2 2052   2.731   0.659   8.783  1.8155 -2.5499  1.1396
  134TCq2    H3 2053   2.364   0.523   8.922 -0.8332  2.2044  0.8126
  134TCq2    H4 2054   2.607   0.735   9.187  0.4602  2.2354 -0.6992
  135MPD2     C 2055   4.673   1.950   9.567  0.5750 -0.0245 -0.1601
  135MPD2    C1 2056   0.020   2.054   9.613 -0.0669  1.1779  0.0927
  135MPD2    C2 2057   0.156   2.062   9.595 -0.2844  0.0498 -0.6456
  135MPD2    C3 2058   0.234   1.968   9.526  0.4446  0.3735  0.1913
  135MPD2    C4 2059   0.163   1.858   9.482 -0.1956 -0.1320 -0.4891
  135MPD2    C5 2060   0.028   1.849   9.500 -0.1814 -0.5465 -0.4009
  135MPD2     H 2061   0.202   2.149   9.641  2.3786 -1.7785  0.1057
  135MPD2    H1 2062   0.210   1.779   9.424  0.1694 -0.3330  0.0787
  135MPD2    H2 2063   4.565   1.939   9.572  0.8007 -2.1289 -0.0826
  135MPD2    H3 2064   4.701   1.762   9.458 -0.0314 -1.7323  1.9134
  135MPD2     N 2065   0.375   1.979   9.500 -0.5167 -0.0766 -0.0728
  135MPD2    H5 2066   0.419   1.917   9.431 -0.7909 -1.0044  0.5816
  135MPD2    N1 2067   4.676   2.168   9.671  0.6811  0.2536  0.2537
  135MPD2    H7 2068   0.003   2.257   9.669 -1.3155  1.3027 -2.3601
  136TCq2    C1 2069   4.561   2.159   9.741 -0.8416  0.2318 -0.1546
  136TCq2    O2 2070   4.496   2.065   9.782  0.6642  0.4631 -0.3753
  136TCq2    C2 2071   4.498   2.290   9.777 -0.2049 -0.2575 -0.2078
  136TCq2    C3 2072   4.513   2.388   9.687  0.8072 -0.6057 -0.0209
  136TCq2    C4 2073   4.436   2.495   9.704  0.3329 -0.1161  0.3162
  136TCq2    C5 2074   4.359   2.513   9.813 -0.3063  0.0565 -0.5213
  136TCq2    C6 2075   4.339   2.414   9.903  0.3913  0.1200 -0.1350
  136TCq2    C7 2076   4.411   2.294   9.883 -0.0759 -0.4193 -0.1037
  136TCq2    C8 2077   4.273   2.438  10.033  0.6979  0.5999  0.3851
  136TCq2    O4 2078   4.219   2.544  10.058  0.2249  0.1548 -0.0064
  136TCq2    C9 2079   4.428   2.597   9.602  0.1744 -0.6982  0.3279
  136TCq2    O5 2080   4.505   2.582   9.506 -0.0803  0.6448  0.0698
  136TCq2    O6 2081   4.328   2.673   9.606  0.1266 -0.7929  0.0320
  136TCq2    H2 2082   4.570   2.375   9.596  0.1840 -0.1011 -0.4808
  136TCq2    H3 2083   4.294   2.600   9.817  0.5701  0.6251  1.2738
  136TCq2    H4 2084   4.425   2.221   9.962 -0.1220  1.1034  1.3149
  137MPD2     C 2085   4.536   1.432   9.625  0.1031 -0.6163  0.1460
  137MPD2    C1 2086   4.635   1.466   9.541  0.1508  0.6671  0.5859
  137MPD2    C2 2087   0.030   1.521   9.593  0.1396 -0.4194  1.0931
  137MPD2    C3 2088   0.053   1.525   9.728 -0.2326  0.4274  0.3503
  137MPD2    C4 2089   4.680   1.477   9.821 -0.0529  0.4909 -0.0948
  137MPD2    C5 2090   4.560   1.440   9.762  0.7394  0.2272  0.6390
  137MPD2     H 2091   0.109   1.560   9.530 -1.1372 -0.6393 -0.6344
  137MPD2    H1 2092   4.683   1.476   9.929 -1.9591  3.6989 -0.0042
  137MPD2    H2 2093   4.446   1.383   9.589  0.1885 -1.7760  1.5070
  137MPD2    H3 2094   4.489   1.403   9.834 -0.5976  1.5306 -0.0018
  137MPD2     N 2095   0.180   1.575   9.772 -0.4163  0.3369  0.2495
  137MPD2    H5 2096   0.249   1.593   9.700  0.0282  4.1332  1.6107
  137MPD2    N1 2097   4.601   1.455   9.402 -0.3408 -0.1672 -0.1469
  137MPD2    H7 2098   4.508   1.416   9.390  0.4592 -3.1359  3.4188
  138TCq2    C1 2099   4.685   1.497   9.304  0.3204 -0.0962 -0.6204
  138TCq2    O2 2100   0.083   1.522   9.304  0.1254 -0.0207 -0.2786
  138TCq2    C2 2101   4.627   1.494   9.176  0.0571 -0.1188 -0.5359
  138TCq2    C3 2102   4.707   1.448   9.077 -0.4035  0.0922 -0.1318
  138TCq2    C4 2103   4.658   1.424   8.955 -0.0406 -0.9164  0.0547
  138TCq2    C5 2104   4.521   1.434   8.930  0.5105 -0.0057 -0.4271
  138TCq2    C6 2105   4.441   1.486   9.030  0.4397 -0.5964 -0.0567
  138TCq2    C7 2106   4.496   1.515   9.152  0.6166  0.4479 -0.6085
  138TCq2    C8 2107   4.300   1.507   9.005  0.3102 -0.3965 -0.1906
  138TCq2    O4 2108   4.267   1.484   8.888 -0.8850  0.0775  0.1402
  138TCq2    C9 2109   0.024   1.369   8.856 -0.2794  0.7398 -0.7879
  138TCq2    O5 2110   0.001   1.393   8.738  0.4408 -0.7838 -0.0148
  138TCq2    O6 2111   0.141   1.327   8.888 -0.6514  0.1281  0.1195
  138TCq2    H2 2112   0.091   1.435   9.095 -0.0632  1.8964 -0.8899
  138TCq2    H3 2113   4.478   1.416   8.832 -1.0373 -0.3842  0.3322
  138TCq2    H4 2114   4.442   1.570   9.227 -0.2305 -1.4373  0.1766
  139TMC2    C1 2115   4.513   0.433  13.618  0.7358  0.4099 -0.5351
  139TMC2    C2 2116   4.386   0.388  13.645 -0.2022  0.5683  0.2034
  139TMC2    C3 2117   4.284   0.482  13.646  0.2439 -0.3915  0.0210
  139TMC2    C4 2118   4.538   0.564  13.597 -0.2456 -0.3697 -0.6222
  139TMC2    C5 2119   4.433   0.650  13.606  0.1111  0.2071 -0.2074
  139TMC2    C6 2120   4.308   0.614  13.644  0.0150 -0.2214 -0.7517
  139TMC2     C 2121   4.624   0.346  13.658  0.5388 -0.1528  0.4501
  139TMC2     O 2122   0.010   0.390  13.631  0.0530  0.0363  0.1040
  139TMC2     H 2123   4.359   0.283  13.647 -0.9645  0.7440 -1.1658
  139TMC2    H1 2124   4.640   0.590  13.572 -0.2544  0.9284  0.7251
  139TMC2    H2 2125   4.230   0.687  13.664  0.1862 -0.2073 -0.1354
  139TMC2    C7 2126   4.460   0.787  13.560  0.5329 -0.2786  0.1577
  139TMC2    C8 2127   4.151   0.445  13.629 -0.4510 -0.3063  0.3599
  139TMC2    O1 2128   4.367   0.855  13.524  0.0784 -0.1482 -0.1517
  139TMC2    O2 2129   4.057   0.512  13.660  0.7261  0.4113  0.1934
  139TMC2    O5 2130   4.142   0.325  13.573  0.1471  0.3211 -0.5626
  139TMC2    H5 2131   4.223   0.313  13.519  0.2360  1.5238 -0.6991
  140MPD2     C 2132   4.652   0.031  13.832  0.3075  0.0950  0.7298
  140MPD2    C1 2133   4.687   0.123  13.733 -0.0132 -0.2038 -0.2001
  140MPD2    C2 2134   0.070   0.101  13.651  0.1286  0.0621 -0.1494
  140MPD2    C3 2135   0.145   4.706  13.665  0.4230 -0.0370  0.1128
  140MPD2    C4 2136   0.120   4.619  13.764 -0.6168  0.4626  0.0123
  140MPD2    C5 2137   0.003   4.636  13.838  0.4435 -0.4535 -0.2013
  140MPD2     H 2138   0.090   0.167  13.567  1.5550 -1.1684 -0.7997
  140MPD2    H1 2139   0.183   4.535  13.788 -0.4528  0.3463 -0.8086
  140MPD2    H2 2140   4.578   0.050  13.908  0.0014 -0.6396  0.6186
  140MPD2    H3 2141   4.710   4.565  13.919 -0.9327  0.0519 -0.0126
  140MPD2     N 2142   0.240   4.680  13.567  0.4024 -0.2848  0.7219
  140MPD2    H5 2143   0.269   0.030  13.501 -0.2569 -2.2205 -1.6958
  140MPD2    N1 2144   4.592   0.227  13.717 -0.1186 -0.5393  0.2194
  140MPD2    H7 2145   4.497   0.210  13.747 -0.1052  0.3569  0.7474
  141TCq2    C1 2146   1.052   1.939  14.664 -0.5083 -0.3765  0.8078
  141TCq2    O2 2147   1.066   1.816  14.677  0.4586  0.6455 -0.3838
  141TCq2    C2 2148   1.040   2.033  14.778  0.4486  0.5141  0.1900
  141TCq2    C3 2149   1.026   1.978  14.901  0.5389  0.0731 -0.1481
  141TCq2    C4 2150   1.005   2.058  15.011 -0.4388  0.0112 -0.9384
  141TCq2    C5 2151   0.995   2.191  14.987 -0.5481  0.3457  0.0698
  141TCq2    C6 2152   1.015   2.245  14.863  0.1173 -0.0772  0.7197
  141TCq2    C7 2153   1.032   2.167  14.753  0.0199 -0.2409  0.1578
  141TCq2    C8 2154   1.000   2.390  14.851 -0.2780  0.1688  0.1767
  141TCq2    O4 2155   0.994   2.459  14.953  0.8262 -0.7761  0.1033
  141TCq2    C9 2156   0.989   2.001  15.135 -0.4249 -0.0497  0.2462
  141TCq2    O5 2157   0.943   2.073  15.229 -0.8262 -0.7839 -0.0852
  141TCq2    O6 2158   1.022   1.882  15.155 -0.8967 -0.0254 -0.4553
  141TCq2    H2 2159   1.031   1.870  14.908 -1.2356  0.0146  0.0654
  141TCq2    H3 2160   0.974   2.251  15.075 -2.1818 -0.4747  0.2594
  141TCq2    H4 2161   1.075   2.200  14.660 -1.2319 -2.1903 -1.1241
  142MPD2     C 2162   3.363   4.368  10.247  0.2406  0.5542 -0.2801
  142MPD2    C1 2163   3.329   4.333  10.122 -0.2160 -0.0039 -0.1979
  142MPD2    C2 2164   3.363   4.420  10.023  0.1907  0.3057  0.1215
  142MPD2    C3 2165   3.448   4.531  10.051  0.6078  0.0270  0.3416
  142MPD2    C4 2166   3.487   4.563  10.180  0.8428 -0.0395 -0.6766
  142MPD2    C5 2167   3.439   4.479  10.274 -0.3472 -0.5106 -0.7184
  142MPD2     H 2168   3.335   4.411   9.919  0.7531  2.2436 -0.2028
  142MPD2    H1 2169   3.539   4.655  10.205  1.2136 -0.0572 -1.3923
  142MPD2    H2 2170   3.327   4.317  10.336 -0.6967  0.2434 -0.8390
  142MPD2    H3 2171   3.459   4.505  10.378  0.0430  0.1372 -0.9552
  142MPD2     N 2172   3.507   4.617   9.953 -0.6683 -0.3683  0.4414
  142MPD2    H5 2173   3.579   4.679   9.991 -0.5556 -0.5244  0.4805
  142MPD2    N1 2174   3.241   4.224  10.114  0.1924 -0.3818  0.6239
  142MPD2    H7 2175   3.233   4.177  10.204  0.4829 -3.0275 -0.7501
  143TCq2    C1 2176   3.475   4.615   9.817  0.3088  0.2022  0.0768
  143TCq2    O2 2177   3.393   4.550   9.758 -0.7272 -0.0483 -0.0212
  143TCq2    C2 2178   3.532   4.721   9.740 -0.2114  0.7974  0.1850
  143TCq2    C3 2179   3.631   0.078   9.792  0.3406 -0.1071  0.2385
  143TCq2    C4 2180   3.667   0.191   9.724 -0.2098  0.0275 -0.5447
  143TCq2    C5 2181   3.606   0.240   9.611  0.4707 -0.9210 -0.2589
  143TCq2    C6 2182   3.523   0.145   9.555  0.0606  1.0268 -0.2591
  143TCq2    C7 2183   3.482   0.028   9.614 -0.3547 -0.4867  0.3580
  143TCq2    C8 2184   3.429   0.188   9.453  0.8804  0.5107 -0.3663
  143TCq2    O4 2185   3.329   0.123   9.435  0.1798  0.7634 -0.2548
  143TCq2    C9 2186   3.777   0.265   9.789  0.7220 -0.1328 -0.0995
  143TCq2    O5 2187   3.820   0.219   9.900 -0.1432  0.0197  0.2289
  143TCq2    O6 2188   3.818   0.376   9.744  0.2943  0.9130 -0.0406
  143TCq2    H2 2189   3.689   0.035   9.873 -1.0110  0.0892  1.3204
  143TCq2    H3 2190   3.637   0.331   9.560 -1.7793  0.0536  0.1101
  143TCq2    H4 2191   3.406   4.684   9.573 -2.5884  2.4965 -0.2877
  144MPD2     C 2192   0.315   4.522   0.773 -0.0799 -0.7931  0.4902
  144MPD2    C1 2193   0.364   4.396   0.765 -0.3446  0.1120  0.0097
  144MPD2    C2 2194   0.388   4.329   0.875  0.1156  0.2069 -0.8308
  144MPD2    C3 2195   0.381   4.392   0.994 -0.7466 -0.5048  0.5856
  144MPD2    C4 2196   0.340   4.524   1.006  0.2352  0.0800 -0.0658
  144MPD2    C5 2197   0.304   4.588   0.894 -0.0823 -0.6149  0.4417
  144MPD2     H 2198   0.425   4.227   0.867 -0.2667 -0.1270  1.7786
  144MPD2    H1 2199   0.340   4.578   1.101  0.4907 -0.4932  0.2594
  144MPD2    H2 2200   0.301   4.574   0.678  0.0636 -3.3795 -0.9505
  144MPD2    H3 2201   0.278   4.692   0.909 -1.1796 -0.8953  0.5246
  144MPD2     N 2202   0.427   4.330   1.113 -0.1549  0.0690 -0.1296
  144MPD2    H5 2203   0.439   4.396   1.189  0.3147 -0.8318  0.5702
  144MPD2    N1 2204   0.372   4.323   0.642  0.2371  0.3768 -0.2300
  144MPD2    H7 2205   0.407   4.228   0.650  1.1641  0.8585  1.5437
  145TCq2    C1 2206   0.464   4.204   1.128 -0.0942 -0.8492 -0.2560
  145TCq2    O2 2207   0.448   4.108   1.056 -0.2219 -0.1786  0.1598
  145TCq2    C2 2208   0.541   4.191   1.244  0.5657  0.0625  0.0027
  145TCq2    C3 2209   0.585   4.058   1.269 -0.4369 -0.2403  0.5384
  145TCq2    C4 2210   0.702   4.040   1.345  0.8087 -0.5754 -0.0102
  145TCq2    C5 2211   0.767   4.145   1.408 -0.7360  0.1906  0.6609
  145TCq2    C6 2212   0.713   4.263   1.385  0.0569 -0.3850  0.3101
  145TCq2    C7 2213   0.616   4.297   1.295 -0.1321 -0.4899 -0.2663
  145TCq2    C8 2214   0.792   4.369   1.441  0.1706 -0.0116  0.2638
  145TCq2    O4 2215   0.909   4.357   1.464 -0.4013 -0.1004 -0.3158
  145TCq2    C9 2216   0.759   3.914   1.361 -0.8231  0.8080 -0.3960
  145TCq2    O5 2217   0.715   3.819   1.297  0.2702  0.6298  0.2704
  145TCq2    O6 2218   0.840   3.910   1.459 -0.3470  0.4955 -0.3952
  145TCq2    H2 2219   0.532   3.975   1.224 -1.3605 -0.3209  1.7716
  145TCq2    H3 2220   0.844   4.128   1.483  1.1295  0.4136 -1.1951
  145TCq2    H4 2221   0.583   4.397   1.271 -1.6194 -1.4385 -2.1386
  146TMC2    C1 2222   2.581   2.714  11.595 -0.2988  0.4822 -0.1525
  146TMC2    C2 2223   2.520   2.733  11.471  0.2988  0.1431  0.3566
  146TMC2    C3 2224   2.594   2.721  11.363 -0.0384 -0.2686  0.3465
  146TMC2    C4 2225   2.716   2.696  11.607  0.6384  0.2495  0.3846
  146TMC2    C5 2226   2.789   2.676  11.491 -0.3557 -0.4904 -0.2881
  146TMC2    C6 2227   2.729   2.690  11.366 -0.1356 -0.5856 -0.1503
  146TMC2     C 2228   2.496   2.729  11.712 -0.8713  0.2535 -0.5907
  146TMC2     O 2229   2.382   2.766  11.688  0.5169  0.1591  0.2184
  146TMC2     H 2230   2.417   2.764  11.463 -0.2020 -1.4044  0.8080
  146TMC2    H1 2231   2.774   2.699  11.699  0.0575  1.1219  0.7178
  146TMC2    H2 2232   2.775   2.671  11.270 -1.6492 -2.1502 -0.5649
  146TMC2    C7 2233   2.935   2.662  11.499 -0.6313 -0.4338 -0.2781
  146TMC2    C8 2234   2.530   2.705  11.238 -0.7673 -0.2855 -0.3263
  146TMC2    O1 2235   2.988   2.684  11.394 -0.2160 -0.5569  0.2372
  146TMC2    O2 2236   2.596   2.713  11.136  0.1331 -0.6195  1.1573
  146TMC2    O5 2237   2.421   2.622  11.247 -0.1886 -0.3337  0.3427
  146TMC2    H5 2238   2.378   2.632  11.335 -0.0244  1.2201  0.2439
  147MPD2     C 2239   3.387   2.533  11.680 -0.0569  0.2998 -0.3914
  147MPD2    C1 2240   3.309   2.547  11.792 -0.4049 -0.3435  0.0572
  147MPD2    C2 2241   3.172   2.574  11.765 -0.3149  0.0678  0.4434
  147MPD2    C3 2242   3.128   2.582  11.638 -0.4497  0.3252 -0.2641
  147MPD2    C4 2243   3.207   2.546  11.530 -0.4751  0.9338 -0.1216
  147MPD2    C5 2244   3.340   2.529  11.549  0.3104  0.2049 -0.0372
  147MPD2     H 2245   3.110   2.601  11.850  0.6720  0.5900  1.0052
  147MPD2    H1 2246   3.167   2.561  11.430  0.8361  1.7090 -0.5243
  147MPD2    H2 2247   3.490   2.505  11.694 -0.2871 -1.8236 -2.8731
  147MPD2    H3 2248   3.406   2.505  11.466 -0.0719  0.2106 -0.3428
  147MPD2     N 2249   2.991   2.620  11.617  0.4565 -0.5239  0.2730
  147MPD2    H5 2250   2.937   2.618  11.703  0.4439  1.8946  0.3339
  147MPD2    N1 2251   3.369   2.556  11.919 -0.3369 -0.5392  0.7598
  147MPD2    H7 2252   3.469   2.542  11.923 -0.0344  1.5449  0.6701
  148MPD2     C 2253   2.808   1.636   9.929  0.9047  0.4913 -0.1044
  148MPD2    C1 2254   2.802   1.503   9.969  0.6483 -0.5457 -0.1067
  148MPD2    C2 2255   2.772   1.410   9.872 -0.0401  0.1261  0.4882
  148MPD2    C3 2256   2.736   1.453   9.743  0.7061 -0.3053  0.8998
  148MPD2    C4 2257   2.741   1.586   9.713  0.3878  0.2673 -0.6895
  148MPD2    C5 2258   2.776   1.677   9.807 -0.2165  0.1121  0.3696
  148MPD2     H 2259   2.780   1.305   9.898 -0.2749  0.1889  0.8037
  148MPD2    H1 2260   2.716   1.629   9.616  0.5986 -0.4658 -1.0693
  148MPD2    H2 2261   2.837   1.720   9.991 -1.3407  1.6478 -0.6027
  148MPD2    H3 2262   2.789   1.776   9.765 -0.4245  0.0471  0.1531
  148MPD2     N 2263   2.694   1.352   9.649 -0.1094 -0.4726 -0.2295
  148MPD2    H5 2264   2.695   1.256   9.681 -2.3132 -0.0217  1.2067
  148MPD2    N1 2265   2.844   1.454  10.093 -0.4436 -0.3527 -0.7658
  148MPD2    H7 2266   2.827   1.356  10.115  2.0388 -1.0060 -1.7760
  149TCq2    C1 2267   2.902   1.524  10.192  0.4203  0.7860 -0.4742
  149TCq2    O2 2268   2.925   1.646  10.195 -0.2998  0.5140 -0.3356
  149TCq2    C2 2269   2.926   1.457  10.320 -0.4964 -0.3688  0.1597
  149TCq2    C3 2270   2.962   1.545  10.421  0.4126  0.1715 -0.1931
  149TCq2    C4 2271   2.998   1.480  10.536 -0.5973  0.6067 -0.2640
  149TCq2    C5 2272   3.027   1.344  10.546 -0.2970 -0.3199 -0.3415
  149TCq2    C6 2273   2.995   1.267  10.437  0.3201  0.0376  1.1507
  149TCq2    C7 2274   2.940   1.321  10.325 -0.4674  0.2661  0.2056
  149TCq2    C8 2275   3.048   1.136  10.428  0.1885  0.3053 -0.1559
  149TCq2    O4 2276   3.086   1.091  10.318  0.1479 -0.4369  0.4163
  149TCq2    C9 2277   3.074   1.558  10.630 -0.1154  0.6008 -0.3608
  149TCq2    O5 2278   3.132   1.497  10.723 -0.2804  0.1915 -0.0025
  149TCq2    O6 2279   3.105   1.678  10.601  0.1552  0.3282  0.5253
  149TCq2    H2 2280   2.936   1.650  10.422 -2.8128 -0.6400  1.9791
  149TCq2    H3 2281   3.104   1.311  10.615 -2.2675 -2.0817  0.9710
  149TCq2    H4 2282   2.909   1.256  10.244  1.2325 -1.2856  0.8008
  150MPD2     C 2283   4.330   1.155  12.269  0.4334  0.0410 -0.5370
  150MPD2    C1 2284   4.388   1.118  12.148 -0.2267 -0.6199 -0.7202
  150MPD2    C2 2285   4.522   1.159  12.112  0.1856 -0.5308  0.2704
  150MPD2    C3 2286   4.601   1.222  12.205 -0.4911  0.7341  0.0153
  150MPD2    C4 2287   4.539   1.258  12.324  0.1546 -0.7475  0.2771
  150MPD2    C5 2288   4.408   1.228  12.355 -0.1791  0.5410  0.3127
  150MPD2     H 2289   4.569   1.139  12.016  0.8566  1.1398  0.2572
  150MPD2    H1 2290   4.593   1.312  12.401  0.4288  1.0325 -1.1531
  150MPD2    H2 2291   4.235   1.109  12.293  0.3693  1.5263  2.0470
  150MPD2    H3 2292   4.362   1.253  12.450 -0.2673  0.4126  0.3035
  150MPD2     N 2293   0.013   1.263  12.166 -0.0062  0.1529 -0.2955
  150MPD2    H5 2294   0.048   1.238  12.074  1.4695  1.4632 -0.0811
  150MPD2    N1 2295   4.312   1.034  12.058  0.6424  0.1714  0.7212
  150MPD2    H7 2296   4.218   1.008  12.085  0.7946  0.9180  1.9662
  151TCq2    C1 2297   0.101   1.335  12.241  0.1095  0.7816  0.4369
  151TCq2    O2 2298   0.082   1.382  12.351 -0.5247  0.2592 -0.7443
  151TCq2    C2 2299   0.228   1.344  12.172  0.2876 -0.5318  0.0202
  151TCq2    C3 2300   0.252   1.314  12.038 -0.6089  0.4847 -0.2727
  151TCq2    C4 2301   0.378   1.331  11.985 -0.0550  0.0407  0.6638
  151TCq2    C5 2302   0.484   1.371  12.057  0.3084 -0.5475 -0.2422
  151TCq2    C6 2303   0.460   1.392  12.191  0.4652 -0.3403 -0.3582
  151TCq2    C7 2304   0.334   1.385  12.247 -1.0554 -0.2781  0.4817
  151TCq2    C8 2305   0.575   1.376  12.288  0.2959  1.3799 -0.1327
  151TCq2    O4 2306   0.565   1.443  12.390 -0.5258  0.0317 -0.2321
  151TCq2    C9 2307   0.407   1.297  11.848  0.2853  0.3394 -0.3794
  151TCq2    O5 2308   0.505   1.361  11.801  0.1360  0.2693 -0.0583
  151TCq2    O6 2309   0.328   1.225  11.783  0.4383  0.0954 -0.4037
  151TCq2    H2 2310   0.175   1.267  11.978 -0.3563  0.2627 -0.4217
  151TCq2    H3 2311   0.586   1.376  12.021  0.2331 -2.2284 -0.6935
  151TCq2    H4 2312   0.315   1.405  12.351 -0.8600  1.7105  0.1351
  152MPD2     C 2313   4.202   0.469  12.833  0.2975 -0.1411 -0.1672
  152MPD2    C1 2314   4.276   0.557  12.756  0.2640  0.0042  0.1941
  152MPD2    C2 2315   4.206   0.627  12.659  0.7268  0.1305 -0.0305
  152MPD2    C3 2316   4.066   0.613  12.637 -0.7941  0.3170 -0.3373
  152MPD2    C4 2317   3.994   0.523  12.714 -0.0371  0.0479 -0.5718
  152MPD2    C5 2318   4.062   0.461  12.819 -0.2354  0.4370  0.4816
  152MPD2     H 2319   4.260   0.697  12.597  1.2586 -0.2072  0.0578
  152MPD2    H1 2320   3.887   0.510  12.716 -0.1134  0.8302  0.4168
  152MPD2    H2 2321   4.264   0.416  12.904 -0.5281  1.4655  1.7552
  152MPD2    H3 2322   4.007   0.406  12.894  1.6498 -0.6681  1.0398
  152MPD2     N 2323   4.003   0.694  12.538 -0.2233  0.2771  0.2568
  152MPD2    H5 2324   4.064   0.749  12.478 -2.3897  0.9672 -1.2856
  152MPD2    N1 2325   4.410   0.577  12.791 -0.8460 -0.2102 -0.2875
  152MPD2    H7 2326   4.447   0.512  12.860 -2.9765 -0.8916  0.1983
  153TCq2    C1 2327   4.489   0.673  12.734  0.6762 -0.5030 -0.2422
  153TCq2    O2 2328   4.467   0.758  12.644 -0.2638 -0.1436  0.7764
  153TCq2    C2 2329   4.624   0.681  12.792  0.4357  0.0936  0.2145
  153TCq2    C3 2330   4.657   0.597  12.898 -0.1121  1.1267  0.2424
  153TCq2    C4 2331   0.067   0.577  12.921  0.3650 -0.1280 -0.5825
  153TCq2    C5 2332   0.166   0.653  12.853 -0.0556 -0.4454 -0.3962
  153TCq2    C6 2333   0.125   0.743  12.753  0.4028  0.0060 -0.7033
  153TCq2    C7 2334   4.714   0.746  12.716  0.8556 -0.0363 -0.2393
  153TCq2    C8 2335   0.215   0.831  12.690  0.4237  0.2876 -0.6542
  153TCq2    O4 2336   0.173   0.880  12.587 -0.5009 -0.0129 -0.5058
  153TCq2    C9 2337   0.110   0.468  13.003 -0.0890 -0.4965 -0.1158
  153TCq2    O5 2338   0.027   0.385  13.039  0.2156 -0.2443 -0.1211
  153TCq2    O6 2339   0.228   0.467  13.040  0.4717 -0.1199 -0.4497
  153TCq2    H2 2340   4.582   0.549  12.960  0.4538  2.0353  1.6394
  153TCq2    H3 2341   0.272   0.641  12.874 -0.3235 -1.3993  0.3698
  153TCq2    H4 2342   4.676   0.805  12.633 -0.2570  0.5573  0.6894
  154MPD2     C 2343   1.116   0.154   0.953  0.0206 -0.1875  0.5567
  154MPD2    C1 2344   1.104   0.287   0.962  0.1533  0.1939 -0.0893
  154MPD2    C2 2345   1.000   0.342   0.888 -0.1694 -0.8400  0.0283
  154MPD2    C3 2346   0.915   0.265   0.808 -0.1917  0.4723 -0.2934
  154MPD2    C4 2347   0.923   0.128   0.813  0.8828  0.0804 -0.4204
  154MPD2    C5 2348   1.027   0.076   0.887 -0.6055 -0.1730  0.3252
  154MPD2     H 2349   0.989   0.448   0.870 -0.5571 -0.9347 -0.2835
  154MPD2    H1 2350   0.860   0.067   0.750  1.8303 -1.3733  0.0597
  154MPD2    H2 2351   1.191   0.101   1.010  0.8977 -0.1603 -0.5750
  154MPD2    H3 2352   1.054   4.692   0.888  1.8983  0.4507  0.1447
  154MPD2     N 2353   0.803   0.318   0.737 -0.2410  0.0319  0.2668
  154MPD2    H5 2354   0.725   0.257   0.712 -0.3279  1.0248 -1.8918
  154MPD2    N1 2355   1.197   0.366   1.037  0.6270 -0.0000 -0.5210
  154MPD2    H7 2356   1.263   0.312   1.092  0.5091 -0.6660 -1.0357
  155TCq2    C1 2357   1.221   0.499   1.015  0.2033  0.5197 -0.4435
  155TCq2    O2 2358   1.169   0.572   0.930 -0.4171 -0.0916  0.0501
  155TCq2    C2 2359   1.316   0.560   1.106 -0.5622  0.5388  0.1897
  155TCq2    C3 2360   1.332   0.698   1.109  1.1134 -0.5808 -0.0267
  155TCq2    C4 2361   1.394   0.758   1.213  0.0279 -0.8341 -0.4607
  155TCq2    C5 2362   1.431   0.694   1.326  0.2535 -0.6113  0.2812
  155TCq2    C6 2363   1.415   0.559   1.322 -0.5456 -0.3507 -0.3653
  155TCq2    C7 2364   1.365   0.487   1.212  0.3364  0.2648  0.5355
  155TCq2    C8 2365   1.446   0.490   1.450 -0.2616  0.3351 -0.4525
  155TCq2    O4 2366   1.503   0.382   1.453 -0.0624 -0.1393 -0.3199
  155TCq2    C9 2367   1.435   0.895   1.201 -0.1543  0.3240  0.6918
  155TCq2    O5 2368   1.381   0.963   1.110  0.3473  0.3881 -0.7111
  155TCq2    O6 2369   1.489   0.951   1.300  0.2423  0.2986 -0.6952
  155TCq2    H2 2370   1.293   0.754   1.025 -0.7015  0.4566  1.4795
  155TCq2    H3 2371   1.485   0.742   1.406 -3.7345  0.1900  2.4549
  155TCq2    H4 2372   1.350   0.380   1.223 -1.9040  0.6444  1.2303
  156MPD2     C 2373   0.116   2.922  12.501 -0.6224  0.0180 -0.4488
  156MPD2    C1 2374   0.144   3.010  12.396  0.3792 -0.5964 -0.0657
  156MPD2    C2 2375   0.040   3.099  12.353  0.5805  0.2806 -0.0988
  156MPD2    C3 2376   4.637   3.101  12.414  0.4804 -0.0186 -0.5715
  156MPD2    C4 2377   4.620   3.017  12.523 -0.3133  0.8648  0.1701
  156MPD2    C5 2378   4.716   2.928  12.559  0.0646  0.1653 -0.3629
  156MPD2     H 2379   0.058   3.163  12.267  1.9907  2.6417  1.9753
  156MPD2    H1 2380   4.522   3.013  12.567  0.5554 -0.4356  1.9615
  156MPD2    H2 2381   0.194   2.862  12.546 -0.0504  1.8355  0.9749
  156MPD2    H3 2382   4.708   2.865  12.647 -0.6305  0.4947 -0.1847
  156MPD2     N 2383   4.537   3.181  12.354  0.2599  0.5918  0.3066
  156MPD2    H5 2384   4.548   3.220  12.260 -1.8770  0.6364  0.0697
  156MPD2    N1 2385   0.281   3.014  12.352  0.6605 -0.0983 -0.4880
  156MPD2    H7 2386   0.339   2.931  12.364 -0.0813 -0.8282 -1.9257
  157TCq2    C1 2387   0.336   3.104  12.263  0.4365 -0.4030 -0.8538
  157TCq2    O2 2388   0.284   3.207  12.219  0.0070  0.3357  0.4402
  157TCq2    C2 2389   0.480   3.085  12.242  0.2840 -0.1924  0.9159
  157TCq2    C3 2390   0.536   2.974  12.312  0.3456  0.5166  0.2036
  157TCq2    C4 2391   0.627   2.904  12.253  0.3898 -0.2743 -0.7192
  157TCq2    C5 2392   0.677   2.942  12.131  0.6834 -0.0973 -0.6505
  157TCq2    C6 2393   0.644   3.058  12.073 -0.0121 -1.0292  0.4978
  157TCq2    C7 2394   0.532   3.126  12.122 -0.0907 -0.3922  0.1452
  157TCq2    C8 2395   0.684   3.066  11.928  0.7282  0.5124 -0.2762
  157TCq2    O4 2396   0.741   2.966  11.892  0.2102  0.2411  0.1200
  157TCq2    C9 2397   0.675   2.793  12.322  0.6062 -0.0703  0.0029
  157TCq2    O5 2398   0.765   2.720  12.270  0.0715 -0.4905  1.1776
  157TCq2    O6 2399   0.595   2.734  12.400 -0.1522 -0.6341  0.3622
  157TCq2    H2 2400   0.511   2.949  12.415 -0.1296 -0.6409 -0.2018
  157TCq2    H3 2401   0.750   2.877  12.084  2.5370  0.5741  1.3031
  157TCq2    H4 2402   0.476   3.192  12.056  1.3942 -0.3209 -1.0482
  158TMC2    C1 2403   0.602   2.343  13.499 -0.0923  0.6189 -0.8040
  158TMC2    C2 2404   0.665   2.232  13.540  0.5927  0.2993  0.1123
  158TMC2    C3 2405   0.670   2.122  13.465 -0.9754  1.0924  0.1899
  158TMC2    C4 2406   0.539   2.340  13.378 -0.0900 -0.4102 -0.3640
  158TMC2    C5 2407   0.541   2.223  13.310 -0.4377  0.5808  0.6719
  158TMC2    C6 2408   0.613   2.113  13.347 -0.1275  0.3449 -0.2570
  158TMC2     C 2409   0.565   2.425  13.602 -0.0866 -0.1730  0.1330
  158TMC2     O 2410   0.646   2.511  13.638 -0.6131 -0.3778 -0.2276
  158TMC2     H 2411   0.716   2.245  13.635  1.4857 -1.8592 -0.0631
  158TMC2    H1 2412   0.463   2.411  13.345 -0.6230 -1.1166 -0.6718
  158TMC2    H2 2413   0.616   2.026  13.282  0.5793  0.1452  0.0430
  158TMC2    C7 2414   0.445   2.219  13.204 -0.0183 -0.2440 -0.0128
  158TMC2    C8 2415   0.774   2.026  13.507  0.1215  0.1331  0.0082
  158TMC2    O1 2416   0.417   2.323  13.141  0.4343 -0.3895  0.2922
  158TMC2    O2 2417   0.803   2.010  13.629 -0.1942 -0.4099  0.2158
  158TMC2    O5 2418   0.841   1.990  13.401 -0.1477 -0.6970 -0.1570
  158TMC2    H5 2419   0.800   2.032  13.322  0.2740  0.1662  0.0830
  159MPD2     C 2420   0.277   2.486  14.035 -0.1563  0.1997  0.4920
  159MPD2    C1 2421   0.238   2.373  13.968  0.5080  0.1323  0.9382
  159MPD2    C2 2422   0.307   2.330  13.857  0.3260  0.4948 -0.7777
  159MPD2    C3 2423   0.404   2.409  13.798 -0.2886 -0.4999  0.1882
  159MPD2    C4 2424   0.441   2.527  13.861 -0.7070  0.1588  0.4899
  159MPD2    C5 2425   0.379   2.560  13.977  0.0836  0.1766  0.4264
  159MPD2     H 2426   0.284   2.242  13.798 -0.3018 -0.7303  1.3320
  159MPD2    H1 2427   0.515   2.599  13.825 -2.4856  1.2358 -0.9836
  159MPD2    H2 2428   0.234   2.533  14.123  3.7659  2.1623  1.3737
  159MPD2    H3 2429   0.416   2.650  14.024  0.4983  1.2680 -1.9939
  159MPD2     N 2430   0.456   2.369  13.673  0.1635  0.5960 -0.0040
  159MPD2    H5 2431   0.398   2.301  13.626 -4.1486  3.5250  1.1349
  159MPD2    N1 2432   0.126   2.309  14.028 -0.8464  0.8258 -0.3969
  159MPD2    H7 2433   0.095   2.353  14.114  1.1656  0.4277  0.5303
  160TMC2    C1 2434   4.196   0.337   1.549 -1.1705  0.2349  0.5452
  160TMC2    C2 2435   4.299   0.317   1.635 -0.1374  0.0554  0.0720
  160TMC2    C3 2436   4.422   0.334   1.589 -0.1255  0.6642  0.4241
  160TMC2    C4 2437   4.215   0.389   1.423 -0.1382  0.3911  0.5490
  160TMC2    C5 2438   4.347   0.406   1.383 -0.8131 -0.3619  0.5830
  160TMC2    C6 2439   4.450   0.376   1.461 -0.1589  0.0614  0.4576
  160TMC2     C 2440   4.065   0.308   1.604 -0.4092 -0.0986 -0.0708
  160TMC2     O 2441   4.069   0.263   1.717 -0.3319  0.0603  0.0725
  160TMC2     H 2442   4.291   0.273   1.734  0.2486  1.6074  0.7948
  160TMC2    H1 2443   4.136   0.415   1.354  0.3939 -1.9019 -0.9323
  160TMC2    H2 2444   4.548   0.420   1.445  0.4666 -0.7177  2.2212
  160TMC2    C7 2445   4.364   0.485   1.258 -0.0038 -0.5805  0.4294
  160TMC2    C8 2446   4.510   0.365   1.697 -0.0913  0.1957 -0.0673
  160TMC2    O1 2447   4.276   0.473   1.172  0.1367  0.3085 -0.3045
  160TMC2    O2 2448   4.463   0.412   1.798  0.3162  0.5753  0.0830
  160TMC2    O5 2449   4.640   0.354   1.656  0.2640  0.1740 -0.2167
  160TMC2    H5 2450   4.651   0.307   1.571 -0.1014  0.4068 -0.3924
  161MPD2     C 2451   3.793   0.272   1.688 -0.9409  0.0220 -0.4393
  161MPD2    C1 2452   3.823   0.346   1.583  0.1102  0.3353  0.9698
  161MPD2    C2 2453   3.728   0.411   1.505  0.1337  0.0977  0.2636
  161MPD2    C3 2454   3.597   0.415   1.552 -0.1744 -0.4433  0.1187
  161MPD2    C4 2455   3.565   0.350   1.667  0.6659 -0.3526  0.5263
  161MPD2    C5 2456   3.662   0.282   1.734  0.5755  0.2530  0.1958
  161MPD2     H 2457   3.751   0.454   1.408 -1.3904 -2.4003 -1.1994
  161MPD2    H1 2458   3.469   0.353   1.718  0.2362  0.1368 -0.3124
  161MPD2    H2 2459   3.854   0.196   1.735 -0.2435  0.6548 -0.3204
  161MPD2    H3 2460   3.632   0.226   1.822 -2.3792  1.1546 -0.2424
  161MPD2     N 2461   3.493   0.494   1.497  0.2291  0.4163 -0.2981
  161MPD2    H5 2462   3.403   0.493   1.544  0.1835 -0.7502 -0.4236
  161MPD2    N1 2463   3.959   0.359   1.538 -0.1492 -0.4255 -0.4300
  161MPD2    H7 2464   3.972   0.421   1.459 -0.4989 -1.2531 -1.1364
  162TMC2    C1 2465   2.477   2.762   1.342  0.3049  0.9064 -0.6628
  162TMC2    C2 2466   2.440   2.896   1.334  0.0181  0.3192 -0.3559
  162TMC2    C3 2467   2.442   2.957   1.451 -0.0065 -0.2325 -0.0124
  162TMC2    C4 2468   2.504   2.698   1.460 -0.4193 -0.4649  0.1489
  162TMC2    C5 2469   2.480   2.766   1.575 -0.2987 -0.5820 -0.6081
  162TMC2    C6 2470   2.434   2.891   1.573  0.0648  0.1627  1.0144
  162TMC2     C 2471   2.503   2.681   1.221 -0.0788  0.4460 -0.7171
  162TMC2     O 2472   2.570   2.580   1.233 -0.1746 -0.0195  0.3575
  162TMC2     H 2473   2.433   2.939   1.235 -0.3438  1.5207  0.2021
  162TMC2    H1 2474   2.512   2.590   1.462 -0.7542 -0.4765  1.1772
  162TMC2    H2 2475   2.427   2.951   1.663 -1.5406 -0.4038  1.2633
  162TMC2    C7 2476   2.460   2.689   1.695  0.1578 -0.3996  0.7563
  162TMC2    C8 2477   2.397   3.100   1.446 -0.6944 -0.5705  0.0898
  162TMC2    O1 2478   2.396   2.752   1.774  0.0383 -0.1898  0.4435
  162TMC2    O2 2479   2.342   3.145   1.546  0.0291 -0.6405  1.0427
  162TMC2    O5 2480   2.479   3.166   1.359  0.3687 -0.4758  0.1752
  162TMC2    H5 2481   2.535   3.108   1.303 -0.4773  0.8239 -2.0177
  163MPD2     C 2482   2.424   2.571   0.714 -0.2678 -0.2790  0.6451
  163MPD2    C1 2483   2.526   2.531   0.794 -0.0452 -0.5526  0.0078
  163MPD2    C2 2484   2.527   2.560   0.934 -0.3244 -0.0612 -0.0669
  163MPD2    C3 2485   2.434   2.662   0.979  0.2267  0.1875  0.7299
  163MPD2    C4 2486   2.339   2.705   0.887  0.1212  0.9158  0.0447
  163MPD2    C5 2487   2.318   2.644   0.767  0.1465  0.3937 -0.1852
  163MPD2     H 2488   2.608   2.541   1.003  2.3975  1.8573 -2.7535
  163MPD2    H1 2489   2.260   2.772   0.921 -1.9488 -1.0376 -0.8619
  163MPD2    H2 2490   2.410   2.545   0.609  1.0637  0.8010  0.1929
  163MPD2    H3 2491   2.234   2.669   0.703 -0.2367  0.4541  0.3454
  163MPD2     N 2492   2.427   2.716   1.112 -0.5653 -0.0692 -0.2736
  163MPD2    H5 2493   2.346   2.775   1.123  0.1915  0.4767  2.2525
  163MPD2    N1 2494   2.625   2.436   0.736 -0.4441  0.8144  0.7533
  163MPD2    H7 2495   2.599   2.393   0.648  0.5761  0.8034  0.4572
  164TCq2    C1 2496   3.256   1.075  11.168  0.6130 -0.0382  0.1763
  164TCq2    O2 2497   3.136   1.076  11.208  0.0110  0.1447 -0.0726
  164TCq2    C2 2498   3.347   1.183  11.193  0.6381 -0.7392  0.4585
  164TCq2    C3 2499   3.448   1.218  11.105 -0.0647  0.1405  0.5302
  164TCq2    C4 2500   3.497   1.348  11.114 -0.6255 -0.1756 -0.0848
  164TCq2    C5 2501   3.455   1.436  11.205 -0.1068  0.1538 -0.4616
  164TCq2    C6 2502   3.370   1.388  11.302 -0.0918 -0.2168 -0.3284
  164TCq2    C7 2503   3.313   1.266  11.300 -0.6222  0.2784  0.6031
  164TCq2    C8 2504   3.280   1.490  11.361  0.4256 -0.1137  0.7035
  164TCq2    O4 2505   3.298   1.601  11.316  0.1118  0.3614  0.0547
  164TCq2    C9 2506   3.580   1.394  11.010 -0.2786  0.2421 -0.5973
  164TCq2    O5 2507   3.644   1.310  10.938  0.4246  0.7360  0.1366
  164TCq2    O6 2508   3.606   1.516  11.010 -0.0388  0.4670  0.2423
  164TCq2    H2 2509   3.481   1.148  11.029 -0.4178 -0.5700  1.0444
  164TCq2    H3 2510   3.481   1.541  11.201 -2.4208  0.7681  1.1790
  164TCq2    H4 2511   3.244   1.225  11.373 -1.7196 -1.0430 -1.1726
  165MPD2     C 2512   3.136   3.059   1.789  0.4614  0.7398 -0.1701
  165MPD2    C1 2513   3.244   3.040   1.714 -0.8417  0.0593 -0.2155
  165MPD2    C2 2514   3.278   3.127   1.604 -0.0345  0.3368 -0.0301
  165MPD2    C3 2515   3.207   3.239   1.584  0.0702  0.1619 -0.6119
  165MPD2    C4 2516   3.104   3.264   1.669  0.4340  1.1081 -0.1409
  165MPD2    C5 2517   3.056   3.166   1.757  0.2741  0.3737 -0.0819
  165MPD2     H 2518   3.354   3.091   1.535  1.7185  0.2712  1.9376
  165MPD2    H1 2519   3.043   3.350   1.646  0.0366  0.8849  0.0747
  165MPD2    H2 2520   3.116   3.002   1.879  0.6489  0.1601 -0.4959
  165MPD2    H3 2521   2.971   3.186   1.820 -0.1144 -1.5446 -0.0108
  165MPD2     N 2522   3.232   3.333   1.481  0.4999 -0.2166  0.7857
  165MPD2    H5 2523   3.167   3.411   1.475  0.6745 -0.2232 -0.9954
  165MPD2    N1 2524   3.319   2.923   1.745  0.7585  0.4175  0.0567
  165MPD2    H7 2525   3.275   2.855   1.807  0.4002  4.3578  4.0968
  166TCq2    C1 2526   3.348   3.328   1.405 -0.6703 -0.6619  0.3568
  166TCq2    O2 2527   3.440   3.248   1.409  0.1609 -0.4323  0.2696
  166TCq2    C2 2528   3.340   3.432   1.306  0.8402  0.7603  0.0967
  166TCq2    C3 2529   3.221   3.493   1.277 -0.4478 -0.4883 -0.0260
  166TCq2    C4 2530   3.224   3.609   1.203  1.1785 -0.5038  0.1452
  166TCq2    C5 2531   3.344   3.669   1.163 -0.4571  0.8871 -0.0169
  166TCq2    C6 2532   3.460   3.593   1.173 -0.6772 -0.2545  0.2439
  166TCq2    C7 2533   3.456   3.480   1.250 -0.5507 -0.6975  0.5584
  166TCq2    C8 2534   3.590   3.659   1.163 -0.1336  0.0479 -0.5336
  166TCq2    O4 2535   3.695   3.604   1.199  0.3140 -0.8296  0.2189
  166TCq2    C9 2536   3.103   3.685   1.183 -0.0718  0.0712 -0.3875
  166TCq2    O5 2537   3.109   3.796   1.119 -0.1360  0.6043  0.4778
  166TCq2    O6 2538   3.010   3.658   1.261  0.4469  0.0928  0.3063
  166TCq2    H2 2539   3.124   3.455   1.306  0.1340 -3.1610 -1.5782
  166TCq2    H3 2540   3.333   3.773   1.137 -0.3838  0.4072 -2.0216
  166TCq2    H4 2541   3.552   3.434   1.271 -0.4563 -0.2283  1.1454
  167TMC2    C1 2542   2.844   1.463  12.719  0.0235  0.2559  0.1579
  167TMC2    C2 2543   2.765   1.562  12.774  0.2040  0.4100  0.0615
  167TMC2    C3 2544   2.660   1.518  12.850  0.1008 -0.0899 -1.0764
  167TMC2    C4 2545   2.835   1.335  12.748  0.0458  0.0622 -0.0952
  167TMC2    C5 2546   2.731   1.294  12.825  0.0294 -0.4649  0.2253
  167TMC2    C6 2547   2.648   1.388  12.883  0.2767 -0.5216 -0.7437
  167TMC2     C 2548   2.935   1.500  12.611  0.0938  0.1699 -0.5357
  167TMC2     O 2549   3.012   1.409  12.570  0.5632 -0.0219 -0.5835
  167TMC2     H 2550   2.800   1.664  12.775  1.4930 -0.0605  1.6713
  167TMC2    H1 2551   2.916   1.266  12.729 -0.2882 -0.2081 -0.5404
  167TMC2    H2 2552   2.558   1.354  12.933  0.4173 -0.4644 -0.4534
  167TMC2    C7 2553   2.718   1.154  12.853 -0.1928 -0.1910  0.5128
  167TMC2    C8 2554   2.584   1.608  12.929 -0.4894 -0.6528 -0.6424
  167TMC2    O1 2555   2.650   1.116  12.941 -0.4410  0.5780  0.1212
  167TMC2    O2 2556   2.541   1.568  13.037  0.2482 -0.0701 -0.7534
  167TMC2    O5 2557   2.537   1.701  12.843 -0.3080 -0.0770  0.6986
  167TMC2    H5 2558   2.598   1.705  12.766 -1.3586  0.6152 -0.0888
  168MPD2     C 2559   3.111   1.625  12.422 -0.1713  0.7378  0.1242
  168MPD2    C1 2560   2.977   1.658  12.437 -0.1701 -0.1868 -0.0368
  168MPD2    C2 2561   2.931   1.757  12.357 -0.6138  0.5645 -0.0107
  168MPD2    C3 2562   2.994   1.796  12.243 -0.1363 -0.7568 -0.3755
  168MPD2    C4 2563   3.129   1.763  12.225  0.6939 -0.4142 -0.0185
  168MPD2    C5 2564   3.178   1.683  12.321 -0.0692 -0.0605 -0.1121
  168MPD2     H 2565   2.833   1.801  12.372 -0.6502 -0.3678  2.4222
  168MPD2    H1 2566   3.184   1.788  12.135  0.5146  0.4174  0.1054
  168MPD2    H2 2567   3.164   1.571  12.500 -0.2756  0.1354 -0.2226
  168MPD2    H3 2568   3.285   1.666  12.312 -0.0428 -0.1001  0.2869
  168MPD2     N 2569   2.939   1.871  12.138 -0.1126 -0.0912  0.0984
  168MPD2    H5 2570   3.001   1.884  12.059 -1.1399  2.3183 -0.2892
  168MPD2    N1 2571   2.903   1.619  12.553 -0.9351 -1.1381  0.0157
  168MPD2    H7 2572   2.815   1.664  12.576 -0.0964 -0.0748  1.1108
  169MPD1     C 2573   0.589   0.058   9.732  0.1879 -1.0601 -0.7321
  169MPD1    C1 2574   0.488   0.010   9.653  0.5375  0.2793  0.6691
  169MPD1    C2 2575   0.514   0.008   9.516 -0.0565 -0.5287  0.0631
  169MPD1    C3 2576   0.638   0.037   9.467 -0.3109  0.2156  0.8384
  169MPD1    C4 2577   0.740   0.064   9.551 -0.8358 -0.0865 -0.1061
  169MPD1    C5 2578   0.717   0.083   9.686 -0.1411 -0.9723  0.7099
  169MPD1     H 2579   0.430   4.706   9.452 -0.2348 -0.4317  0.2640
  169MPD1    H1 2580   0.839   0.092   9.517 -1.4189  2.1064 -0.0070
  169MPD1    H2 2581   0.565   0.098   9.830 -2.2025 -3.3425 -0.4008
  169MPD1    H3 2582   0.795   0.127   9.747 -0.5053 -1.5932  1.6246
  169MPD1     N 2583   0.648   0.047   9.321 -0.2074  0.4607 -0.6741
  169MPD1    H5 2584   0.564   0.044   9.265 -0.2838  0.5292 -0.5633
  169MPD1    N1 2585   0.359   0.012   9.698 -0.3226 -0.4587  0.3026
  169MPD1    H6 2586   0.350   4.702   9.795 -0.1757 -0.7579  0.2165
  169MPD1    H7 2587   0.295   4.686   9.635  0.5513 -0.0393 -0.9097
  170MPD1     C 2588   3.454   3.589  12.987 -0.8770  0.3898 -0.2041
  170MPD1    C1 2589   3.335   3.653  12.964  0.5455 -0.6670 -0.0154
  170MPD1    C2 2590   3.292   3.752  13.050 -0.2139  0.1640 -0.1937
  170MPD1    C3 2591   3.367   3.784  13.167 -0.0162 -0.0609  0.2398
  170MPD1    C4 2592   3.486   3.718  13.192 -0.1028  0.3985  0.2827
  170MPD1    C5 2593   3.526   3.629  13.091  0.2040  0.0316 -0.4021
  170MPD1     H 2594   3.193   3.795  13.047 -0.8838 -1.5544 -1.9162
  170MPD1    H1 2595   3.553   3.735  13.276  0.8935 -0.3973 -0.3419
  170MPD1    H2 2596   3.483   3.498  12.936 -0.3781 -0.5091  1.7124
  170MPD1    H3 2597   3.621   3.577  13.099 -0.4702 -1.0919  0.3026
  170MPD1     N 2598   3.316   3.889  13.259  0.7346  0.0748 -0.0846
  170MPD1    H5 2599   3.222   3.922  13.239  0.3150 -1.3770 -0.5233
  170MPD1    N1 2600   3.232   3.593  12.891  0.0193  0.0456  0.2322
  170MPD1    H6 2601   3.268   3.530  12.820  2.4195  1.2307  0.3921
  170MPD1    H7 2602   3.166   3.661  12.855 -0.5058 -1.0478 -0.8535
  171MPD1     C 2603   2.536   0.572  16.068 -0.1869  0.3456 -0.3806
  171MPD1    C1 2604   2.580   0.445  16.018 -0.0217  0.7197  0.0702
  171MPD1    C2 2605   2.480   0.372  15.962  0.0033  0.1347  0.7267
  171MPD1    C3 2606   2.369   0.437  15.917  0.4361  0.0302  0.2198
  171MPD1    C4 2607   2.347   0.573  15.936  0.2688  0.3218  0.2694
  171MPD1    C5 2608   2.428   0.639  16.021 -0.7974  0.1444 -0.1061
  171MPD1     H 2609   2.492   0.267  15.937  1.1273  0.3356  0.3867
  171MPD1    H1 2610   2.259   0.623  15.897  1.5919  2.7368  0.3823
  171MPD1    H2 2611   2.587   0.628  16.146 -1.4611 -1.0652  1.4608
  171MPD1    H3 2612   2.414   0.742  16.052 -1.6764  0.1960 -0.6745
  171MPD1     N 2613   2.266   0.356  15.847 -0.0661  0.3488  0.2711
  171MPD1    H5 2614   2.185   0.416  15.836  1.1234  2.0417  0.6047
  171MPD1    N1 2615   2.687   0.383  16.087 -0.8778 -0.2609  0.6135
  171MPD1    H6 2616   2.764   0.440  16.120 -2.7010  3.2326 -1.2167
  171MPD1    H7 2617   2.728   0.314  16.024  0.0591  1.1476 -0.3148
  172MPD1     C 2618   1.204   4.131   0.561  1.2286 -0.4382  0.9380
  172MPD1    C1 2619   1.113   4.195   0.482 -0.0163  0.6672 -0.1685
  172MPD1    C2 2620   1.005   4.251   0.547  0.6624  0.1421  0.5938
  172MPD1    C3 2621   0.995   4.249   0.683 -0.0889 -0.2879  0.5106
  172MPD1    C4 2622   1.090   4.186   0.756  0.1369 -0.1479 -0.2240
  172MPD1    C5 2623   1.199   4.127   0.700  0.2454 -0.8063  0.9725
  172MPD1     H 2624   0.933   4.307   0.488 -0.4386  0.2656  2.0559
  172MPD1    H1 2625   1.087   4.184   0.864 -2.2619  2.0703 -0.2485
  172MPD1    H2 2626   1.299   4.087   0.530  1.9572  1.1602  0.8962
  172MPD1    H3 2627   1.272   4.077   0.763  3.4880  0.0416 -2.1353
  172MPD1     N 2628   0.900   4.316   0.752  0.1723  0.3305  0.4879
  172MPD1    H5 2629   0.915   4.329   0.852 -0.6527  0.6188  0.5772
  172MPD1    N1 2630   1.111   4.185   0.342  0.4551  0.2355 -0.0964
  172MPD1    H6 2631   1.070   4.272   0.306 -1.6004 -0.2583  1.0428
  172MPD1    H7 2632   1.208   4.188   0.312  0.9779 -0.5327  1.5118
  173MPD1     C 2633   2.804   4.055  13.834  0.3985  0.3496 -0.8495
  173MPD1    C1 2634   2.798   3.928  13.885  0.8970  1.0418  0.8230
  173MPD1    C2 2635   2.795   3.903  14.022  0.5019  0.1527 -0.1569
  173MPD1    C3 2636   2.781   4.012  14.104 -0.7487 -0.7563 -0.0961
  173MPD1    C4 2637   2.795   4.139  14.050 -0.1341  0.2692 -0.5655
  173MPD1    C5 2638   2.800   4.163  13.920 -0.8901  0.6120  0.0644
  173MPD1     H 2639   2.810   3.803  14.063  1.7313 -0.4950 -2.2239
  173MPD1    H1 2640   2.799   4.230  14.108 -0.8503  0.5952 -1.0266
  173MPD1    H2 2641   2.808   4.071  13.727  0.2896  2.7716 -0.4804
  173MPD1    H3 2642   2.803   4.266  13.886  1.6968  0.4024 -0.2975
  173MPD1     N 2643   2.766   3.991  14.244  0.3889  0.2996  0.2158
  173MPD1    H5 2644   2.796   3.897  14.270  0.2468 -0.5944 -2.8394
  173MPD1    N1 2645   2.796   3.818  13.798  0.2091 -0.0571  0.4257
  173MPD1    H6 2646   2.752   3.833  13.708  0.3305 -2.3713 -0.0264
  173MPD1    H7 2647   2.754   3.735  13.839 -1.3830  0.6397  0.1770
  174MPD1     C 2648   3.473   3.864  14.914  0.5612 -0.2272 -0.1344
  174MPD1    C1 2649   3.443   3.847  14.783 -0.1582  0.2785  0.0476
  174MPD1    C2 2650   3.316   3.891  14.744  0.2584 -0.1240 -0.4974
  174MPD1    C3 2651   3.227   3.962  14.826  0.2587 -0.6082  0.0384
  174MPD1    C4 2652   3.269   3.982  14.953 -0.3486 -0.2204  0.2236
  174MPD1    C5 2653   3.386   3.929  14.992  0.1463 -0.0852 -0.7110
  174MPD1     H 2654   3.292   3.876  14.639 -1.1439  0.9202 -0.3293
  174MPD1    H1 2655   3.209   4.034  15.026  0.2584  1.1119 -0.2425
  174MPD1    H2 2656   3.571   3.840  14.952  1.4420  3.1300 -0.3244
  174MPD1    H3 2657   3.415   3.935  15.096 -1.1260  0.2938 -0.3872
  174MPD1     N 2658   3.099   4.002  14.778 -0.6264 -0.2856  0.8664
  174MPD1    H5 2659   3.031   4.044  14.841 -1.4420 -1.0728  0.5345
  174MPD1    N1 2660   3.515   3.760  14.703 -0.4789 -0.0346  1.1012
  174MPD1    H6 2661   3.502   3.775  14.603 -2.1964  0.2585  1.3624
  174MPD1    H7 2662   3.613   3.777  14.723 -0.3124 -0.5502  0.7258
  175MPD1     C 2663   0.743   4.398  16.365 -0.2688  0.4992 -0.0556
  175MPD1    C1 2664   0.634   4.467  16.318 -0.6923  0.3073 -0.3477
  175MPD1    C2 2665   0.576   4.555  16.410  0.0343 -0.1493 -0.1082
  175MPD1    C3 2666   0.624   4.576  16.535  0.0776  0.6948 -1.0571
  175MPD1    C4 2667   0.736   4.504  16.573 -0.3113 -0.0906 -0.0230
  175MPD1    C5 2668   0.794   4.416  16.488 -0.3484  0.1210 -0.2919
  175MPD1     H 2669   0.495   4.616  16.371 -2.0421 -2.6953  0.1514
  175MPD1    H1 2670   0.772   4.518  16.675 -2.4050 -3.3324  1.1460
  175MPD1    H2 2671   0.801   4.336  16.297  1.2747  1.5532  0.2843
  175MPD1    H3 2672   0.871   4.350  16.526 -0.9351 -0.3619  0.0606
  175MPD1     N 2673   0.590   4.688  16.616 -0.0587 -0.3490 -0.0171
  175MPD1    H5 2674   0.654   4.702  16.694  1.1509  0.1319 -1.0948
  175MPD1    N1 2675   0.600   4.467  16.183  0.1568  0.0658  0.0123
  175MPD1    H6 2676   0.503   4.481  16.155 -0.2232 -1.8268  0.3736
  175MPD1    H7 2677   0.638   4.384  16.137  0.7774 -0.1452  0.9107
  176MPD1     C 2678   2.490   1.663  16.686 -0.5248 -0.7187  0.7677
  176MPD1    C1 2679   2.473   1.789  16.636 -0.2119  0.7873  0.1050
  176MPD1    C2 2680   2.417   1.882  16.718 -0.3735 -0.1968 -0.4374
  176MPD1    C3 2681   2.371   1.855  16.842  0.0516  0.2483 -0.0160
  176MPD1    C4 2682   2.390   1.724  16.893 -0.1763 -0.7532 -0.0451
  176MPD1    C5 2683   2.451   1.629  16.814 -0.7265  0.5718  0.3024
  176MPD1     H 2684   2.410   1.984  16.683  1.7797 -0.0770 -0.5171
  176MPD1    H1 2685   2.367   1.702  16.997 -0.8799  0.8520  0.1287
  176MPD1    H2 2686   2.533   1.594  16.614 -0.0072 -0.7665  1.1199
  176MPD1    H3 2687   2.481   1.530  16.846 -2.6051 -0.1846 -0.2292
  176MPD1     N 2688   2.326   1.969  16.914  0.2882  0.6323  0.2898
  176MPD1    H5 2689   2.350   2.058  16.872  1.0119  0.4196  0.2450
  176MPD1    N1 2690   2.533   1.832  16.513 -0.2505  0.1780 -0.5254
  176MPD1    H6 2691   2.539   1.760  16.442 -1.7991 -2.9049  2.4847
  176MPD1    H7 2692   2.490   1.916  16.475 -3.3822 -1.0246  0.4222
  177MPD1     C 2693   2.161   1.446   9.403 -0.1401  0.4067 -0.5340
  177MPD1    C1 2694   2.081   1.500   9.504 -0.0045  0.0660  0.0389
  177MPD1    C2 2695   1.948   1.519   9.476 -1.0033  0.2253 -0.9891
  177MPD1    C3 2696   1.892   1.472   9.358 -0.3465 -0.4456 -0.1358
  177MPD1    C4 2697   1.973   1.408   9.260  0.4796  0.5663  0.2065
  177MPD1    C5 2698   2.107   1.399   9.290 -0.0830  0.6178  0.5848
  177MPD1     H 2699   1.891   1.560   9.559 -1.5027 -4.6141  1.0736
  177MPD1    H1 2700   1.933   1.361   9.172 -2.4057  2.1025  0.7143
  177MPD1    H2 2701   2.267   1.435   9.428 -0.2339 -3.2649 -1.7141
  177MPD1    H3 2702   2.173   1.350   9.220 -0.7889  0.0418  0.3288
  177MPD1     N 2703   1.755   1.473   9.338 -0.0323  0.1859  0.3458
  177MPD1    H5 2704   1.729   1.441   9.245 -0.4072  0.9694  0.1807
  177MPD1    N1 2705   2.128   1.494   9.637  0.4436  0.6357 -0.0625
  177MPD1    H6 2706   2.088   1.566   9.697  0.2533  0.8652 -0.4683
  177MPD1    H7 2707   2.225   1.521   9.644 -0.0344  2.2220  0.3563
  178MPD1     C 2708   3.108   3.678  17.396 -0.4038 -0.2269  0.2119
  178MPD1    C1 2709   3.043   3.605  17.291 -0.0333  0.3073 -0.1183
  178MPD1    C2 2710   3.065   3.471  17.290 -0.3168  1.0217  0.8066
  178MPD1    C3 2711   3.156   3.408  17.370  0.8765  0.1498  0.1915
  178MPD1    C4 2712   3.229   3.483  17.466  0.4539  0.1796  0.7111
  178MPD1    C5 2713   3.201   3.620  17.479 -0.0733  0.5247 -0.5429
  178MPD1     H 2714   3.013   3.399  17.227  0.7263  0.7719  0.2274
  178MPD1    H1 2715   3.316   3.448  17.521  1.2828  1.6670  0.3522
  178MPD1    H2 2716   3.088   3.784  17.397  1.0792  0.0523 -1.1408
  178MPD1    H3 2717   3.255   3.676  17.555 -0.5576  2.9704 -2.0189
  178MPD1     N 2718   3.184   3.275  17.369  0.2856  0.0848  0.3690
  178MPD1    H5 2719   3.256   3.234  17.428  1.0171  2.6112  1.2295
  178MPD1    N1 2720   2.947   3.664  17.213 -0.4283  0.2919  0.4604
  178MPD1    H6 2721   2.927   3.616  17.125  2.1835  0.9872 -0.4988
  178MPD1    H7 2722   2.983   3.754  17.182 -0.5372 -0.2612 -1.2829
  179MPD1     C 2723   3.404   1.402  16.196 -0.0461  0.7694 -0.8201
  179MPD1    C1 2724   3.342   1.413  16.076  0.0484 -0.1137 -0.4269
  179MPD1    C2 2725   3.220   1.347  16.059 -0.0983 -0.0014 -0.4428
  179MPD1    C3 2726   3.165   1.279  16.167 -0.0177 -0.2683  0.4229
  179MPD1    C4 2727   3.226   1.280  16.290  0.1574  0.1918 -0.4363
  179MPD1    C5 2728   3.347   1.334  16.301  0.3686  0.4064  0.6071
  179MPD1     H 2729   3.166   1.341  15.964  0.3536 -1.3623 -0.6091
  179MPD1    H1 2730   3.177   1.241  16.379  1.6226 -1.6387 -0.4301
  179MPD1    H2 2731   3.506   1.439  16.202  0.8355 -1.5156 -1.6352
  179MPD1    H3 2732   3.406   1.324  16.392  1.9246 -0.6856 -0.5272
  179MPD1     N 2733   3.026   1.227  16.152  0.2466  0.3655  0.1547
  179MPD1    H5 2734   2.979   1.226  16.062 -0.0909  0.3084  0.3313
  179MPD1    N1 2735   3.406   1.483  15.974 -0.2900  0.1127  0.4216
  179MPD1    H6 2736   3.344   1.513  15.900 -0.1047 -0.7763 -0.0983
  179MPD1    H7 2737   3.454   1.565  16.010  0.2404  0.4678 -1.1228
  180MPD1     C 2738   2.339   2.833  14.762  0.3843 -0.4709 -0.1120
  180MPD1    C1 2739   2.306   2.826  14.632 -0.3801  0.0059 -0.3417
  180MPD1    C2 2740   2.402   2.774  14.544 -0.3921 -0.3150  0.8368
  180MPD1    C3 2741   2.529   2.743  14.586 -0.3053  0.5623  0.6527
  180MPD1    C4 2742   2.560   2.779  14.714  0.0264  0.3491  0.1567
  180MPD1    C5 2743   2.467   2.822  14.801 -0.1229 -0.0531  0.1123
  180MPD1     H 2744   2.377   2.746  14.442 -1.8841  0.2459  1.0502
  180MPD1    H1 2745   2.661   2.756  14.745 -0.0162  0.1171  0.1212
  180MPD1    H2 2746   2.273   2.859  14.844  0.5344  0.0122 -0.1464
  180MPD1    H3 2747   2.503   2.827  14.903  0.9725  1.9602 -0.3773
  180MPD1     N 2748   2.624   2.708  14.481  0.0209  0.2324  0.0967
  180MPD1    H5 2749   2.585   2.696  14.388 -0.3711 -2.5899  0.6118
  180MPD1    N1 2750   2.171   2.858  14.596  0.2354 -0.6623 -0.2906
  180MPD1    H6 2751   2.152   2.878  14.498 -0.4250 -0.9320 -0.2225
  180MPD1    H7 2752   2.121   2.928  14.650  0.3109 -0.6288 -0.2656
  181MPD1     C 2753   4.155   3.875   9.946  0.7499 -0.0403 -0.0842
  181MPD1    C1 2754   4.236   3.875  10.052  0.0288  0.2502  0.4077
  181MPD1    C2 2755   4.373   3.903  10.039  0.2584 -0.0096  0.2468
  181MPD1    C3 2756   4.417   3.951   9.917  0.0484 -0.5105  0.0269
  181MPD1    C4 2757   4.334   3.967   9.810 -0.5606  0.4264 -0.3926
  181MPD1    C5 2758   4.208   3.927   9.825 -0.2706  0.4494 -0.2977
  181MPD1     H 2759   4.445   3.900  10.120  2.8205 -0.7403 -2.0506
  181MPD1    H1 2760   4.369   3.975   9.708  1.8761 -0.1076  0.4072
  181MPD1    H2 2761   4.050   3.850   9.937  0.6102  0.2648  0.7470
  181MPD1    H3 2762   4.151   3.910   9.734  0.1208 -2.8909  0.0570
  181MPD1     N 2763   4.557   3.978   9.895 -0.5200  0.0117 -0.3504
  181MPD1    H5 2764   4.596   3.961   9.803 -0.5290  0.2517 -0.3999
  181MPD1    N1 2765   4.186   3.800  10.162 -0.1230  0.2377  0.2823
  181MPD1    H6 2766   4.232   3.830  10.249  0.6704  1.8683 -0.6995
  181MPD1    H7 2767   4.085   3.811  10.169  0.1623  2.1953  1.4663
  182MPD1     C 2768   4.437   2.913   1.726  0.0103  0.0216  0.0336
  182MPD1    C1 2769   4.562   2.899   1.675  0.1884 -0.0852  0.0300
  182MPD1    C2 2770   4.599   2.987   1.570  0.1038  0.7737 -0.4386
  182MPD1    C3 2771   4.511   3.074   1.514 -0.2715 -0.1507 -1.2748
  182MPD1    C4 2772   4.384   3.090   1.571  0.3888 -0.0663  0.0064
  182MPD1    C5 2773   4.352   3.008   1.673 -0.6064 -0.3489 -0.6163
  182MPD1     H 2774   4.697   2.985   1.523 -0.8505  0.5893 -2.4174
  182MPD1    H1 2775   4.302   3.155   1.543  0.5177 -1.0710 -2.7529
  182MPD1    H2 2776   4.401   2.863   1.816  2.0703 -0.9328  0.3236
  182MPD1    H3 2777   4.256   3.019   1.723 -0.7499 -2.9974 -0.3248
  182MPD1     N 2778   4.534   3.158   1.404  0.2484  0.1900 -0.2453
  182MPD1    H5 2779   4.468   3.233   1.385  1.0106  1.4130  1.9534
  182MPD1    N1 2780   4.655   2.819   1.743  0.1414  0.4250 -0.7656
  182MPD1    H6 2781   0.010   2.800   1.679  1.7636  2.0777  0.6651
  182MPD1    H7 2782   4.610   2.737   1.784  0.6474 -0.0194 -1.0957
  183MPD1     C 2783   0.706   2.461   9.781 -0.3663 -0.4285  0.2983
  183MPD1    C1 2784   0.843   2.480   9.783  0.0218  0.1394  0.8396
  183MPD1    C2 2785   0.889   2.609   9.764  1.2321  0.5990 -0.2559
  183MPD1    C3 2786   0.809   2.716   9.717 -0.2067  0.0124  0.3583
  183MPD1    C4 2787   0.676   2.687   9.693 -0.0205  0.1752 -0.0565
  183MPD1    C5 2788   0.629   2.565   9.728 -0.9874 -0.4817 -0.9099
  183MPD1     H 2789   0.991   2.624   9.795  1.7022  0.2963 -1.6893
  183MPD1    H1 2790   0.603   2.761   9.663 -2.5882 -1.6613  1.6811
  183MPD1    H2 2791   0.658   2.371   9.818  0.6631 -1.1349 -0.0690
  183MPD1    H3 2792   0.524   2.540   9.721 -1.1212 -1.5976  4.6909
  183MPD1     N 2793   0.863   2.849   9.722 -0.1730 -0.7117 -0.5004
  183MPD1    H5 2794   0.960   2.849   9.750  0.3781 -1.6894 -2.3786
  183MPD1    N1 2795   0.923   2.382   9.843  0.1109  0.6629  0.1132
  183MPD1    H6 2796   0.903   2.287   9.813  1.4443  1.0344 -1.9425
  183MPD1    H7 2797   1.024   2.392   9.841  0.0018  1.9879  1.3258
  184MPD1     C 2798   0.087   1.132   9.843 -0.1706 -0.0716 -0.2576
  184MPD1    C1 2799   0.218   1.122   9.880  0.2208  0.2054  0.4178
  184MPD1    C2 2800   0.315   1.178   9.798 -0.7308  0.3657  0.3306
  184MPD1    C3 2801   0.288   1.219   9.667 -0.2040  0.1133  0.1915
  184MPD1    C4 2802   0.158   1.213   9.622  0.0489  0.0297 -0.3781
  184MPD1    C5 2803   0.061   1.179   9.717 -0.1174 -0.7695 -0.0431
  184MPD1     H 2804   0.416   1.179   9.837  0.9673 -0.7954 -3.9991
  184MPD1    H1 2805   0.126   1.233   9.521  0.8879  1.7137 -0.3122
  184MPD1    H2 2806   0.008   1.091   9.905 -0.2533 -0.9953 -0.9737
  184MPD1    H3 2807   4.681   1.185   9.679 -1.3202 -1.4369  3.0665
  184MPD1     N 2808   0.393   1.265   9.590  0.1686 -0.1994 -0.0688
  184MPD1    H5 2809   0.371   1.280   9.492  2.4716  2.6142 -0.1338
  184MPD1    N1 2810   0.256   1.100  10.013 -0.0177  0.3945  0.1552
  184MPD1    H6 2811   0.181   1.046  10.056  0.6373 -0.4160  0.2640
  184MPD1    H7 2812   0.348   1.059  10.020 -0.6743 -1.2647 -0.9949
  185MPD1     C 2813   0.364   0.866   8.878  0.0390  0.8434  0.3833
  185MPD1    C1 2814   0.445   0.972   8.845 -0.1343  0.0905  1.2336
  185MPD1    C2 2815   0.509   1.044   8.946 -0.0011 -0.4004  0.1103
  185MPD1    C3 2816   0.481   1.022   9.079 -0.0387  0.0031  0.5917
  185MPD1    C4 2817   0.400   0.913   9.107  0.3514 -0.3680 -0.0512
  185MPD1    C5 2818   0.340   0.845   9.008  0.4098  0.4756  0.6198
  185MPD1     H 2819   0.589   1.115   8.926  2.8711 -3.3788  0.8430
  185MPD1    H1 2820   0.365   0.894   9.207  1.1841 -0.2226  0.2665
  185MPD1    H2 2821   0.319   0.794   8.810 -1.3871  1.8873  0.2366
  185MPD1    H3 2822   0.271   0.770   9.045  2.2368 -2.2629 -1.5359
  185MPD1     N 2823   0.548   1.090   9.182  1.0792  0.6224 -0.0223
  185MPD1    H5 2824   0.529   1.057   9.276 -0.4153  1.2280 -0.1144
  185MPD1    N1 2825   0.504   0.982   8.713 -0.0356 -0.1351  0.3081
  185MPD1    H6 2826   0.442   0.953   8.638  0.4437 -0.2414 -0.0487
  185MPD1    H7 2827   0.535   1.076   8.691  0.2036 -0.3876 -0.4326
  186MPD1     C 2828   2.703   1.553  15.676 -0.2167  0.2239  0.2575
  186MPD1    C1 2829   2.645   1.538  15.798  0.5768  0.9370 -0.2833
  186MPD1    C2 2830   2.725   1.549  15.913 -0.4160 -0.1623 -0.1261
  186MPD1    C3 2831   2.862   1.583  15.903 -0.0853  0.6546  0.4734
  186MPD1    C4 2832   2.914   1.574  15.779  0.5708  0.1161  0.3924
  186MPD1    C5 2833   2.837   1.573  15.664  0.4034  0.1299 -0.3471
  186MPD1     H 2834   2.682   1.546  16.013 -2.5567  4.4596 -0.9276
  186MPD1    H1 2835   3.022   1.586  15.769  0.4004  1.8939  0.6473
  186MPD1    H2 2836   2.641   1.544  15.588  0.0748 -1.1826  0.1923
  186MPD1    H3 2837   2.879   1.579  15.565  0.5834 -2.1947 -0.4175
  186MPD1     N 2838   2.954   1.601  16.009  0.3781  0.9908  0.0639
  186MPD1    H5 2839   3.048   1.634  15.987  0.5866 -0.0523 -0.6112
  186MPD1    N1 2840   2.506   1.522  15.797  0.4702 -0.3090 -0.5856
  186MPD1    H6 2841   2.464   1.489  15.884 -1.2993  0.1302 -1.2636
  186MPD1    H7 2842   2.471   1.448  15.736  0.3717  0.1707 -1.1188
  187MPD1     C 2843   2.417   2.775   0.248 -0.0528 -0.6630 -0.5463
  187MPD1    C1 2844   2.450   2.898   0.301 -0.3223 -0.1076  0.5743
  187MPD1    C2 2845   2.414   3.009   0.233 -0.3270 -0.7211  0.7817
  187MPD1    C3 2846   2.350   3.006   0.109 -0.4743  0.7994  0.6910
  187MPD1    C4 2847   2.325   2.877   0.057  0.1108 -0.6611  0.1375
  187MPD1    C5 2848   2.366   2.761   0.120  0.1943 -0.2026  0.3276
  187MPD1     H 2849   2.421   3.106   0.281  1.0218 -1.6720  2.5441
  187MPD1    H1 2850   2.274   2.872  17.649  0.6106 -0.7828 -0.1213
  187MPD1    H2 2851   2.431   2.683   0.304 -0.1408 -0.9954 -1.0716
  187MPD1    H3 2852   2.338   2.665   0.077 -0.5693  1.1587 -2.2159
  187MPD1     N 2853   2.305   3.115   0.035 -0.1412  0.3171  0.4617
  187MPD1    H5 2854   2.252   3.088  17.641  0.8685 -1.4561  0.3964
  187MPD1    N1 2855   2.487   2.919   0.431  0.6083  0.5517 -0.4031
  187MPD1    H6 2856   2.545   2.843   0.466 -1.0489  0.3387  1.8848
  187MPD1    H7 2857   2.525   3.008   0.463 -0.1363  1.0074 -0.7761
  188MPD1     C 2858   3.918   2.932  10.593 -0.1940  0.5864  0.5850
  188MPD1    C1 2859   3.969   2.812  10.630 -0.2942  0.1211 -0.2840
  188MPD1    C2 2860   3.902   2.695  10.596  1.0502 -0.5113  0.7088
  188MPD1    C3 2861   3.779   2.705  10.531  0.0425 -0.0368 -0.3969
  188MPD1    C4 2862   3.737   2.823  10.484 -0.2331 -0.6277 -0.3801
  188MPD1    C5 2863   3.797   2.940  10.525 -0.1406  0.3788  0.4707
  188MPD1     H 2864   3.950   2.602  10.623  3.6977  0.0249 -2.1112
  188MPD1    H1 2865   3.639   2.830  10.438  0.5825 -0.4205 -2.0586
  188MPD1    H2 2866   3.974   3.024  10.607 -0.4043  0.9907 -1.2482
  188MPD1    H3 2867   3.758   3.031  10.482  0.6912  0.0628 -0.9606
  188MPD1     N 2868   3.705   2.583  10.506  0.0265  0.4444  0.0971
  188MPD1    H5 2869   3.620   2.589  10.450 -1.2206  0.1944  1.9646
  188MPD1    N1 2870   4.102   2.805  10.676 -0.6357 -0.7364  0.2044
  188MPD1    H6 2871   4.123   2.889  10.730  0.6791  0.2645 -1.8913
  188MPD1    H7 2872   4.125   2.733  10.745 -2.6642  0.3631  2.0250
  189MPD1     C 2873   4.590   3.743   0.652 -0.1835 -0.9500  0.0245
  189MPD1    C1 2874   4.538   3.691   0.533  0.4576  0.1126 -1.3418
  189MPD1    C2 2875   4.419   3.739   0.489 -0.1548  0.1296 -0.2232
  189MPD1    C3 2876   4.353   3.847   0.555 -0.1187  0.3321 -1.3064
  189MPD1    C4 2877   4.427   3.914   0.658 -0.3815  0.1721 -0.2298
  189MPD1    C5 2878   4.537   3.854   0.710 -0.0244 -0.7147 -0.3349
  189MPD1     H 2879   4.375   3.682   0.408 -2.1121 -2.9561  3.0017
  189MPD1    H1 2880   4.386   4.000   0.711 -0.8791 -0.5671  0.5853
  189MPD1    H2 2881   4.672   3.704   0.711  1.1046  1.5406 -0.1367
  189MPD1    H3 2882   4.582   3.890   0.802  0.6936 -1.9389 -0.2050
  189MPD1     N 2883   4.231   3.891   0.502 -0.1103  0.1088  0.7959
  189MPD1    H5 2884   4.194   3.844   0.420  0.8980  0.7632 -0.0361
  189MPD1    N1 2885   4.593   3.578   0.486  0.2076 -0.6323 -0.6243
  189MPD1    H6 2886   4.691   3.567   0.510  0.0961 -2.3292 -0.9883
  189MPD1    H7 2887   4.582   3.556   0.387 -0.9336  0.6858 -0.7946
  190MPD1     C 2888   2.815   3.150  15.411 -0.0016  0.4189  0.1822
  190MPD1    C1 2889   2.751   3.065  15.498  0.3503  0.2082  0.0711
  190MPD1    C2 2890   2.799   2.936  15.520  0.0488 -0.2499  0.4808
  190MPD1    C3 2891   2.890   2.877  15.436 -0.5228  0.4042  0.2293
  190MPD1    C4 2892   2.953   2.960  15.348  0.3879 -0.5192  0.1514
  190MPD1    C5 2893   2.922   3.094  15.344  0.4767 -0.3167  0.1051
  190MPD1     H 2894   2.751   2.872  15.593 -4.1927 -1.0276 -2.9626
  190MPD1    H1 2895   3.036   2.922  15.290 -0.2766 -3.3922  1.0380
  190MPD1    H2 2896   2.799   3.256  15.397  0.5477  0.3990 -0.5781
  190MPD1    H3 2897   2.980   3.156  15.278 -0.8934 -1.1071 -1.8300
  190MPD1     N 2898   2.940   2.750  15.476  0.0569  0.6824  0.1531
  190MPD1    H5 2899   2.906   2.709  15.563  1.1520 -0.5556 -0.0131
  190MPD1    N1 2900   2.658   3.122  15.593 -0.1222  0.2145  0.1839
  190MPD1    H6 2901   2.574   3.069  15.616 -0.6234  0.3335 -1.4226
  190MPD1    H7 2902   2.623   3.213  15.563 -0.5291  0.2965  0.9096
  191MPD1     C 2903   2.279   3.463  12.198 -0.5178  0.0077  0.8746
  191MPD1    C1 2904   2.180   3.554  12.159  0.1863 -0.2845  0.3663
  191MPD1    C2 2905   2.219   3.682  12.127 -0.0475  0.3806 -0.4960
  191MPD1    C3 2906   2.349   3.702  12.101 -0.3127 -0.4939 -0.0877
  191MPD1    C4 2907   2.452   3.610  12.117  0.3541 -0.3318 -0.0833
  191MPD1    C5 2908   2.410   3.491  12.171 -0.4178 -0.2990  0.7340
  191MPD1     H 2909   2.149   3.764  12.130 -0.3555  0.1271 -0.7469
  191MPD1    H1 2910   2.556   3.639  12.112 -0.1938  1.4897 -0.9959
  191MPD1    H2 2911   2.253   3.364  12.235 -0.8580 -0.8713 -1.7393
  191MPD1    H3 2912   2.489   3.417  12.181  0.2791  0.1061 -1.7432
  191MPD1     N 2913   2.370   3.835  12.056  0.1522 -0.7993 -0.1967
  191MPD1    H5 2914   2.288   3.895  12.059 -0.2320 -1.3835  0.8493
  191MPD1    N1 2915   2.044   3.519  12.178  0.7228 -0.2797 -0.1240
  191MPD1    H6 2916   1.995   3.570  12.105  1.1752 -0.3541 -0.4845
  191MPD1    H7 2917   2.022   3.421  12.162 -1.0425  0.1213 -0.1181
  192MPD1     C 2918   1.879   4.353  11.377  0.0522  0.5689 -0.1875
  192MPD1    C1 2919   1.873   4.233  11.441  0.6784 -0.5293  0.6038
  192MPD1    C2 2920   1.973   4.195  11.527 -0.5869  0.5620  0.3256
  192MPD1    C3 2921   2.086   4.275  11.542  0.7381  0.0712  0.1261
  192MPD1    C4 2922   2.101   4.390  11.458 -0.3092  0.2092  0.4464
  192MPD1    C5 2923   1.988   4.428  11.385  0.3236 -0.6825 -0.4258
  192MPD1     H 2924   1.962   4.107  11.589 -1.6052 -0.2173 -0.9749
  192MPD1    H1 2925   2.185   4.459  11.456  0.6102 -0.9555 -1.0347
  192MPD1    H2 2926   1.801   4.395  11.314 -0.5367 -0.1267  0.0938
  192MPD1    H3 2927   2.006   4.520  11.330  0.9669 -0.0800  0.7808
  192MPD1     N 2928   2.205   4.238  11.616  0.3205  0.0561 -0.3257
  192MPD1    H5 2929   2.291   4.282  11.586  0.9959 -0.2143  1.1719
  192MPD1    N1 2930   1.751   4.161  11.440  0.0982  0.1417 -0.4915
  192MPD1    H6 2931   1.753   4.059  11.439 -1.9785  0.0986 -0.3631
  192MPD1    H7 2932   1.690   4.201  11.368  2.3061  1.8913 -1.3738
  193MPD1     C 2933   1.338   0.589  16.946  0.4305  0.4019 -0.1823
  193MPD1    C1 2934   1.418   0.478  16.941  0.4074 -0.1334 -1.1947
  193MPD1    C2 2935   1.518   0.453  17.032 -0.0092  0.3014 -0.0519
  193MPD1    C3 2936   1.562   0.555  17.106  0.1138 -0.1826  0.5444
  193MPD1    C4 2937   1.494   0.679  17.094 -0.1092  0.5513  0.4281
  193MPD1    C5 2938   1.375   0.686  17.027 -0.3939 -0.2478  0.2700
  193MPD1     H 2939   1.568   0.356  17.026  2.5804  1.6238 -0.0708
  193MPD1    H1 2940   1.519   0.767  17.152  1.2415  0.4618 -0.0192
  193MPD1    H2 2941   1.245   0.596  16.890 -0.6951 -1.3482  1.4721
  193MPD1    H3 2942   1.323   0.781  17.030 -1.8792 -0.9939 -1.0371
  193MPD1     N 2943   1.675   0.549  17.196 -0.5785  1.0070  0.5977
  193MPD1    H5 2944   1.712   0.638  17.228  0.4200  0.6888  0.3314
  193MPD1    N1 2945   1.382   0.378  16.850  0.0744 -0.3399 -0.0342
  193MPD1    H6 2946   1.326   0.414  16.773  1.8885  0.7023 -0.8771
  193MPD1    H7 2947   1.456   0.319  16.813 -0.1399 -2.5414  3.0551
  194MPD1     C 2948   3.860   2.644  17.125  1.1287  0.1351 -0.1608
  194MPD1    C1 2949   3.911   2.597  17.012  0.0416  0.5317 -0.5894
  194MPD1    C2 2950   4.017   2.510  17.018  0.4886  1.1539  0.0744
  194MPD1    C3 2951   4.073   2.469  17.141  0.1266  0.2951  0.2348
  194MPD1    C4 2952   4.030   2.529  17.251 -0.6140 -0.6835  0.2891
  194MPD1    C5 2953   3.928   2.618  17.247 -0.2970 -0.6064 -0.0692
  194MPD1     H 2954   4.048   2.462  16.925  1.0437  2.6402 -0.4996
  194MPD1    H1 2955   4.069   2.499  17.348  1.8664  1.1752 -0.1036
  194MPD1    H2 2956   3.764   2.694  17.126  0.8373 -0.4501  1.2956
  194MPD1    H3 2957   3.878   2.650  17.338 -0.4196  0.3943 -0.4842
  194MPD1     N 2958   4.184   2.381  17.149  0.5349 -0.4829 -0.5553
  194MPD1    H5 2959   4.229   2.353  17.235 -0.2325  0.3128  0.1049
  194MPD1    N1 2960   3.850   2.611  16.893  0.2895  0.5972  0.9201
  194MPD1    H6 2961   3.911   2.598  16.812  0.2644 -1.1866  1.1828
  194MPD1    H7 2962   3.789   2.692  16.878  1.8809  1.1818 -2.4733
  195MPD1     C 2963   2.457   3.088   0.986  0.2416  0.4182  0.7534
  195MPD1    C1 2964   2.319   3.112   0.974  0.9462  0.8390  0.2099
  195MPD1    C2 2965   2.258   3.063   0.857  0.0943 -0.0595  1.2104
  195MPD1    C3 2966   2.337   3.004   0.761  0.2739 -1.0768  0.6192
  195MPD1    C4 2967   2.473   2.991   0.774 -0.0698  0.8482  0.2934
  195MPD1    C5 2968   2.530   3.039   0.888  0.5991 -0.2844  0.6688
  195MPD1     H 2969   2.150   3.065   0.855  0.0710 -1.6963  0.5615
  195MPD1    H1 2970   2.531   2.955   0.690  0.9615  3.0526  0.0660
  195MPD1    H2 2971   2.498   3.128   1.078  1.9874  0.1199  0.0871
  195MPD1    H3 2972   2.638   3.029   0.890  0.6132 -0.5607 -1.6936
  195MPD1     N 2973   2.282   2.956   0.644  0.0867  0.3040 -0.4170
  195MPD1    H5 2974   2.337   2.903   0.577  0.3959  1.1209 -0.8098
  195MPD1    N1 2975   2.253   3.153   1.091  0.4243  0.9981  0.5363
  195MPD1    H6 2976   2.288   3.234   1.141 -0.3060  2.2170 -0.9344
  195MPD1    H7 2977   2.155   3.172   1.072  0.5358 -1.6235 -2.5536
  196MPD1     C 2978   0.433   2.646   0.184  0.2189  0.3099 -0.5539
  196MPD1    C1 2979   0.511   2.745   0.241 -0.9245 -0.4480 -0.0279
  196MPD1    C2 2980   0.528   2.733   0.376 -0.2886 -0.1586 -0.4528
  196MPD1    C3 2981   0.483   2.627   0.450  0.9339  0.2959  0.9971
  196MPD1    C4 2982   0.413   2.528   0.390  0.1243 -0.1426 -0.8071
  196MPD1    C5 2983   0.391   2.537   0.256 -0.0624 -0.0895  0.4519
  196MPD1     H 2984   0.563   2.827   0.418  1.2135 -1.0340  0.2530
  196MPD1    H1 2985   0.367   2.453   0.452 -0.8075  2.4626  1.6833
  196MPD1    H2 2986   0.396   2.656   0.082  1.2947  0.0562 -0.9760
  196MPD1    H3 2987   0.335   2.460   0.203 -0.1502  0.4553 -0.2537
  196MPD1     N 2988   0.496   2.620   0.587  0.1902  0.2089 -0.1457
  196MPD1    H5 2989   0.440   2.547   0.631  1.0939 -0.9131 -0.8544
  196MPD1    N1 2990   0.529   2.867   0.181  0.1774  0.0271 -0.0746
  196MPD1    H6 2991   0.540   2.860   0.080  1.8366 -0.6102  0.1437
  196MPD1    H7 2992   0.599   2.928   0.224  0.8882 -1.5496  1.0282
  197MPD1     C 2993   0.541   0.461   0.045 -0.0629 -0.3620  0.0826
  197MPD1    C1 2994   0.573   0.586   0.087 -0.1706 -0.1619  0.1488
  197MPD1    C2 2995   0.578   0.696  17.685  0.1148  0.2930  0.1821
  197MPD1    C3 2996   0.523   0.683  17.559  0.8648  0.0776  0.3335
  197MPD1    C4 2997   0.475   0.554  17.522  0.4908  0.3400  0.6559
  197MPD1    C5 2998   0.494   0.444  17.604  0.2276  0.1179  0.9785
  197MPD1     H 2999   0.612   0.794   0.031  3.5715 -1.8772  3.0108
  197MPD1    H1 3000   0.438   0.539  17.421  2.6491 -1.9511  0.1923
  197MPD1    H2 3001   0.541   0.371   0.105  1.4348 -0.3699  0.0713
  197MPD1    H3 3002   0.457   0.345  17.580  2.9127 -0.3928 -0.9961
  197MPD1     N 3003   0.522   0.782  17.457  0.0116  0.2840 -0.0765
  197MPD1    H5 3004   0.479   0.758  17.369  1.2243  0.4284 -0.7075
  197MPD1    N1 3005   0.642   0.594   0.213 -0.5332 -0.3237  0.6510
  197MPD1    H6 3006   0.625   0.515   0.274  1.5679  1.4098  3.4917
  197MPD1    H7 3007   0.645   0.686   0.258  0.5864  0.2390 -0.5824
  198MPD1     C 3008   2.207   3.838  15.636  0.3181 -0.2486  0.6731
  198MPD1    C1 3009   2.297   3.735  15.644 -0.2753 -0.0848 -0.5803
  198MPD1    C2 3010   2.400   3.758  15.729  0.4508  0.0260 -0.1182
  198MPD1    C3 3011   2.408   3.866  15.820  0.3055  0.8533  0.2803
  198MPD1    C4 3012   2.309   3.963  15.816  0.3647  0.1483 -0.1956
  198MPD1    C5 3013   2.210   3.939  15.724 -0.2087  0.0788  0.7977
  198MPD1     H 3014   2.484   3.690  15.738 -1.3047 -2.1476 -0.0363
  198MPD1    H1 3015   2.303   4.049  15.882  2.4154  1.2268 -1.4041
  198MPD1    H2 3016   2.121   3.832  15.570  1.5515  2.6387 -1.1957
  198MPD1    H3 3017   2.135   4.018  15.723  0.4061  0.6460 -0.1498
  198MPD1     N 3018   2.530   3.871  15.895  0.1352 -0.1950 -0.3096
  198MPD1    H5 3019   2.604   3.812  15.858  1.9317  1.1289  1.1223
  198MPD1    N1 3020   2.297   3.630  15.546  0.0585  0.4486  0.3932
  198MPD1    H6 3021   2.323   3.541  15.588 -0.4844 -0.6417 -1.5847
  198MPD1    H7 3022   2.204   3.625  15.506  1.3788 -4.2076 -2.0443
  199MPD1     C 3023   0.518   3.720   9.682 -0.2908  0.0884 -0.2251
  199MPD1    C1 3024   0.392   3.663   9.663 -0.3495  0.3226 -0.0052
  199MPD1    C2 3025   0.305   3.729   9.582 -0.2637 -0.3706 -0.0238
  199MPD1    C3 3026   0.341   3.838   9.506  0.6161 -0.5251  0.4270
  199MPD1    C4 3027   0.466   3.888   9.533 -0.0945  0.2507  0.1365
  199MPD1    C5 3028   0.554   3.828   9.615  0.2118 -0.9340 -0.4601
  199MPD1     H 3029   0.206   3.686   9.570  0.3757 -1.9929  0.5737
  199MPD1    H1 3030   0.496   3.984   9.492 -1.4190  0.2162 -0.9135
  199MPD1    H2 3031   0.589   3.673   9.750 -0.7285 -0.9396 -0.4924
  199MPD1    H3 3032   0.659   3.853   9.625  0.2173 -1.2464  0.2546
  199MPD1     N 3033   0.260   3.891   9.406  0.1363  0.5324 -0.5054
  199MPD1    H5 3034   0.292   3.975   9.359  3.8701  0.7926  2.5356
  199MPD1    N1 3035   0.359   3.532   9.711 -0.4955 -0.0694  0.2067
  199MPD1    H6 3036   0.401   3.508   9.801 -0.1379  0.8897  0.2899
  199MPD1    H7 3037   0.258   3.534   9.722 -0.6295  0.2532 -1.0395
  200MPD1     C 3038   3.763   0.279  15.522  0.5834  0.1755 -0.4895
  200MPD1    C1 3039   3.713   0.208  15.416 -0.2408 -0.0683  0.0478
  200MPD1    C2 3040   3.799   0.176  15.311  1.2203 -0.1658 -0.3059
  200MPD1    C3 3041   3.931   0.202  15.318 -0.8137 -0.5827 -0.5530
  200MPD1    C4 3042   3.980   0.278  15.416  0.5521  0.1290 -0.3190
  200MPD1    C5 3043   3.894   0.318  15.516 -0.6113  0.4543 -0.1604
  200MPD1     H 3044   3.780   0.101  15.236  2.5153  1.1485 -1.9538
  200MPD1    H1 3045   4.084   0.308  15.424  0.4531  0.0767  1.3250
  200MPD1    H2 3046   3.706   0.310  15.609 -0.2582 -0.0939 -0.9478
  200MPD1    H3 3047   3.927   0.381  15.598 -0.4632 -1.2075  1.0578
  200MPD1     N 3048   4.015   0.156  15.206  0.1619 -0.3454  0.3240
  200MPD1    H5 3049   3.962   0.124  15.125  0.0803  1.0257 -0.1590
  200MPD1    N1 3050   3.591   0.140  15.429 -0.7268  0.0632  0.1716
  200MPD1    H6 3051   3.532   0.187  15.498  1.3359  0.8042  1.4370
  200MPD1    H7 3052   3.534   0.126  15.346  0.7809 -0.7264 -0.7305
  201MPD1     C 3053   1.200   3.884  12.312  0.3865  0.5437  0.4297
  201MPD1    C1 3054   1.315   3.919  12.382  0.9459 -0.6687  0.6305
  201MPD1    C2 3055   1.408   3.819  12.399  0.0534 -0.1247 -0.1595
  201MPD1    C3 3056   1.404   3.695  12.334 -0.5369  0.1466 -0.3652
  201MPD1    C4 3057   1.293   3.671  12.260  0.1795 -0.4704 -0.0968
  201MPD1    C5 3058   1.189   3.768  12.248  0.2694 -0.0905 -0.1514
  201MPD1     H 3059   1.494   3.845  12.459 -0.7332  2.5105 -0.1873
  201MPD1    H1 3060   1.285   3.577  12.206  0.2657  0.0410 -1.0073
  201MPD1    H2 3061   1.114   3.950  12.301 -0.3488 -0.1834  1.8371
  201MPD1    H3 3062   1.106   3.743  12.184  0.2932  1.9752 -1.0114
  201MPD1     N 3063   1.511   3.601  12.356  0.7000 -0.3804 -0.3554
  201MPD1    H5 3064   1.586   3.637  12.414  0.7367 -1.9204  0.5677
  201MPD1    N1 3065   1.316   4.037  12.454 -0.7432 -0.3854  0.0720
  201MPD1    H6 3066   1.410   4.069  12.478 -0.6160 -0.6077 -0.1425
  201MPD1    H7 3067   1.263   4.106  12.401  1.0150  1.0240  0.1483
  202MPD1     C 3068   1.852   1.844   9.481  0.1337  0.3781 -0.4335
  202MPD1    C1 3069   1.766   1.889   9.584 -0.9033 -0.0627  0.4934
  202MPD1    C2 3070   1.797   2.022   9.621  0.5143 -0.4192  0.0981
  202MPD1    C3 3071   1.867   2.113   9.542  0.2557  0.1427  0.0223
  202MPD1    C4 3072   1.945   2.060   9.447 -0.4729  0.0982 -0.3659
  202MPD1    C5 3073   1.936   1.927   9.418 -0.1675  0.2341 -0.2652
  202MPD1     H 3074   1.732   2.055   9.701  0.3311 -0.6426  0.0436
  202MPD1    H1 3075   2.009   2.132   9.397  0.3811 -0.5753 -0.2383
  202MPD1    H2 3076   1.840   1.743   9.445 -0.0329  0.8689 -1.7476
  202MPD1    H3 3077   1.987   1.896   9.327  1.0648  2.3768 -0.2943
  202MPD1     N 3078   1.878   2.247   9.571  0.6582 -0.0586 -0.5520
  202MPD1    H5 3079   1.954   2.300   9.529 -0.0094  1.7412  0.5449
  202MPD1    N1 3080   1.730   1.787   9.681 -0.6991 -0.1227 -0.0995
  202MPD1    H6 3081   1.700   1.701   9.637  0.4328  0.9902 -3.0068
  202MPD1    H7 3082   1.659   1.819   9.747 -1.3470 -1.7585 -0.0194
  203MPD1     C 3083   0.332   4.442  12.364 -0.0069 -0.0399 -0.6570
  203MPD1    C1 3084   0.406   4.387  12.267  0.0769  0.6553  0.3476
  203MPD1    C2 3085   0.466   4.272  12.301 -0.2322  0.6687 -0.3829
  203MPD1    C3 3086   0.446   4.199  12.417 -0.4047 -0.0709 -0.9807
  203MPD1    C4 3087   0.369   4.258  12.516 -0.1225 -0.2756  0.1303
  203MPD1    C5 3088   0.322   4.390  12.486  0.8638  0.1311 -0.0604
  203MPD1     H 3089   0.517   4.215  12.224  1.1134 -1.1384  1.8491
  203MPD1    H1 3090   0.339   4.213  12.610 -1.8872  1.6559  0.4927
  203MPD1    H2 3091   0.288   4.539  12.345  0.6842  0.5438  0.6806
  203MPD1    H3 3092   0.260   4.438  12.560  1.8306  3.0215 -1.1304
  203MPD1     N 3093   0.501   4.067  12.432 -0.0266  0.1600  0.0243
  203MPD1    H5 3094   0.529   4.019  12.347  1.0427 -0.5051  0.7652
  203MPD1    N1 3095   0.417   4.455  12.149 -0.6349  0.2560  0.8490
  203MPD1    H6 3096   0.424   4.380  12.080 -1.5033 -0.3485  1.4150
  203MPD1    H7 3097   0.340   4.518  12.127  0.0027  0.4558 -0.8099
  204MPD1     C 3098   4.647   1.054   0.408  0.2048  0.3318  0.2436
  204MPD1    C1 3099   4.689   1.099   0.288 -0.0060 -0.1225  0.0210
  204MPD1    C2 3100   4.674   1.015   0.183 -0.2107  0.2117  0.2788
  204MPD1    C3 3101   4.604   0.894   0.191  0.5401  0.1617  0.4243
  204MPD1    C4 3102   4.560   0.855   0.317 -1.0531 -0.2646 -0.3612
  204MPD1    C5 3103   4.589   0.931   0.427  0.2744  0.8702  0.4838
  204MPD1     H 3104   4.720   1.038   0.088  1.2067 -1.5469  0.5438
  204MPD1    H1 3105   4.500   0.765   0.319 -0.6346 -0.4301  3.0684
  204MPD1    H2 3106   4.663   1.107   0.501  0.3536 -0.7044  0.8133
  204MPD1    H3 3107   4.561   0.895   0.525  1.4719 -0.8390  0.1866
  204MPD1     N 3108   4.585   0.813   0.076  0.4712  0.3616  0.4374
  204MPD1    H5 3109   4.617   0.863  17.681  2.8206 -1.7265  0.0957
  204MPD1    N1 3110   0.048   1.212   0.272 -0.2488 -0.1341  0.2743
  204MPD1    H6 3111   0.042   1.277   0.350 -2.0282  0.5697 -0.4715
  204MPD1    H7 3112   0.035   1.260   0.184 -1.0559  0.7414  0.8751
  205MPD1     C 3113   4.635   3.818  16.743 -0.3303  0.4526  0.3524
  205MPD1    C1 3114   4.716   3.848  16.852  0.4832  0.4276  0.1359
  205MPD1    C2 3115   4.671   3.926  16.954  0.4585  0.0720  0.5275
  205MPD1    C3 3116   4.562   4.013  16.938  0.4777  0.1344  0.3114
  205MPD1    C4 3117   4.477   3.985  16.832  0.7416 -0.5602 -0.0107
  205MPD1    C5 3118   4.511   3.883  16.739  0.2974  0.0170 -0.6626
  205MPD1     H 3119   0.001   3.937  17.049  0.3072 -3.4039  1.0024
  205MPD1    H1 3120   4.378   4.027  16.821  1.3402  1.1019  0.7935
  205MPD1    H2 3121   4.664   3.749  16.664  1.1699  1.3194  0.1464
  205MPD1    H3 3122   4.441   3.849  16.663  0.4642  0.7884 -1.1686
  205MPD1     N 3123   4.523   4.105  17.041  0.4691 -0.1710 -0.4408
  205MPD1    H5 3124   4.581   4.106  17.124  0.5999 -1.8579 -0.5010
  205MPD1    N1 3125   0.108   3.768  16.867 -0.2588  0.3315 -0.0075
  205MPD1    H6 3126   0.155   3.776  16.777 -0.9989 -0.5273 -0.4656
  205MPD1    H7 3127   0.167   3.806  16.941  0.4437  0.0870 -0.4362
  206MPD1     C 3128   0.254   1.861  16.556 -0.1776 -0.4230  0.4282
  206MPD1    C1 3129   0.126   1.821  16.548  0.4213 -0.1391  0.4951
  206MPD1    C2 3130   0.062   1.833  16.421 -0.8003  0.2803 -0.4580
  206MPD1    C3 3131   0.128   1.897  16.312  0.3567  0.0512 -0.2604
  206MPD1    C4 3132   0.265   1.931  16.330 -0.2034 -0.4028  0.5665
  206MPD1    C5 3133   0.320   1.931  16.450  0.7657 -0.0104  0.2953
  206MPD1     H 3134   4.677   1.810  16.416 -0.6606  0.0066 -2.0671
  206MPD1    H1 3135   0.322   1.987  16.257 -0.9904 -0.8326 -0.3756
  206MPD1    H2 3136   0.310   1.866  16.648 -0.7618  0.0831  0.7578
  206MPD1    H3 3137   0.421   1.966  16.466  0.8537 -0.1340  0.0193
  206MPD1     N 3138   0.055   1.922  16.194 -0.1738 -0.4229 -0.3316
  206MPD1    H5 3139   0.115   1.953  16.118 -1.8108 -1.4669 -2.0428
  206MPD1    N1 3140   0.076   1.749  16.654  0.4096 -0.0137 -0.1640
  206MPD1    H6 3141   0.096   1.786  16.747 -1.2131  1.7121 -0.4851
  206MPD1    H7 3142   4.698   1.731  16.657  0.5919 -0.8761  0.9428
  207MPD1     C 3143   2.459   3.835   9.517 -1.1545  0.3361 -0.2420
  207MPD1    C1 3144   2.468   3.775   9.640 -0.1847  0.2487  0.6181
  207MPD1    C2 3145   2.572   3.797   9.725 -0.0658 -0.1889  0.6891
  207MPD1    C3 3146   2.671   3.898   9.695  0.2952  0.4284 -1.1816
  207MPD1    C4 3147   2.660   3.965   9.573  0.1009 -0.3592  0.1591
  207MPD1    C5 3148   2.561   3.925   9.485 -0.3778 -1.0346  0.9371
  207MPD1     H 3149   2.582   3.732   9.811  0.4665  0.3428  1.0256
  207MPD1    H1 3150   2.728   4.045   9.546 -0.0919  0.7395  2.9539
  207MPD1    H2 3151   2.378   3.828   9.445 -0.9355  1.1142 -0.5636
  207MPD1    H3 3152   2.550   3.975   9.389 -1.3369 -0.1219  1.5160
  207MPD1     N 3153   2.785   3.925   9.769  0.2803  0.0588 -0.1457
  207MPD1    H5 3154   2.862   3.971   9.721  0.7019 -1.1692 -0.6315
  207MPD1    N1 3155   2.374   3.668   9.664 -0.1710 -0.3072  0.0612
  207MPD1    H6 3156   2.302   3.668   9.593 -0.2348  0.1796  0.1299
  207MPD1    H7 3157   2.328   3.678   9.754 -0.9755 -0.4020 -0.3388
  208MPD1     C 3158   0.701   3.651  17.339 -0.4188  0.0527  0.5867
  208MPD1    C1 3159   0.577   3.636  17.292 -0.0114  1.0612 -0.0270
  208MPD1    C2 3160   0.471   3.621  17.375 -0.2570 -0.7230 -0.0819
  208MPD1    C3 3161   0.493   3.603  17.510  0.4644  0.2086  0.1741
  208MPD1    C4 3162   0.620   3.613  17.564 -0.6227  0.6731 -0.3006
  208MPD1    C5 3163   0.728   3.633  17.477  0.5114 -0.0425 -0.7829
  208MPD1     H 3164   0.372   3.614  17.330 -1.0117 -1.3642  1.7023
  208MPD1    H1 3165   0.657   3.590  17.663  0.7465 -1.0790 -1.2222
  208MPD1    H2 3166   0.782   3.687  17.276  1.3598 -3.2616  0.9790
  208MPD1    H3 3167   0.826   3.640  17.522 -0.1114 -2.8151  0.9619
  208MPD1     N 3168   0.379   3.583  17.597 -0.2248 -0.1056  0.3016
  208MPD1    H5 3169   0.289   3.597  17.551  1.0556  3.8110 -1.0197
  208MPD1    N1 3170   0.550   3.648  17.154  0.5269  0.2772  1.1605
  208MPD1    H6 3171   0.631   3.644  17.092 -1.4420 -0.8027 -1.3744
  208MPD1    H7 3172   0.470   3.600  17.112  0.6577  0.9577  0.1359
  209MPD1     C 3173   2.635   3.051  11.078  0.6603 -0.5484  0.8904
  209MPD1    C1 3174   2.700   3.070  10.956 -0.0192 -0.1617  0.5444
  209MPD1    C2 3175   2.791   3.175  10.952 -0.0155 -0.4721 -0.4080
  209MPD1    C3 3176   2.840   3.245  11.061  0.2571 -0.3360 -0.0194
  209MPD1    C4 3177   2.785   3.217  11.184 -0.4541  0.9955  0.1020
  209MPD1    C5 3178   2.687   3.124  11.185 -0.2464 -0.3300  0.2324
  209MPD1     H 3179   2.828   3.203  10.854  0.4025 -0.8607 -0.3632
  209MPD1    H1 3180   2.818   3.267  11.274 -0.0876 -1.6793  1.4501
  209MPD1    H2 3181   2.570   2.965  11.090  0.4741 -0.4285  0.7166
  209MPD1    H3 3182   2.652   3.106  11.286  0.3918  1.1501  0.7167
  209MPD1     N 3183   2.944   3.339  11.038 -0.6784 -0.5995  0.3865
  209MPD1    H5 3184   2.947   3.362  10.939 -3.8500  0.6768  0.5986
  209MPD1    N1 3185   2.652   3.005  10.843 -0.0796  0.2277  0.0770
  209MPD1    H6 3186   2.610   2.912  10.849 -0.3686  0.4570  1.4740
  209MPD1    H7 3187   2.726   3.003  10.773 -0.1544 -2.7493  0.0676
  210MPD1     C 3188   3.034   4.246  11.433 -0.2520 -0.2066  0.2948
  210MPD1    C1 3189   3.090   4.256  11.306  0.4519 -0.3795 -0.0345
  210MPD1    C2 3190   3.114   4.131  11.246 -0.1649 -0.3403 -0.3807
  210MPD1    C3 3191   3.102   4.009  11.309  0.5898  0.3735 -0.1561
  210MPD1    C4 3192   3.079   4.009  11.443 -0.1963  0.6302 -0.0598
  210MPD1    C5 3193   3.035   4.125  11.500 -0.5537 -0.4060 -0.3180
  210MPD1     H 3194   3.135   4.127  11.139  0.7870 -0.1556 -0.2030
  210MPD1    H1 3195   3.078   3.913  11.494 -3.1022 -0.9988 -3.1219
  210MPD1    H2 3196   3.002   4.338  11.479 -1.0359 -1.6160  2.5785
  210MPD1    H3 3197   2.997   4.121  11.602  0.3518 -1.6767 -0.0317
  210MPD1     N 3198   3.134   3.888  11.250  0.0605 -0.6644 -0.0659
  210MPD1    H5 3199   3.134   3.806  11.309  1.5495 -0.4229  0.2740
  210MPD1    N1 3200   3.087   4.381  11.238  0.5061 -0.7320 -0.3101
  210MPD1    H6 3201   3.153   4.380  11.160  1.1315  0.1246  0.2123
  210MPD1    H7 3202   3.117   4.462  11.292  0.3231 -1.1365  0.3933
  211MPD1     C 3203   0.529   3.739  16.607  0.1221  0.2020  0.3965
  211MPD1    C1 3204   0.460   3.804  16.503 -0.6315  0.7774 -0.0239
  211MPD1    C2 3205   0.352   3.883  16.537  0.7701 -0.0740  0.4420
  211MPD1    C3 3206   0.320   3.916  16.670 -0.0400  0.5741 -0.4084
  211MPD1    C4 3207   0.397   3.859  16.770  0.1814 -0.0704 -0.2243
  211MPD1    C5 3208   0.492   3.763  16.733  0.0828  0.0448 -0.4022
  211MPD1     H 3209   0.292   3.933  16.462  0.7024 -1.9515 -0.7715
  211MPD1    H1 3210   0.407   3.904  16.868  1.0535 -0.0580 -0.3191
  211MPD1    H2 3211   0.607   3.666  16.591 -0.6903 -0.5584 -0.0845
  211MPD1    H3 3212   0.540   3.713  16.817  0.4605  0.7236 -0.2199
  211MPD1     N 3213   0.222   4.020  16.693 -0.7634 -0.5380  0.3541
  211MPD1    H5 3214   0.168   4.057  16.615 -1.1965 -1.8313  0.0546
  211MPD1    N1 3215   0.478   3.768  16.367  0.1003  0.9303  0.7400
  211MPD1    H6 3216   0.451   3.842  16.303  3.5025 -0.0639 -1.8089
  211MPD1    H7 3217   0.574   3.744  16.343  0.1377  1.4029  0.4352
  212MPD1     C 3218   3.858   2.519  16.384 -0.7064  0.3461  0.0623
  212MPD1    C1 3219   3.963   2.439  16.415 -0.6469 -0.0114 -0.1959
  212MPD1    C2 3220   3.940   2.334  16.506  0.3725  0.5280  0.1773
  212MPD1    C3 3221   3.817   2.314  16.565 -0.1905  0.0595  0.1037
  212MPD1    C4 3222   3.716   2.407  16.548 -0.9559 -0.1282  0.6345
  212MPD1    C5 3223   3.741   2.509  16.453 -0.5544  0.1685 -0.0204
  212MPD1     H 3224   4.017   2.259  16.520 -0.7211 -0.6562 -0.1995
  212MPD1    H1 3225   3.622   2.408  16.602 -1.3853  0.0605 -0.1357
  212MPD1    H2 3226   3.871   2.607  16.323 -0.8357 -0.0511 -0.5346
  212MPD1    H3 3227   3.663   2.585  16.449 -1.9581 -1.2687  0.3742
  212MPD1     N 3228   3.784   2.208  16.659  0.2798 -0.2649  0.0760
  212MPD1    H5 3229   3.684   2.213  16.674  0.4122  0.0992  0.8342
  212MPD1    N1 3230   4.078   2.450  16.337 -0.4004 -0.3496  0.8324
  212MPD1    H6 3231   4.099   2.547  16.314 -0.1367 -0.6125 -0.0336
  212MPD1    H7 3232   4.153   2.404  16.389 -0.8954 -0.3906  1.5115
  213MPD1     C 3233   1.653   3.246  15.597 -0.1213 -0.5178  1.0073
  213MPD1    C1 3234   1.644   3.319  15.479  0.6843  0.5599  0.3438
  213MPD1    C2 3235   1.756   3.337  15.403  0.3790 -0.0311  0.1466
  213MPD1    C3 3236   1.863   3.261  15.417 -0.5218  0.1883 -0.8474
  213MPD1    C4 3237   1.863   3.164  15.515 -0.9121 -0.1226  0.1652
  213MPD1    C5 3238   1.753   3.153  15.599  0.9398  0.4407  0.0468
  213MPD1     H 3239   1.746   3.409  15.322 -0.3265 -1.3752 -0.9631
  213MPD1    H1 3240   1.935   3.084  15.513  1.0537  1.6735 -2.5654
  213MPD1    H2 3241   1.571   3.220  15.663  2.6485 -0.9516  4.3067
  213MPD1    H3 3242   1.753   3.076  15.675  0.3154  1.0390  0.6543
  213MPD1     N 3243   1.983   3.293  15.346 -0.3826  0.7270 -0.1448
  213MPD1    H5 3244   1.965   3.351  15.265 -2.1363  0.4077  0.0166
  213MPD1    N1 3245   1.548   3.432  15.478 -0.2143  0.0075  0.4266
  213MPD1    H6 3246   1.458   3.402  15.515  0.4145 -1.8353  0.4561
  213MPD1    H7 3247   1.539   3.477  15.388  0.3648 -0.0314  0.3509
  214MPD1     C 3248   2.049   3.545  14.535  0.0918  0.7388  1.0501
  214MPD1    C1 3249   2.138   3.620  14.603 -0.5944 -0.0680  0.0804
  214MPD1    C2 3250   2.201   3.577  14.716 -0.4128 -0.0550  0.0489
  214MPD1    C3 3251   2.153   3.467  14.783  0.2375  0.8116  0.0419
  214MPD1    C4 3252   2.070   3.381  14.716  0.4807 -0.6768 -0.4057
  214MPD1    C5 3253   2.016   3.424  14.597 -0.2630 -0.3327  0.0721
  214MPD1     H 3254   2.271   3.644  14.765 -1.5083  1.3229 -0.2561
  214MPD1    H1 3255   2.013   3.297  14.755 -0.8873 -0.6284 -2.2844
  214MPD1    H2 3256   2.015   3.580  14.438  2.3453  0.6127  0.1952
  214MPD1    H3 3257   1.947   3.355  14.550 -0.0378  0.8073 -1.9476
  214MPD1     N 3258   2.189   3.432  14.912  0.3378  0.1928 -0.2772
  214MPD1    H5 3259   2.144   3.350  14.951  3.1399 -0.0371  2.4758
  214MPD1    N1 3260   2.173   3.741  14.539 -0.4377 -0.1986 -0.0700
  214MPD1    H6 3261   2.183   3.816  14.606  1.1009 -0.3186 -0.1661
  214MPD1    H7 3262   2.101   3.780  14.479 -1.5634  1.3475  2.3433
  215MPD1     C 3263   2.573   3.130  10.414 -0.6051 -0.2025  0.3251
  215MPD1    C1 3264   2.555   3.247  10.345  0.6078  0.0346  0.4478
  215MPD1    C2 3265   2.625   3.357  10.390 -0.3298 -0.6434  0.5896
  215MPD1    C3 3266   2.717   3.342  10.490  0.8324 -0.4601  0.2255
  215MPD1    C4 3267   2.755   3.217  10.547 -0.1455 -0.0072  0.1424
  215MPD1    C5 3268   2.671   3.113  10.510  0.0387 -0.4520  0.5729
  215MPD1     H 3269   2.603   3.454  10.347  0.5829  0.6882  3.1456
  215MPD1    H1 3270   2.832   3.202  10.622 -0.1992 -0.4712  0.1047
  215MPD1    H2 3271   2.511   3.045  10.391 -0.3608 -0.9925  2.6866
  215MPD1    H3 3272   2.686   3.013  10.549 -1.0307 -1.4643 -1.5674
  215MPD1     N 3273   2.787   3.464  10.524 -0.2847  0.1433  0.4398
  215MPD1    H5 3274   2.755   3.549  10.477 -1.7866 -1.6328 -1.7323
  215MPD1    N1 3275   2.442   3.259  10.256 -0.2625  0.0954  0.4521
  215MPD1    H6 3276   2.418   3.176  10.202 -3.2072  0.3382  1.4002
  215MPD1    H7 3277   2.457   3.334  10.189  1.1301 -0.2055  0.4158
  216MPD1     C 3278   3.706   1.138  16.921  0.2718 -0.5010 -0.3859
  216MPD1    C1 3279   3.639   1.119  17.041  0.5915  0.5606 -0.8698
  216MPD1    C2 3280   3.710   1.133  17.157 -0.3992  0.9157 -0.3927
  216MPD1    C3 3281   3.840   1.180  17.151 -0.5002 -0.2468  0.1377
  216MPD1    C4 3282   3.904   1.200  17.030  0.0420  0.6795  0.1130
  216MPD1    C5 3283   3.839   1.171  16.916  0.5972  0.5127  0.1418
  216MPD1     H 3284   3.669   1.116  17.256 -3.2283 -0.6951 -1.8656
  216MPD1    H1 3285   4.008   1.228  17.022  0.9853 -2.2404  2.1718
  216MPD1    H2 3286   3.657   1.121  16.826 -1.5512 -1.3431  0.6967
  216MPD1    H3 3287   3.882   1.188  16.818 -0.9719 -2.2665 -1.0329
  216MPD1     N 3288   3.888   1.214  17.278 -0.6709 -0.6688 -0.3443
  216MPD1    H5 3289   3.825   1.213  17.358 -1.4387  1.2991 -0.9308
  216MPD1    N1 3290   3.510   1.060  17.037 -0.8729 -0.1742 -0.0677
  216MPD1    H6 3291   3.457   1.082  17.121  3.6514 -1.0165  3.0304
  216MPD1    H7 3292   3.464   1.102  16.957 -3.7274 -2.4107  0.4069
  217MPD1     C 3293   0.595   1.790   8.729 -0.8967  0.3279  0.2041
  217MPD1    C1 3294   0.706   1.758   8.803  0.1569  0.8097  0.1304
  217MPD1    C2 3295   0.730   1.829   8.922  0.4849 -0.0454 -0.1781
  217MPD1    C3 3296   0.637   1.922   8.963 -0.5127  0.3793 -0.0480
  217MPD1    C4 3297   0.520   1.941   8.902  0.2786  0.3640  0.0162
  217MPD1    C5 3298   0.496   1.873   8.782 -0.0580 -0.5372 -0.3796
  217MPD1     H 3299   0.820   1.813   8.980  1.1743 -0.9780 -1.4959
  217MPD1    H1 3300   0.451   2.012   8.945  0.6508  0.0588  1.1035
  217MPD1    H2 3301   0.574   1.750   8.630  2.7006  1.3702 -0.9783
  217MPD1    H3 3302   0.401   1.879   8.730 -1.1163  0.2242  1.6228
  217MPD1     N 3303   0.652   1.992   9.089 -0.6003  0.0405 -0.1943
  217MPD1    H5 3304   0.570   2.046   9.117 -2.8627 -2.9956 -0.8847
  217MPD1    N1 3305   0.807   1.679   8.755 -0.3077  0.5873  0.2915
  217MPD1    H6 3306   0.849   1.617   8.824 -0.2635 -2.6058 -2.5456
  217MPD1    H7 3307   0.789   1.622   8.672  1.5376 -2.5120  2.0265
  218MPD1     C 3308   2.839   0.232  13.491 -0.1922 -0.2630  0.6060
  218MPD1    C1 3309   2.868   0.250  13.354  0.1072  1.0575 -0.0120
  218MPD1    C2 3310   2.810   0.159  13.267  0.0808  0.1145  0.2813
  218MPD1    C3 3311   2.766   0.035  13.309 -0.0836 -0.7989  0.1198
  218MPD1    C4 3312   2.740   0.009  13.447 -0.1365  0.2842  0.3245
  218MPD1    C5 3313   2.776   0.114  13.530  1.2332 -0.2381 -0.2173
  218MPD1     H 3314   2.823   0.178  13.161 -0.4401  0.5545  0.2943
  218MPD1    H1 3315   2.696   4.644  13.496 -1.7629  0.7136 -0.3705
  218MPD1    H2 3316   2.871   0.312  13.556 -2.5538 -1.1453  2.8313
  218MPD1    H3 3317   2.749   0.112  13.635  3.1524 -0.3894  0.2734
  218MPD1     N 3318   2.731   4.668  13.204  0.3851 -0.0351  0.2357
  218MPD1    H5 3319   2.737   4.704  13.109  1.1919 -1.0252 -0.0817
  218MPD1    N1 3320   2.914   0.375  13.308  0.4071 -0.2690  0.2448
  218MPD1    H6 3321   2.987   0.407  13.372  0.4593 -0.7973  0.4461
  218MPD1    H7 3322   2.963   0.361  13.219  0.8300  0.7274  0.3181
  219MPD1     C 3323   2.753   0.089  12.364  0.1488 -0.2354 -0.5795
  219MPD1    C1 3324   2.698   4.680  12.362 -0.1676  0.5267  0.4185
  219MPD1    C2 3325   2.674   4.616  12.481  0.6739  0.2471 -0.3460
  219MPD1    C3 3326   2.702   4.674  12.602 -0.1048  0.0681 -1.1738
  219MPD1    C4 3327   2.757   0.074  12.605  0.0467  0.0315 -0.1638
  219MPD1    C5 3328   2.772   0.140  12.487  0.0575 -0.1908 -0.2431
  219MPD1     H 3329   2.637   4.514  12.474 -0.7291  0.7966 -0.9008
  219MPD1    H1 3330   2.778   0.136  12.691  2.0154 -1.8420  0.7171
  219MPD1    H2 3331   2.759   0.154  12.278 -1.1749 -1.8969 -1.9194
  219MPD1    H3 3332   2.795   0.246  12.494  1.6711 -0.6187  0.8275
  219MPD1     N 3333   2.667   4.623  12.734  0.2402  0.4874 -0.4141
  219MPD1    H5 3334   2.698   4.677  12.814  0.8180  0.4954 -0.6392
  219MPD1    N1 3335   2.670   4.615  12.241 -0.1807 -0.0427  0.2652
  219MPD1    H6 3336   2.724   4.659  12.167  1.4584  1.9360  2.6280
  219MPD1    H7 3337   2.718   4.526  12.255 -0.6636 -0.4160 -0.4776
  220MPD1     C 3338   2.199   4.460   9.060  0.0007  0.2616 -0.8437
  220MPD1    C1 3339   2.092   4.461   9.145 -0.5757 -0.1014  0.5086
  220MPD1    C2 3340   2.097   4.393   9.267  0.5735 -0.3083  0.2704
  220MPD1    C3 3341   2.220   4.342   9.311  0.0551  0.3478 -0.8401
  220MPD1    C4 3342   2.325   4.339   9.218 -0.6037 -0.8119 -0.1100
  220MPD1    C5 3343   2.313   4.397   9.097 -0.0329  0.2546 -0.3548
  220MPD1     H 3344   2.007   4.381   9.326  0.0984  2.9366  0.2351
  220MPD1    H1 3345   2.415   4.283   9.238  0.5987  1.9676  2.2416
  220MPD1    H2 3346   2.183   4.496   8.959  1.0177 -1.6367 -1.6662
  220MPD1    H3 3347   2.377   4.380   9.011 -1.4448  1.5617 -1.6857
  220MPD1     N 3348   2.235   4.287   9.436 -0.1690  0.6196  0.1314
  220MPD1    H5 3349   2.146   4.262   9.478  0.0636 -2.6246 -1.2699
  220MPD1    N1 3350   1.966   4.500   9.094 -0.5431  0.1783  0.0669
  220MPD1    H6 3351   1.902   4.536   9.164  0.5546  0.7882  0.7435
  220MPD1    H7 3352   1.976   4.578   9.030  2.9585  1.2593  1.9538
  221MPD1     C 3353   0.091   3.448  16.790 -0.4876 -0.0422 -0.0619
  221MPD1    C1 3354   0.003   3.368  16.726 -0.1017 -0.0291 -0.3553
  221MPD1    C2 3355   0.021   3.334  16.593  0.4663 -0.0665  0.5225
  221MPD1    C3 3356   0.134   3.382  16.525 -0.7903  0.1751  0.3460
  221MPD1    C4 3357   0.228   3.458  16.591  0.9585  1.0734  1.2357
  221MPD1    C5 3358   0.206   3.488  16.725  0.2449 -0.3240 -0.3837
  221MPD1     H 3359   4.676   3.267  16.540  0.0984  1.7719 -1.3497
  221MPD1    H1 3360   0.318   3.498  16.545  0.4822 -1.2496 -1.7271
  221MPD1    H2 3361   0.083   3.487  16.891 -0.7064 -1.4362  0.4531
  221MPD1    H3 3362   0.270   3.562  16.771 -1.1676  1.2620 -0.9431
  221MPD1     N 3363   0.172   3.338  16.393 -0.3555 -0.1454  0.0299
  221MPD1    H5 3364   0.257   3.382  16.359 -1.4361 -1.0849 -3.9018
  221MPD1    N1 3365   4.603   3.336  16.788  0.0992  0.3316 -0.6768
  221MPD1    H6 3366   4.567   3.247  16.755  0.1540  0.0323  0.0640
  221MPD1    H7 3367   4.600   3.345  16.890 -0.3269  1.1680 -0.7671
  222MPD1     C 3368   3.549   1.428  17.197 -0.4746 -0.4033 -0.1869
  222MPD1    C1 3369   3.437   1.393  17.273  0.0528 -0.2732  0.0520
  222MPD1    C2 3370   3.420   1.456  17.394 -0.5748 -0.0165  0.4567
  222MPD1    C3 3371   3.504   1.561  17.428 -0.2486 -0.4840 -0.2431
  222MPD1    C4 3372   3.607   1.597  17.343 -0.0702 -0.2187  1.0084
  222MPD1    C5 3373   3.630   1.534  17.230  0.3514  0.3354 -0.2307
  222MPD1     H 3374   3.338   1.426  17.458 -2.2953  2.2079 -0.7268
  222MPD1    H1 3375   3.667   1.686  17.354  0.9695 -0.5606 -1.9473
  222MPD1    H2 3376   3.573   1.385  17.101  1.3957 -2.5061  1.2307
  222MPD1    H3 3377   3.721   1.564  17.180  1.0391 -0.6925  0.3890
  222MPD1     N 3378   3.490   1.630  17.548  0.1947 -0.1757 -0.0929
  222MPD1    H5 3379   3.555   1.704  17.575  2.9715 -2.2647 -1.0274
  222MPD1    N1 3380   3.368   1.271  17.250  0.2312 -0.5118 -0.5908
  222MPD1    H6 3381   3.274   1.277  17.289  0.4282  2.2990 -0.5057
  222MPD1    H7 3382   3.358   1.255  17.150  1.0865  1.3187 -0.9767
  223MPD1     C 3383   3.375   1.326   0.815 -0.5969 -0.7796  0.0051
  223MPD1    C1 3384   3.433   1.278   0.697 -0.4208 -0.7674  0.1136
  223MPD1    C2 3385   3.409   1.343   0.579 -0.4941  0.3351  0.7313
  223MPD1    C3 3386   3.353   1.467   0.576  0.3333 -0.3240 -0.0576
  223MPD1    C4 3387   3.307   1.520   0.700 -0.0163  0.8417  0.3134
  223MPD1    C5 3388   3.307   1.447   0.817  0.3055  0.4898 -0.1197
  223MPD1     H 3389   3.442   1.295   0.487  0.2331  1.7099  0.2693
  223MPD1    H1 3390   3.261   1.618   0.705 -0.3905  0.5947  1.7481
  223MPD1    H2 3391   3.382   1.270   0.908 -2.7021 -0.3189  0.4495
  223MPD1    H3 3392   3.255   1.486   0.903 -0.0023 -1.2095  0.4742
  223MPD1     N 3393   3.353   1.537   0.449 -0.6118  0.3565  0.4311
  223MPD1    H5 3394   3.389   1.493   0.365 -0.2951 -3.2125  2.4369
  223MPD1    N1 3395   3.495   1.145   0.704 -0.3534 -0.2551  0.5771
  223MPD1    H6 3396   3.565   1.122   0.633  0.5416  1.2419  0.9583
  223MPD1    H7 3397   3.545   1.122   0.789  2.1332  1.2829 -0.4674
  224MPD1     C 3398   0.016   2.644   9.856  0.0875 -0.2991 -0.4701
  224MPD1    C1 3399   0.084   2.703   9.748 -0.0813  0.5229 -0.2456
  224MPD1    C2 3400   0.192   2.783   9.777  0.1879  0.0127 -0.0148
  224MPD1    C3 3401   0.247   2.791   9.905  0.6799  0.2618  0.0504
  224MPD1    C4 3402   0.175   2.731  10.010  1.1888  0.0895  0.4678
  224MPD1    C5 3403   0.059   2.660   9.986  0.4615 -0.4356  0.7902
  224MPD1     H 3404   0.245   2.818   9.689  1.2507 -0.0038  0.6213
  224MPD1    H1 3405   0.211   2.729  10.112  1.3811 -0.0780  0.3960
  224MPD1    H2 3406   4.640   2.596   9.848 -0.8021  2.0052 -3.3243
  224MPD1    H3 3407   4.719   2.604  10.055 -1.9186  0.0811 -0.9108
  224MPD1     N 3408   0.360   2.864   9.941 -0.5289 -0.2880  0.6636
  224MPD1    H5 3409   0.386   2.856  10.039 -0.0143 -1.3872  0.4405
  224MPD1    N1 3410   0.028   2.708   9.622 -0.6264  0.3379 -0.5021
  224MPD1    H6 3411   4.691   2.627   9.600  1.1457 -1.6519  2.1769
  224MPD1    H7 3412   0.083   2.739   9.542  0.2644 -3.1672 -1.2269
  225MPD1     C 3413   2.383   0.808  13.117 -0.5222 -0.2589 -0.3908
  225MPD1    C1 3414   2.262   0.747  13.132  0.3265  0.0021 -0.2446
  225MPD1    C2 3415   2.212   0.667  13.029  0.7412  0.8722  0.0808
  225MPD1    C3 3416   2.294   0.624  12.926  0.4225 -0.0414  0.9104
  225MPD1    C4 3417   2.419   0.677  12.918  0.5260  0.0423 -0.3524
  225MPD1    C5 3418   2.464   0.770  13.012  0.0067  0.3039 -0.0770
  225MPD1     H 3419   2.113   0.626  13.041  0.4547  1.3549 -0.6460
  225MPD1    H1 3420   2.488   0.643  12.841 -1.4484  1.2755 -2.6572
  225MPD1    H2 3421   2.422   0.879  13.188 -1.2225  0.4507 -0.7140
  225MPD1    H3 3422   2.552   0.833  13.009 -0.1537  0.6552  2.1929
  225MPD1     N 3423   2.261   0.528  12.826  0.2331  0.5839  0.6061
  225MPD1    H5 3424   2.324   0.520  12.747  2.4040 -0.5099  2.4522
  225MPD1    N1 3425   2.180   0.794  13.237  0.0916 -0.3083 -0.7538
  225MPD1    H6 3426   2.106   0.725  13.248 -1.3465  0.9988 -2.1949
  225MPD1    H7 3427   2.228   0.817  13.323  1.2713 -1.6743 -1.0337
  226MPD1     C 3428   0.159   3.788   8.804  0.3259  0.2324  0.1673
  226MPD1    C1 3429   0.226   3.896   8.746  0.2060  0.5438 -0.0458
  226MPD1    C2 3430   0.324   3.960   8.817  0.1311 -0.2424 -0.4432
  226MPD1    C3 3431   0.368   3.907   8.936 -0.5109 -0.2190 -0.4181
  226MPD1    C4 3432   0.316   3.792   8.986 -0.4193  0.1595  0.4969
  226MPD1    C5 3433   0.214   3.737   8.920 -0.2406  0.4886 -0.0612
  226MPD1     H 3434   0.369   4.051   8.779  1.6295 -0.6285  0.3966
  226MPD1    H1 3435   0.345   3.741   9.077  0.3990  0.4720  0.4106
  226MPD1    H2 3436   0.074   3.741   8.755  2.0128 -3.2177  0.5181
  226MPD1    H3 3437   0.185   3.639   8.958  0.1308  0.8832  1.2466
  226MPD1     N 3438   0.476   3.982   9.001  0.4571 -0.7348 -0.3608
  226MPD1    H5 3439   0.521   4.054   8.947  0.1242 -0.3454 -0.1184
  226MPD1    N1 3440   0.185   3.946   8.618 -0.1670 -0.2727 -0.0988
  226MPD1    H6 3441   0.157   3.870   8.556  0.4643  0.0483 -0.7764
  226MPD1    H7 3442   0.259   3.996   8.569 -0.7988  1.3295  0.5973
  227MPD1     C 3443   1.123   4.687   8.863 -0.3548  0.4946  0.0048
  227MPD1    C1 3444   1.132   4.687   8.997 -0.4578 -0.3278  1.1085
  227MPD1    C2 3445   1.039   4.610   9.062 -1.3227  0.0308 -0.3356
  227MPD1    C3 3446   0.935   4.537   9.006 -0.1543  0.2908  1.0584
  227MPD1    C4 3447   0.927   4.543   8.863 -0.1066  0.3343  0.5539
  227MPD1    C5 3448   1.019   4.619   8.797 -0.9123 -0.2062  0.2903
  227MPD1     H 3449   1.041   4.592   9.169  0.7831 -2.3577 -0.7844
  227MPD1    H1 3450   0.847   4.488   8.815  1.4426 -1.0700 -0.4235
  227MPD1    H2 3451   1.193   0.017   8.798  0.1382 -2.9632 -2.1807
  227MPD1    H3 3452   1.006   4.626   8.690  1.5083 -0.5696 -0.0119
  227MPD1     N 3453   0.855   4.446   9.083 -0.2553  0.4948 -0.0658
  227MPD1    H5 3454   0.868   4.454   9.183 -2.5519 -1.3833  0.3613
  227MPD1    N1 3455   1.240   0.032   9.065  0.0207 -0.7659  1.0216
  227MPD1    H6 3456   1.242   0.126   9.027  0.2365 -0.6451  1.3251
  227MPD1    H7 3457   1.220   0.032   9.165 -5.2848  0.6934 -0.0545
  228MPD1     C 3458   3.985   3.047  12.396 -0.5292 -0.2142 -0.7551
  228MPD1    C1 3459   3.961   2.962  12.503  0.3505 -0.0124  0.2543
  228MPD1    C2 3460   3.897   2.838  12.478 -0.4671  0.2729 -0.5654
  228MPD1    C3 3461   3.837   2.817  12.354 -0.2842  0.0850 -0.8055
  228MPD1    C4 3462   3.870   2.899  12.242 -0.0773  0.2875 -0.7153
  228MPD1    C5 3463   3.947   3.016  12.271 -0.0138  0.1088  0.6993
  228MPD1     H 3464   3.879   2.756  12.546 -2.3684  0.5963 -0.6798
  228MPD1    H1 3465   3.817   2.883  12.149 -0.0896 -2.7204 -0.2073
  228MPD1    H2 3466   4.034   3.143  12.406 -0.7578 -0.0798 -0.9332
  228MPD1    H3 3467   3.965   3.085  12.189 -0.1573  0.7976  1.2483
  228MPD1     N 3468   3.752   2.709  12.349  0.5699  0.1281  0.5891
  228MPD1    H5 3469   3.723   2.676  12.441  0.0526 -1.6619 -0.2064
  228MPD1    N1 3470   4.040   2.982  12.622 -0.1683  0.0923 -0.7703
  228MPD1    H6 3471   4.042   3.082  12.638 -2.4174 -0.0228  0.1710
  228MPD1    H7 3472   4.012   2.927  12.704 -2.7487 -0.6206 -2.1517
  229MPD1     C 3473   3.995   1.745  14.399  0.0375  1.1051 -0.4254
  229MPD1    C1 3474   4.099   1.660  14.441 -0.1196 -0.1782 -0.4730
  229MPD1    C2 3475   4.059   1.572  14.544  0.2815  0.5558 -0.3321
  229MPD1    C3 3476   3.935   1.570  14.606 -0.1967 -0.2240 -0.1491
  229MPD1    C4 3477   3.849   1.669  14.570 -0.1629  0.1687  0.5820
  229MPD1    C5 3478   3.875   1.746  14.460 -0.0322 -0.4798 -0.0064
  229MPD1     H 3479   4.142   1.505  14.563  0.5405  0.9098 -0.2222
  229MPD1    H1 3480   3.752   1.675  14.618  0.1854  1.7845  1.0879
  229MPD1    H2 3481   4.017   1.813  14.317 -0.9057  0.6147 -1.0888
  229MPD1    H3 3482   3.813   1.830  14.430  0.5691  0.2483  0.7822
  229MPD1     N 3483   3.897   1.469  14.692  0.4309 -0.0220 -0.1432
  229MPD1    H5 3484   3.812   1.490  14.743  0.5424  3.8450 -1.5278
  229MPD1    N1 3485   4.212   1.643  14.368  0.4858  0.4343 -0.9360
  229MPD1    H6 3486   4.238   1.730  14.324  2.2069  0.3853  0.0084
  229MPD1    H7 3487   4.284   1.610  14.432 -1.0488 -1.1539 -0.0109
  230MPD1     C 3488   3.302   1.166  15.448 -0.1166  0.0753 -0.1285
  230MPD1    C1 3489   3.413   1.082  15.475 -0.0484 -0.2587 -0.3608
  230MPD1    C2 3490   3.516   1.092  15.379  0.0456  0.5411 -0.2793
  230MPD1    C3 3491   3.518   1.178  15.271  0.3117 -0.0790 -0.6561
  230MPD1    C4 3492   3.408   1.258  15.247 -0.7829  0.2555 -0.4166
  230MPD1    C5 3493   3.307   1.245  15.336 -0.1367 -0.8823 -0.2459
  230MPD1     H 3494   3.608   1.039  15.398 -0.4812 -0.5847 -0.8656
  230MPD1    H1 3495   3.396   1.320  15.159  1.5603 -0.4181 -1.1978
  230MPD1    H2 3496   3.212   1.168  15.508  0.2062 -0.8396  0.3864
  230MPD1    H3 3497   3.216   1.300  15.317 -0.4498 -0.8444  1.4294
  230MPD1     N 3498   3.634   1.179  15.191 -0.4786 -0.2591 -1.1288
  230MPD1    H5 3499   3.704   1.111  15.218 -2.3254 -1.4539  0.5721
  230MPD1    N1 3500   3.406   0.981  15.569 -0.1005  0.5685  0.0389
  230MPD1    H6 3501   3.359   1.005  15.656 -0.4908  0.2830 -0.0910
  230MPD1    H7 3502   3.497   0.945  15.595 -0.9643  0.3342  2.7607
  231MPD1     C 3503   1.737   2.946  15.153  0.2051 -0.2475  0.1499
  231MPD1    C1 3504   1.622   2.988  15.092 -0.3767 -0.0283  0.7031
  231MPD1    C2 3505   1.622   3.109  15.027  0.1836 -0.0291 -0.0165
  231MPD1    C3 3506   1.735   3.191  15.028 -0.3021 -0.2889  0.5865
  231MPD1    C4 3507   1.848   3.155  15.101  0.6068  0.3126  0.0438
  231MPD1    C5 3508   1.850   3.032  15.156 -0.8746  0.2625  0.4516
  231MPD1     H 3509   1.528   3.136  14.979  1.0881  1.6210 -0.8564
  231MPD1    H1 3510   1.922   3.229  15.130 -1.4850  1.8110  1.4810
  231MPD1    H2 3511   1.737   2.854  15.211  1.8857  0.6472  1.5290
  231MPD1    H3 3512   1.922   3.015  15.236  0.7535  0.8438 -0.8758
  231MPD1     N 3513   1.717   3.323  14.984  0.2804 -0.0873  0.7938
  231MPD1    H5 3514   1.641   3.345  14.920  0.1752  1.5805  1.5022
  231MPD1    N1 3515   1.513   2.899  15.089  0.4576  0.4777 -0.5469
  231MPD1    H6 3516   1.516   2.839  15.171 -0.9561 -1.6870 -2.0836
  231MPD1    H7 3517   1.423   2.946  15.088  0.7777  1.0499 -2.3534
  232MPD1     C 3518   3.783   0.670   0.731  0.6572  1.5007  0.3434
  232MPD1    C1 3519   3.781   0.792   0.672  0.0528 -0.3008  0.2030
  232MPD1    C2 3520   3.671   0.820   0.601  0.1825 -0.0473 -0.7853
  232MPD1    C3 3521   3.554   0.747   0.607  0.2372 -0.0394 -0.2563
  232MPD1    C4 3522   3.549   0.636   0.683  0.5537  0.2505  0.3611
  232MPD1    C5 3523   3.668   0.597   0.741  0.0459  0.2678 -0.4462
  232MPD1     H 3524   3.677   0.914   0.547  0.3371 -0.2667 -1.1481
  232MPD1    H1 3525   3.462   0.572   0.687  1.1578 -0.5038  1.4088
  232MPD1    H2 3526   3.870   0.622   0.775 -0.6655 -1.9532 -0.7838
  232MPD1    H3 3527   3.675   0.505   0.798  0.5396  0.6306  0.0831
  232MPD1     N 3528   3.449   0.808   0.542 -0.2062 -0.8492 -0.2105
  232MPD1    H5 3529   3.470   0.897   0.498 -1.5199 -0.5422 -0.2092
  232MPD1    N1 3530   3.889   0.873   0.671  0.0437 -0.3406 -1.0757
  232MPD1    H6 3531   3.951   0.869   0.751  1.0465 -0.9171 -1.8771
  232MPD1    H7 3532   3.866   0.971   0.660  0.1589 -0.1062  0.8370
  233MPD1     C 3533   3.791   4.591   0.669 -0.2550 -0.4961 -0.1175
  233MPD1    C1 3534   3.691   4.500   0.636  0.1608  0.2513 -0.2676
  233MPD1    C2 3535   3.719   4.366   0.665  0.1671  0.0768  0.3521
  233MPD1    C3 3536   3.845   4.321   0.716 -0.2107 -0.3034 -0.8434
  233MPD1    C4 3537   3.945   4.417   0.743  0.1413  0.1139  0.5723
  233MPD1    C5 3538   3.915   4.557   0.717  0.0645  0.1648 -0.1835
  233MPD1     H 3539   3.637   4.298   0.649  1.6543 -1.3080 -1.3165
  233MPD1    H1 3540   4.044   4.392   0.779 -0.5665 -2.8874  0.5022
  233MPD1    H2 3541   3.790   4.698   0.652  1.2339 -0.2856  1.1361
  233MPD1    H3 3542   3.982   4.639   0.739 -0.0764  0.3537 -0.4658
  233MPD1     N 3543   3.872   4.185   0.733 -0.0651 -0.3772 -0.0361
  233MPD1    H5 3544   3.966   4.164   0.765  0.8360  0.0551 -2.3988
  233MPD1    N1 3545   3.562   4.538   0.603 -0.6301 -0.3975 -0.4426
  233MPD1    H6 3546   3.527   4.471   0.536 -1.0406 -0.2971 -0.3262
  233MPD1    H7 3547   3.558   4.631   0.560 -2.1243 -1.0843 -1.7847
  234MPD1     C 3548   2.205   2.145   9.972  0.0704  0.4600  0.2862
  234MPD1    C1 3549   2.104   2.087   9.904  0.0372 -0.0559  0.1304
  234MPD1    C2 3550   1.980   2.133   9.930  0.4604 -0.2321 -0.2398
  234MPD1    C3 3551   1.957   2.249  10.011  0.8020 -0.0337  0.4227
  234MPD1    C4 3552   2.063   2.312  10.067 -0.1618 -0.3166 -0.0221
  234MPD1    C5 3553   2.184   2.256  10.055 -0.9006  0.3251  0.1707
  234MPD1     H 3554   1.891   2.080   9.897 -0.8748  0.9360  1.4704
  234MPD1    H1 3555   2.055   2.392  10.140 -1.5744  0.3795 -0.9429
  234MPD1    H2 3556   2.310   2.120   9.961 -0.4883 -1.5413 -0.5608
  234MPD1    H3 3557   2.258   2.308  10.114 -2.9857  1.1349  2.1058
  234MPD1     N 3558   1.828   2.302  10.009 -0.2941 -0.3779 -0.7052
  234MPD1    H5 3559   1.753   2.245   9.970 -0.8135 -0.1857  0.0038
  234MPD1    N1 3560   2.125   1.978   9.814  0.5567 -0.2998 -0.5656
  234MPD1    H6 3561   2.220   1.990   9.779  1.8864 -4.4792  1.7006
  234MPD1    H7 3562   2.062   1.985   9.735 -1.4910  1.9159  1.2264
  235MPD1     C 3563   1.787   4.338  10.375  0.1096 -0.1473 -0.0468
  235MPD1    C1 3564   1.909   4.277  10.415  0.4918 -0.1595 -0.1063
  235MPD1    C2 3565   2.019   4.330  10.346  0.2919 -0.4113  0.3250
  235MPD1    C3 3566   2.022   4.436  10.270  0.5653  0.4811 -0.5713
  235MPD1    C4 3567   1.905   4.502  10.243  0.3942  0.7777 -0.2973
  235MPD1    C5 3568   1.792   4.451  10.297 -0.2856  0.6744 -0.7595
  235MPD1     H 3569   2.114   4.281  10.361  1.9591  2.6460 -0.2514
  235MPD1    H1 3570   1.895   4.600  10.196  0.3276 -0.1058 -2.1199
  235MPD1    H2 3571   1.691   4.313  10.418  0.0997  1.0738  0.6321
  235MPD1    H3 3572   1.693   4.493  10.280  0.3772  2.4733 -0.0856
  235MPD1     N 3573   2.145   4.487  10.215  0.1504 -0.2885 -0.1806
  235MPD1    H5 3574   2.228   4.435  10.242  0.9338  0.7990 -0.5386
  235MPD1    N1 3575   1.912   4.161  10.496  0.3758 -0.4158 -0.1595
  235MPD1    H6 3576   1.838   4.178  10.564 -0.2060  0.2952 -0.9605
  235MPD1    H7 3577   2.003   4.144  10.538 -0.1658  2.3682  2.1179
  236MPD1     C 3578   2.168   0.961   8.748  0.3520 -0.0624  0.2883
  236MPD1    C1 3579   2.220   1.094   8.750 -0.7547 -0.0903 -0.2140
  236MPD1    C2 3580   2.290   1.133   8.870  0.2315  0.2989  0.6923
  236MPD1    C3 3581   2.322   1.040   8.973 -0.0913 -0.0738 -0.1521
  236MPD1    C4 3582   2.284   0.912   8.954 -0.6847  0.2164 -0.6093
  236MPD1    C5 3583   2.198   0.876   8.849  0.1327 -0.2272 -0.2631
  236MPD1     H 3584   2.334   1.232   8.882 -0.8755  0.7881  0.7606
  236MPD1    H1 3585   2.300   0.845   9.038 -0.2209  0.2475 -0.6706
  236MPD1    H2 3586   2.097   0.936   8.670 -0.0664 -1.0906  0.9965
  236MPD1    H3 3587   2.141   0.783   8.851 -2.0271  1.0446 -2.0426
  236MPD1     N 3588   2.387   1.075   9.096 -0.1084 -0.0330 -0.1472
  236MPD1    H5 3589   2.389   0.995   9.159 -0.9942 -0.0264 -0.1157
  236MPD1    N1 3590   2.187   1.192   8.658 -0.4954  0.1861 -0.3177
  236MPD1    H6 3591   2.169   1.149   8.568  1.8317  2.7181 -2.0142
  236MPD1    H7 3592   2.261   1.263   8.662  0.2078 -0.6022  0.7954
  237MPD1     C 3593   1.956   0.147  15.193 -0.3055  0.1446 -0.2148
  237MPD1    C1 3594   1.961   0.025  15.257 -0.3144  0.0919  0.1986
  237MPD1    C2 3595   1.845   4.686  15.299 -0.2709  0.6838  0.3754
  237MPD1    C3 3596   1.727   0.027  15.278  0.9282  0.1491  0.4866
  237MPD1    C4 3597   1.719   0.150  15.212  0.6046  0.5946  0.1852
  237MPD1    C5 3598   1.837   0.209  15.172  0.4073  0.2529 -0.8587
  237MPD1     H 3599   1.845   4.581  15.328  2.1392  0.6868  0.3431
  237MPD1    H1 3600   1.625   0.204  15.197 -0.0534 -0.2633  1.2541
  237MPD1    H2 3601   2.047   0.194  15.158  0.4878  1.0958  3.1570
  237MPD1    H3 3602   1.842   0.305  15.121  0.1905  0.0462 -1.2727
  237MPD1     N 3603   1.604   4.692  15.316 -0.2056 -0.1567 -0.3614
  237MPD1    H5 3604   1.521   0.025  15.292  1.8228  2.9816 -0.3359
  237MPD1    N1 3605   2.079   4.665  15.246  0.0814 -0.6385 -0.2300
  237MPD1    H6 3606   2.087   4.586  15.309  1.0089  0.0234  0.4924
  237MPD1    H7 3607   2.166   4.716  15.228  0.2988 -1.0705 -0.4166
  238MPD1     C 3608   3.625   2.558  15.495 -0.0930  1.1408 -0.1570
  238MPD1    C1 3609   3.667   2.543  15.370  0.6909  0.4323 -0.2657
  238MPD1    C2 3610   3.614   2.624  15.270  0.2640  0.2667  0.1259
  238MPD1    C3 3611   3.499   2.687  15.298 -0.3854  0.6107 -0.1574
  238MPD1    C4 3612   3.448   2.691  15.426  0.0142  0.2981 -0.2531
  238MPD1    C5 3613   3.516   2.629  15.520  0.1279 -0.2053 -0.1894
  238MPD1     H 3614   3.662   2.611  15.173 -0.3872  1.5843 -0.3712
  238MPD1    H1 3615   3.364   2.748  15.465  0.5367  1.5277 -0.9199
  238MPD1    H2 3616   3.669   2.505  15.579  1.5683  0.2036 -1.6260
  238MPD1    H3 3617   3.487   2.649  15.623  0.2132  1.1473 -0.4310
  238MPD1     N 3618   3.429   2.763  15.199  0.2219  0.3518  0.4576
  238MPD1    H5 3619   3.344   2.813  15.221  0.3201 -0.0160  1.6886
  238MPD1    N1 3620   3.778   2.469  15.343  1.0464  0.1050  0.0961
  238MPD1    H6 3621   3.788   2.448  15.244  0.6882  1.5742 -0.2436
  238MPD1    H7 3622   3.794   2.385  15.400 -0.3324  0.6490  1.2887
  239MPD1     C 3623   4.050   3.808  14.887  0.0825  0.0122 -0.5698
  239MPD1    C1 3624   3.952   3.886  14.925  1.1271  0.4960  0.1062
  239MPD1    C2 3625   3.874   3.949  14.833 -0.4057 -0.3882  0.0354
  239MPD1    C3 3626   3.881   3.916  14.702  1.0373  0.9139  0.2365
  239MPD1    C4 3627   3.979   3.825  14.667  0.2435  0.0100  0.5548
  239MPD1    C5 3628   4.068   3.778  14.756  0.2687  0.1166 -0.1133
  239MPD1     H 3629   3.800   4.020  14.867 -1.0810 -1.5953  1.1123
  239MPD1    H1 3630   3.982   3.795  14.562  0.3991 -0.1428  0.6037
  239MPD1    H2 3631   4.110   3.751  14.956 -0.2836  0.6441  0.2813
  239MPD1    H3 3632   4.150   3.715  14.723 -0.2897 -1.3153  1.2287
  239MPD1     N 3633   3.797   3.975  14.608  0.4619  0.1329 -0.3986
  239MPD1    H5 3634   3.826   3.959  14.512  3.1108 -3.6527  1.0637
  239MPD1    N1 3635   3.941   3.916  15.062  0.1340  0.0897  0.3259
  239MPD1    H6 3636   3.962   3.839  15.125  1.7367  0.8205  0.6533
  239MPD1    H7 3637   3.847   3.954  15.076  0.2244  0.8438 -1.0644
  240MPD1     C 3638   3.264   3.679  13.612 -0.3966  0.2705 -0.3888
  240MPD1    C1 3639   3.159   3.712  13.703 -0.3556 -0.1832  0.2015
  240MPD1    C2 3640   3.166   3.656  13.827  0.4465  0.0182 -0.5034
  240MPD1    C3 3641   3.269   3.572  13.862  0.4000 -1.4505  0.0623
  240MPD1    C4 3642   3.371   3.543  13.773 -0.2557  0.1181  0.2617
  240MPD1    C5 3643   3.367   3.596  13.647 -0.3745 -0.1496  0.1848
  240MPD1     H 3644   3.091   3.678  13.903  0.6791  0.0749 -0.2914
  240MPD1    H1 3645   3.457   3.480  13.795 -0.6481 -0.8918 -1.0566
  240MPD1    H2 3646   3.263   3.715  13.510 -0.1114  1.1838 -0.0619
  240MPD1    H3 3647   3.441   3.566  13.573 -0.2757  0.2974  0.1062
  240MPD1     N 3648   3.280   3.535  14.000  0.3665 -0.1769  1.1066
  240MPD1    H5 3649   3.210   3.575  14.063 -1.2379 -0.2731 -0.6150
  240MPD1    N1 3650   3.074   3.816  13.672 -0.5175 -0.2777  0.2247
  240MPD1    H6 3651   3.059   3.839  13.574 -1.9625 -1.2977  0.2031
  240MPD1    H7 3652   2.992   3.839  13.728  0.1975 -0.7065  1.4406
  241MPD1     C 3653   3.697   3.091  14.932  0.5661 -0.0651 -1.3489
  241MPD1    C1 3654   3.747   3.072  14.808  0.0785  0.3101 -0.3445
  241MPD1    C2 3655   3.695   3.146  14.704 -0.2220  0.5593 -0.1113
  241MPD1    C3 3656   3.576   3.219  14.709 -0.2855  0.3612 -1.0167
  241MPD1    C4 3657   3.529   3.237  14.840 -0.1675  0.0295 -0.1507
  241MPD1    C5 3658   3.583   3.172  14.947 -0.2991  0.3704  0.6095
  241MPD1     H 3659   3.749   3.134  14.610 -0.5435  2.0974 -0.4924
  241MPD1    H1 3660   3.443   3.302  14.857 -0.0983 -0.2526  1.3121
  241MPD1    H2 3661   3.737   3.037  15.017  2.0211  1.2519 -1.2102
  241MPD1    H3 3662   3.536   3.184  15.044 -2.4314  3.6553 -0.8519
  241MPD1     N 3663   3.517   3.287  14.606  0.1875  0.8407  0.2850
  241MPD1    H5 3664   3.432   3.338  14.631 -0.5813  0.2025 -1.0102
  241MPD1    N1 3665   3.864   2.992  14.797  0.4784  0.1153 -0.2272
  241MPD1    H6 3666   3.867   2.952  14.703  1.8985 -0.1299 -0.0779
  241MPD1    H7 3667   3.872   2.922  14.870 -0.6672 -0.3952 -0.5859
  242MPD1     C 3668   2.372   2.863  15.787  0.0345  0.3396 -0.1978
  242MPD1    C1 3669   2.394   2.883  15.653  0.1318  0.4391  0.2540
  242MPD1    C2 3670   2.468   2.792  15.583 -0.6293  0.2306  0.2612
  242MPD1    C3 3671   2.507   2.668  15.644  0.3101 -0.1098  0.2149
  242MPD1    C4 3672   2.479   2.653  15.771  0.1175  0.2817  0.1474
  242MPD1    C5 3673   2.410   2.744  15.842 -0.1876  0.3638  0.0271
  242MPD1     H 3674   2.486   2.811  15.478  2.0163 -0.8378  0.5225
  242MPD1    H1 3675   2.513   2.562  15.818  0.0005 -0.8584 -1.9905
  242MPD1    H2 3676   2.313   2.934  15.845  2.1578  2.2717 -0.4362
  242MPD1    H3 3677   2.395   2.724  15.947 -0.7556 -0.9188 -0.3041
  242MPD1     N 3678   2.579   2.563  15.574  0.6802 -0.1358  0.3856
  242MPD1    H5 3679   2.586   2.482  15.635  1.3028  0.1237  0.6579
  242MPD1    N1 3680   2.344   3.003  15.597 -0.2202 -0.0623 -0.3240
  242MPD1    H6 3681   2.261   3.048  15.635 -0.7019 -1.3552  0.1569
  242MPD1    H7 3682   2.322   3.008  15.497  1.9327  1.2510 -0.7214
  243MPD1     C 3683   4.310   1.402   0.581 -0.6682 -0.2333  0.5104
  243MPD1    C1 3684   4.395   1.403   0.473 -0.3081  0.4695  0.2753
  243MPD1    C2 3685   4.396   1.290   0.388 -0.8506 -0.0906  0.6200
  243MPD1    C3 3686   4.308   1.193   0.394 -0.7210 -0.3382 -0.2667
  243MPD1    C4 3687   4.217   1.192   0.494 -0.2117  0.4427  0.5118
  243MPD1    C5 3688   4.216   1.297   0.588 -0.6517 -0.0079 -0.5467
  243MPD1     H 3689   4.461   1.294   0.301 -0.4000  0.6709  0.9956
  243MPD1    H1 3690   4.156   1.104   0.509  1.2972 -0.5957  0.5961
  243MPD1    H2 3691   4.316   1.477   0.659 -0.4685  0.7546 -0.4478
  243MPD1    H3 3692   4.146   1.300   0.670  0.1258  0.7777  0.0949
  243MPD1     N 3693   4.312   1.090   0.294 -0.2897  0.5446  0.1603
  243MPD1    H5 3694   4.362   1.114   0.210  1.1575  0.4711  1.0114
  243MPD1    N1 3695   4.503   1.493   0.484  0.7150  0.2861  0.2247
  243MPD1    H6 3696   4.552   1.507   0.396 -0.7877 -2.4011 -1.0371
  243MPD1    H7 3697   4.468   1.582   0.519 -2.8582 -0.7091 -0.8399
  244MPD1     C 3698   3.623   0.342   0.215 -0.6998  0.0418 -0.4734
  244MPD1    C1 3699   3.636   0.446   0.307  0.0513  0.1330 -0.1042
  244MPD1    C2 3700   3.749   0.521   0.295  0.1439  0.1748 -0.5909
  244MPD1    C3 3701   3.851   0.497   0.201  0.1308  0.6993  0.0853
  244MPD1    C4 3702   3.836   0.390   0.116 -0.0776  0.7810 -0.1676
  244MPD1    C5 3703   3.722   0.316   0.120  0.1359 -0.5131  0.3019
  244MPD1     H 3704   3.758   0.616   0.346  1.6775  0.3917 -1.2773
  244MPD1    H1 3705   3.909   0.358   0.042  0.4734 -0.3129  0.8591
  244MPD1    H2 3706   3.537   0.276   0.215 -0.3976 -0.3621  1.6159
  244MPD1    H3 3707   3.718   0.242   0.040 -0.8413  0.4541 -0.5373
  244MPD1     N 3708   3.957   0.587   0.197 -0.5615 -0.0683 -0.1364
  244MPD1    H5 3709   3.955   0.668   0.258  2.0547  1.0670 -1.5448
  244MPD1    N1 3710   3.520   0.486   0.378 -0.1711  0.2713 -0.3488
  244MPD1    H6 3711   3.550   0.551   0.450 -0.5549 -1.0695  1.0158
  244MPD1    H7 3712   3.473   0.406   0.421  1.3142 -0.4214 -0.0100
  245MPD1     C 3713   1.314   1.120  13.749 -0.8138  0.5218 -1.3075
  245MPD1    C1 3714   1.359   1.153  13.876 -0.0709  0.3597  0.1757
  245MPD1    C2 3715   1.478   1.219  13.881  0.2861 -0.3393 -0.0450
  245MPD1    C3 3716   1.531   1.283  13.775  0.3155 -0.6778 -0.0263
  245MPD1    C4 3717   1.482   1.255  13.646  0.7650  1.0040  0.7296
  245MPD1    C5 3718   1.374   1.168  13.637 -0.0126  0.4523 -0.2115
  245MPD1     H 3719   1.526   1.228  13.977  3.0006  0.4106 -1.4778
  245MPD1    H1 3720   1.519   1.314  13.563  1.0123  0.2243  0.2874
  245MPD1    H2 3721   1.229   1.053  13.736  0.4043 -1.1846 -0.5837
  245MPD1    H3 3722   1.331   1.152  13.538 -0.7712 -0.6428  0.2941
  245MPD1     N 3723   1.636   1.383  13.802  0.1143  0.5110  0.3178
  245MPD1    H5 3724   1.656   1.403  13.899 -2.0781 -0.7939  1.0434
  245MPD1    N1 3725   1.329   1.075  13.987 -0.7205 -0.2115  0.0591
  245MPD1    H6 3726   1.232   1.043  13.985 -0.3204 -1.4163 -0.3568
  245MPD1    H7 3727   1.346   1.124  14.074  1.1784 -1.1323  0.1861
  246MPD1     C 3728   1.976   0.499   9.442 -0.7634  0.1184  0.2504
  246MPD1    C1 3729   2.022   0.389   9.379 -0.9811  0.0057 -0.2131
  246MPD1    C2 3730   2.125   0.394   9.289 -0.3723  0.1503 -0.0877
  246MPD1    C3 3731   2.188   0.519   9.266 -0.0174  0.0311 -0.2623
  246MPD1    C4 3732   2.141   0.630   9.340 -0.1230 -0.6527 -0.2473
  246MPD1    C5 3733   2.032   0.622   9.414  0.3720 -0.4565  0.0965
  246MPD1     H 3734   2.167   0.301   9.251  0.8459  0.2527  1.0061
  246MPD1    H1 3735   2.199   0.721   9.351  2.6780 -2.4799  0.0524
  246MPD1    H2 3736   1.899   0.494   9.518 -0.3269 -1.1522  0.6067
  246MPD1    H3 3737   2.006   0.711   9.471 -1.0622 -1.9506  1.7722
  246MPD1     N 3738   2.306   0.527   9.185  0.7551 -0.7157 -0.0602
  246MPD1    H5 3739   2.348   0.444   9.145  0.2881  0.0432 -2.1373
  246MPD1    N1 3740   1.949   0.268   9.389  0.1103 -0.2196 -0.2836
  246MPD1    H6 3741   1.909   0.251   9.481  0.7245 -1.5604 -0.2695
  246MPD1    H7 3742   2.006   0.190   9.358  0.6206  0.0904 -0.1293
  247MPD1     C 3743   0.442   0.233  16.311 -0.3900 -0.6250 -0.4700
  247MPD1    C1 3744   0.338   0.326  16.294  0.6067 -0.4429  0.0187
  247MPD1    C2 3745   0.364   0.461  16.302  0.1260  0.5620  0.1502
  247MPD1    C3 3746   0.492   0.512  16.289  0.3815 -0.1832  0.8335
  247MPD1    C4 3747   0.591   0.418  16.290  0.3207 -1.1809 -0.4005
  247MPD1    C5 3748   0.568   0.285  16.303  0.7918 -0.6920 -0.1738
  247MPD1     H 3749   0.284   0.533  16.311  1.1358  1.8518 -1.1782
  247MPD1    H1 3750   0.694   0.450  16.286  0.1604 -0.4031  1.4290
  247MPD1    H2 3751   0.426   0.126  16.318  0.7777 -0.6400  2.0294
  247MPD1    H3 3752   0.647   0.212  16.310  0.8979 -0.6811 -1.2720
  247MPD1     N 3753   0.524   0.645  16.268 -0.0976  0.5763 -0.1174
  247MPD1    H5 3754   0.619   0.666  16.239  0.5122 -1.3020  0.4810
  247MPD1    N1 3755   0.206   0.288  16.290  0.4547  0.0406  0.0836
  247MPD1    H6 3756   0.199   0.188  16.271  1.5505  0.3869 -2.1535
  247MPD1    H7 3757   0.139   0.338  16.231  2.1232 -0.6858 -2.4173
  248MPD1     C 3758   1.445   0.429   1.956 -0.8558  0.2539 -1.1697
  248MPD1    C1 3759   1.348   0.528   1.933 -0.3108  0.6213 -0.0510
  248MPD1    C2 3760   1.332   0.557   1.800 -0.4045  0.0140 -0.5777
  248MPD1    C3 3761   1.420   0.510   1.697 -0.1669  0.0570  0.0145
  248MPD1    C4 3762   1.520   0.425   1.731 -0.5683  0.7926  0.0950
  248MPD1    C5 3763   1.536   0.385   1.861 -0.3359 -0.4355  0.3877
  248MPD1     H 3764   1.249   0.621   1.774 -1.6789 -0.4915  2.3563
  248MPD1    H1 3765   1.595   0.389   1.661 -0.4527  1.6585 -0.2376
  248MPD1    H2 3766   1.452   0.389   2.057 -0.3199  1.3249 -0.7755
  248MPD1    H3 3767   1.606   0.310   1.896  0.1668  0.7080  1.8509
  248MPD1     N 3768   1.395   0.559   1.561  0.3917 -0.7608  0.6066
  248MPD1    H5 3769   1.312   0.614   1.539  0.5873 -0.7561 -0.1455
  248MPD1    N1 3770   1.246   0.556   2.026  0.5042 -0.3410 -0.1392
  248MPD1    H6 3771   1.287   0.557   2.119 -1.2568 -2.1905  0.6486
  248MPD1    H7 3772   1.216   0.652   2.009  0.4198 -0.1366  1.1761
  249MPD1     C 3773   3.314   3.804   9.776 -0.1999 -0.1458  0.1038
  249MPD1    C1 3774   3.335   3.872   9.661  0.1578  0.3631  0.2416
  249MPD1    C2 3775   3.409   3.989   9.671 -0.3361  0.3610  0.3626
  249MPD1    C3 3776   3.468   4.024   9.789 -0.4200  0.3825 -0.2326
  249MPD1    C4 3777   3.445   3.942   9.903 -0.0015 -0.7197  0.1478
  249MPD1    C5 3778   3.373   3.829   9.896 -0.8724  0.1261 -0.3961
  249MPD1     H 3779   3.425   4.044   9.579  0.2983  0.0301  0.2747
  249MPD1    H1 3780   3.492   3.961   9.999  1.6712  1.9124 -1.1777
  249MPD1    H2 3781   3.252   3.715   9.784 -1.6120  0.8592  0.2952
  249MPD1    H3 3782   3.353   3.768   9.983  0.7110 -0.2592 -0.2899
  249MPD1     N 3783   3.541   4.145   9.795  0.0321  0.2402 -0.2987
  249MPD1    H5 3784   3.544   4.209   9.716  3.5395  1.4906  0.8596
  249MPD1    N1 3785   3.247   3.850   9.557  0.0525 -0.6517 -0.2584
  249MPD1    H6 3786   3.278   3.885   9.467  1.0666  0.6529  0.5949
  249MPD1    H7 3787   3.233   3.750   9.542 -1.0790 -0.7285  1.2894
  250MPD2     C 3788   4.195   4.159  13.009 -0.1309  0.2818  0.4192
  250MPD2    C1 3789   4.087   4.239  12.998 -0.5062 -0.2849 -0.0439
  250MPD2    C2 3790   3.965   4.193  12.954 -0.4403  0.5785  0.1462
  250MPD2    C3 3791   3.944   4.058  12.939 -0.0961  0.0412 -0.4997
  250MPD2    C4 3792   4.050   3.977  12.958  0.9933 -0.6492 -0.1474
  250MPD2    C5 3793   4.170   4.030  12.980 -0.3994 -0.8219  0.3997
  250MPD2     H 3794   3.890   4.263  12.916 -0.1436  0.6891 -0.2336
  250MPD2    H1 3795   4.049   3.870  12.938  0.3149 -0.5222 -0.7778
  250MPD2    H2 3796   4.289   4.202  13.042  1.0408  0.0768 -2.6504
  250MPD2    H3 3797   4.258   3.968  12.993  1.2035  1.3049 -0.1487
  250MPD2     N 3798   3.818   3.999  12.905 -0.2971  0.1684 -0.2519
  250MPD2    H5 3799   3.825   3.909  12.858 -0.4477  0.6444 -1.1981
  250MPD2    N1 3800   4.116   4.384  13.018  0.2431  0.1958  0.7703
  250MPD2    H7 3801   4.212   4.407  13.043 -0.0728  1.1071  1.1328
  251TMC3    C1 3802   4.086   4.622  13.019 -0.8902  0.6191 -0.1150
  251TMC3    C2 3803   4.013   0.003  13.079 -0.3663 -0.2854 -0.0825
  251TMC3    C3 3804   4.071   0.126  13.091 -0.3906  0.1772  0.4643
  251TMC3    C4 3805   4.218   4.636  12.993 -0.0457  0.1028  0.0462
  251TMC3    C5 3806   4.276   0.032  13.012 -1.2782 -0.0497 -0.0503
  251TMC3    C6 3807   4.204   0.134  13.051  0.1869 -0.4276  0.3541
  251TMC3     C 3808   4.024   4.486  13.016 -0.2673 -0.0773 -0.1066
  251TMC3     O 3809   3.903   4.470  13.013 -0.5013 -0.1404  0.4069
  251TMC3     H 3810   3.907   4.706  13.093 -0.4418 -0.4470 -0.8643
  251TMC3    H1 3811   4.263   4.557  12.933 -2.6157 -1.1775 -0.1827
  251TMC3    H2 3812   4.246   0.233  13.068 -3.1379  1.7319 -3.7900
  251TMC3    C7 3813   4.418   0.031  13.004 -0.4274 -0.0623  0.2431
  251TMC3    C8 3814   4.013   0.233  13.179  0.3452 -0.0816 -0.7024
  251TMC3    O1 3815   4.479   0.110  13.074  0.3431 -0.0380  0.0914
  251TMC3    O2 3816   4.093   0.319  13.211  0.0205 -0.2203 -0.5342
  252TMC3    C1 3817   0.759   0.074   9.111  0.1492 -0.6158 -0.1447
  252TMC3    C2 3818   0.825   0.179   9.052 -0.3269 -0.0630  0.6521
  252TMC3    C3 3819   0.800   0.206   8.919  0.0135  0.1063 -0.1021
  252TMC3    C4 3820   0.663   4.720   9.045  0.1472 -0.1724  0.5209
  252TMC3    C5 3821   0.642   0.040   8.916  0.6254 -0.0537  0.0760
  252TMC3    C6 3822   0.706   0.143   8.853 -0.4805 -0.2109  0.3786
  252TMC3     C 3823   0.771   0.065   9.254 -0.0684  0.4672  0.4685
  252TMC3     O 3824   0.885   0.077   9.304 -0.4493 -0.6543 -0.1382
  252TMC3     H 3825   0.920   0.211   9.094  0.3675 -0.9617 -0.2330
  252TMC3    H1 3826   0.626   4.631   9.094 -0.8113 -0.6769 -1.1152
  252TMC3    H2 3827   0.667   0.167   8.755 -1.0345 -0.3398  0.5695
  252TMC3    C7 3828   0.571   4.674   8.822 -0.3954 -0.0128  0.1995
  252TMC3    C8 3829   0.857   0.321   8.852  0.7485  0.2631  0.0282
  252TMC3    O1 3830   0.584   4.696   8.706  0.1624 -0.2921  0.4462
  252TMC3    O2 3831   0.868   0.315   8.727 -0.1317  0.1149  0.1725
  253MPD2     C 3832   1.270   4.565  16.158 -1.1527  0.2683  0.3760
  253MPD2    C1 3833   1.154   4.497  16.129 -0.3010  0.7852  0.3862
  253MPD2    C2 3834   1.118   4.395  16.209 -0.2224  0.0318  0.5194
  253MPD2    C3 3835   1.186   4.365  16.328  0.5801  0.4898  0.0558
  253MPD2    C4 3836   1.299   4.436  16.359 -0.0910 -0.6436  0.0328
  253MPD2    C5 3837   1.341   4.537  16.273  0.0722 -0.5739 -0.2555
  253MPD2     H 3838   1.034   4.331  16.184  1.0730 -1.4636 -0.0556
  253MPD2    H1 3839   1.355   4.421  16.450  0.2215  0.2847 -0.0088
  253MPD2    H2 3840   1.295   4.659  16.112 -3.9178  1.0382  0.4697
  253MPD2    H3 3841   1.416   4.613  16.292 -1.4395  0.8477  0.0113
  253MPD2     N 3842   1.149   4.266  16.423 -0.0751  0.0027 -1.1347
  253MPD2    H5 3843   1.201   4.258  16.510  1.2099 -2.0750 -2.0731
  253MPD2    N1 3844   1.076   4.508  16.013  0.9885  0.7420 -0.4263
  253MPD2    H7 3845   1.000   4.443  16.000  0.0021  1.9424 -0.6722
  254TMC3    C1 3846   1.003   4.118  16.533 -1.0755 -0.4862 -0.1240
  254TMC3    C2 3847   0.860   4.104  16.543  1.5092 -0.4102  0.7376
  254TMC3    C3 3848   0.806   4.082  16.671 -0.8850 -0.8489 -1.4974
  254TMC3    C4 3849   1.077   4.109  16.643 -0.3954  0.6568 -0.0157
  254TMC3    C5 3850   1.019   4.082  16.764 -0.1422 -0.4255  0.2617
  254TMC3    C6 3851   0.887   4.070  16.778 -0.5837  0.2124  0.9021
  254TMC3     C 3852   1.040   4.183  16.411 -0.6223 -0.0933 -0.7818
  254TMC3     O 3853   0.966   4.171  16.317 -0.6132  0.2501 -0.3565
  254TMC3     H 3854   0.792   4.125  16.460  0.8443 -0.8092  1.1901
  254TMC3    H1 3855   1.184   4.105  16.632 -0.3710 -1.4797  1.0161
  254TMC3    H2 3856   0.843   4.048  16.875  1.6810  1.7321  2.2529
  254TMC3    C7 3857   1.094   4.077  16.884  0.2595 -0.2065  0.2795
  254TMC3    C8 3858   0.677   4.145  16.697 -0.2764  0.0311 -0.2492
  254TMC3    O1 3859   1.052   4.009  16.977  0.2858 -0.2804 -0.1795
  254TMC3    O2 3860   0.657   4.161  16.814  0.4734 -0.1689 -0.0185
  255MPD2     C 3861   0.240   1.786  10.641 -0.7040 -0.7192  0.2091
  255MPD2    C1 3862   0.152   1.739  10.546  0.1124 -0.4358  0.0674
  255MPD2    C2 3863   0.205   1.701  10.418 -0.0307 -0.3859  0.1654
  255MPD2    C3 3864   0.340   1.728  10.389 -0.1885 -0.0098  0.5480
  255MPD2    C4 3865   0.420   1.780  10.489 -0.0324 -0.1406  0.4711
  255MPD2    C5 3866   0.368   1.800  10.614 -0.4528 -0.3911 -0.9097
  255MPD2     H 3867   0.135   1.666  10.343  1.6009  0.8503 -1.9018
  255MPD2    H1 3868   0.525   1.802  10.475 -0.1546 -0.7300 -1.3399
  255MPD2    H2 3869   0.210   1.817  10.741  2.1272  0.0758  0.8182
  255MPD2    H3 3870   0.431   1.841  10.692 -2.1415  4.0040 -1.8707
  255MPD2     N 3871   0.386   1.710  10.255 -0.2890  0.1692 -0.3656
  255MPD2    H5 3872   0.314   1.677  10.191 -0.4903  2.1134 -1.1482
  255MPD2    N1 3873   0.018   1.725  10.579  0.7705 -0.0077  0.0527
  255MPD2    H7 3874   4.712   1.771  10.665  2.0188  2.2648 -0.7560
  256TMC3    C1 3875   4.506   1.687  10.577  1.3827 -1.7498  1.2059
  256TMC3    C2 3876   4.476   1.813  10.613  0.1036  0.3990 -0.2779
  256TMC3    C3 3877   4.345   1.858  10.592  0.2915 -1.5850  0.0741
  256TMC3    C4 3878   4.415   1.601  10.527  0.2489 -0.3256  0.3893
  256TMC3    C5 3879   4.288   1.651  10.509 -0.8225  0.5674 -0.0353
  256TMC3    C6 3880   4.250   1.777  10.530 -0.0376  0.2163 -0.0304
  256TMC3     C 3881   4.636   1.659  10.515  0.1345  0.0638  0.1535
  256TMC3     O 3882   4.625   1.597  10.407 -0.0235 -0.5339  0.4435
  256TMC3     H 3883   4.551   1.886  10.641  1.6643 -1.2557 -0.1637
  256TMC3    H1 3884   4.441   1.497  10.511 -2.7332 -0.7166 -2.0137
  256TMC3    H2 3885   4.155   1.820  10.500  1.0466  3.5958  1.4442
  256TMC3    C7 3886   4.190   1.586  10.423 -0.0958 -0.1299  0.5122
  256TMC3    C8 3887   4.322   2.000  10.597  0.1323  0.4133  0.7857
  256TMC3    O1 3888   4.101   1.650  10.366 -0.5428 -0.0742 -0.5069
  256TMC3    O2 3889   4.356   2.069  10.694  0.5483 -0.1848 -0.1744
  257MPD2     C 3890   3.106   0.027  13.119  1.0664 -0.1084  0.5498
  257MPD2    C1 3891   3.080   4.632  13.049 -0.4519  0.2238  0.6035
  257MPD2    C2 3892   3.093   4.509  13.106  0.1221  0.8641 -0.5945
  257MPD2    C3 3893   3.111   4.495  13.245  0.1870  0.0745 -0.5038
  257MPD2    C4 3894   3.121   4.619  13.317 -0.3061 -0.4695 -0.0329
  257MPD2    C5 3895   3.127   0.015  13.256 -0.5715 -0.4076 -0.6142
  257MPD2     H 3896   3.083   4.421  13.043 -1.8954 -0.9280  2.1724
  257MPD2    H1 3897   3.135   4.641  13.422  1.0564 -1.7722  0.0652
  257MPD2    H2 3898   3.094   0.125  13.075  3.7044  0.1931  0.5130
  257MPD2    H3 3899   3.144   0.103  13.317  1.1831 -0.0826 -1.5472
  257MPD2     N 3900   3.128   4.366  13.304  0.1544 -0.4381 -0.6608
  257MPD2    H5 3901   3.121   4.284  13.245  0.9109  0.0041 -1.3564
  257MPD2    N1 3902   3.052   4.649  12.910 -0.4536 -0.1631  0.2055
  257MPD2    H7 3903   3.071   0.020  12.871 -0.8770 -0.3770 -0.5220
  258TMC3    C1 3904   3.172   4.211  13.471  0.5830 -0.2845 -0.4253
  258TMC3    C2 3905   3.235   4.123  13.384  0.0232  0.1258 -0.5205
  258TMC3    C3 3906   3.308   4.024  13.447 -0.2184  0.4905  0.2787
  258TMC3    C4 3907   3.173   4.199  13.607 -0.3732 -0.0043 -0.3806
  258TMC3    C5 3908   3.241   4.097  13.661  0.2942 -1.0717 -0.1827
  258TMC3    C6 3909   3.316   4.011  13.584  0.0948 -0.3181  0.0826
  258TMC3     C 3910   3.155   4.350  13.439  0.1399 -0.2136  0.2644
  258TMC3     O 3911   3.154   4.433  13.531  0.1712 -0.0656  0.2814
  258TMC3     H 3912   3.222   4.127  13.276  0.4489  1.1552 -0.5289
  258TMC3    H1 3913   3.115   4.262  13.674 -0.0916 -0.7995  0.5983
  258TMC3    H2 3914   3.369   3.922  13.615 -1.0497 -0.8526  0.4840
  258TMC3    C7 3915   3.214   4.060  13.802  0.0389 -0.6168 -0.1121
  258TMC3    C8 3916   3.374   3.924  13.375 -0.6641  0.2989 -0.2312
  258TMC3    O1 3917   3.129   4.127  13.862 -0.1895  0.5777 -0.2289
  258TMC3    O2 3918   3.476   3.882  13.420 -0.4839  0.2529 -0.2147
  259MPD2     C 3919   2.219   1.821   1.279 -0.8381 -0.4006  0.1841
  259MPD2    C1 3920   2.195   1.686   1.280  0.5047  0.9968 -0.0346
  259MPD2    C2 3921   2.255   1.606   1.181  0.1308 -0.0448 -0.2149
  259MPD2    C3 3922   2.339   1.667   1.083  0.1789  0.2062  0.5542
  259MPD2    C4 3923   2.363   1.805   1.085 -0.6548 -0.3111  0.1027
  259MPD2    C5 3924   2.310   1.878   1.183  0.0379 -0.6031  0.4084
  259MPD2     H 3925   2.236   1.499   1.185  0.3949 -0.1614 -1.8363
  259MPD2    H1 3926   2.418   1.854   1.006 -0.4445 -2.0156 -0.8086
  259MPD2    H2 3927   2.161   1.887   1.343  0.1421  2.3723 -1.8109
  259MPD2    H3 3928   2.333   1.984   1.181 -0.5988 -0.5559 -3.7041
  259MPD2     N 3929   2.399   1.588   0.978 -0.5620 -0.5679  0.4838
  259MPD2    H5 3930   2.379   1.489   0.989  0.1891 -0.8702 -0.8953
  259MPD2    N1 3931   2.112   1.630   1.385 -0.0125  0.7185 -0.3371
  259MPD2    H7 3932   2.065   1.691   1.451  1.0135 -0.6243  1.6242
  260TMC3    C1 3933   2.553   1.529   0.821 -0.1530 -0.2191  0.4185
  260TMC3    C2 3934   2.657   1.568   0.740  0.4695 -0.0045 -0.6146
  260TMC3    C3 3935   2.732   1.471   0.677 -0.1236  0.2366  0.2066
  260TMC3    C4 3936   2.516   1.396   0.834 -0.0153  0.5659 -0.4669
  260TMC3    C5 3937   2.596   1.304   0.772  0.1652 -0.1359 -0.5503
  260TMC3    C6 3938   2.707   1.340   0.700 -0.6383 -0.5239 -0.2324
  260TMC3     C 3939   2.493   1.635   0.887 -0.3451  0.2465 -0.0829
  260TMC3     O 3940   2.503   1.745   0.841  0.6084  0.0115 -0.8224
  260TMC3     H 3941   2.697   1.668   0.727 -0.8153  0.5726 -0.1397
  260TMC3    H1 3942   2.424   1.363   0.880  1.3377 -0.0455  1.7532
  260TMC3    H2 3943   2.764   1.267   0.644  0.6379  0.3302 -0.0478
  260TMC3    C7 3944   2.544   1.173   0.745  0.8339  0.9684  0.0534
  260TMC3    C8 3945   2.838   1.519   0.589  0.0163  0.0916 -0.7601
  260TMC3    O1 3946   2.589   1.113   0.652  0.4152 -0.5200 -0.1604
  260TMC3    O2 3947   2.818   1.625   0.534  0.4391  0.4813  0.2951
  261MPD2     C 3948   3.573   4.059  12.276  0.4616 -0.2096 -0.0142
  261MPD2    C1 3949   3.618   4.131  12.385  0.4913  0.1992 -0.1146
  261MPD2    C2 3950   3.727   4.220  12.375  0.1956 -0.7500  0.0323
  261MPD2    C3 3951   3.777   4.244  12.252 -0.0288  0.4224 -0.5049
  261MPD2    C4 3952   3.735   4.174  12.140 -0.1405 -0.3569 -0.5720
  261MPD2    C5 3953   3.627   4.092  12.155 -0.0696  0.4212  0.2408
  261MPD2     H 3954   3.781   4.257  12.461 -0.1174 -0.4636  0.1043
  261MPD2    H1 3955   3.770   4.198  12.040  0.3845  1.1433 -0.0213
  261MPD2    H2 3956   3.490   3.990  12.274  0.9627 -0.8249  0.4802
  261MPD2    H3 3957   3.569   4.048  12.075  0.6449  0.5455 -0.3457
  261MPD2     N 3958   3.893   4.325  12.233  0.1925  0.1164  0.1933
  261MPD2    H5 3959   3.942   4.315  12.145 -3.0794 -0.9218 -1.5211
  261MPD2    N1 3960   3.566   4.112  12.514  0.1820  0.0222  0.2383
  261MPD2    H7 3961   3.621   4.153  12.588 -0.2838  1.5576 -0.2639
  262TMC3    C1 3962   4.046   4.494  12.274  0.6560 -0.5853 -0.2030
  262TMC3    C2 3963   4.037   4.630  12.285 -0.1114  0.2606 -0.3445
  262TMC3    C3 3964   4.138   4.705  12.229  0.5788  0.3379 -0.1344
  262TMC3    C4 3965   4.152   4.427  12.217  0.0695  0.4795 -0.4663
  262TMC3    C5 3966   4.249   4.509  12.166  0.2532 -0.1260 -0.4546
  262TMC3    C6 3967   4.243   4.645  12.167  0.5633 -0.7202 -0.1401
  262TMC3     C 3968   3.934   4.420  12.320 -1.1643 -0.7035  0.4026
  262TMC3     O 3969   3.875   4.468  12.417  0.4085 -0.4081  0.2118
  262TMC3     H 3970   3.952   4.670  12.338  0.5587  0.9723  0.1925
  262TMC3    H1 3971   4.166   4.320  12.218 -1.0156  0.3530  1.8152
  262TMC3    H2 3972   4.319   4.705  12.118 -1.4216  1.3738 -0.6802
  262TMC3    C7 3973   4.340   4.435  12.080  0.5644  0.2479  0.0295
  262TMC3    C8 3974   4.098   0.125  12.185  0.1140  0.3873  0.5483
  262TMC3    O1 3975   4.362   4.320  12.110 -0.5770  0.0965  0.3563
  262TMC3    O2 3976   4.188   0.182  12.123  0.1039 -0.3305 -0.0341
  263MPD2     C 3977   0.722   4.043  11.492 -0.4324 -0.0708 -0.6106
  263MPD2    C1 3978   0.795   3.965  11.408  0.3941  0.5398  0.3752
  263MPD2    C2 3979   0.804   3.988  11.265  0.1209 -0.6358  0.6397
  263MPD2    C3 3980   0.727   4.092  11.221  0.8459  0.1766  0.0478
  263MPD2    C4 3981   0.670   4.174  11.312  0.0750 -0.2858  0.0192
  263MPD2    C5 3982   0.658   4.155  11.449  0.0380  0.1582  0.1480
  263MPD2     H 3983   0.844   3.913  11.198 -1.1121 -0.0649 -0.7431
  263MPD2    H1 3984   0.628   4.266  11.275  0.0413 -0.7989 -1.2105
  263MPD2    H2 3985   0.728   4.020  11.598  1.2233 -0.5299 -0.8046
  263MPD2    H3 3986   0.605   4.223  11.515 -0.2244  0.5363 -0.4564
  263MPD2     N 3987   0.716   4.110  11.083 -0.1585  0.4759  0.4422
  263MPD2    H5 3988   0.760   4.039  11.024  1.8940  2.1489 -0.0556
  263MPD2    N1 3989   0.852   3.852  11.470 -0.3398 -0.3539 -0.1248
  263MPD2    H7 3990   0.821   3.832  11.564 -0.1584  1.1156  0.2462
  264TMC3    C1 3991   0.617   4.199  10.871 -0.0224 -0.3899 -0.6417
  264TMC3    C2 3992   0.505   4.245  10.816  0.1040 -0.0144  0.3763
  264TMC3    C3 3993   0.488   4.240  10.684  0.0545 -0.1384  0.2023
  264TMC3    C4 3994   0.726   4.168  10.796 -0.3949  0.0914  0.4171
  264TMC3    C5 3995   0.715   4.175  10.663  0.7438  0.7356  0.2214
  264TMC3    C6 3996   0.595   4.197  10.605  0.3616  0.0377  0.0491
  264TMC3     C 3997   0.624   4.195  11.020  0.8912 -0.4139  1.0903
  264TMC3     O 3998   0.548   4.274  11.068 -0.4703  0.5980  0.7516
  264TMC3     H 3999   0.425   4.278  10.882  1.5094  1.0230  1.5795
  264TMC3    H1 4000   0.822   4.136  10.834 -0.0265  1.2045  0.4378
  264TMC3    H2 4001   0.578   4.198  10.498 -1.7740  1.3667  0.4049
  264TMC3    C7 4002   0.825   4.154  10.572 -0.8138  0.2814 -0.1607
  264TMC3    C8 4003   0.400   4.339  10.618  0.8247  0.3651  0.3486
  264TMC3    O1 4004   0.910   4.074  10.616 -0.4608  0.6704  0.1691
  264TMC3    O2 4005   0.416   4.345  10.495  0.0277 -0.4682 -0.0821
  265MPD2     C 4006   2.158   4.298  15.508  0.4047 -0.3263 -0.2789
  265MPD2    C1 4007   2.233   4.417  15.479  0.3064 -0.4392 -0.4989
  265MPD2    C2 4008   2.353   4.410  15.399  0.0083  0.2939 -0.0827
  265MPD2    C3 4009   2.409   4.290  15.368  0.1366 -0.8872 -0.0592
  265MPD2    C4 4010   2.338   4.176  15.408  0.6959 -0.7205 -0.4843
  265MPD2    C5 4011   2.218   4.176  15.470 -0.2337 -0.4028  0.1687
  265MPD2     H 4012   2.424   4.492  15.392  0.7102 -0.4392 -1.5047
  265MPD2    H1 4013   2.386   4.079  15.393  0.0439 -1.0424 -0.4766
  265MPD2    H2 4014   2.072   4.289  15.573  0.9162 -3.7037 -0.0989
  265MPD2    H3 4015   2.161   4.093  15.510  1.1847 -1.1051  0.7287
  265MPD2     N 4016   2.544   4.272  15.320  0.0495  0.0114  0.1352
  265MPD2    H5 4017   2.588   4.181  15.324  1.3482  0.6641  0.7460
  265MPD2    N1 4018   2.180   4.544  15.515  0.8285 -0.3421  0.7298
  265MPD2    H7 4019   2.232   4.629  15.497  1.1933 -1.2114 -2.3169
  266TMC3    C1 4020   2.057   4.704  15.639  0.7484 -0.0886  0.0822
  266TMC3    C2 4021   1.943   0.014  15.700 -0.4244 -0.3629 -0.2378
  266TMC3    C3 4022   1.935   0.118  15.785  0.6908  0.6246  0.1318
  266TMC3    C4 4023   2.166   0.069  15.656  1.3888  0.5359  0.3239
  266TMC3    C5 4024   2.150   0.187  15.734  0.0760 -0.4414  0.2575
  266TMC3    C6 4025   2.033   0.211  15.799  0.8436 -0.5344  0.7781
  266TMC3     C 4026   2.071   4.567  15.591  0.3311 -1.1032 -0.2117
  266TMC3     O 4027   1.972   4.495  15.616 -0.1616  0.0648  0.6492
  266TMC3     H 4028   1.858   4.671  15.678  0.5096 -2.7705  3.1603
  266TMC3    H1 4029   2.267   0.045  15.626 -0.0286 -1.5619 -2.8784
  266TMC3    H2 4030   2.022   0.297  15.864  0.9089  0.9748 -1.2048
  266TMC3    C7 4031   2.269   0.232  15.806 -0.1998 -0.3924  0.7304
  266TMC3    C8 4032   1.807   0.155  15.842 -0.2661 -0.3710 -0.7967
  266TMC3    O1 4033   2.369   0.161  15.790  0.2527 -0.3304  0.3356
  266TMC3    O2 4034   1.707   0.124  15.783  0.1190  0.0752 -0.5148
  267MPD2     C 4035   0.112   1.493  17.526  0.0169 -0.3582 -0.0784
  267MPD2    C1 4036   0.046   1.482  17.645  0.0044  0.2219 -0.5117
  267MPD2    C2 4037   4.638   1.428  17.648 -0.0122 -0.0143 -0.0231
  267MPD2    C3 4038   4.575   1.396  17.529 -0.0046  0.1741  0.1669
  267MPD2    C4 4039   4.647   1.407  17.407  0.8225 -0.6120  0.8786
  267MPD2    C5 4040   0.047   1.461  17.409 -0.3283 -0.1981  0.2076
  267MPD2     H 4041   4.579   1.425   0.051 -0.4091 -1.3045 -0.3267
  267MPD2    H1 4042   4.609   1.373  17.311  0.0658 -1.6758  1.5488
  267MPD2    H2 4043   0.212   1.533  17.514  0.1484 -0.4372  0.7401
  267MPD2    H3 4044   0.107   1.473  17.320 -0.7947  0.0254 -0.0829
  267MPD2     N 4045   4.435   1.358  17.528 -0.3079  0.6378  0.0410
  267MPD2    H5 4046   4.410   1.316  17.439 -1.5171  0.8729  0.2606
  267MPD2    N1 4047   0.118   1.519   0.076 -0.6235  0.0313  0.2545
  267MPD2    H7 4048   0.216   1.544   0.063 -0.3529 -0.6002  1.1302
  268TMC3    C1 4049   0.144   1.624   0.276  0.1487  0.5395  0.0139
  268TMC3    C2 4050   0.168   1.743   0.217  0.2066  0.1838  0.0025
  268TMC3    C3 4051   0.169   1.854   0.292 -0.8011 -0.1658  0.0482
  268TMC3    C4 4052   0.106   1.613   0.406  0.1583  0.3303  0.4547
  268TMC3    C5 4053   0.108   1.725   0.485  1.0876  0.7090 -0.6098
  268TMC3    C6 4054   0.144   1.847   0.431  0.0115 -0.1508  0.3959
  268TMC3     C 4055   0.060   1.535   0.199 -0.0342 -0.3340  0.7440
  268TMC3     O 4056   4.673   1.505   0.248  0.0112 -0.2642  0.0389
  268TMC3     H 4057   0.191   1.756   0.112 -2.3681  2.5146 -0.2746
  268TMC3    H1 4058   0.084   1.517   0.452  0.1126  0.0728 -0.0964
  268TMC3    H2 4059   0.139   1.942   0.483  0.9202  0.2590 -0.2679
  268TMC3    C7 4060   0.109   1.698   0.629 -0.2059 -0.0629 -0.0954
  268TMC3    C8 4061   0.185   1.984   0.228  0.2251 -0.3222  0.2100
  268TMC3    O1 4062   0.067   1.589   0.665 -0.0105 -0.2926  0.5633
  268TMC3    O2 4063   0.239   2.068   0.299  0.2980  0.4950  0.2061
  269MPD2     C 4064   0.310   0.008  16.040  0.2698  0.5503 -0.7605
  269MPD2    C1 4065   0.182   4.715  16.001  0.6045 -0.1587 -0.8060
  269MPD2    C2 4066   0.142   0.086  15.901 -0.6818 -0.3124  0.1526
  269MPD2    C3 4067   0.213   0.197  15.863 -0.0789  0.1005 -0.4527
  269MPD2    C4 4068   0.338   0.210  15.912 -0.1289  0.2233 -0.4469
  269MPD2    C5 4069   0.390   0.113  15.993 -0.3624 -0.1325 -0.1897
  269MPD2     H 4070   0.048   0.067  15.852 -0.8348  0.3935  0.1785
  269MPD2    H1 4071   0.395   0.301  15.898  0.4913 -0.0181  0.4956
  269MPD2    H2 4072   0.354   4.653  16.103  0.0117 -0.0996 -1.3660
  269MPD2    H3 4073   0.495   0.116  16.021  0.1850  2.0886 -2.4719
  269MPD2     N 4074   0.157   0.292  15.778  0.1685  0.0199  0.0319
  269MPD2    H5 4075   0.059   0.288  15.754 -0.1268  1.4499  1.0147
  269MPD2    N1 4076   0.098   4.617  16.056 -0.5179 -0.3570 -0.2048
  269MPD2    H7 4077   0.146   4.543  16.105  1.6241 -0.2506 -2.1477
  270TMC3    C1 4078   4.620   4.484  16.085 -0.4015  0.1143 -0.3387
  270TMC3    C2 4079   4.494   4.452  16.032 -0.2761  0.3736 -0.2928
  270TMC3    C3 4080   4.432   4.335  16.075 -0.3505  0.2956  0.8488
  270TMC3    C4 4081   4.686   4.398  16.170 -0.0861 -0.4903  0.4009
  270TMC3    C5 4082   4.632   4.274  16.199  0.3038 -0.2639 -0.0433
  270TMC3    C6 4083   4.498   4.244  16.156  0.4563 -0.0959 -0.0504
  270TMC3     C 4084   4.686   4.604  16.028 -0.4904  0.1585  0.6095
  270TMC3     O 4085   4.617   4.687  15.961 -0.3028 -0.3206 -0.2565
  270TMC3     H 4086   4.444   4.515  15.960  1.8639  1.4260 -0.8442
  270TMC3    H1 4087   0.059   4.428  16.213  0.4934 -1.4528 -0.1834
  270TMC3    H2 4088   4.440   4.163  16.199 -2.4682  1.6326 -0.8061
  270TMC3    C7 4089   0.017   4.167  16.198 -0.4834 -0.1758  0.1746
  270TMC3    C8 4090   4.329   4.276  15.986 -0.7304 -0.3972 -0.3470
  270TMC3    O1 4091   0.131   4.201  16.157  0.3463  0.5684 -0.2662
  270TMC3    O2 4092   4.228   4.224  16.029 -0.8794 -0.0690 -0.1990
  271MPD2     C 4093   3.747   4.443  14.170 -0.0107  0.1317  0.3122
  271MPD2    C1 4094   3.710   4.437  14.304 -0.0844 -1.0226 -0.4954
  271MPD2    C2 4095   3.587   4.482  14.342  0.3625 -0.7207 -0.1503
  271MPD2    C3 4096   3.495   4.521  14.249  0.2960 -0.7975  0.0292
  271MPD2    C4 4097   3.534   4.524  14.114 -0.4539 -0.0965  0.1245
  271MPD2    C5 4098   3.659   4.482  14.075  0.1998 -0.0079  0.1563
  271MPD2     H 4099   3.557   4.483  14.446 -2.1578  1.1082 -0.9072
  271MPD2    H1 4100   3.465   4.561  14.039 -1.2760  0.0290  0.9379
  271MPD2    H2 4101   3.847   4.418  14.137 -0.2644  1.0504 -1.1199
  271MPD2    H3 4102   3.681   4.466  13.970  1.9696  3.4621  0.0012
  271MPD2     N 4103   3.369   4.563  14.280 -0.2591 -0.5210 -0.1641
  271MPD2    H5 4104   3.308   4.578  14.201 -0.9336 -1.0560  0.2521
  271MPD2    N1 4105   3.795   4.399  14.411 -1.0890 -0.3942 -0.0291
  271MPD2    H7 4106   3.768   4.439  14.501 -0.2807  1.6042 -0.7023
  272TMC3    C1 4107   3.988   4.312  14.517 -0.6904  0.2506  0.2488
  272TMC3    C2 4108   4.086   4.218  14.498  0.4586 -0.0191  0.1227
  272TMC3    C3 4109   4.145   4.168  14.607  0.3952  0.4468  0.1737
  272TMC3    C4 4110   3.935   4.336  14.643  0.7216 -0.5377  0.4457
  272TMC3    C5 4111   3.984   4.271  14.755 -0.8495 -0.2469 -0.1969
  272TMC3    C6 4112   4.101   4.198  14.735 -0.5484  0.2993 -0.7176
  272TMC3     C 4113   3.914   4.337  14.395 -0.3201  0.1044 -0.4875
  272TMC3     O 4114   3.947   4.282  14.295 -0.3382  0.8091 -0.5216
  272TMC3     H 4115   4.103   4.184  14.396  1.2815 -0.7722  0.5127
  272TMC3    H1 4116   3.858   4.411  14.658  0.4990 -0.4393 -1.2757
  272TMC3    H2 4117   4.150   4.150  14.819 -3.1502  1.6252  1.5620
  272TMC3    C7 4118   3.950   4.333  14.879  0.2797  0.2471 -0.1759
  272TMC3    C8 4119   4.228   4.051  14.576  0.2413  0.1443 -1.0459
  272TMC3    O1 4120   3.830   4.349  14.896 -0.1313 -0.4857 -0.4360
  272TMC3    O2 4121   4.220   4.010  14.462 -0.1432 -0.3631 -0.1275
  273MPD2     C 4122   0.946   1.897  11.290  0.2949 -0.0091  0.3845
  273MPD2    C1 4123   1.019   1.985  11.367  0.8415  0.3033 -0.1764
  273MPD2    C2 4124   1.071   2.095  11.306  0.0016  0.2166  0.0250
  273MPD2    C3 4125   1.032   2.127  11.176  0.9847 -0.0065  0.0858
  273MPD2    C4 4126   0.967   2.036  11.100  0.9232  0.4329 -0.1323
  273MPD2    C5 4127   0.916   1.919  11.157 -0.0175  0.0526 -0.3602
  273MPD2     H 4128   1.126   2.170  11.362  0.0732 -1.2089  1.8315
  273MPD2    H1 4129   0.947   2.058  10.995  2.2076  3.5730  0.2899
  273MPD2    H2 4130   0.916   1.803  11.336 -1.2253  0.6393  0.7083
  273MPD2    H3 4131   0.862   1.847  11.098  1.8638 -2.0009  0.3908
  273MPD2     N 4132   1.049   2.260  11.120 -0.1938  0.3012 -0.1986
  273MPD2    H5 4133   1.034   2.279  11.022  0.5543  0.1653 -0.3402
  273MPD2    N1 4134   1.036   1.956  11.505  0.0791  0.0737 -0.7186
  273MPD2    H7 4135   0.987   1.875  11.542  0.0340  0.8994  1.0513
  274TMC3    C1 4136   1.076   2.487  11.107  0.5012  0.7106 -0.0268
  274TMC3    C2 4137   0.980   2.497  11.006  0.2684  0.0306 -0.5297
  274TMC3    C3 4138   0.956   2.623  10.950 -0.0086 -0.4931 -0.2009
  274TMC3    C4 4139   1.134   2.601  11.158 -0.0689 -0.2868  0.3859
  274TMC3    C5 4140   1.105   2.723  11.103 -0.3976 -0.1769  0.5496
  274TMC3    C6 4141   1.018   2.739  10.995  0.2439 -0.3788 -0.3989
  274TMC3     C 4142   1.094   2.373  11.188 -0.0936  0.0954 -0.3178
  274TMC3     O 4143   1.156   2.385  11.298  0.0966  0.4574  0.4997
  274TMC3     H 4144   0.907   2.422  10.977  0.3388 -0.6384  1.0505
  274TMC3    H1 4145   1.210   2.589  11.235  2.1261  1.7662 -1.4642
  274TMC3    H2 4146   0.986   2.836  10.960  3.3910  1.1236  0.8837
  274TMC3    C7 4147   1.115   2.836  11.199 -0.6007  0.3995 -0.3693
  274TMC3    C8 4148   0.838   2.643  10.873  0.2882  0.5158 -0.1144
  274TMC3    O1 4149   1.062   2.938  11.160 -0.4462  1.0552 -0.2595
  274TMC3    O2 4150   0.768   2.734  10.909 -0.0560 -0.8708 -0.2731
  275MPD2     C 4151   0.726   0.580  14.300  0.1347  0.1749  0.5951
  275MPD2    C1 4152   0.704   0.494  14.400  0.3954  0.4203  0.2131
  275MPD2    C2 4153   0.592   0.409  14.400  0.1344  0.1278 -0.4724
  275MPD2    C3 4154   0.508   0.406  14.292  0.1923  0.3986  0.7108
  275MPD2    C4 4155   0.534   0.488  14.183 -0.0900  0.0597  0.1399
  275MPD2    C5 4156   0.644   0.573  14.187 -0.8375 -0.9141  0.2558
  275MPD2     H 4157   0.575   0.346  14.486  3.8700 -0.4501 -0.1519
  275MPD2    H1 4158   0.468   0.499  14.097  0.3578 -0.9453 -0.3223
  275MPD2    H2 4159   0.812   0.645  14.305  0.3030 -0.0122  0.1341
  275MPD2    H3 4160   0.672   0.641  14.107 -2.5873  0.0672  0.4828
  275MPD2     N 4161   0.383   0.343  14.299 -0.0857 -0.2669  0.0474
  275MPD2    H5 4162   0.305   0.373  14.242  0.7385  2.0152  0.1527
  275MPD2    N1 4163   0.772   0.503  14.527 -0.3484 -0.4822 -0.2977
  275MPD2    H7 4164   0.742   0.443  14.603 -2.5002  1.6986  0.5640
  276TMC3    C1 4165   0.899   0.571  14.701 -0.2339 -0.2436  0.0357
  276TMC3    C2 4166   0.845   0.469  14.778  0.3800 -0.5926  0.6585
  276TMC3    C3 4167   0.873   0.458  14.913 -0.3612  0.1337 -0.3152
  276TMC3    C4 4168   0.964   0.670  14.763 -0.1378 -0.0937 -0.3583
  276TMC3    C5 4169   0.985   0.662  14.891 -0.1791 -0.3294  0.0636
  276TMC3    C6 4170   0.943   0.562  14.968  0.6398 -0.2319 -0.1213
  276TMC3     C 4171   0.858   0.601  14.563  0.3965 -0.2628  0.1163
  276TMC3     O 4172   0.886   0.707  14.505 -0.3860 -0.0905 -0.5535
  276TMC3     H 4173   0.801   0.383  14.728  1.8111 -0.5209 -0.7146
  276TMC3    H1 4174   1.002   0.750  14.700  1.5959 -0.2265  0.5240
  276TMC3    H2 4175   0.967   0.563  15.074  3.6362 -1.8096 -0.8226
  276TMC3    C7 4176   1.032   0.780  14.961  0.4756  0.4361  0.0329
  276TMC3    C8 4177   0.774   0.383  14.981  0.1700  0.1497  0.4976
  276TMC3    O1 4178   1.104   0.743  15.056 -0.2388  0.2087  0.2948
  276TMC3    O2 4179   0.665   0.366  14.924  0.3825  0.6093 -0.7859
  277MPD2     C 4180   2.317   4.471  13.609  0.2050  0.0960 -0.3680
  277MPD2    C1 4181   2.280   4.523  13.488 -0.1167  0.8768 -0.3212
  277MPD2    C2 4182   2.200   4.455  13.403 -0.5158  0.3598  0.0770
  277MPD2    C3 4183   2.158   4.328  13.442  0.5632 -0.3136 -0.6057
  277MPD2    C4 4184   2.203   4.262  13.558 -0.4033 -0.7627 -0.1099
  277MPD2    C5 4185   2.275   4.340  13.640 -0.0310  0.5423 -0.3514
  277MPD2     H 4186   2.165   4.485  13.305  0.9069 -0.6130 -0.7241
  277MPD2    H1 4187   2.171   4.165  13.594 -0.2881 -0.3633  1.0578
  277MPD2    H2 4188   2.381   4.530  13.673 -0.7962  1.9553 -1.0813
  277MPD2    H3 4189   2.303   4.297  13.735 -1.8674  0.6709  0.2483
  277MPD2     N 4190   2.059   4.261  13.357 -0.3521  0.0587  0.3950
  277MPD2    H5 4191   2.004   4.326  13.301 -0.5592 -1.5735 -1.2702
  277MPD2    N1 4192   2.333   4.647  13.452 -0.1359 -0.3455 -0.4941
  277MPD2    H7 4193   2.387   4.704  13.515 -0.6224 -3.6842  2.8992
  278TMC3    C1 4194   1.926   4.077  13.271  1.0854 -0.5240  0.2925
  278TMC3    C2 4195   1.902   3.941  13.279 -0.7343 -0.3508  0.1491
  278TMC3    C3 4196   1.813   3.888  13.189  0.2299  0.3213 -0.0866
  278TMC3    C4 4197   1.860   4.161  13.182 -1.2346  0.8301 -0.1210
  278TMC3    C5 4198   1.765   4.104  13.099 -0.5000 -0.3491 -0.1531
  278TMC3    C6 4199   1.741   3.971  13.103 -0.1540  0.3277 -0.5692
  278TMC3     C 4200   2.035   4.124  13.359 -0.0751  0.7618 -0.0653
  278TMC3     O 4201   2.096   4.042  13.429 -0.3150  0.7030 -0.4936
  278TMC3     H 4202   1.960   3.883  13.349 -0.0266 -0.4618 -0.5301
  278TMC3    H1 4203   1.891   4.264  13.168 -0.3181  0.4900 -0.5691
  278TMC3    H2 4204   1.680   3.923  13.028 -0.3161 -0.6597  0.1979
  278TMC3    C7 4205   1.660   4.195  13.052 -0.4431  0.2262  0.1535
  278TMC3    C8 4206   1.809   3.744  13.196 -0.0392  0.1930 -0.0323
  278TMC3    O1 4207   1.684   4.312  13.015  0.3157  0.7894  0.1897
  278TMC3    O2 4208   1.849   3.693  13.302 -0.2995  0.1741 -0.1347
  279MPD2     C 4209   1.098   4.173   1.149 -0.2485  0.1225  0.2350
  279MPD2    C1 4210   1.067   4.293   1.105 -0.6987 -0.4599  0.4322
  279MPD2    C2 4211   1.171   4.373   1.052  0.3749  0.2389  0.6637
  279MPD2    C3 4212   1.288   4.306   1.015 -0.4836 -0.3883 -0.1014
  279MPD2    C4 4213   1.306   4.172   1.036 -0.7307 -0.0072 -0.0435
  279MPD2    C5 4214   1.212   4.109   1.113  1.2536  0.7812 -0.5143
  279MPD2     H 4215   1.141   4.470   1.015  1.5211  0.7549  1.1013
  279MPD2    H1 4216   1.390   4.114   1.000 -0.1863 -0.0102  1.2711
  279MPD2    H2 4217   1.020   4.119   1.203 -0.5148 -0.9086 -1.1740
  279MPD2    H3 4218   1.225   4.004   1.135 -2.0967  0.3095 -0.6860
  279MPD2     N 4219   1.384   4.381   0.948 -0.1515  0.5190  0.1565
  279MPD2    H5 4220   1.459   4.336   0.897 -1.1648  1.4764 -2.1578
  279MPD2    N1 4221   0.933   4.339   1.099  0.2156 -0.0369  0.3871
  279MPD2    H7 4222   0.862   4.267   1.110 -0.3756  0.5461  0.4358
  280TMC3    C1 4223   0.758   4.478   1.041  0.1170 -0.2231  0.2623
  280TMC3    C2 4224   0.740   4.391   0.937  0.2593 -0.3456 -0.1580
  280TMC3    C3 4225   0.709   4.438   0.808 -0.7403  0.0679  0.8456
  280TMC3    C4 4226   0.721   4.606   1.020 -0.5402  0.2889  0.6413
  280TMC3    C5 4227   0.671   4.651   0.896  0.0045 -0.2039 -0.0152
  280TMC3    C6 4228   0.668   4.567   0.788  0.4484  0.0306 -0.0051
  280TMC3     C 4229   0.892   4.466   1.093 -0.3396 -0.1009 -0.3025
  280TMC3     O 4230   0.956   4.565   1.123  0.2548 -0.0696  0.0481
  280TMC3     H 4231   0.760   4.287   0.961 -1.4551 -0.5100  0.5534
  280TMC3    H1 4232   0.745   4.667   1.106 -0.4336  0.3407  0.5751
  280TMC3    H2 4233   0.634   4.596   0.689  2.3498  0.1928 -0.6013
  280TMC3    C7 4234   0.585   0.049   0.907 -0.1698 -0.1529  0.4497
  280TMC3    C8 4235   0.791   4.388   0.705 -0.5863 -0.0780  0.3915
  280TMC3    O1 4236   0.586   0.109   1.014  0.8290 -0.2711 -0.4765
  280TMC3    O2 4237   0.776   4.425   0.588 -0.1052  0.6393 -0.0381
  281TMC3    C1 4238   0.382   4.556  13.423 -0.9321 -0.1829 -0.5882
  281TMC3    C2 4239   0.332   4.636  13.322  0.0839  0.1049  0.0338
  281TMC3    C3 4240   0.328   4.587  13.192 -0.1026  0.3324 -0.4749
  281TMC3    C4 4241   0.413   4.432  13.386  0.3624  0.1605 -0.5395
  281TMC3    C5 4242   0.395   4.377  13.261  0.0640 -0.1759  0.4487
  281TMC3    C6 4243   0.361   4.457  13.158 -0.4191 -0.0757  0.2628
  281TMC3     C 4244   0.300   4.559  13.546  0.3574  0.2941 -0.1342
  281TMC3     O 4245   0.285   4.452  13.607 -0.0910 -0.4934 -0.2463
  281TMC3     H 4246   0.336   0.023  13.332  1.0566 -0.1204  2.0810
  281TMC3    H1 4247   0.443   4.367  13.468 -0.5103  1.1610  0.5699
  281TMC3    H2 4248   0.302   4.406  13.082  0.2396 -0.1828 -0.1797
  281TMC3    C7 4249   0.305   4.264  13.272  0.3501  0.1112 -0.1819
  281TMC3    C8 4250   0.225   4.657  13.108  0.3585  0.3044  0.5222
  281TMC3    O1 4251   0.278   4.195  13.178  0.0404  0.1673 -0.2618
  281TMC3    O2 4252   0.154   0.021  13.161 -0.0880 -0.5650  0.5502
  282MPD2     C 4253   2.263   1.750  15.507  0.0636  0.0646  0.0871
  282MPD2    C1 4254   2.167   1.835  15.454  0.2022  0.0076 -0.6420
  282MPD2    C2 4255   2.172   1.873  15.314 -0.6890  0.5077 -0.1803
  282MPD2    C3 4256   2.251   1.807  15.223 -0.0713  0.0167 -0.1333
  282MPD2    C4 4257   2.334   1.708  15.274 -0.3153 -0.1970 -0.4432
  282MPD2    C5 4258   2.345   1.690  15.412 -0.5110  0.0957  0.4133
  282MPD2     H 4259   2.101   1.948  15.282 -1.4416 -0.8840 -1.8074
  282MPD2    H1 4260   2.402   1.643  15.220 -0.1965  0.2446 -0.8240
  282MPD2    H2 4261   2.278   1.715  15.609  0.5464 -1.5643 -0.5476
  282MPD2    H3 4262   2.408   1.608  15.446 -1.6207 -0.5141  1.0173
  282MPD2     N 4263   2.226   1.821  15.081 -0.4700  0.1258 -0.2469
  282MPD2    H5 4264   2.160   1.892  15.055  0.7453  1.3901  0.1307
  282MPD2    N1 4265   2.059   1.876  15.531  0.0115  0.1646 -0.5189
  282MPD2    H7 4266   1.991   1.941  15.493 -2.7283 -1.0827  2.2681
  283TMC3    C1 4267   1.911   1.897  15.717 -0.0025 -0.2222  0.4803
  283TMC3    C2 4268   1.884   2.028  15.680 -0.4078 -0.1504  0.7894
  283TMC3    C3 4269   1.761   2.070  15.721  0.7311 -0.1693  0.0441
  283TMC3    C4 4270   1.829   1.820  15.804 -0.5963  0.2502 -0.9602
  283TMC3    C5 4271   1.714   1.876  15.846  0.0014 -0.8001  0.7362
  283TMC3    C6 4272   1.683   2.007  15.812  0.6609 -0.0066  0.3856
  283TMC3     C 4273   2.021   1.830  15.656 -0.6038  0.6620  0.6418
  283TMC3     O 4274   2.072   1.743  15.721  0.1234 -0.3411  0.6538
  283TMC3     H 4275   1.957   2.081  15.621 -0.5638 -0.3896  0.3829
  283TMC3    H1 4276   1.858   1.721  15.838 -0.7519  1.2202  2.0039
  283TMC3    H2 4277   1.592   2.053  15.849  1.3882  1.4448  0.3876
  283TMC3    C7 4278   1.631   1.792  15.919  0.1741  0.1985  0.5056
  283TMC3    C8 4279   1.748   2.223  15.732 -0.0851 -0.1862  0.2539
  283TMC3    O1 4280   1.596   1.837  16.027 -0.0515  0.1487  0.5107
  283TMC3    O2 4281   1.688   2.273  15.823  0.9503  0.1767 -0.0572
  284MPD2     C 4282   1.013   0.720  11.267  0.4884 -0.1009 -0.7818
  284MPD2    C1 4283   0.985   0.685  11.138 -0.1320 -0.2218  0.0620
  284MPD2    C2 4284   0.909   0.566  11.118 -0.0336  0.3509  0.7068
  284MPD2    C3 4285   0.850   0.494  11.220 -0.2791  0.1821 -0.2314
  284MPD2    C4 4286   0.880   0.535  11.349 -0.1443  0.9124 -0.0206
  284MPD2    C5 4287   0.957   0.644  11.368 -0.4020  0.9314 -0.1000
  284MPD2     H 4288   0.883   0.537  11.017 -1.5875 -1.6129  1.6819
  284MPD2    H1 4289   0.837   0.486  11.435 -0.0543 -1.1883 -1.1728
  284MPD2    H2 4290   1.077   0.799  11.306  1.6580 -0.9326 -1.0053
  284MPD2    H3 4291   0.990   0.669  11.469 -0.1512 -2.3564  0.6274
  284MPD2     N 4292   0.784   0.369  11.207  0.4379  0.0648  0.3262
  284MPD2    H5 4293   0.757   0.329  11.297  0.3115 -0.3741  0.0917
  284MPD2    N1 4294   1.055   0.743  11.028 -0.5491 -0.0293  0.2702
  284MPD2    H7 4295   1.029   0.710  10.935  1.1537 -0.9890  0.1247
  285TMC3    C1 4296   1.213   0.848  10.908  0.0931 -0.3876 -0.3730
  285TMC3    C2 4297   1.212   0.740  10.824 -0.7256 -0.6580 -0.4646
  285TMC3    C3 4298   1.321   0.714  10.743  0.3791 -0.3937  0.2771
  285TMC3    C4 4299   1.322   0.932  10.910  0.0564 -0.2125  0.9947
  285TMC3    C5 4300   1.435   0.904  10.835  0.7686 -0.3292 -0.1182
  285TMC3    C6 4301   1.438   0.798  10.752  0.1677 -0.2128 -0.2460
  285TMC3     C 4302   1.154   0.834  11.042 -0.1893  0.1622  0.3149
  285TMC3     O 4303   1.227   0.868  11.135  0.0832  0.3536 -0.9102
  285TMC3     H 4304   1.119   0.688  10.806 -1.1827  0.0855 -0.2653
  285TMC3    H1 4305   1.318   1.019  10.975 -1.8977  0.9505 -0.6856
  285TMC3    H2 4306   1.529   0.758  10.708  1.2835  3.1024 -0.8825
  285TMC3    C7 4307   1.556   0.974  10.875  0.6487 -0.0140  0.3794
  285TMC3    C8 4308   1.332   0.594  10.665 -0.0076 -0.5956  0.5008
  285TMC3    O1 4309   1.557   1.029  10.986 -0.0163  0.2509 -0.3178
  285TMC3    O2 4310   1.249   0.509  10.698  0.0596  0.1543 -0.1899
  286MPD2     C 4311   4.421   3.510   1.703 -0.1538 -0.5656 -0.1793
  286MPD2    C1 4312   4.510   3.578   1.613  0.6399  0.2023  0.1032
  286MPD2    C2 4313   4.636   3.527   1.591 -0.2337  0.9211 -0.1434
  286MPD2    C3 4314   4.679   3.415   1.663 -0.7367 -0.4069 -0.1057
  286MPD2    C4 4315   4.592   3.356   1.757 -0.5141 -0.0944  0.4457
  286MPD2    C5 4316   4.462   3.397   1.776  0.6845 -0.0157 -0.2419
  286MPD2     H 4317   4.701   3.579   1.522 -0.5570 -1.0239 -1.9096
  286MPD2    H1 4318   4.621   3.262   1.801  0.4364 -0.1593 -0.3082
  286MPD2    H2 4319   4.319   3.545   1.712  0.1047  0.1816 -0.1391
  286MPD2    H3 4320   4.405   3.333   1.842  0.0658 -1.3074 -2.0308
  286MPD2     N 4321   0.082   3.355   1.634  0.4527 -0.4452  0.2627
  286MPD2    H5 4322   0.103   3.268   1.682  1.0902 -0.3393  0.1669
  286MPD2    N1 4323   4.476   3.693   1.540  0.2801  0.1344  0.0434
  286MPD2    H7 4324   4.553   3.743   1.496 -0.6343 -0.1650 -1.8835
  287TMC3    C1 4325   0.256   3.277   1.521  0.0928  0.3918 -0.2840
  287TMC3    C2 4326   0.249   3.204   1.409 -0.2170  0.7748  0.0260
  287TMC3    C3 4327   0.370   3.159   1.368 -0.1035  0.6924  0.4264
  287TMC3    C4 4328   0.360   3.283   1.602 -0.3094  0.5615 -0.7334
  287TMC3    C5 4329   0.480   3.225   1.564 -0.2659 -0.4173  0.5623
  287TMC3    C6 4330   0.486   3.176   1.438  0.5642 -0.2053 -0.1342
  287TMC3     C 4331   0.162   3.383   1.530  0.0611 -0.0144  0.8147
  287TMC3     O 4332   0.163   3.465   1.437  0.4071 -0.2795 -0.3917
  287TMC3     H 4333   0.163   3.212   1.344  2.0662  1.1475 -2.9197
  287TMC3    H1 4334   0.369   3.344   1.691 -2.1459 -2.4632  1.5243
  287TMC3    H2 4335   0.580   3.136   1.401  1.2849  3.1931 -1.9623
  287TMC3    C7 4336   0.597   3.266   1.642  0.5060 -0.0377  0.8325
  287TMC3    C8 4337   0.373   3.122   1.225 -0.6059 -1.1610  0.0696
  287TMC3    O1 4338   0.574   3.332   1.742 -0.7927  0.6767  0.0373
  287TMC3    O2 4339   0.268   3.080   1.180  0.5770  0.0823  0.2444
  288TMC3    C1 4340   2.913   4.014  14.627  0.1807 -0.1179 -0.0931
  288TMC3    C2 4341   2.826   4.041  14.728 -0.0910 -0.0227 -0.6277
  288TMC3    C3 4342   2.704   4.079  14.686  0.5556  0.5026 -0.1803
  288TMC3    C4 4343   2.884   4.021  14.492 -0.0895 -0.2639  0.1242
  288TMC3    C5 4344   2.753   4.059  14.465 -0.2085  0.1955  0.3523
  288TMC3    C6 4345   2.666   4.090  14.561 -0.4856 -0.2442 -0.0375
  288TMC3     C 4346   3.058   3.979  14.648 -0.1572 -0.2003 -0.4281
  288TMC3     O 4347   3.114   3.931  14.549  0.5729  0.0995 -0.1926
  288TMC3     H 4348   2.854   4.028  14.832 -1.0038  1.7241 -0.1604
  288TMC3    H1 4349   2.965   4.038  14.422 -1.5033  1.9269 -0.9971
  288TMC3    H2 4350   2.569   4.134  14.542 -1.2744 -2.6132 -1.4691
  288TMC3    C7 4351   2.724   4.091  14.330 -0.6644  0.4119 -0.6353
  288TMC3    C8 4352   2.610   4.110  14.792  0.3479  0.7831 -0.2342
  288TMC3    O1 4353   2.690   4.204  14.315  0.2310  0.4752 -0.4524
  288TMC3    O2 4354   2.655   4.142  14.903 -0.1542  0.2074 -0.3473
  289MPD2     C 4355   2.914   3.071  14.629  0.5112  0.2265  0.5377
  289MPD2    C1 4356   2.923   3.182  14.552 -0.2538 -0.1182 -0.8104
  289MPD2    C2 4357   2.812   3.270  14.549  0.1975  0.5972 -0.7878
  289MPD2    C3 4358   2.687   3.240  14.608 -0.2371  0.2127  0.1992
  289MPD2    C4 4359   2.678   3.127  14.685 -0.0587 -0.2294  0.4312
  289MPD2    C5 4360   2.792   3.045  14.694 -0.1622  0.1433 -0.0101
  289MPD2     H 4361   2.830   3.367  14.505  0.4745 -0.0989 -2.2238
  289MPD2    H1 4362   2.585   3.106  14.737  0.0093 -1.7708 -0.1012
  289MPD2    H2 4363   2.990   2.994  14.632  1.7993  1.4863  0.1848
  289MPD2    H3 4364   2.785   2.958  14.759  3.4896 -0.6385 -0.6603
  289MPD2     N 4365   2.569   3.314  14.588  0.1714  0.5234  0.1308
  289MPD2    H5 4366   2.486   3.273  14.631  0.7506 -0.9202 -0.1445
  289MPD2    N1 4367   3.041   3.200  14.478  0.4004 -0.1176 -0.4899
  289MPD2    H7 4368   3.107   3.124  14.490 -0.7317 -0.4975  3.2943
  290TMC3    C1 4369   2.433   3.453  14.455  0.7113 -0.0562 -0.4125
  290TMC3    C2 4370   2.410   3.571  14.395  0.4334  0.0803  0.3942
  290TMC3    C3 4371   2.313   3.584  14.306  0.8242  0.1703  0.2563
  290TMC3    C4 4372   2.363   3.337  14.424  0.6849 -0.5582  0.2803
  290TMC3    C5 4373   2.265   3.353  14.324 -0.5377  0.3577 -0.5362
  290TMC3    C6 4374   2.243   3.474  14.259 -0.3760  0.4530 -0.7244
  290TMC3     C 4375   2.560   3.430  14.513 -0.3490  0.1225  0.1941
  290TMC3     O 4376   2.654   3.505  14.497  0.0937  0.0297 -0.2403
  290TMC3     H 4377   2.492   3.642  14.400 -1.9206  2.7901  0.5250
  290TMC3    H1 4378   2.381   3.239  14.467  0.9176 -0.8386 -0.4559
  290TMC3    H2 4379   2.168   3.494  14.184 -0.0442 -0.3817 -1.2751
  290TMC3    C7 4380   2.171   3.250  14.300  0.2055  0.1943  0.0191
  290TMC3    C8 4381   2.316   3.696  14.222 -0.3512  0.3406  0.8465
  290TMC3    O1 4382   2.055   3.290  14.282 -0.9642 -0.2442 -0.1186
  290TMC3    O2 4383   2.288   3.682  14.102  0.2805 -0.7587  0.3551
  291MPD2     C 4384   1.368   3.136   0.538 -0.2563  1.4423 -0.1873
  291MPD2    C1 4385   1.377   3.001   0.492  0.8593  0.2416  0.0982
  291MPD2    C2 4386   1.495   2.952   0.432 -0.2619  0.0147 -0.7702
  291MPD2    C3 4387   1.611   3.033   0.436  0.0538 -0.4694  0.4149
  291MPD2    C4 4388   1.605   3.163   0.483  0.0923 -0.1303  0.0180
  291MPD2    C5 4389   1.482   3.206   0.525  0.2498 -0.6583 -0.0975
  291MPD2     H 4390   1.503   2.857   0.380  3.2866  1.5382 -2.9997
  291MPD2    H1 4391   1.688   3.227   0.456 -0.0775 -0.0087 -0.2217
  291MPD2    H2 4392   1.282   3.186   0.580 -1.6169  0.7599 -2.1371
  291MPD2    H3 4393   1.480   3.307   0.563  1.5998 -0.8146  0.3774
  291MPD2     N 4394   1.742   2.988   0.402 -0.2262 -0.0815  0.1263
  291MPD2    H5 4395   1.820   3.036   0.446 -0.1080 -0.3940  0.2603
  291MPD2    N1 4396   1.276   2.910   0.502  0.1540  0.1226 -0.1011
  291MPD2    H7 4397   1.282   2.828   0.443 -0.9329  1.2138 -1.7550
  292TMC3    C1 4398   1.076   2.816   0.574 -0.0975  0.2867 -0.3358
  292TMC3    C2 4399   1.031   2.767   0.698  0.1495  0.2159 -0.2449
  292TMC3    C3 4400   0.976   2.639   0.692  0.2436 -0.9046 -0.4776
  292TMC3    C4 4401   1.062   2.748   0.451  0.6223  0.1279  0.1851
  292TMC3    C5 4402   1.012   2.622   0.462  0.1935  0.9913  0.2951
  292TMC3    C6 4403   0.966   2.563   0.577 -0.4550  0.8531  0.1191
  292TMC3     C 4404   1.163   2.932   0.579 -0.0491  0.0229  0.1766
  292TMC3     O 4405   1.140   3.017   0.667  0.0979 -0.4428 -0.0111
  292TMC3     H 4406   1.039   2.817   0.793 -1.5447  0.6451 -0.3283
  292TMC3    H1 4407   1.094   2.794   0.358 -0.5237 -1.5926 -1.0435
  292TMC3    H2 4408   0.946   2.457   0.581  0.3259  0.8236  3.2276
  292TMC3    C7 4409   0.991   2.552   0.337  0.1456  0.1875  0.4462
  292TMC3    C8 4410   0.904   2.593   0.809 -1.0051 -0.3648  0.3171
  292TMC3    O1 4411   1.070   2.564   0.246  0.8434  0.2052  0.3022
  292TMC3    O2 4412   0.907   2.659   0.911  0.1747  0.0142 -0.0381
  293MPD2     C 4413   3.368   4.486  12.626 -0.6426  0.0626  0.6237
  293MPD2    C1 4414   3.323   4.387  12.709  0.6294 -0.1088 -0.3300
  293MPD2    C2 4415   3.345   4.410  12.842 -0.1712 -0.4656  0.2288
  293MPD2    C3 4416   3.409   4.522  12.893 -0.3880 -0.5226 -0.6746
  293MPD2    C4 4417   3.442   4.623  12.808  0.1846 -1.1248 -0.0492
  293MPD2    C5 4418   3.430   4.598  12.672  0.6805 -0.1416  0.1952
  293MPD2     H 4419   3.316   4.340  12.920 -1.8968  0.9401  0.8561
  293MPD2    H1 4420   3.479   4.716  12.849  1.4051 -1.0821 -1.2557
  293MPD2    H2 4421   3.367   4.464  12.519 -3.2007  1.0389  0.4436
  293MPD2    H3 4422   3.470   4.678  12.609 -0.3810 -0.0591 -0.3682
  293MPD2     N 4423   3.431   4.528  13.029  0.6357  0.3777 -0.6214
  293MPD2    H5 4424   3.430   4.439  13.079 -2.1316 -0.0783 -1.4970
  293MPD2    N1 4425   3.255   4.273  12.654  0.4566 -0.0824 -0.4446
  293MPD2    H7 4426   3.255   4.265  12.553  1.7280  0.7430 -0.5037
  294TMC3    C1 4427   3.103   4.097  12.654  0.2869 -0.8891 -0.3876
  294TMC3    C2 4428   3.067   3.986  12.717  1.0800  0.1375  0.0226
  294TMC3    C3 4429   3.005   3.890  12.645 -0.7732 -0.0039  0.0417
  294TMC3    C4 4430   3.077   4.132  12.521  0.2096  0.2570 -0.2524
  294TMC3    C5 4431   3.020   4.026  12.457  0.5132 -0.6556  0.5758
  294TMC3    C6 4432   2.977   3.908  12.514  0.1238 -0.2507  0.3366
  294TMC3     C 4433   3.187   4.185  12.736 -0.2816  0.2949 -0.3220
  294TMC3     O 4434   3.211   4.151  12.852  0.0606  0.3158  0.1297
  294TMC3     H 4435   3.082   3.976  12.824 -0.9508  0.7955  0.3583
  294TMC3    H1 4436   3.090   4.234  12.488 -0.7165  1.2010  2.2977
  294TMC3    H2 4437   2.938   3.828  12.453 -0.6208  1.1307 -0.9913
  294TMC3    C7 4438   2.990   4.029  12.309 -0.0321 -0.3323 -0.3630
  294TMC3    C8 4439   2.976   3.762  12.714 -0.3037 -0.1099 -0.2784
  294TMC3    O1 4440   2.916   3.944  12.262 -0.2993 -0.3103 -0.1413
  294TMC3    O2 4441   2.969   3.754  12.829 -0.2383  0.1828 -0.4764
  295MPD2     C 4442   3.550   2.605   0.874 -0.4561 -0.0304 -0.3027
  295MPD2    C1 4443   3.642   2.578   0.772  0.9932 -0.4366 -0.0070
  295MPD2    C2 4444   3.751   2.491   0.795 -0.4125  0.3571 -0.0172
  295MPD2    C3 4445   3.757   2.423   0.916  0.8022 -0.2747 -0.5579
  295MPD2    C4 4446   3.663   2.452   1.017  0.7852  0.5081  0.2430
  295MPD2    C5 4447   3.554   2.535   0.992  0.7019  1.2006  0.5932
  295MPD2     H 4448   3.828   2.488   0.718 -1.0217 -0.1838 -0.6049
  295MPD2    H1 4449   3.658   2.394   1.108 -0.6077  0.5529  0.1849
  295MPD2    H2 4450   3.470   2.670   0.841 -0.3687  0.9202  1.3828
  295MPD2    H3 4451   3.477   2.528   1.068  0.1959 -1.9580 -0.1986
  295MPD2     N 4452   3.862   2.336   0.954 -0.4755 -1.1873 -0.0382
  295MPD2    H5 4453   3.860   2.303   1.050  0.7917 -2.0574 -0.3065
  295MPD2    N1 4454   3.646   2.653   0.652 -0.5578 -0.0089 -0.1945
  295MPD2    H7 4455   3.705   2.605   0.584  2.0786  1.6971  0.9209
  296TMC3    C1 4456   4.066   2.229   0.949 -0.3933  0.5295  0.7202
  296TMC3    C2 4457   4.100   2.274   1.068  0.2455 -0.1643  0.1882
  296TMC3    C3 4458   4.188   2.195   1.132 -0.2651  0.4566 -0.3634
  296TMC3    C4 4459   4.137   2.124   0.890  0.5387 -0.6289 -0.0985
  296TMC3    C5 4460   4.231   2.053   0.955  0.2312 -0.7739 -0.1325
  296TMC3    C6 4461   4.253   2.090   1.076 -0.3827  0.6752 -0.8701
  296TMC3     C 4462   3.967   2.296   0.872 -0.8135  0.2764  0.4051
  296TMC3     O 4463   3.980   2.298   0.752 -0.1761 -0.3984 -0.4540
  296TMC3     H 4464   4.053   2.361   1.110  0.5894  0.5379 -0.8683
  296TMC3    H1 4465   4.116   2.079   0.794  0.3202  1.0863 -0.8447
  296TMC3    H2 4466   4.332   2.035   1.127 -0.8858 -0.7438 -1.6057
  296TMC3    C7 4467   4.220   1.906   0.935 -0.5002 -0.6410 -0.0248
  296TMC3    C8 4468   4.195   2.197   1.275  0.7135  0.3585 -0.3602
  296TMC3    O1 4469   4.265   1.863   0.832 -0.5917  0.0838  0.0040
  296TMC3    O2 4470   4.277   2.121   1.319 -0.1284  0.0884  0.8469
  297MPD2     C 4471   0.880   0.588  17.009  0.2180  0.0303  0.8766
  297MPD2    C1 4472   0.886   0.597  16.867  0.0794  0.1493  0.4191
  297MPD2    C2 4473   0.964   0.690  16.807 -0.0325  0.7085 -0.1140
  297MPD2    C3 4474   1.024   0.791  16.878  0.7351 -0.3276 -0.0498
  297MPD2    C4 4475   1.015   0.785  17.018 -0.4132  0.6902 -0.3548
  297MPD2    C5 4476   0.949   0.682  17.087  0.2245 -0.4610  0.1661
  297MPD2     H 4477   0.957   0.696  16.699  1.8479 -0.3604 -0.2868
  297MPD2    H1 4478   1.077   0.848  17.081  2.7290  0.1959 -2.9432
  297MPD2    H2 4479   0.823   0.512  17.061 -1.7760 -0.5561 -2.2194
  297MPD2    H3 4480   0.939   0.689  17.194  0.5923 -0.9000  0.2298
  297MPD2     N 4481   1.117   0.882  16.814  0.1762  0.0348 -0.4740
  297MPD2    H5 4482   1.158   0.951  16.875 -2.7955  1.0792  0.3435
  297MPD2    N1 4483   0.807   0.514  16.782  0.1153 -0.0877  0.1177
  297MPD2    H7 4484   0.791   0.533  16.684 -0.0548  1.6272  0.4767
  298TMC3    C1 4485   0.634   0.352  16.733  0.2310 -0.3845 -0.7559
  298TMC3    C2 4486   0.610   0.217  16.725 -0.0387  0.7292 -1.0284
  298TMC3    C3 4487   0.492   0.171  16.670 -0.0032 -0.5811  0.0698
  298TMC3    C4 4488   0.550   0.441  16.679  0.3021 -0.1057  0.3033
  298TMC3    C5 4489   0.424   0.390  16.640 -0.6603  0.0353 -0.1984
  298TMC3    C6 4490   0.393   0.260  16.644  0.1617 -0.4682  0.3809
  298TMC3     C 4491   0.735   0.403  16.830  0.5469 -0.5925  0.0986
  298TMC3     O 4492   0.735   0.348  16.943  0.1141 -0.1879  0.1490
  298TMC3     H 4493   0.700   0.159  16.743 -2.4749 -2.5786  0.4919
  298TMC3    H1 4494   0.580   0.545  16.673  0.2153 -0.1838 -1.3947
  298TMC3    H2 4495   0.300   0.215  16.612  0.3673 -1.1821  0.7853
  298TMC3    C7 4496   0.320   0.489  16.648 -0.0560  0.2125 -0.7652
  298TMC3    C8 4497   0.481   0.043  16.603  0.1539 -0.3059  0.1872
  298TMC3    O1 4498   0.345   0.574  16.736 -0.3322 -0.1050 -0.3508
  298TMC3    O2 4499   0.373   0.012  16.554 -0.2980  0.0588  0.3422
  299MPD2     C 4500   2.165   3.976  10.796 -0.7526  0.0676  0.2219
  299MPD2    C1 4501   2.200   4.061  10.697  0.7322  0.0406 -0.5024
  299MPD2    C2 4502   2.203   4.007  10.564 -0.9278 -0.9716  0.4016
  299MPD2    C3 4503   2.165   3.881  10.538  0.2537  0.2538 -0.1637
  299MPD2    C4 4504   2.124   3.798  10.644 -0.0318 -0.0028 -0.1715
  299MPD2    C5 4505   2.132   3.845  10.769 -0.8856  0.1309  0.4533
  299MPD2     H 4506   2.224   4.066  10.475  0.3095  1.6528  2.4385
  299MPD2    H1 4507   2.076   3.701  10.632  2.4168 -1.1692 -0.5795
  299MPD2    H2 4508   2.159   4.014  10.897  1.0908 -0.3662  0.4787
  299MPD2    H3 4509   2.102   3.777  10.848  1.6437  0.5071  1.7170
  299MPD2     N 4510   2.140   3.832  10.403 -0.6240  0.4360 -0.4632
  299MPD2    H5 4511   2.104   3.738  10.392  3.3392 -1.2413  0.7205
  299MPD2    N1 4512   2.213   4.198  10.730 -0.1395  0.1174 -0.0190
  299MPD2    H7 4513   2.222   4.226  10.827  1.3220 -2.0722  0.4861
  300TMC3    C1 4514   2.027   3.946  10.228 -0.0671  0.0829 -0.0915
  300TMC3    C2 4515   2.029   4.040  10.131 -0.2706  0.2995  0.2680
  300TMC3    C3 4516   1.911   4.087  10.078 -0.4686 -0.1147 -0.0298
  300TMC3    C4 4517   1.906   3.899  10.280  0.2880  0.0653  0.2382
  300TMC3    C5 4518   1.791   3.946  10.224  0.8137 -0.2619  0.1681
  300TMC3    C6 4519   1.789   4.048  10.128  0.2676 -0.1408 -0.0515
  300TMC3     C 4520   2.155   3.914  10.294 -0.3792 -0.0928 -0.3087
  300TMC3     O 4521   2.260   3.971  10.257  0.6446 -0.4825  0.6001
  300TMC3     H 4522   2.121   4.077  10.088 -0.8016 -1.1021 -2.0519
  300TMC3    H1 4523   1.895   3.825  10.358  0.7082  1.4146  1.5762
  300TMC3    H2 4524   1.693   4.065  10.081  0.3246  1.1663  0.3072
  300TMC3    C7 4525   1.694   3.943  10.327  0.0809  0.4634 -0.3972
  300TMC3    C8 4526   1.922   4.206   9.992 -0.5668 -0.1600  1.0452
  300TMC3    O1 4527   1.686   3.837  10.385  1.2870 -0.6969 -0.4756
  300TMC3    O2 4528   2.034   4.244   9.957 -0.1761  0.3481 -0.0414
  301MPD2     C 4529   3.653   1.415   1.144 -0.1081  0.0744  0.1710
  301MPD2    C1 4530   3.516   1.402   1.162 -0.1381  0.3860  0.1819
  301MPD2    C2 4531   3.463   1.278   1.189 -0.2378  0.3116  0.6826
  301MPD2    C3 4532   3.542   1.171   1.236  0.5669 -1.0651  0.3070
  301MPD2    C4 4533   3.678   1.193   1.227 -0.2047  0.1574 -0.3914
  301MPD2    C5 4534   3.728   1.309   1.181 -0.2042  0.1889  1.1315
  301MPD2     H 4535   3.356   1.263   1.187 -0.3203  1.0744 -0.4570
  301MPD2    H1 4536   3.751   1.122   1.263 -1.8482 -2.8630 -3.0518
  301MPD2    H2 4537   3.704   1.508   1.122  1.5441 -0.9131 -0.1482
  301MPD2    H3 4538   3.835   1.327   1.183 -0.3385  1.4871 -2.9176
  301MPD2     N 4539   3.497   1.037   1.273 -0.1585  0.7652 -0.9008
  301MPD2    H5 4540   3.565   0.966   1.300  2.0857  3.4404  0.4341
  301MPD2    N1 4541   3.419   1.505   1.158  0.5133  0.3682  0.4052
  301MPD2    H7 4542   3.321   1.485   1.178  0.6791  0.9551  1.7702
  302TMC3    C1 4543   3.334   0.864   1.319 -0.2121  0.3135 -0.0322
  302TMC3    C2 4544   3.429   0.772   1.312  0.2279  0.7503  0.1876
  302TMC3    C3 4545   3.396   0.653   1.370  0.0306  0.0042  0.1655
  302TMC3    C4 4546   3.212   0.839   1.366 -0.7870 -0.2639  0.5239
  302TMC3    C5 4547   3.178   0.717   1.419  0.2789  0.1018 -0.4020
  302TMC3    C6 4548   3.277   0.618   1.424 -0.1689  0.1981  0.3457
  302TMC3     C 4549   3.365   1.003   1.273  0.3035 -0.2682 -0.4180
  302TMC3     O 4550   3.270   1.065   1.225  0.0043 -0.1683 -0.4600
  302TMC3     H 4551   3.520   0.790   1.257  1.5012  2.0616  2.7037
  302TMC3    H1 4552   3.142   0.922   1.356  0.8018  1.1872  1.3485
  302TMC3    H2 4553   3.249   0.519   1.458 -1.3229  0.2799 -0.3492
  302TMC3    C7 4554   3.062   0.704   1.504 -0.3260  0.4264 -0.0836
  302TMC3    C8 4555   3.507   0.565   1.379 -0.6710  0.0708 -0.7711
  302TMC3    O1 4556   3.059   0.622   1.598  0.3857 -0.3690 -0.6134
  302TMC3    O2 4557   3.606   0.583   1.306  0.0406 -0.1699 -0.2822
  303MPD2     C 4558   4.173   4.366   9.889 -0.6727  0.8631 -0.2710
  303MPD2    C1 4559   4.105   4.266   9.954 -0.0754  0.4452  0.4627
  303MPD2    C2 4560   4.022   4.177   9.880  0.5725  0.9230 -0.0244
  303MPD2    C3 4561   4.012   4.188   9.739  0.6270 -0.1429  0.2114
  303MPD2    C4 4562   4.088   4.286   9.677 -0.3421 -0.6299  0.1308
  303MPD2    C5 4563   4.169   4.374   9.755 -0.3301  0.3188 -0.4175
  303MPD2     H 4564   3.964   4.104   9.936  0.1969  1.6075  0.4794
  303MPD2    H1 4565   4.100   4.277   9.570  1.8891  0.0995  0.3153
  303MPD2    H2 4566   4.226   4.439   9.949  2.2199  0.2124 -2.0234
  303MPD2    H3 4567   4.238   4.447   9.715  0.4903  0.6041  1.5123
  303MPD2     N 4568   3.947   4.102   9.653  0.1057 -0.0922 -0.5047
  303MPD2    H5 4569   3.955   4.115   9.553 -1.4781 -1.2867 -0.7911
  303MPD2    N1 4570   4.124   4.255  10.092  0.5988  0.3549  0.4407
  303MPD2    H7 4571   4.200   4.309  10.132  0.5194 -0.0599  1.1659
  304TMC3    C1 4572   4.112   4.186  10.302 -0.8046 -0.4176 -0.1326
  304TMC3    C2 4573   4.030   4.226  10.404 -0.1568 -0.8399 -0.3204
  304TMC3    C3 4574   4.055   4.186  10.530  0.1208 -0.2936 -0.0097
  304TMC3    C4 4575   4.230   4.120  10.328 -0.3574  0.0789  0.0895
  304TMC3    C5 4576   4.255   4.076  10.456  0.1232 -0.1806 -0.0900
  304TMC3    C6 4577   4.168   4.112  10.554  0.4027 -1.0614 -1.0002
  304TMC3     C 4578   4.050   4.181  10.173 -0.5195 -0.3778  0.2077
  304TMC3     O 4579   3.939   4.142  10.156 -0.2401  0.6851 -0.4608
  304TMC3     H 4580   3.932   4.260  10.374 -1.1049 -1.3936  2.1488
  304TMC3    H1 4581   4.279   4.069  10.245  1.9319  1.5875  0.5169
  304TMC3    H2 4582   4.189   4.104  10.660 -0.8794 -0.8353 -0.7223
  304TMC3    C7 4583   4.300   3.938  10.456 -1.2545  0.1307  0.1347
  304TMC3    C8 4584   3.946   4.103  10.584  0.2207  0.2562  0.5136
  304TMC3    O1 4585   4.374   3.894  10.372  0.5937  0.3337  0.2362
  304TMC3    O2 4586   3.977   3.989  10.623 -0.0571 -0.0490 -0.6386
  305MPD2     C 4587   2.528   1.868  13.955  0.1848 -0.3819  0.0543
  305MPD2    C1 4588   2.634   1.784  13.984 -0.6834  0.5338  0.1872
  305MPD2    C2 4589   2.655   1.676  13.892 -0.4977 -0.3835 -0.1466
  305MPD2    C3 4590   2.586   1.662  13.771  0.0625 -0.3088 -0.2421
  305MPD2    C4 4591   2.481   1.754  13.748 -0.0510  0.2381 -0.1358
  305MPD2    C5 4592   2.453   1.852  13.841 -0.0711  1.1505 -1.0437
  305MPD2     H 4593   2.726   1.596  13.910 -1.3795 -1.1889 -0.2533
  305MPD2    H1 4594   2.424   1.766  13.656 -0.3417 -1.6592 -0.2048
  305MPD2    H2 4595   2.504   1.941  14.032  2.3306 -0.3833  0.7036
  305MPD2    H3 4596   2.357   1.901  13.837  0.2192  1.8365  0.4976
  305MPD2     N 4597   2.607   1.568  13.668  0.0787 -0.3720 -0.5348
  305MPD2    H5 4598   2.531   1.559  13.602 -0.7655 -0.8303  0.5125
  305MPD2    N1 4599   2.694   1.783  14.116 -0.6824  0.6518  0.0950
  305MPD2    H7 4600   2.658   1.861  14.170  3.4500  3.6705 -1.5780
  306TMC3    C1 4601   2.772   1.701  14.315  0.4974 -0.2794  0.3792
  306TMC3    C2 4602   2.879   1.639  14.386 -0.3484 -0.0017 -0.3334
  306TMC3    C3 4603   2.875   1.656  14.521  0.7270  0.3839  0.9230
  306TMC3    C4 4604   2.668   1.762  14.383 -0.1638 -0.0104  0.0574
  306TMC3    C5 4605   2.677   1.784  14.521  0.0148 -0.1512  0.6598
  306TMC3    C6 4606   2.785   1.737  14.591 -0.6440  0.5143 -0.1821
  306TMC3     C 4607   2.775   1.692  14.171  0.1564 -0.7407  0.8079
  306TMC3     O 4608   2.852   1.617  14.116 -0.0793 -0.2642 -0.8390
  306TMC3     H 4609   2.954   1.575  14.341  0.1768  0.4398 -0.0870
  306TMC3    H1 4610   2.574   1.781  14.333  1.3818  2.0879 -2.0623
  306TMC3    H2 4611   2.796   1.740  14.699  1.5163  1.1846 -0.4114
  306TMC3    C7 4612   2.589   1.888  14.571 -0.0082  0.9446 -0.5619
  306TMC3    C8 4613   2.934   1.543  14.596 -0.3238  0.6251  0.5302
  306TMC3    O1 4614   2.501   1.935  14.497  0.5001  0.1351 -0.3949
  306TMC3    O2 4615   3.045   1.502  14.562  0.0617 -0.5053  0.3680
  307MPD2     C 4616   0.106   4.125   0.938  1.0012  0.8329 -0.2676
  307MPD2    C1 4617   0.045   4.188   0.833  0.4165 -0.4370 -0.3647
  307MPD2    C2 4618   4.714   4.315   0.842 -0.1214  0.1470  0.7686
  307MPD2    C3 4619   0.006   4.379   0.969  0.3899 -0.1307  0.5542
  307MPD2    C4 4620   0.059   4.314   1.073 -0.0481 -0.3086  0.5534
  307MPD2    C5 4621   0.119   4.197   1.061 -0.9081 -0.1267  0.0280
  307MPD2     H 4622   4.670   4.369   0.759 -0.3367  0.0867  0.8438
  307MPD2    H1 4623   0.068   4.355   1.173 -1.7491  0.3910  0.4220
  307MPD2    H2 4624   0.157   4.029   0.932  0.5563  0.4928  1.3423
  307MPD2    H3 4625   0.170   4.150   1.145 -0.6931 -0.7708 -0.4636
  307MPD2     N 4626   4.679   4.509   0.990 -0.6803 -0.7024 -0.5447
  307MPD2    H5 4627   4.644   4.554   0.906  0.1209 -0.1500 -0.5853
  307MPD2    N1 4628   0.043   4.127   0.702  0.0343 -0.0429 -0.0805
  307MPD2    H7 4629   0.015   4.192   0.629 -2.5422 -1.6916 -0.5361
  308TMC3    C1 4630   4.406   0.100   1.145  0.1406 -0.7848  0.6672
  308TMC3    C2 4631   4.415   0.178   1.034 -0.1006 -0.2085 -0.3080
  308TMC3    C3 4632   4.513   0.156   0.948 -0.5839 -0.0060 -0.0437
  308TMC3    C4 4633   4.491   0.004   1.178  0.8130 -0.2258 -0.0964
  308TMC3    C5 4634   4.588   4.700   1.084  0.6336 -0.3794  0.3339
  308TMC3    C6 4635   4.601   0.060   0.975  0.0482  0.0944 -0.1870
  308TMC3     C 4636   4.290   0.109   1.242 -0.1164 -0.5555  0.4653
  308TMC3     O 4637   4.308   0.099   1.363 -0.2286  0.2425 -0.4665
  308TMC3     H 4638   4.345   0.259   1.014 -0.9048 -0.5104  1.2550
  308TMC3    H1 4639   4.467   4.654   1.255  0.8100 -0.6482 -0.4855
  308TMC3    H2 4640   4.695   0.049   0.923 -1.2181  1.4280 -2.7684
  308TMC3    C7 4641   4.672   4.589   1.107  0.3528 -0.1650 -0.6715
  308TMC3    C8 4642   4.559   0.277   0.894  0.4453  0.0796 -0.6631
  308TMC3    O1 4643   4.694   4.565   1.225  0.8001  0.1235  0.2676
  308TMC3    O2 4644   4.545   0.381   0.953  0.2641  0.3044  0.0150
  309MPD2     C 4645   3.804   0.569  17.518  1.1159 -0.6265  0.1003
  309MPD2    C1 4646   3.768   0.481  17.416 -0.5194 -0.1972  0.2949
  309MPD2    C2 4647   3.645   0.414  17.418 -0.1329  0.4631  0.8098
  309MPD2    C3 4648   3.565   0.434  17.529  1.0968 -0.1474 -0.1908
  309MPD2    C4 4649   3.593   0.533  17.623 -0.4447 -1.3369 -0.1650
  309MPD2    C5 4650   3.710   0.596  17.612 -0.2968 -0.3330  0.5022
  309MPD2     H 4651   3.624   0.347  17.336 -0.0272  0.5736  0.6945
  309MPD2    H1 4652   3.530   0.556   0.020 -1.0434 -1.1070 -0.6699
  309MPD2    H2 4653   3.903   0.614  17.515 -0.1724  2.1332 -1.6253
  309MPD2    H3 4654   3.730   0.669   0.001  1.2585  2.0854 -2.2174
  309MPD2     N 4655   3.438   0.368  17.551  0.1003  0.1130  0.6265
  309MPD2    H5 4656   3.388   0.396  17.634  1.2125 -2.7555  2.2660
  309MPD2    N1 4657   3.840   0.450  17.299 -0.5062 -0.2360  0.9841
  309MPD2    H7 4658   3.811   0.372  17.241  0.9416  0.2009 -0.3510
  310TMC3    C1 4659   4.011   0.461  17.146 -0.1808  0.1827 -0.7102
  310TMC3    C2 4660   3.924   0.463  17.048  0.0060  0.5705 -0.7904
  310TMC3    C3 4661   3.959   0.400  16.929 -0.1865 -0.2341  0.6154
  310TMC3    C4 4662   4.128   0.398  17.137  0.3737 -0.2490 -0.8008
  310TMC3    C5 4663   4.159   0.337  17.020 -0.3398  0.3607 -0.3141
  310TMC3    C6 4664   4.079   0.339  16.918  0.2398  0.0697 -0.5967
  310TMC3     C 4665   3.957   0.505  17.265 -0.0568 -0.0163 -0.2278
  310TMC3     O 4666   4.019   0.599  17.324 -0.5280  0.5713  0.1499
  310TMC3     H 4667   3.837   0.527  17.059 -1.0632 -1.0821  0.4191
  310TMC3    H1 4668   4.202   0.407  17.216 -1.5573  1.4893  0.8267
  310TMC3    H2 4669   4.106   0.287  16.826 -0.7426 -0.0685 -0.8005
  310TMC3    C7 4670   4.278   0.252  17.000  0.7116  0.0619 -1.0451
  310TMC3    C8 4671   3.874   0.410  16.811 -0.5186  0.7868  0.1838
  310TMC3    O1 4672   4.300   0.207  16.887 -0.3308 -0.3274  0.9512
  310TMC3    O2 4673   3.750   0.398  16.834 -0.1950 -0.1734  0.3757
  311MPD2     C 4674   1.584   1.050  12.958 -0.6278  0.1687  0.4321
  311MPD2    C1 4675   1.579   1.157  13.042  0.9247 -0.1581  0.6502
  311MPD2    C2 4676   1.456   1.188  13.099 -0.2738 -0.7626 -0.1526
  311MPD2    C3 4677   1.342   1.120  13.069  0.8153  0.8617  0.2221
  311MPD2    C4 4678   1.344   1.019  12.981 -0.5857  0.1200 -0.1258
  311MPD2    C5 4679   1.467   0.981  12.937 -0.6718  0.9633 -0.0263
  311MPD2     H 4680   1.453   1.279  13.158 -0.9840  1.2017 -3.2538
  311MPD2    H1 4681   1.258   0.964  12.944 -0.0208 -1.4058  0.8386
  311MPD2    H2 4682   1.673   1.014  12.908  1.9848  4.5765  1.8320
  311MPD2    H3 4683   1.486   0.904  12.863  0.0914  0.7291  0.4047
  311MPD2     N 4684   1.224   1.162  13.126 -0.0755 -0.3335 -0.0429
  311MPD2    H5 4685   1.223   1.234  13.198  1.1773  0.1136 -0.4645
  311MPD2    N1 4686   1.693   1.238  13.068  0.6294 -0.3084  0.0681
  311MPD2    H7 4687   1.689   1.315  13.134 -1.8626  1.7787 -2.5065
  312TMC3    C1 4688   0.989   1.209  13.153 -0.2945  0.1065  0.3744
  312TMC3    C2 4689   0.869   1.218  13.085 -0.6007 -0.0612  0.2593
  312TMC3    C3 4690   0.748   1.200  13.151  0.1546  0.3698 -0.3767
  312TMC3    C4 4691   0.995   1.188  13.289  0.2350  0.5090  0.5111
  312TMC3    C5 4692   0.871   1.160  13.344 -0.0702 -0.2104  0.4648
  312TMC3    C6 4693   0.752   1.179  13.284 -0.0421 -0.3708 -0.0753
  312TMC3     C 4694   1.095   1.143  13.073  0.7027  0.6372  0.3738
  312TMC3     O 4695   1.065   1.077  12.972  0.0406 -0.4668  0.2659
  312TMC3     H 4696   0.872   1.216  12.976 -0.5752  0.8314  0.2477
  312TMC3    H1 4697   1.077   1.147  13.346 -0.7525  0.3043  1.7874
  312TMC3    H2 4698   0.655   1.163  13.329 -0.6514 -1.2989 -1.7173
  312TMC3    C7 4699   0.873   1.070  13.457 -0.5003 -0.2762 -0.3094
  312TMC3    C8 4700   0.632   1.154  13.071  0.8529 -0.0093  0.7194
  312TMC3    O1 4701   0.815   0.963  13.443  0.1631  0.1526  0.4697
  312TMC3    O2 4702   0.537   1.101  13.129 -0.1288  0.7384  0.0201
  313MPD2     C 4703   1.642   0.347   9.565  0.0991 -0.3461 -0.1755
  313MPD2    C1 4704   1.633   0.262   9.674  0.4039 -0.2351 -0.1373
  313MPD2    C2 4705   1.556   0.147   9.661  0.1984  0.1886 -0.0500
  313MPD2    C3 4706   1.470   0.131   9.549  0.5611 -0.8886 -1.0052
  313MPD2    C4 4707   1.481   0.221   9.444 -0.1560  0.1331  0.3296
  313MPD2    C5 4708   1.572   0.323   9.453 -0.1160 -0.5641 -0.8241
  313MPD2     H 4709   1.544   0.078   9.744  1.3669 -0.7934 -0.6993
  313MPD2    H1 4710   1.423   0.213   9.353  1.3187 -1.1831 -0.4879
  313MPD2    H2 4711   1.699   0.439   9.577  0.4626 -0.4410 -1.2096
  313MPD2    H3 4712   1.566   0.396   9.373 -1.2495 -1.2107 -1.3275
  313MPD2     N 4713   1.366   0.029   9.555  0.4671 -0.0552  0.0352
  313MPD2    H5 4714   1.362   4.701   9.643  1.0053 -1.7372 -0.8837
  313MPD2    N1 4715   1.693   0.288   9.799  0.6668  0.1311  0.4921
  313MPD2    H7 4716   1.681   0.217   9.870  2.4479 -0.6852 -0.0187
  314TMC3    C1 4717   1.735   0.434   9.978  0.2231  0.0461  0.3262
  314TMC3    C2 4718   1.794   0.554  10.006  0.4666 -0.0359  0.5563
  314TMC3    C3 4719   1.720   0.654  10.065 -0.3993 -0.3756  0.6698
  314TMC3    C4 4720   1.594   0.416   9.994  0.1287  0.1672  0.8828
  314TMC3    C5 4721   1.526   0.519  10.059 -0.4325  0.0672  0.2573
  314TMC3    C6 4722   1.589   0.635  10.100  0.0610 -0.1804  0.2603
  314TMC3     C 4723   1.754   0.404   9.840 -0.2597 -0.2844  0.5269
  314TMC3     O 4724   1.784   0.498   9.770  0.3895 -0.7344  0.4909
  314TMC3     H 4725   1.899   0.576   9.995  0.2223  0.1415 -1.4767
  314TMC3    H1 4726   1.539   0.324   9.977  0.4549  0.1511 -0.0790
  314TMC3    H2 4727   1.532   0.716  10.143 -0.7878 -0.6422 -0.0079
  314TMC3    C7 4728   1.405   0.548   9.988 -0.1449 -0.2542 -0.6128
  314TMC3    C8 4729   1.785   0.769  10.129 -0.0964 -0.2734 -0.2991
  314TMC3    O1 4730   1.382   0.475   9.889 -0.5073 -0.5113  0.3597
  314TMC3    O2 4731   1.727   0.813  10.230 -0.1507 -0.0811 -0.0900
  315MPD2     C 4732   0.267   4.568  17.570  0.1577 -0.0953  0.1594
  315MPD2    C1 4733   0.273   4.587   0.016  0.4513 -0.7354  0.3491
  315MPD2    C2 4734   0.248   4.710   0.070  0.2245 -0.3776  0.7639
  315MPD2    C3 4735   0.247   0.103  17.673 -0.4162  0.5740  0.6599
  315MPD2    C4 4736   0.232   0.078  17.539 -0.1680 -0.0866  0.3673
  315MPD2    C5 4737   0.249   4.676  17.491  0.3726  0.2179 -0.0967
  315MPD2     H 4738   0.248   0.008   0.177 -1.5675  0.0039  0.6894
  315MPD2    H1 4739   0.225   0.160  17.468 -0.7410  0.9577  1.6351
  315MPD2    H2 4740   0.269   4.472  17.520  3.8884 -1.6822  3.3525
  315MPD2    H3 4741   0.235   4.658  17.385  0.3685 -1.6597  0.2288
  315MPD2     N 4742   0.241   0.229   0.045  0.1721 -0.1241  0.2331
  315MPD2    H5 4743   0.242   0.223   0.147 -0.4975  2.6177  0.4011
  315MPD2    N1 4744   0.288   4.474   0.102 -0.5474  0.5160  0.0791
  315MPD2    H7 4745   0.259   4.498   0.196 -1.5063 -1.8951  0.4126
  316TMC3    C1 4746   0.200   0.457   0.078  0.2021  0.8081 -0.4184
  316TMC3    C2 4747   0.211   0.430   0.216  0.4180  0.0872 -0.4967
  316TMC3    C3 4748   0.247   0.531   0.298 -0.1220 -0.4836 -0.9071
  316TMC3    C4 4749   0.209   0.585   0.026 -0.3724 -0.0699  0.0905
  316TMC3    C5 4750   0.238   0.681   0.116 -0.4081  0.4430  0.1789
  316TMC3    C6 4751   0.242   0.661   0.251 -0.3770 -0.0752 -0.2776
  316TMC3     C 4752   0.197   0.343  17.675 -0.8467 -0.7378 -0.1767
  316TMC3     O 4753   0.191   0.362  17.554  0.4041  0.1180 -0.0593
  316TMC3     H 4754   0.214   0.327   0.252 -0.5748 -0.2797 -1.4848
  316TMC3    H1 4755   0.207   0.599  17.606 -0.5313  1.8070  0.3499
  316TMC3    H2 4756   0.256   0.744   0.320  1.8363  0.2524 -1.1057
  316TMC3    C7 4757   0.256   0.822   0.072 -0.1247 -0.5485 -0.3432
  316TMC3    C8 4758   0.267   0.511   0.443  0.2870 -0.3488 -0.5724
  316TMC3    O1 4759   0.292   0.904   0.157 -0.1838 -0.0824  0.1885
  316TMC3    O2 4760   0.262   0.612   0.508  0.4713  0.2675  0.4399
  317MPD2     C 4761   2.380   2.753  11.989 -0.1107 -0.1388  0.0288
  317MPD2    C1 4762   2.504   2.730  11.961 -0.5978 -0.0925  0.4213
  317MPD2    C2 4763   2.594   2.727  12.069  0.4318  0.6814 -0.2958
  317MPD2    C3 4764   2.552   2.726  12.202  0.1650 -0.4311  0.4717
  317MPD2    C4 4765   2.416   2.722  12.230 -0.3307  0.6397 -0.2762
  317MPD2    C5 4766   2.338   2.738  12.118 -0.4168  0.6179  0.8662
  317MPD2     H 4767   2.699   2.709  12.051  0.8798  1.4904  1.4807
  317MPD2    H1 4768   2.367   2.728  12.326 -0.3950  0.2729 -0.2893
  317MPD2    H2 4769   2.308   2.739  11.909 -0.5086 -0.8454  0.5163
  317MPD2    H3 4770   2.230   2.744  12.130 -0.6275 -0.6372 -0.4779
  317MPD2     N 4771   2.650   2.718  12.303  0.1058 -0.1635  0.6946
  317MPD2    H5 4772   2.618   2.697  12.397  0.7430  0.3872  1.0337
  317MPD2    N1 4773   2.558   2.709  11.829  0.1149  0.5003  0.0608
  317MPD2    H7 4774   2.651   2.668  11.825  0.8774  2.0437  1.9197
  318TMC3    C1 4775   2.878   2.669  12.378 -0.5166 -0.1919  0.4063
  318TMC3    C2 4776   2.838   2.572  12.461  1.1148  0.1658  0.0304
  318TMC3    C3 4777   2.930   2.512  12.538 -0.1681  0.3423  0.5498
  318TMC3    C4 4778   3.007   2.714  12.378 -0.0487 -0.0272 -0.6209
  318TMC3    C5 4779   3.100   2.654  12.461  0.2341 -0.2271  0.6483
  318TMC3    C6 4780   3.059   2.561  12.543  0.7048 -0.1923 -0.4616
  318TMC3     C 4781   2.791   2.735  12.285  0.6132  0.5587 -0.6007
  318TMC3     O 4782   2.851   2.801  12.205 -0.0500  0.5454  0.2185
  318TMC3     H 4783   2.735   2.539  12.453  0.6071  1.4836  1.2812
  318TMC3    H1 4784   3.035   2.798  12.315 -2.5832  0.0423 -1.6606
  318TMC3    H2 4785   3.121   2.530  12.627 -0.6987 -1.0253  0.2596
  318TMC3    C7 4786   3.205   2.735  12.505  0.0497 -0.1297 -0.1071
  318TMC3    C8 4787   2.890   2.439  12.649  0.1944  0.7493 -0.9991
  318TMC3    O1 4788   3.187   2.857  12.509  0.2353  0.5714 -0.2878
  318TMC3    O2 4789   2.977   2.375  12.704 -0.0554 -0.6850 -0.9081
  319MPD2     C 4790   3.358   4.319  16.588 -0.4966  0.0861  0.2439
  319MPD2    C1 4791   3.275   4.328  16.700  0.7123 -0.4977 -0.0190
  319MPD2    C2 4792   3.141   4.308  16.686  0.1582  0.0326  0.2394
  319MPD2    C3 4793   3.086   4.291  16.557  0.5448 -0.3006 -0.5663
  319MPD2    C4 4794   3.170   4.282  16.445 -0.4353  0.5956  0.4782
  319MPD2    C5 4795   3.307   4.292  16.461 -0.0210  0.3053  0.4284
  319MPD2     H 4796   3.074   4.326  16.769  0.8329  4.1527 -0.1211
  319MPD2    H1 4797   3.128   4.266  16.346 -1.1318  1.0889  0.6924
  319MPD2    H2 4798   3.465   4.334  16.581 -0.8241  2.8439  1.3053
  319MPD2    H3 4799   3.370   4.303  16.373 -0.1256 -2.5840 -0.0287
  319MPD2     N 4800   2.949   4.310  16.531  1.2264 -0.0704 -0.0102
  319MPD2    H5 4801   2.919   4.319  16.435  2.4883  1.0465 -0.2967
  319MPD2    N1 4802   3.328   4.356  16.828  0.0981  0.5538 -0.2324
  319MPD2    H7 4803   3.263   4.356  16.906  0.3015 -0.0245 -0.0594
  320TMC3    C1 4804   2.719   4.286  16.577 -0.3253  0.0000  0.1740
  320TMC3    C2 4805   2.673   4.367  16.477 -0.1998  0.2168  0.2914
  320TMC3    C3 4806   2.551   4.345  16.417 -0.2792  0.0254 -0.8116
  320TMC3    C4 4807   2.638   4.191  16.635  0.6863 -0.0514 -0.1152
  320TMC3    C5 4808   2.519   4.177  16.574  0.6692  0.5843 -0.4494
  320TMC3    C6 4809   2.469   4.247  16.469 -0.3528 -0.3497 -0.2520
  320TMC3     C 4810   2.855   4.283  16.628  0.1403  0.3024 -0.0117
  320TMC3     O 4811   2.870   4.238  16.740  0.1364 -0.3949 -0.3015
  320TMC3     H 4812   2.740   4.437  16.429  0.0907  0.6910  1.3871
  320TMC3    H1 4813   2.662   4.132  16.723  0.7431  0.2996  0.1012
  320TMC3    H2 4814   2.366   4.230  16.441 -0.8952  0.1351  1.4948
  320TMC3    C7 4815   2.455   4.054  16.611  0.1787 -0.4598 -0.0942
  320TMC3    C8 4816   2.496   4.456  16.337 -0.0818  0.4642  0.9408
  320TMC3    O1 4817   2.339   4.047  16.578  0.3692  0.8892 -0.3088
  320TMC3    O2 4818   2.565   4.556  16.314  0.1431 -0.0344 -0.1703
  321TMC3    C1 4819   3.476   4.393  17.001  0.9135  0.2364 -0.6897
  321TMC3    C2 4820   3.386   4.329  17.090 -0.4706  1.0862  0.4742
  321TMC3    C3 4821   3.398   4.354  17.223  0.0088 -0.1848 -0.2938
  321TMC3    C4 4822   3.582   4.463  17.042  0.2834  0.2226  0.1822
  321TMC3    C5 4823   3.603   4.476  17.175 -0.8758  0.4402 -0.0964
  321TMC3    C6 4824   3.507   4.430  17.260  0.0981  0.3269  0.0044
  321TMC3     C 4825   3.457   4.381  16.857  0.5428  0.2410  0.3627
  321TMC3     O 4826   3.555   4.397  16.789 -0.3009  0.4251  0.4805
  321TMC3     H 4827   3.295   4.282  17.053  0.6822 -0.0216 -0.9446
  321TMC3    H1 4828   3.662   4.482  16.971  0.7563 -2.5919 -0.0408
  321TMC3    H2 4829   3.514   4.440  17.368  1.8093  1.6544 -0.2203
  321TMC3    C7 4830   3.733   4.444  17.231 -0.7168  0.7070  0.5016
  321TMC3    C8 4831   3.395   4.235  17.312  0.2066  0.0705  0.5791
  321TMC3    O1 4832   3.803   4.372  17.164  0.0319  0.0191  0.4854
  321TMC3    O2 4833   3.437   4.247  17.425  0.4344 -0.4648 -0.2327
  322MPD2     C 4834   2.061   0.779  14.056  0.0677 -0.2400  0.4966
  322MPD2    C1 4835   2.045   0.752  14.191 -0.3652  0.1858  0.1790
  322MPD2    C2 4836   1.999   0.629  14.226 -0.2898 -0.4397  0.0779
  322MPD2    C3 4837   1.953   0.537  14.133 -0.4853 -0.0615  0.0944
  322MPD2    C4 4838   1.958   0.577  13.995 -0.2340  0.7764  0.3469
  322MPD2    C5 4839   2.014   0.694  13.962 -0.2468  0.8543  0.8687
  322MPD2     H 4840   1.996   0.592  14.328 -1.3242 -0.5663 -0.0002
  322MPD2    H1 4841   1.916   0.519  13.913 -0.5876  0.1499  0.9703
  322MPD2    H2 4842   2.111   0.872  14.030 -1.3000  0.0375 -1.1674
  322MPD2    H3 4843   2.017   0.725  13.858 -1.8231 -1.9023 -0.0110
  322MPD2     N 4844   1.909   0.411  14.178 -0.1116 -0.5919 -0.0015
  322MPD2    H5 4845   1.910   0.402  14.279  1.8126 -1.2858 -0.0903
  322MPD2    N1 4846   2.080   0.855  14.287  0.3770 -0.3859  0.1893
  322MPD2    H7 4847   2.098   0.948  14.250 -1.1366 -0.0935  0.1804
  323TMC3    C1 4848   2.134   0.953  14.500  0.2869 -0.4767  0.1910
  323TMC3    C2 4849   2.220   1.043  14.432  0.1626  0.2859  0.5241
  323TMC3    C3 4850   2.294   1.135  14.508 -0.0001 -0.1641  0.7048
  323TMC3    C4 4851   2.132   0.950  14.637  0.1657 -0.0113  0.1570
  323TMC3    C5 4852   2.210   1.038  14.707  0.3058  0.2969 -0.0914
  323TMC3    C6 4853   2.288   1.136  14.649 -0.6205 -1.0146  0.0402
  323TMC3     C 4854   2.077   0.839  14.426 -0.0972  0.1710  0.1167
  323TMC3     O 4855   2.021   0.756  14.496 -0.2465  0.1623 -0.5017
  323TMC3     H 4856   2.261   1.021  14.334 -1.5302 -0.2652 -0.0606
  323TMC3    H1 4857   2.081   0.867  14.684  0.0545  0.0334  0.1151
  323TMC3    H2 4858   2.341   1.213  14.703  1.3584 -0.8794 -2.0823
  323TMC3    C7 4859   2.252   0.984  14.838 -0.4477 -0.1568 -1.5269
  323TMC3    C8 4860   2.409   1.199  14.455  0.1178 -0.4758 -0.7916
  323TMC3    O1 4861   2.244   0.864  14.851  0.1783 -0.1103 -0.5630
  323TMC3    O2 4862   2.499   1.248  14.527 -0.7967  0.4991 -0.1118
  324MPD2     C 4863   4.685   2.576  14.196 -0.2736 -0.1855  0.0754
  324MPD2    C1 4864   4.663   2.468  14.285  0.6794 -0.1426  0.3189
  324MPD2    C2 4865   4.545   2.391  14.272 -0.3358 -0.4907 -0.2903
  324MPD2    C3 4866   4.449   2.430  14.187  0.5927  0.0725 -0.2853
  324MPD2    C4 4867   4.472   2.538  14.106 -0.1484 -0.2810  0.0429
  324MPD2    C5 4868   4.583   2.618  14.116 -0.0384 -0.0752 -0.6856
  324MPD2     H 4869   4.520   2.305  14.334 -0.0163 -0.7811 -0.5603
  324MPD2    H1 4870   4.396   2.561  14.033 -0.4169 -1.9977 -0.2200
  324MPD2    H2 4871   0.054   2.635  14.197  1.3384 -2.7063  1.8484
  324MPD2    H3 4872   4.585   2.709  14.057  3.7669 -0.1874 -0.7729
  324MPD2     N 4873   4.311   2.382  14.169 -0.4350  0.0837  0.0595
  324MPD2    H5 4874   4.251   2.429  14.101 -1.0409 -0.5465  0.1579
  324MPD2    N1 4875   0.041   2.423  14.374 -0.3156 -0.0337  0.5590
  324MPD2    H7 4876   0.021   2.337  14.424  2.7607 -0.9541  0.2392
  325TMC3    C1 4877   4.109   2.293  14.230 -0.0996  0.1563  0.4682
  325TMC3    C2 4878   4.044   2.176  14.262  0.0738 -0.0682  0.0638
  325TMC3    C3 4879   3.907   2.170  14.275 -0.6339  0.3969 -0.1689
  325TMC3    C4 4880   4.044   2.413  14.241  0.0064 -0.0022  0.9126
  325TMC3    C5 4881   3.909   2.407  14.261 -0.3310  0.1983 -0.1893
  325TMC3    C6 4882   3.840   2.289  14.269 -0.4425  0.1923  0.2513
  325TMC3     C 4883   4.246   2.291  14.250 -0.6839  0.0465 -0.2119
  325TMC3     O 4884   4.301   2.194  14.308 -0.5610  0.5453 -0.8081
  325TMC3     H 4885   4.085   2.076  14.252  1.0919  0.4738 -1.2642
  325TMC3    H1 4886   4.095   2.505  14.216  0.6073 -0.1146  1.7215
  325TMC3    H2 4887   3.732   2.284  14.268 -0.3295 -2.2187 -2.0810
  325TMC3    C7 4888   3.841   2.508  14.179 -0.2831 -0.7010 -0.2210
  325TMC3    C8 4889   3.843   2.058  14.208  0.1649 -0.3806  0.2128
  325TMC3    O1 4890   3.894   2.544  14.073 -0.3434  0.7014  0.2692
  325TMC3    O2 4891   3.903   2.004  14.116  0.8296  0.2314  0.4491
  326MPD2     C 4892   0.265   3.202  11.120  0.1404  0.5194 -0.3283
  326MPD2    C1 4893   0.331   3.167  11.000  0.6367  0.5335  0.5978
  326MPD2    C2 4894   0.468   3.196  10.993  0.5142  0.1018  0.0764
  326MPD2    C3 4895   0.531   3.265  11.096 -0.0801  0.3654  0.6386
  326MPD2    C4 4896   0.459   3.299  11.208  0.5836 -0.2056 -0.1862
  326MPD2    C5 4897   0.329   3.258  11.227  0.5737  0.0178  0.2634
  326MPD2     H 4898   0.522   3.180  10.900  0.9353 -1.6925  0.6380
  326MPD2    H1 4899   0.508   3.344  11.293  0.0715 -1.6767  0.8864
  326MPD2    H2 4900   0.165   3.167  11.141  1.1923 -0.6714  2.6843
  326MPD2    H3 4901   0.281   3.280  11.322  0.4918  0.0176  0.2223
  326MPD2     N 4902   0.666   3.308  11.090  0.1009  0.0103  0.0583
  326MPD2    H5 4903   0.708   3.357  11.168  2.4538  1.2701 -1.9824
  326MPD2    N1 4904   0.268   3.084  10.898  0.2107 -0.4935  0.0585
  326MPD2    H7 4905   0.323   3.047  10.820  0.3902  1.3514 -0.6804
  327TMC3    C1 4906   0.113   2.975  10.769  0.4377  0.6281 -0.1611
  327TMC3    C2 4907   0.032   3.044  10.686  0.2296  1.1413 -0.1275
  327TMC3    C3 4908   0.040   3.005  10.554  0.1025 -0.7451  0.4355
  327TMC3    C4 4909   0.190   2.867  10.750 -0.3394  0.1166 -0.9645
  327TMC3    C5 4910   0.196   2.830  10.620  0.6903  0.7442 -0.2746
  327TMC3    C6 4911   0.113   2.889  10.523  0.3568 -0.4321  0.5609
  327TMC3     C 4912   0.138   3.041  10.896  0.3583 -0.7265 -0.0130
  327TMC3     O 4913   0.044   3.086  10.957  0.3573 -0.0426 -0.1900
  327TMC3     H 4914   4.705   3.137  10.712  0.0085  1.2311 -0.8535
  327TMC3    H1 4915   0.235   2.809  10.829 -1.2813  0.7996  0.0768
  327TMC3    H2 4916   0.128   2.852  10.422 -1.2960  1.6309 -0.4191
  327TMC3    C7 4917   0.278   2.715  10.573 -0.8339 -0.2608 -0.6197
  327TMC3    C8 4918   0.060   3.116  10.459 -0.5102  0.4617 -0.2474
  327TMC3    O1 4919   0.243   2.656  10.468  0.3791 -0.0924 -0.0221
  327TMC3    O2 4920   0.067   3.234  10.489  0.7200  0.0766  0.2126
  328MPD2     C 4921   2.617   2.636  17.304  0.1993  0.2423 -0.2394
  328MPD2    C1 4922   2.541   2.608  17.197  0.4310  0.2600  0.0694
  328MPD2    C2 4923   2.533   2.703  17.090  0.4637  0.1791  0.4306
  328MPD2    C3 4924   2.612   2.820  17.099 -0.1640 -0.2080  0.5465
  328MPD2    C4 4925   2.683   2.846  17.210  0.7532  0.2334 -0.0111
  328MPD2    C5 4926   2.684   2.756  17.311  0.7812 -0.0038  0.2994
  328MPD2     H 4927   2.457   2.695  17.013  0.8453 -0.2962  0.1041
  328MPD2    H1 4928   2.725   2.946  17.216 -1.0808  1.0395 -0.5764
  328MPD2    H2 4929   2.619   2.562  17.384 -0.1761  0.0188 -0.4383
  328MPD2    H3 4930   2.738   2.772  17.404 -0.1347  0.0015  0.8293
  328MPD2     N 4931   2.570   2.933  17.022 -0.0407  0.4959 -0.3168
  328MPD2    H5 4932   2.597   3.022  17.064 -1.1626  0.2146  1.0092
  328MPD2    N1 4933   2.463   2.489  17.200 -0.5685  0.4093 -0.5102
  328MPD2    H7 4934   2.460   2.438  17.288  0.8672  0.9271 -0.1568
  329TMC3    C1 4935   2.324   2.313  17.144  0.0306  0.5976  0.0539
  329TMC3    C2 4936   2.267   2.318  17.265 -0.7366 -0.3489 -0.3353
  329TMC3    C3 4937   2.196   2.210  17.302  0.4668 -0.1124 -0.8158
  329TMC3    C4 4938   2.314   2.217  17.057  0.2080 -0.5285  0.1672
  329TMC3    C5 4939   2.247   2.103  17.099 -0.2898 -0.8838 -0.1573
  329TMC3    C6 4940   2.183   2.103  17.213  0.1810 -0.0574  0.1482
  329TMC3     C 4941   2.387   2.438  17.102  0.6626 -0.1249 -0.4926
  329TMC3     O 4942   2.374   2.471  16.982 -0.4581  0.4667  0.4055
  329TMC3     H 4943   2.271   2.411  17.321 -0.2868 -0.9896  0.6652
  329TMC3    H1 4944   2.368   2.228  16.964 -0.2461  2.5141  0.2479
  329TMC3    H2 4945   2.123   2.021  17.251  0.4891 -0.0517  0.6470
  329TMC3    C7 4946   2.258   1.972  17.033 -0.0548 -0.4101  0.1767
  329TMC3    C8 4947   2.189   2.181  17.445 -0.0765  0.2274  0.8653
  329TMC3    O1 4948   2.187   1.883  17.076  0.2313  0.0037 -0.4823
  329TMC3    O2 4949   2.183   2.063  17.470 -0.5810  0.4488  0.0777
  330TMC3    C1 4950   1.298   1.557   9.378  0.3219 -0.3480 -0.0453
  330TMC3    C2 4951   1.273   1.476   9.268  0.2069 -0.3245  0.3127
  330TMC3    C3 4952   1.377   1.388   9.231 -0.3101  0.0341  0.6017
  330TMC3    C4 4953   1.414   1.563   9.449 -0.1668 -0.4719 -0.3974
  330TMC3    C5 4954   1.520   1.494   9.385 -0.1135  0.2890 -0.3192
  330TMC3    C6 4955   1.505   1.410   9.278  0.7345  0.3234 -0.3806
  330TMC3     C 4956   1.187   1.619   9.447 -0.2782 -0.3781 -0.1217
  330TMC3     O 4957   1.197   1.643   9.567  0.2227 -0.3703  0.5508
  330TMC3     H 4958   1.172   1.452   9.236 -0.2688 -0.7564  2.1327
  330TMC3    H1 4959   1.429   1.625   9.537  0.8975 -1.1986 -0.0784
  330TMC3    H2 4960   1.585   1.342   9.251 -1.3801 -1.8102 -1.1694
  330TMC3    C7 4961   1.658   1.502   9.437  0.0984 -0.0236 -0.0340
  330TMC3    C8 4962   1.346   1.285   9.133  0.0849 -0.1366 -0.5933
  330TMC3    O1 4963   1.664   1.551   9.551 -0.4363  0.1669  0.2095
  330TMC3    O2 4964   1.447   1.245   9.076 -0.2449  0.2184 -0.3634
  331MPD2     C 4965   3.480   1.548  12.533 -0.3807  0.0314 -0.5807
  331MPD2    C1 4966   3.612   1.547  12.486  0.6156  0.1501  0.4351
  331MPD2    C2 4967   3.672   1.425  12.465 -0.3015 -0.5383 -0.0790
  331MPD2    C3 4968   3.603   1.300  12.474 -1.5260  0.1821  0.1083
  331MPD2    C4 4969   3.482   1.312  12.538  0.3634 -0.4931 -0.4675
  331MPD2    C5 4970   3.421   1.429  12.569  0.2546 -0.0434  0.0011
  331MPD2     H 4971   3.775   1.422  12.433 -0.8974  4.0341 -2.4395
  331MPD2    H1 4972   3.426   1.224  12.566 -1.3397  0.9865  0.7991
  331MPD2    H2 4973   3.429   1.644  12.535 -1.0644 -0.3104 -1.2949
  331MPD2    H3 4974   3.319   1.428  12.606 -0.3629 -1.2194 -1.7285
  331MPD2     N 4975   3.664   1.180  12.433 -0.4983  0.0652 -0.6958
  331MPD2    H5 4976   3.756   1.200  12.393 -0.3316 -3.1008 -1.8917
  331MPD2    N1 4977   3.672   1.664  12.450 -0.7358 -0.1966  0.5154
  331MPD2    H7 4978   3.622   1.752  12.462 -0.9500 -0.4701  1.6073
  332TMC3    C1 4979   3.661   0.953  12.363  0.1725 -0.3379 -0.2924
  332TMC3    C2 4980   3.737   0.991  12.256  0.2980  0.3812 -0.2209
  332TMC3    C3 4981   3.862   0.931  12.233  0.2632  0.8656  0.4194
  332TMC3    C4 4982   3.712   0.853  12.444  0.5180  0.6428 -0.5424
  332TMC3    C5 4983   3.837   0.803  12.419  0.5197  0.1047 -0.1269
  332TMC3    C6 4984   3.920   0.839  12.321 -0.8699  0.0151 -0.1270
  332TMC3     C 4985   3.593   1.060  12.424  0.4051 -0.4452 -0.0308
  332TMC3     O 4986   3.473   1.045  12.447  0.2702  0.1374 -0.3496
  332TMC3     H 4987   3.699   1.076  12.201  0.0745  2.8042  3.6791
  332TMC3    H1 4988   3.655   0.830  12.534 -2.1299 -0.0572 -2.3914
  332TMC3    H2 4989   4.009   0.785  12.290 -0.2398  2.3368 -2.4395
  332TMC3    C7 4990   3.874   0.702  12.511 -0.1786  0.0337 -0.3958
  332TMC3    C8 4991   3.948   0.989  12.126  0.5187 -0.0431 -0.0740
  332TMC3    O1 4992   3.784   0.643  12.567  0.0231 -0.1918  0.1066
  332TMC3    O2 4993   4.064   1.013  12.145  0.6651 -0.3149 -0.0129
  333MPD2     C 4994   4.013   0.918  11.268  1.1129 -0.3825  0.1560
  333MPD2    C1 4995   4.062   0.809  11.205  0.7106  0.0541 -0.1221
  333MPD2    C2 4996   4.006   0.685  11.236  0.2163  0.2037  0.5161
  333MPD2    C3 4997   3.916   0.673  11.340 -0.3848  0.2316 -0.5318
  333MPD2    C4 4998   3.868   0.780  11.405 -0.4175  0.5372  0.1083
  333MPD2    C5 4999   3.902   0.902  11.347  0.0930  0.7450 -0.4241
  333MPD2     H 5000   4.050   0.601  11.183 -0.9268 -1.2503  1.8378
  333MPD2    H1 5001   3.784   0.779  11.474 -0.8977  0.7723 -0.4617
  333MPD2    H2 5002   4.056   1.012  11.232 -0.4274  0.6090  0.9303
  333MPD2    H3 5003   3.848   0.991  11.376 -2.1020 -0.1983 -1.5959
  333MPD2     N 5004   3.880   0.538  11.374  0.0067  0.1894  0.1886
  333MPD2    H5 5005   3.930   0.462  11.328  0.6418 -0.4973  2.0083
  333MPD2    N1 5006   4.177   0.837  11.124 -0.2070  0.2492  0.4668
  333MPD2    H7 5007   4.217   0.929  11.136  0.3404 -0.1279  1.4956
  334TMC3    C1 5008   4.335   0.816  10.953 -0.1465  0.3191  0.1284
  334TMC3    C2 5009   4.447   0.747  10.910  0.2063 -0.4092  0.2194
  334TMC3    C3 5010   4.561   0.821  10.875  0.4674 -0.0242 -0.0523
  334TMC3    C4 5011   4.328   0.951  10.929 -0.6717 -0.3695  0.3935
  334TMC3    C5 5012   4.439   1.020  10.886 -0.2306 -0.3886 -0.2270
  334TMC3    C6 5013   4.558   0.955  10.859 -0.0332 -0.5355 -0.3033
  334TMC3     C 5014   4.235   0.754  11.030 -0.3022  0.1568  1.0161
  334TMC3     O 5015   4.189   0.644  10.998  0.4058  0.5861  0.3931
  334TMC3     H 5016   4.458   0.641  10.932  1.2339 -0.2244  0.5989
  334TMC3    H1 5017   4.239   1.007  10.954 -1.6733 -1.4010 -0.8686
  334TMC3    H2 5018   4.635   1.018  10.818  0.9304 -1.5696 -0.0718
  334TMC3    C7 5019   4.440   1.163  10.882 -0.0029 -0.0540 -0.0734
  334TMC3    C8 5020   4.685   0.755  10.888 -1.0781  0.4028  0.2044
  334TMC3    O1 5021   4.551   1.218  10.878 -0.0759  0.4181 -0.5088
  334TMC3    O2 5022   4.687   0.634  10.907  0.4815  1.1597  0.8367
  335TMC3    C1 5023   3.205   3.066  17.284 -1.1187 -0.1979  0.4106
  335TMC3    C2 5024   3.133   2.956  17.244 -0.0217 -0.7568  0.2860
  335TMC3    C3 5025   3.205   2.860  17.176  0.2102  0.1095 -0.0444
  335TMC3    C4 5026   3.337   3.077  17.261  0.7059 -0.4900 -0.6753
  335TMC3    C5 5027   3.402   2.983  17.188 -0.3701 -0.0775 -0.3369
  335TMC3    C6 5028   3.334   2.868  17.141 -0.1233 -0.1453 -0.2284
  335TMC3     C 5029   3.127   3.185  17.283  0.2592 -0.3440  0.2313
  335TMC3     O 5030   3.034   3.197  17.203 -0.1231  0.4263  0.1815
  335TMC3     H 5031   3.028   2.960  17.269 -0.2061  0.7185 -0.7605
  335TMC3    H1 5032   3.389   3.162  17.304  0.1493  0.4075 -1.7762
  335TMC3    H2 5033   3.391   2.809  17.069  2.7523  1.9279  0.3181
  335TMC3    C7 5034   3.545   2.965  17.209 -0.2244 -0.2484 -0.4440
  335TMC3    C8 5035   3.136   2.768  17.087 -0.5355  0.6930 -0.1368
  335TMC3    O1 5036   3.602   2.883  17.135 -0.3379 -0.0360 -0.4558
  335TMC3    O2 5037   3.173   2.776  16.970 -0.2687 -0.5763 -0.4145
  336MPD2     C 5038   2.490   0.763  16.579  0.1197 -0.0457 -0.2966
  336MPD2    C1 5039   2.593   0.713  16.500 -0.3640 -0.0989 -0.7479
  336MPD2    C2 5040   2.656   0.592  16.529 -0.4135  0.3901 -0.1238
  336MPD2    C3 5041   2.616   0.522  16.643 -0.4222  1.2827  0.6842
  336MPD2    C4 5042   2.515   0.571  16.728 -0.6121 -0.3070 -0.2852
  336MPD2    C5 5043   2.453   0.691  16.694  0.1985  0.0999 -0.0296
  336MPD2     H 5044   2.734   0.560  16.462 -1.9360 -0.2783 -1.5774
  336MPD2    H1 5045   2.489   0.510  16.814  0.4062 -0.4308 -0.0574
  336MPD2    H2 5046   2.450   0.863  16.567 -2.0269 -0.6290  1.9013
  336MPD2    H3 5047   2.370   0.724  16.756 -0.8694 -2.0516 -0.3214
  336MPD2     N 5048   2.672   0.394  16.676  0.0864 -0.4883 -0.4252
  336MPD2    H5 5049   2.635   0.362  16.765  0.5325 -1.8843 -0.7502
  336MPD2    N1 5050   2.640   0.787  16.387  0.4180  0.4133 -0.0072
  336MPD2    H7 5051   2.731   0.770  16.346  0.2319 -1.2276  0.2772
  337TMC3    C1 5052   2.647   0.957  16.228  0.4395 -0.0529  0.0027
  337TMC3    C2 5053   2.577   1.032  16.137  0.3610 -0.2560 -0.6829
  337TMC3    C3 5054   2.626   1.151  16.103 -0.2270  0.1610  0.5508
  337TMC3    C4 5055   2.774   0.994  16.263 -0.3809  0.4043 -0.1612
  337TMC3    C5 5056   2.822   1.108  16.205 -0.0562  0.3094 -0.0361
  337TMC3    C6 5057   2.748   1.196  16.147 -0.3203  0.2878  0.2000
  337TMC3     C 5058   2.566   0.889  16.323  0.2078  0.3910  0.2952
  337TMC3     O 5059   2.450   0.933  16.332 -0.3512  0.1306  0.1665
  337TMC3     H 5060   2.476   1.005  16.110  0.1045 -0.5862  0.5991
  337TMC3    H1 5061   2.836   0.919  16.310 -0.7912 -1.2306 -2.2254
  337TMC3    H2 5062   2.787   1.294  16.124 -1.5858  0.5130 -1.0267
  337TMC3    C7 5063   2.957   1.147  16.247  0.0932 -0.7366 -0.6778
  337TMC3    C8 5064   2.526   1.253  16.098  0.3324  0.4881 -1.0054
  337TMC3    O1 5065   2.993   1.102  16.354 -0.3418  0.2028  0.1669
  337TMC3    O2 5066   2.551   1.359  16.158 -0.1643  0.0544  0.2509
  338MPD2     C 5067   3.026   0.425   1.330  0.8312 -0.4352 -1.1087
  338MPD2    C1 5068   3.025   0.467   1.202 -0.0383  0.5759  0.0290
  338MPD2    C2 5069   2.912   0.514   1.143  0.0653  1.0692 -0.0688
  338MPD2    C3 5070   2.798   0.519   1.209 -0.1264 -0.6129 -0.0034
  338MPD2    C4 5071   2.799   0.486   1.343  0.5524  0.0169  0.0216
  338MPD2    C5 5072   2.910   0.435   1.401 -0.2714 -0.3936 -0.1964
  338MPD2     H 5073   2.911   0.532   1.036  0.4695 -0.2837 -0.2974
  338MPD2    H1 5074   2.711   0.489   1.405  1.3588 -1.2641  1.2166
  338MPD2    H2 5075   3.114   0.397   1.387  0.2855  0.3747  0.1381
  338MPD2    H3 5076   2.904   0.410   1.506 -0.5691 -1.2813 -0.4262
  338MPD2     N 5077   2.682   0.560   1.141 -0.3233  0.2735  0.5573
  338MPD2    H5 5078   2.698   0.582   1.044  0.9011  1.4254  1.0152
  338MPD2    N1 5079   3.133   0.446   1.109  0.1126 -0.1408 -0.5055
  338MPD2    H7 5080   3.109   0.467   1.012  0.1268  1.1299 -0.2336
  339TMC3    C1 5081   2.460   0.531   1.082  0.3825 -0.2241  0.7019
  339TMC3    C2 5082   2.392   0.410   1.079 -0.4673 -0.2355 -0.1784
  339TMC3    C3 5083   2.356   0.353   0.959 -0.3540  1.0381 -0.2733
  339TMC3    C4 5084   2.477   0.598   0.964  0.4296  0.1292  0.7432
  339TMC3    C5 5085   2.433   0.540   0.843 -0.9358 -0.2935  0.3904
  339TMC3    C6 5086   2.374   0.417   0.837 -0.3746  0.6413 -0.4736
  339TMC3     C 5087   2.552   0.543   1.191 -0.0795  0.4039 -0.3190
  339TMC3     O 5088   2.512   0.518   1.303  0.7546  0.5072  0.3900
  339TMC3     H 5089   2.395   0.356   1.173 -0.2539  0.9754  0.5178
  339TMC3    H1 5090   2.528   0.694   0.966  0.0981  0.3156  0.2819
  339TMC3    H2 5091   2.349   0.374   0.741  0.7975  1.3220 -1.0763
  339TMC3    C7 5092   2.504   0.594   0.731  0.3149  0.1409  0.1636
  339TMC3    C8 5093   2.287   0.227   0.948  0.1918 -0.3669 -0.0249
  339TMC3    O1 5094   2.590   0.673   0.760 -0.0629 -0.5437  0.5053
  339TMC3    O2 5095   2.295   0.166   0.840  0.7094 -0.6732 -0.2560
  340MPD2     C 5096   3.994   1.135  10.261  0.0735  0.0977 -0.2581
  340MPD2    C1 5097   3.985   1.263  10.197 -0.4572  0.3648  0.2523
  340MPD2    C2 5098   4.051   1.369  10.255  0.4468  0.5709  0.2643
  340MPD2    C3 5099   4.114   1.348  10.376  0.0209 -0.6744  0.2028
  340MPD2    C4 5100   4.130   1.224  10.437  0.7645 -0.2341  0.3949
  340MPD2    C5 5101   4.063   1.117  10.379  0.1405  0.6219 -0.3507
  340MPD2     H 5102   4.049   1.470  10.215  0.9795 -0.6731 -2.8682
  340MPD2    H1 5103   4.180   1.206  10.532 -0.9842 -3.6186  0.6942
  340MPD2    H2 5104   3.945   1.045  10.228  2.7819 -0.6214 -2.3223
  340MPD2    H3 5105   4.066   1.018  10.425 -0.0770  0.5881 -0.4087
  340MPD2     N 5106   4.186   1.451  10.445  0.1042  0.1565 -0.6743
  340MPD2    H5 5107   4.232   1.415  10.528  0.5167 -0.5181 -1.2060
  340MPD2    N1 5108   3.924   1.259  10.071  0.1593 -0.2544 -0.3728
  340MPD2    H7 5109   3.868   1.178  10.049 -0.9300  0.1187  1.0218
  341TMC3    C1 5110   3.866   1.329   9.856  0.1797  0.3477 -0.1654
  341TMC3    C2 5111   3.821   1.199   9.837  0.8075 -0.0495  0.2479
  341TMC3    C3 5112   3.797   1.165   9.712 -0.3867 -0.0851  0.2406
  341TMC3    C4 5113   3.888   1.409   9.753 -0.3410 -0.0880  0.9969
  341TMC3    C5 5114   3.845   1.376   9.624  0.7771 -0.9152  0.0602
  341TMC3    C6 5115   3.814   1.248   9.604  0.4520 -0.9457 -0.2550
  341TMC3     C 5116   3.922   1.365   9.985  1.1740 -0.3172 -0.1843
  341TMC3     O 5117   3.984   1.472   9.991 -0.2745 -0.0947  0.0559
  341TMC3     H 5118   3.800   1.125   9.913  1.7366  0.8430  1.3732
  341TMC3    H1 5119   3.931   1.507   9.771  2.9807 -1.3624  0.0247
  341TMC3    H2 5120   3.795   1.206   9.506 -1.5381 -1.1254  0.2028
  341TMC3    C7 5121   3.906   1.447   9.517 -0.4078  0.0927  0.3314
  341TMC3    C8 5122   3.733   1.031   9.688 -0.1182 -0.0197  0.0330
  341TMC3    O1 5123   4.017   1.494   9.540 -0.0099  0.4474  0.1047
  341TMC3    O2 5124   3.749   0.953   9.782 -0.5509  0.4000  0.3637
  342MPD2     C 5125   1.087   1.298   0.522 -0.0971  0.5557  0.0718
  342MPD2    C1 5126   1.189   1.301   0.433 -0.0871  0.3266 -1.0721
  342MPD2    C2 5127   1.214   1.409   0.346 -0.0976  1.0319 -0.2868
  342MPD2    C3 5128   1.126   1.519   0.349 -0.2890 -0.6244  0.1992
  342MPD2    C4 5129   1.017   1.505   0.432 -0.4304 -0.5978 -0.3655
  342MPD2    C5 5130   1.004   1.404   0.524 -0.5184 -0.4291 -0.0444
  342MPD2     H 5131   1.294   1.404   0.273 -0.2886 -0.6752 -0.3865
  342MPD2    H1 5132   0.942   1.584   0.438  0.9867  0.7974 -1.0551
  342MPD2    H2 5133   1.058   1.222   0.594  1.8513 -0.7877 -0.5491
  342MPD2    H3 5134   0.913   1.402   0.581  0.2745  3.4178  1.3114
  342MPD2     N 5135   1.146   1.632   0.261  0.3494 -0.0711  0.1177
  342MPD2    H5 5136   1.071   1.699   0.250 -0.4419 -0.8151  0.9373
  342MPD2    N1 5137   1.260   1.184   0.407  0.2198 -0.5313 -0.7487
  342MPD2    H7 5138   1.328   1.188   0.331  1.6177  0.5449  0.5365
  343TMC3    C1 5139   1.373   0.987   0.450  0.6170  0.7277 -0.6699
  343TMC3    C2 5140   1.486   1.042   0.396 -0.1631  0.3427 -0.2305
  343TMC3    C3 5141   1.574   0.962   0.327  0.0571 -0.2086 -0.3015
  343TMC3    C4 5142   1.356   0.850   0.440  0.2489 -0.2999 -0.1212
  343TMC3    C5 5143   1.456   0.775   0.385  0.0066  1.3323 -0.4082
  343TMC3    C6 5144   1.559   0.831   0.318  0.0153 -0.3741 -0.1979
  343TMC3     C 5145   1.255   1.067   0.481  0.3331 -0.4275 -0.0682
  343TMC3     O 5146   1.183   1.043   0.578 -0.3768  0.1838 -0.4626
  343TMC3     H 5147   1.494   1.150   0.404  1.7241  0.1951 -0.2137
  343TMC3    H1 5148   1.255   0.815   0.456 -0.9106  3.1656  0.2565
  343TMC3    H2 5149   1.634   0.761   0.282 -1.0083 -1.6817  0.2446
  343TMC3    C7 5150   1.417   0.635   0.355 -0.3585  0.3296  0.1870
  343TMC3    C8 5151   1.702   1.015   0.290 -0.3322 -0.0601 -0.0025
  343TMC3    O1 5152   1.442   0.595   0.244  0.0380  0.2122 -0.1684
  343TMC3    O2 5153   1.752   1.104   0.356 -0.2282  0.1850  0.8882
  344MPD2     C 5154   2.350   0.182  10.295 -0.4154  0.4301 -0.2323
  344MPD2    C1 5155   2.455   0.116  10.354 -0.2765 -0.3182 -0.1835
  344MPD2    C2 5156   2.586   0.146  10.317  0.0072 -0.1564 -0.0400
  344MPD2    C3 5157   2.614   0.239  10.219 -0.2903 -0.5558  0.1194
  344MPD2    C4 5158   2.514   0.294  10.148 -0.4199  0.1946 -0.0558
  344MPD2    C5 5159   2.385   0.272  10.195  0.4374 -0.2030 -0.0807
  344MPD2     H 5160   2.658   0.088  10.373 -2.4044 -0.7358  2.5034
  344MPD2    H1 5161   2.530   0.370  10.072  1.7557 -0.7259 -0.5320
  344MPD2    H2 5162   2.245   0.172  10.322 -0.8084  0.4493 -1.7463
  344MPD2    H3 5163   2.308   0.332  10.148  1.1080  0.0143 -0.8882
  344MPD2     N 5164   2.744   0.292  10.215  0.3881  0.4717 -0.5355
  344MPD2    H5 5165   2.757   0.369  10.151  0.7262  0.2045 -0.7885
  344MPD2    N1 5166   2.427   0.026  10.466 -0.1399  0.3833  0.1282
  344MPD2    H7 5167   2.505   4.690  10.495 -0.2852 -1.1402 -2.5640
  345TMC3    C1 5168   2.975   0.329  10.267 -0.5748  0.6935 -0.4203
  345TMC3    C2 5169   3.052   0.335  10.381  0.0721 -0.4423 -0.3427
  345TMC3    C3 5170   3.167   0.405  10.377  0.4891  0.2462 -0.1716
  345TMC3    C4 5171   3.009   0.389  10.144 -0.0925 -0.0147 -0.1283
  345TMC3    C5 5172   3.130   0.462  10.149 -0.2253  0.1129  0.0904
  345TMC3    C6 5173   3.212   0.462  10.266  0.3363  0.2523 -0.2872
  345TMC3     C 5174   2.854   0.246  10.288  0.2871  0.0141  0.1163
  345TMC3     O 5175   2.860   0.169  10.385 -0.3026 -0.2885 -0.3789
  345TMC3     H 5176   3.005   0.307  10.474  1.9915  3.5709  1.8444
  345TMC3    H1 5177   2.952   0.370  10.054  0.0026 -3.1500  0.4605
  345TMC3    H2 5178   3.306   0.516  10.272  0.1430  0.5602  0.0029
  345TMC3    C7 5179   3.123   0.590  10.096  0.3796 -0.4524 -0.5424
  345TMC3    C8 5180   3.172   0.491  10.498 -0.1656 -0.0980  0.2632
  345TMC3    O1 5181   3.178   0.680  10.163 -0.0695 -0.1464  0.3560
  345TMC3    O2 5182   3.146   0.429  10.601 -0.5044 -0.6683  0.3275
  346MPD2     C 5183   2.693   2.196  13.659  0.3055  0.2028 -0.0297
  346MPD2    C1 5184   2.771   2.306  13.631 -0.0769 -0.5541  0.5253
  346MPD2    C2 5185   2.788   2.395  13.734 -0.0009  0.3791  0.3409
  346MPD2    C3 5186   2.735   2.373  13.866 -0.1074 -0.3926 -0.4938
  346MPD2    C4 5187   2.656   2.264  13.885  0.2677 -0.1333  0.5218
  346MPD2    C5 5188   2.633   2.171  13.781  0.2956 -0.1893 -0.3876
  346MPD2     H 5189   2.847   2.483  13.709  2.3607 -1.0348  0.9991
  346MPD2    H1 5190   2.609   2.236  13.978 -1.2415 -1.4170 -0.6221
  346MPD2    H2 5191   2.683   2.123  13.579 -4.4212 -0.4233  1.1301
  346MPD2    H3 5192   2.567   2.086  13.797 -0.5475  0.1393 -2.1449
  346MPD2     N 5193   2.781   2.458  13.970  0.0902  0.1820  0.1758
  346MPD2    H5 5194   2.841   2.536  13.947  2.2798 -1.1344  1.4457
  346MPD2    N1 5195   2.832   2.333  13.506 -0.3107 -0.1624  0.1623
  346MPD2    H7 5196   2.885   2.419  13.494 -0.3499 -0.2164 -0.4068
  347TMC3    C1 5197   2.834   2.530  14.190  0.0773 -0.6454  0.6890
  347TMC3    C2 5198   2.969   2.551  14.173  0.2200  0.3710  0.2175
  347TMC3    C3 5199   3.039   2.613  14.270  0.0414 -0.2379  0.0821
  347TMC3    C4 5200   2.769   2.565  14.295  0.7640  0.3124  0.1312
  347TMC3    C5 5201   2.841   2.631  14.389 -0.1991 -0.1799 -0.3510
  347TMC3    C6 5202   2.977   2.663  14.381  0.1535  0.6545 -0.2487
  347TMC3     C 5203   2.770   2.428  14.104 -0.3014 -0.1301 -0.3960
  347TMC3     O 5204   2.697   2.346  14.157 -0.4525 -0.4302  0.2212
  347TMC3     H 5205   3.024   2.501  14.094 -2.1534 -2.9619  0.6770
  347TMC3    H1 5206   2.662   2.547  14.307  0.6623  0.6243 -0.2958
  347TMC3    H2 5207   3.039   2.706  14.459 -1.0159  1.4277  0.2693
  347TMC3    C7 5208   2.760   2.686  14.505 -0.1340 -0.5910 -0.7238
  347TMC3    C8 5209   3.183   2.594  14.267  0.0120  0.2678  0.1112
  347TMC3    O1 5210   2.830   2.721  14.596  0.4293 -0.3338  0.3777
  347TMC3    O2 5211   3.232   2.538  14.364  0.8470  0.6395  0.1294
  348MPD2     C 5212   1.457   1.666  12.050  0.1575  0.1554 -0.3336
  348MPD2    C1 5213   1.576   1.689  11.991 -0.3428 -0.6144 -0.5984
  348MPD2    C2 5214   1.580   1.708  11.855 -0.3191 -0.3909 -0.1777
  348MPD2    C3 5215   1.468   1.699  11.774 -0.0739  0.1511  0.1115
  348MPD2    C4 5216   1.345   1.685  11.838  1.0531 -0.3905 -0.4987
  348MPD2    C5 5217   1.343   1.663  11.975  0.2462  0.4674 -0.3341
  348MPD2     H 5218   1.678   1.728  11.812  1.2514 -0.9621  3.1146
  348MPD2    H1 5219   1.250   1.689  11.786  1.1707  1.6884 -0.5547
  348MPD2    H2 5220   1.455   1.660  12.158  1.5871  0.1537 -0.3101
  348MPD2    H3 5221   1.247   1.651  12.024  1.8974 -0.5458  2.6664
  348MPD2     N 5222   1.478   1.734  11.638 -0.1579 -0.1567 -0.6956
  348MPD2    H5 5223   1.570   1.756  11.601 -0.0544 -1.3885 -1.1874
  348MPD2    N1 5224   1.700   1.684  12.058  0.2416 -0.7421  0.9085
  348MPD2    H7 5225   1.781   1.706  12.002 -0.4803 -0.9298 -0.2130
  349TMC3    C1 5226   1.864   1.625  12.242 -0.6090 -0.5036 -0.6528
  349TMC3    C2 5227   1.876   1.586  12.377 -0.5031 -0.3419 -0.2570
  349TMC3    C3 5228   2.007   1.561  12.417 -0.0050 -0.2046  0.3983
  349TMC3    C4 5229   1.963   1.635  12.147 -0.2159  0.1464 -0.1816
  349TMC3    C5 5230   2.089   1.625  12.202 -0.4340 -0.0566  0.0744
  349TMC3    C6 5231   2.110   1.586  12.332  0.1208  0.1953 -0.0896
  349TMC3     C 5232   1.725   1.633  12.187 -1.1521  0.4882 -0.0626
  349TMC3     O 5233   1.642   1.576  12.262  0.2034  0.3686 -0.4304
  349TMC3     H 5234   1.790   1.552  12.435 -2.0304 -0.2415 -2.4488
  349TMC3    H1 5235   1.944   1.652  12.042  0.4004 -0.5800 -0.4086
  349TMC3    H2 5236   2.211   1.572  12.368 -0.4060 -1.7789  0.5967
  349TMC3    C7 5237   2.183   1.544  12.117 -0.1223  0.1052 -0.0004
  349TMC3    C8 5238   2.010   1.445  12.502 -0.0080  0.2002  0.8899
  349TMC3    O1 5239   2.276   1.486  12.181  0.3792  0.1183 -0.6944
  349TMC3    O2 5240   1.925   1.440  12.592  0.9183  0.2023  0.0630
  350MPD2     C 5241   0.397   4.277   9.419 -0.0763  0.2940 -0.4376
  350MPD2    C1 5242   0.437   4.253   9.548 -0.0872  0.6038 -0.8120
  350MPD2    C2 5243   0.562   4.301   9.587  0.2349 -0.2178 -0.3664
  350MPD2    C3 5244   0.637   4.375   9.497 -0.1475 -0.3059 -0.4806
  350MPD2    C4 5245   0.591   4.405   9.372  0.0681 -0.3488 -0.1795
  350MPD2    C5 5246   0.466   4.362   9.333  0.7516 -0.1872  0.0543
  350MPD2     H 5247   0.600   4.288   9.688 -3.2346 -4.1471  0.4416
  350MPD2    H1 5248   0.646   4.471   9.306 -0.1711 -0.6951 -0.7261
  350MPD2    H2 5249   0.298   4.251   9.382 -0.9843  2.9178  0.1384
  350MPD2    H3 5250   0.435   4.387   9.232  0.0486  1.4031  0.6620
  350MPD2     N 5251   0.765   4.412   9.547 -0.9567 -0.3417  0.1951
  350MPD2    H5 5252   0.788   4.402   9.645 -0.2346 -1.2286 -0.0589
  350MPD2    N1 5253   0.359   4.190   9.649 -0.0427 -0.8894  0.1640
  350MPD2    H7 5254   0.400   4.186   9.742 -0.8511 -1.2609  0.5095
  351TMC3    C1 5255   0.202   4.055   9.754 -0.8799  0.0056  0.4911
  351TMC3    C2 5256   0.318   4.012   9.821  0.0875  0.1237 -0.7175
  351TMC3    C3 5257   0.297   3.969   9.945 -0.8304 -0.1347  0.2725
  351TMC3    C4 5258   0.074   4.057   9.801  0.8194 -0.3934 -0.0666
  351TMC3    C5 5259   0.067   4.017   9.927  0.8101  0.5885  0.2869
  351TMC3    C6 5260   0.173   3.957   9.991 -0.4289 -0.1960  0.7534
  351TMC3     C 5261   0.228   4.144   9.638 -0.4612  0.0792 -0.1542
  351TMC3     O 5262   0.145   4.146   9.546 -0.0546 -0.5172  0.1396
  351TMC3     H 5263   0.414   4.000   9.772  0.4342 -0.5645  0.1184
  351TMC3    H1 5264   4.720   4.116   9.750  1.6603  1.1971  0.5133
  351TMC3    H2 5265   0.150   3.920  10.090 -2.5097  3.0547  1.4796
  351TMC3    C7 5266   4.655   3.995   9.989  0.3653 -0.1542 -0.6129
  351TMC3    C8 5267   0.382   3.855   9.980  0.0767  0.1896 -0.6177
  351TMC3    O1 5268   4.645   3.997  10.112  0.7214 -0.0002  0.3853
  351TMC3    O2 5269   0.321   3.753  10.000  0.3601  0.0579  0.0285
  352MPD2     C 5270   3.381   2.363   0.584 -0.1514 -0.7998 -0.0029
  352MPD2    C1 5271   3.289   2.391   0.689  0.4896  0.5362 -0.5003
  352MPD2    C2 5272   3.278   2.292   0.789 -0.1311  0.7452 -0.0178
  352MPD2    C3 5273   3.351   2.173   0.785  0.2544  0.6060 -0.0860
  352MPD2    C4 5274   3.421   2.150   0.667  0.2715  0.2403 -0.0237
  352MPD2    C5 5275   3.445   2.248   0.575 -1.0124  0.3541  0.1737
  352MPD2     H 5276   3.200   2.309   0.862 -1.8866 -1.3166 -1.4171
  352MPD2    H1 5277   3.481   2.061   0.654  0.0007 -0.2035  1.8766
  352MPD2    H2 5278   3.412   2.434   0.509 -0.6468 -0.5294  0.0492
  352MPD2    H3 5279   3.521   2.233   0.499 -0.9566  0.3413  0.2315
  352MPD2     N 5280   3.334   2.065   0.867  0.1164  0.3225  0.1992
  352MPD2    H5 5281   3.376   1.980   0.832  1.1992 -0.2790  2.9746
  352MPD2    N1 5282   3.220   2.514   0.690 -0.5785 -0.2606  0.1767
  352MPD2    H7 5283   3.228   2.579   0.613  1.9418  0.2970  0.9250
  353TMC3    C1 5284   3.260   1.933   1.052 -0.1009  0.2615  0.3069
  353TMC3    C2 5285   3.365   1.839   1.061  0.6367 -0.0942  0.1070
  353TMC3    C3 5286   3.349   1.732   1.136  0.2002 -0.3832  0.1257
  353TMC3    C4 5287   3.151   1.924   1.128  0.0916 -0.3946  0.2423
  353TMC3    C5 5288   3.129   1.809   1.201 -0.1320 -0.5376  0.1467
  353TMC3    C6 5289   3.227   1.713   1.197  0.1356 -1.2554  0.0644
  353TMC3     C 5290   3.278   2.065   0.995 -0.1854  0.0719 -0.6089
  353TMC3     O 5291   3.211   2.157   1.044 -0.2713  0.1296 -0.1577
  353TMC3     H 5292   3.455   1.861   1.004  0.5703  0.4104  0.1929
  353TMC3    H1 5293   3.070   1.993   1.110 -1.5680 -2.4654 -0.2231
  353TMC3    H2 5294   3.219   1.631   1.268 -1.1752 -2.7573 -1.8141
  353TMC3    C7 5295   3.015   1.782   1.287 -0.3223 -0.2814  0.3302
  353TMC3    C8 5296   3.454   1.629   1.117 -0.9105 -0.1023 -0.1251
  353TMC3    O1 5297   3.016   1.674   1.342 -0.2944 -0.0836 -0.1827
  353TMC3    O2 5298   3.560   1.672   1.075  0.4469  0.0020  0.1580
  354TMC3    C1 5299   0.632   3.064  13.398 -0.7140 -0.1320 -0.1542
  354TMC3    C2 5300   0.540   3.138  13.329  0.8612 -0.0739  0.0112
  354TMC3    C3 5301   0.555   3.133  13.190  0.3817 -0.6088  0.2242
  354TMC3    C4 5302   0.743   3.013  13.339  0.0046  0.0164 -0.1587
  354TMC3    C5 5303   0.767   3.031  13.208 -0.4642 -0.3462 -0.2888
  354TMC3    C6 5304   0.663   3.083  13.127 -0.7204  0.2670 -0.4321
  354TMC3     C 5305   0.587   2.975  13.497  0.4977  0.1166  0.6033
  354TMC3     O 5306   0.585   2.857  13.468 -0.1635  0.2913  0.2825
  354TMC3     H 5307   0.448   3.167  13.378  0.8389 -2.6024  1.4393
  354TMC3    H1 5308   0.799   2.945  13.403 -0.4063  0.1812  0.3770
  354TMC3    H2 5309   0.674   3.103  13.021 -1.1373 -3.1965 -1.1440
  354TMC3    C7 5310   0.900   2.991  13.154  0.3383 -0.1561 -0.9493
  354TMC3    C8 5311   0.452   3.184  13.108 -0.2792 -0.2501 -0.0639
  354TMC3    O1 5312   0.972   2.926  13.226 -0.5831  0.2437 -0.5076
  354TMC3    O2 5313   0.449   3.144  12.993 -0.3119  0.1009 -0.0952
  355MPD2     C 5314   0.959   4.067  11.782  0.1697  0.5123  0.1270
  355MPD2    C1 5315   0.985   4.194  11.743  0.5260  0.5103  0.3308
  355MPD2    C2 5316   1.044   4.280  11.838 -1.3001 -0.2053 -0.5375
  355MPD2    C3 5317   1.084   4.229  11.961  0.1194 -0.5661 -0.8688
  355MPD2    C4 5318   1.067   4.100  11.993 -0.0780  0.0452  0.1422
  355MPD2    C5 5319   0.995   4.016  11.905  0.1101 -0.0026  0.7696
  355MPD2     H 5320   1.052   4.385  11.816 -0.6525 -0.8174 -3.1637
  355MPD2    H1 5321   1.115   4.062  12.082  2.4113  1.1290 -0.7395
  355MPD2    H2 5322   0.914   4.003  11.708  1.1421  0.9139 -0.8179
  355MPD2    H3 5323   0.969   3.919  11.946  0.4082 -0.1880  0.5239
  355MPD2     N 5324   1.158   4.322  12.045  0.3421  0.9386 -0.3637
  355MPD2    H5 5325   1.176   4.411  11.998  0.9385  1.0671  0.1096
  355MPD2    N1 5326   0.950   4.241  11.608  0.4133  0.4781  0.5078
  355MPD2    H7 5327   0.941   4.174  11.532  2.0287  1.7070 -0.7484
  356TMC3    C1 5328   1.283   4.432  12.198 -0.0275  0.2641 -0.1154
  356TMC3    C2 5329   1.336   4.482  12.086 -0.2655  0.0094  0.6657
  356TMC3    C3 5330   1.351   4.616  12.073  0.2832 -0.6128 -0.5232
  356TMC3    C4 5331   1.230   4.512  12.293 -0.0978  0.2244 -0.2884
  356TMC3    C5 5332   1.234   4.646  12.267  0.0879 -0.3346 -0.0580
  356TMC3    C6 5333   1.288   4.706  12.161 -0.0615 -0.0849  0.6194
  356TMC3     C 5334   1.221   4.305  12.165 -0.9655 -0.0050 -0.6968
  356TMC3     O 5335   1.196   4.221  12.246 -0.0523  0.3695  0.7885
  356TMC3     H 5336   1.397   4.417  12.024 -1.1524 -0.2175  0.0398
  356TMC3    H1 5337   1.186   4.478  12.386  2.5108 -0.0698  0.8384
  356TMC3    H2 5338   1.299   0.092  12.156  2.4103 -0.2878  1.5770
  356TMC3    C7 5339   1.239   0.001  12.384  0.3573 -0.4240  0.1181
  356TMC3    C8 5340   1.328   4.649  11.933  0.2403  0.0710 -0.0145
  356TMC3    O1 5341   1.162   4.687  12.470  0.1909  0.0190 -0.5708
  356TMC3    O2 5342   1.261   4.565  11.878 -0.1604  0.5252 -0.0052
  357MPD2     C 5343   4.591   3.947   1.105 -0.0069  0.2768 -0.2565
  357MPD2    C1 5344   4.530   3.828   1.114  0.5029 -0.2569  0.6445
  357MPD2    C2 5345   4.394   3.817   1.077 -0.0897  0.4845 -0.3137
  357MPD2    C3 5346   4.327   3.926   1.024  0.0813 -0.2023  0.2762
  357MPD2    C4 5347   4.390   4.048   1.027 -0.2481 -0.4203 -0.0134
  357MPD2    C5 5348   4.520   4.062   1.057 -0.2153  0.1520 -0.3474
  357MPD2     H 5349   4.333   3.731   1.101 -0.7705  0.4711 -2.1558
  357MPD2    H1 5350   4.341   4.140   0.999 -0.9681 -0.7708  0.0923
  357MPD2    H2 5351   4.699   3.953   1.120 -0.3419 -1.8160  3.1175
  357MPD2    H3 5352   4.564   4.161   1.054  0.9344 -0.3494 -0.0325
  357MPD2     N 5353   4.197   3.913   0.971 -1.0283 -0.6522  0.7967
  357MPD2    H5 5354   4.164   4.004   0.939 -2.6537 -1.5999 -0.1784
  357MPD2    N1 5355   4.602   3.716   1.164  0.7785  0.5048  0.3685
  357MPD2    H7 5356   4.703   3.721   1.159  0.7481  0.9184  0.1233
  358TMC3    C1 5357   4.647   3.480   1.173  0.2253  0.0354  0.2282
  358TMC3    C2 5358   4.709   3.466   1.047 -0.4103 -0.4509  0.3669
  358TMC3    C3 5359   0.028   3.334   1.020 -0.1134 -0.0421  0.0390
  358TMC3    C4 5360   4.613   3.372   1.251 -0.1074 -0.1581 -0.1098
  358TMC3    C5 5361   4.652   3.246   1.215 -0.3970 -0.6196  0.3528
  358TMC3    C6 5362   4.718   3.225   1.099  0.5257  0.1603 -0.7948
  358TMC3     C 5363   4.553   3.590   1.186  0.7579  0.0119  0.4080
  358TMC3     O 5364   4.440   3.567   1.231  0.1008  0.0114  0.1896
  358TMC3     H 5365   0.015   3.547   0.980  0.5931 -1.6429 -0.6687
  358TMC3    H1 5366   4.580   3.390   1.353  0.8161 -2.2581  0.5618
  358TMC3    H2 5367   0.047   3.130   1.086 -0.5326 -0.5184 -0.0091
  358TMC3    C7 5368   4.634   3.139   1.311 -0.2890 -0.2121  0.7424
  358TMC3    C8 5369   0.025   3.310   0.876  0.2686 -0.3342 -0.6785
  358TMC3    O1 5370   4.699   3.036   1.294  0.5389  0.7913  0.5153
  358TMC3    O2 5371   0.015   3.409   0.800  0.0905 -0.0318  0.4406
  359MPD2     C 5372   0.763   2.071  12.268  0.3344 -0.1036 -0.2798
  359MPD2    C1 5373   0.883   2.001  12.269 -0.0972 -0.1944  0.2430
  359MPD2    C2 5374   0.951   1.980  12.388  0.4168 -0.5876 -0.5141
  359MPD2    C3 5375   0.910   2.045  12.505  0.1644  0.1292 -0.3172
  359MPD2    C4 5376   0.793   2.118  12.501 -0.0742  0.5188 -0.2628
  359MPD2    C5 5377   0.724   2.128  12.385 -0.0163 -0.1312 -0.3327
  359MPD2     H 5378   1.034   1.911  12.377 -1.1367 -2.4844 -0.3735
  359MPD2    H1 5379   0.759   2.167  12.592  0.1140  0.8949 -0.3974
  359MPD2    H2 5380   0.704   2.076  12.177 -1.7074  0.4739  1.0755
  359MPD2    H3 5381   0.634   2.188  12.387 -0.4129 -0.7986  1.5794
  359MPD2     N 5382   0.969   2.030  12.637  0.5069  0.2894 -0.0369
  359MPD2    H5 5383   0.932   2.082  12.716 -1.9243 -1.5266  0.0136
  359MPD2    N1 5384   0.948   1.954  12.151 -0.8578  0.1727  0.5895
  359MPD2    H7 5385   1.040   1.914  12.161 -0.8739  0.3509  1.4857
  360TMC3    C1 5386   1.031   1.960  11.937 -0.7855 -0.1407 -0.3140
  360TMC3    C2 5387   1.152   1.989  11.990  0.3131  0.5999  0.2705
  360TMC3    C3 5388   1.260   2.009  11.910 -0.0782 -0.2281  0.1476
  360TMC3    C4 5389   1.027   1.943  11.803  0.6163 -0.7307  0.5414
  360TMC3    C5 5390   1.139   1.957  11.722  0.1521  0.1552  0.3689
  360TMC3    C6 5391   1.258   1.993  11.781 -0.4206  0.6278  0.2171
  360TMC3     C 5392   0.912   1.978  12.020  0.4824 -0.2957 -0.2730
  360TMC3     O 5393   0.823   2.047  11.973  0.2232 -0.1391 -0.0451
  360TMC3     H 5394   1.157   2.031  12.090  0.4245 -0.4986  0.7250
  360TMC3    H1 5395   0.939   1.936  11.740  1.1900 -0.8610 -0.2486
  360TMC3    H2 5396   1.341   2.002  11.712 -0.3719 -3.2695 -0.2151
  360TMC3    C7 5397   1.129   2.017  11.591  0.1130  0.1518 -0.2080
  360TMC3    C8 5398   1.388   2.032  11.987 -0.1196 -0.1669 -0.4185
  360TMC3    O1 5399   1.202   2.107  11.562  0.0596  0.0447  0.6125
  360TMC3    O2 5400   1.392   2.009  12.105 -0.1633 -0.4322  0.2436
  361MPD2     C 5401   1.947   1.221  16.899 -0.3781 -0.4457 -0.1420
  361MPD2    C1 5402   1.991   1.344  16.950 -0.1819 -0.4405 -0.8406
  361MPD2    C2 5403   2.124   1.359  16.984 -0.1715 -0.4545 -0.7015
  361MPD2    C3 5404   2.205   1.243  16.971 -0.7977 -0.6248  0.5294
  361MPD2    C4 5405   2.164   1.127  16.904 -0.6313 -0.2295  0.6699
  361MPD2    C5 5406   2.036   1.117  16.877 -0.1780 -0.7128 -0.2981
  361MPD2     H 5407   2.165   1.451  17.022 -1.7280 -0.6106  1.3483
  361MPD2    H1 5408   2.227   1.040  16.895  1.4497  1.3716 -0.2506
  361MPD2    H2 5409   1.844   1.215  16.867 -0.1532 -0.8510 -0.8036
  361MPD2    H3 5410   1.998   1.022  16.841 -1.0081 -0.1521 -0.8988
  361MPD2     N 5411   2.341   1.249  17.014  0.1966  0.1406  0.2398
  361MPD2    H5 5412   2.405   1.171  16.998 -0.3060 -0.1793 -0.2108
  361MPD2    N1 5413   1.904   1.453  16.960  0.2699  0.0910 -0.9499
  361MPD2    H7 5414   1.952   1.543  16.957 -0.7531  0.6609 -0.2177
  362TMC3    C1 5415   1.715   1.574  16.992 -1.6406 -0.0778 -0.0455
  362TMC3    C2 5416   1.606   1.600  17.074  0.5198 -0.4640  0.1447
  362TMC3    C3 5417   1.553   1.727  17.083 -0.1910  0.7192  0.2292
  362TMC3    C4 5418   1.773   1.669  16.913 -0.7168  0.0496 -0.5092
  362TMC3    C5 5419   1.712   1.794  16.914  0.2134  0.1210 -0.5868
  362TMC3    C6 5420   1.607   1.823  17.002  0.5412 -0.3245 -0.1448
  362TMC3     C 5421   1.772   1.440  16.988  0.0724  0.0279  0.1050
  362TMC3     O 5422   1.708   1.341  17.009 -0.0038 -0.2315 -0.3193
  362TMC3     H 5423   1.578   1.515  17.135  0.8235 -0.8386 -0.2358
  362TMC3    H1 5424   1.842   1.644  16.833 -1.2472  2.0054 -1.5762
  362TMC3    H2 5425   1.558   1.919  16.991  0.0085 -0.5203  0.5268
  362TMC3    C7 5426   1.763   1.905  16.834  1.3401 -0.3181  0.4407
  362TMC3    C8 5427   1.433   1.741  17.164  0.0789 -1.0742 -0.1465
  362TMC3    O1 5428   1.694   2.002  16.829  0.0642  0.0455  0.1802
  362TMC3    O2 5429   1.384   1.637  17.207  0.4506  0.4413 -0.0136
  363TMC3    C1 5430   0.874   3.085   9.729  0.3242  0.6157 -0.6784
  363TMC3    C2 5431   0.983   3.064   9.809  0.3442 -0.2959  0.7736
  363TMC3    C3 5432   1.062   3.170   9.837 -0.0575 -0.3376 -0.1714
  363TMC3    C4 5433   0.842   3.211   9.685 -0.1169 -0.4448  0.0980
  363TMC3    C5 5434   0.923   3.315   9.720 -0.5374  0.0620 -0.7463
  363TMC3    C6 5435   1.029   3.296   9.800 -0.0313 -1.0190  0.4169
  363TMC3     C 5436   0.793   2.967   9.708  0.2355  0.5716  0.3744
  363TMC3     O 5437   0.696   2.982   9.630  0.5517  0.2534 -0.2639
  363TMC3     H 5438   1.014   2.974   9.861 -1.2141  0.0656  2.3153
  363TMC3    H1 5439   0.754   3.222   9.622  0.5560 -2.3240 -1.1728
  363TMC3    H2 5440   1.097   3.374   9.833 -0.9929  0.3263 -0.7644
  363TMC3    C7 5441   0.894   3.448   9.665 -0.3294 -0.4411 -0.4698
  363TMC3    C8 5442   1.181   3.149   9.915  0.4599  0.0100  0.2288
  363TMC3    O1 5443   0.820   3.454   9.572 -0.0871  0.0432  0.2517
  363TMC3    O2 5444   1.206   3.240   9.991  0.3463  0.0457  0.0819
  364MPD2     C 5445   0.233   3.253   9.991 -0.1359 -0.0456  0.9342
  364MPD2    C1 5446   0.226   3.325  10.110  0.1216 -0.4825  0.6907
  364MPD2    C2 5447   0.167   3.262  10.221  0.2483 -0.0610 -0.0286
  364MPD2    C3 5448   0.111   3.131  10.214  0.0418 -0.2081 -0.3860
  364MPD2    C4 5449   0.110   3.073  10.091 -0.0740 -0.3930  0.6601
  364MPD2    C5 5450   0.181   3.128   9.983 -0.7673  0.4985  0.2231
  364MPD2     H 5451   0.184   3.308  10.318  0.3854 -1.4174  0.5885
  364MPD2    H1 5452   0.057   2.980  10.071  0.7941 -0.6430 -0.4629
  364MPD2    H2 5453   0.269   3.300   9.901 -1.2853  1.1175  1.0874
  364MPD2    H3 5454   0.177   3.076   9.888  2.6744  1.2684 -0.3309
  364MPD2     N 5455   0.062   3.062  10.330  0.0196 -0.6728  0.1133
  364MPD2    H5 5456   0.023   2.970  10.313 -2.5825  0.8543 -2.3268
  364MPD2    N1 5457   0.292   3.446  10.127 -0.0797 -0.4549 -0.3470
  364MPD2    H7 5458   0.363   3.468  10.058  0.4584 -0.2695  0.2663
  365TMC3    C1 5459   0.362   3.621  10.267 -0.3804 -0.5812  0.3684
  365TMC3    C2 5460   0.486   3.577  10.307 -0.2148 -0.4079  0.6027
  365TMC3    C3 5461   0.566   3.662  10.375 -0.1641  0.2734 -0.8297
  365TMC3    C4 5462   0.323   3.748  10.298  0.0089 -0.3728  0.0510
  365TMC3    C5 5463   0.407   3.828  10.367  0.9467 -0.1984 -0.7097
  365TMC3    C6 5464   0.528   3.785  10.409  0.0910  0.6118 -0.0274
  365TMC3     C 5465   0.262   3.528  10.241  0.0324  0.1301 -0.2239
  365TMC3     O 5466   0.157   3.539  10.295 -0.3893  0.3766 -0.0772
  365TMC3     H 5467   0.513   3.477  10.274 -1.7765 -1.2098  1.7636
  365TMC3    H1 5468   0.230   3.789  10.259 -0.8131 -2.5612 -0.2610
  365TMC3    H2 5469   0.602   3.849  10.455 -0.8895  0.6991  1.4264
  365TMC3    C7 5470   0.332   3.920  10.454  0.0307  0.5178  0.1770
  365TMC3    C8 5471   0.691   3.620  10.433 -0.0189 -0.0618  0.4232
  365TMC3    O1 5472   0.227   3.961  10.408  0.4290  0.1874  0.0364
  365TMC3    O2 5473   0.760   3.703  10.485  0.4503  0.0516  0.1042
  366MPD2     C 5474   2.545   4.594  15.596 -0.2854 -0.7159  0.3383
  366MPD2    C1 5475   2.647   4.663  15.535  0.5958 -0.2505  0.3450
  366MPD2    C2 5476   2.771   4.611  15.552 -0.7614  0.1794  0.5172
  366MPD2    C3 5477   2.786   4.481  15.602 -0.5777 -0.5854  0.2162
  366MPD2    C4 5478   2.680   4.406  15.644 -0.3754  0.3316 -0.4321
  366MPD2    C5 5479   2.559   4.469  15.641 -0.8250  0.0604 -0.0438
  366MPD2     H 5480   2.857   4.665  15.514 -0.2947 -0.7468  0.2714
  366MPD2    H1 5481   2.684   4.303  15.678 -0.0105  0.5893  0.3198
  366MPD2    H2 5482   2.441   4.625  15.600 -0.1573  0.0406 -1.8896
  366MPD2    H3 5483   2.472   4.413  15.673 -1.7677  0.6326 -1.6281
  366MPD2     N 5484   2.922   4.437  15.624  0.6163  0.3182 -0.2784
  366MPD2    H5 5485   2.990   4.509  15.602 -1.9568  2.4445 -1.3709
  366MPD2    N1 5486   2.632   0.065  15.470 -0.3950  0.1460  0.9444
  366MPD2    H7 5487   2.716   0.115  15.444  0.0281 -0.5137  1.0423
  367TMC3    C1 5488   2.527   0.260  15.405  0.3814  0.6461  0.3617
  367TMC3    C2 5489   2.631   0.317  15.470 -0.1155 -0.1729  0.6182
  367TMC3    C3 5490   2.611   0.421  15.554  0.4708 -0.0051  0.0784
  367TMC3    C4 5491   2.408   0.325  15.413 -0.3278 -0.4144  0.6007
  367TMC3    C5 5492   2.381   0.414  15.509 -0.4622  0.8898 -0.2631
  367TMC3    C6 5493   2.482   0.453  15.587 -0.2015  0.2236  0.0507
  367TMC3     C 5494   2.511   0.117  15.431 -0.5245 -0.3924  0.0728
  367TMC3     O 5495   2.394   0.076  15.431 -0.3067  0.2357  0.3549
  367TMC3     H 5496   2.731   0.274  15.461 -0.1280 -0.2907  1.0649
  367TMC3    H1 5497   2.333   0.300  15.338  1.5587  0.6743 -1.6214
  367TMC3    H2 5498   2.460   0.531  15.659 -3.6567 -1.6145  0.9754
  367TMC3    C7 5499   2.255   0.483  15.518 -0.1010 -0.2930  0.6507
  367TMC3    C8 5500   2.720   0.457  15.645  0.0743  0.5651  0.0810
  367TMC3    O1 5501   2.245   0.585  15.581 -0.3629  0.1223  0.7417
  367TMC3    O2 5502   2.819   0.388  15.636 -0.2254  0.1020 -1.0300
  368MPD2     C 5503   4.241   1.296  13.037  0.9187  0.3662  0.2384
  368MPD2    C1 5504   4.254   1.425  12.980 -0.5612 -0.3592 -0.1344
  368MPD2    C2 5505   4.378   1.486  12.972  0.2358 -0.5679 -0.2988
  368MPD2    C3 5506   4.488   1.419  13.023  0.8883 -0.5379 -0.2414
  368MPD2    C4 5507   4.467   1.292  13.083 -0.4836  0.6262  0.4738
  368MPD2    C5 5508   4.347   1.237  13.089  0.9702 -0.6673 -0.1749
  368MPD2     H 5509   4.395   1.584  12.928 -1.9174  0.4804  1.2304
  368MPD2    H1 5510   4.543   1.250  13.148  0.3837  1.9478  0.3197
  368MPD2    H2 5511   4.141   1.254  13.032 -0.1238  2.9044 -0.0306
  368MPD2    H3 5512   4.341   1.146  13.148  2.8041  0.1543  1.2417
  368MPD2     N 5513   4.626   1.467  13.020  0.6145  0.3972 -0.1011
  368MPD2    H5 5514   4.696   1.401  13.050  2.8213  2.6231 -0.4045
  368MPD2    N1 5515   4.136   1.484  12.922 -0.0664  0.2806 -0.4827
  368MPD2    H7 5516   4.052   1.426  12.921 -0.5751  0.9875  0.6851
  369TMC3    C1 5517   3.995   1.635  12.788 -0.3281  0.7312 -0.1438
  369TMC3    C2 5518   3.997   1.750  12.707  0.1735  0.4284  0.4910
  369TMC3    C3 5519   3.894   1.840  12.701  0.3863 -0.2938 -0.3429
  369TMC3    C4 5520   3.888   1.621  12.871 -0.4789 -0.2597  0.4382
  369TMC3    C5 5521   3.787   1.716  12.869  0.6525  0.0833  0.0618
  369TMC3    C6 5522   3.787   1.826  12.784 -0.4443  0.1856  0.0497
  369TMC3     C 5523   4.121   1.600  12.845 -0.6121  0.1977  0.2893
  369TMC3     O 5524   4.213   1.678  12.828 -0.4148 -0.1106 -0.3365
  369TMC3     H 5525   4.087   1.756  12.647  0.6934 -0.0777  1.2222
  369TMC3    H1 5526   3.884   1.543  12.946 -0.6754 -0.4522  0.2268
  369TMC3    H2 5527   3.719   1.911  12.784 -1.3427 -0.5308 -0.8449
  369TMC3    C7 5528   3.651   1.678  12.923 -0.2720 -0.2691  0.6839
  369TMC3    C8 5529   3.936   1.974  12.678  0.6357 -0.1938 -0.1340
  369TMC3    O1 5530   3.563   1.763  12.910  0.1349 -0.0669 -0.2778
  369TMC3    O2 5531   3.854   2.060  12.650  0.6605  0.2651  0.4510
  370TMC3    C1 5532   3.363   2.384  16.102 -0.0522 -0.2348  0.4359
  370TMC3    C2 5533   3.247   2.342  16.167  0.2076  0.2466 -0.0182
  370TMC3    C3 5534   3.211   2.213  16.142  0.2750 -0.0211  0.3074
  370TMC3    C4 5535   3.444   2.299  16.023 -0.5089 -0.8037  0.0784
  370TMC3    C5 5536   3.401   2.171  16.011  0.3028 -0.1891  1.1312
  370TMC3    C6 5537   3.294   2.131  16.077  0.0711  0.2098  0.1638
  370TMC3     C 5538   3.434   2.482  16.183  0.3970 -0.1917  0.6971
  370TMC3     O 5539   3.374   2.506  16.287  0.4298  0.0016  0.2176
  370TMC3     H 5540   3.181   2.411  16.219 -0.9610 -0.2635 -0.8296
  370TMC3    H1 5541   3.540   2.320  15.977 -1.4924 -2.1625 -2.5483
  370TMC3    H2 5542   3.270   2.026  16.071 -1.0238  0.4483  0.2493
  370TMC3    C7 5543   3.458   2.099  15.894 -0.2931 -0.0048 -0.1232
  370TMC3    C8 5544   3.152   2.148  16.253  0.0551 -0.2358 -0.2945
  370TMC3    O1 5545   3.453   2.162  15.789 -0.0265  0.4851  0.2775
  370TMC3    O2 5546   3.160   2.024  16.264 -0.9986  0.1562 -0.4357
  371TMC3    C1 5547   0.140   0.507  15.685  0.3763 -0.4078 -0.5196
  371TMC3    C2 5548   0.031   0.529  15.758 -0.3635  0.1016  0.1832
  371TMC3    C3 5549   4.675   0.636  15.735  0.9879 -0.3639  0.2389
  371TMC3    C4 5550   0.182   0.591  15.590 -0.8094 -0.0126  1.0355
  371TMC3    C5 5551   0.102   0.699  15.561  0.0382  0.4687 -0.2587
  371TMC3    C6 5552   4.706   0.719  15.629 -0.5496 -0.6420  0.2084
  371TMC3     C 5553   0.229   0.403  15.727  0.6765  0.2328  0.2100
  371TMC3     O 5554   0.346   0.430  15.711 -0.5291 -0.2770  0.1628
  371TMC3     H 5555   0.001   0.456  15.831  0.8974  2.3980  3.0321
  371TMC3    H1 5556   0.275   0.577  15.536 -0.9941  2.6528  0.0217
  371TMC3    H2 5557   4.659   0.816  15.618  0.8813  0.0425  0.0400
  371TMC3    C7 5558   0.120   0.745  15.431  0.0134  0.0001  1.2417
  371TMC3    C8 5559   4.556   0.661  15.816  0.3160 -0.0436  0.3875
  371TMC3    O1 5560   0.227   0.770  15.381  0.2828 -0.1713  0.0158
  371TMC3    O2 5561   4.529   0.567  15.891  0.3664  0.4330 -0.7393
  372MPD2     C 5562   0.210   2.135  13.038  0.1059  0.3617  0.0313
  372MPD2    C1 5563   0.247   2.076  13.152  0.3790  0.6634 -0.0891
  372MPD2    C2 5564   0.151   1.992  13.213  0.4257 -0.1968 -0.5925
  372MPD2    C3 5565   0.030   1.964  13.160  0.0486 -0.1858 -0.2572
  372MPD2    C4 5566   4.720   2.023  13.046 -0.7130  0.5490 -0.4146
  372MPD2    C5 5567   0.081   2.115  12.984  0.5326 -0.0557 -0.3898
  372MPD2     H 5568   0.163   1.937  13.306 -1.9823 -1.2739 -0.9352
  372MPD2    H1 5569   4.635   1.987  12.988 -0.0157  0.8420 -1.6132
  372MPD2    H2 5570   0.272   2.209  12.987 -0.7340  0.4947 -0.8044
  372MPD2    H3 5571   0.062   2.161  12.887  1.3326  0.3982 -0.3339
  372MPD2     N 5572   4.667   1.862  13.217  0.4598 -0.0743 -0.2864
  372MPD2    H5 5573   4.695   1.822  13.306  0.9933  0.9109 -0.0127
  372MPD2    N1 5574   0.370   2.106  13.218 -0.4149 -0.2600  0.0786
  372MPD2    H7 5575   0.382   2.049  13.301  1.5801 -2.3851 -1.6815
  373TMC3    C1 5576   4.485   1.714  13.256 -0.6242 -0.1751  0.3840
  373TMC3    C2 5577   4.358   1.704  13.304 -0.0378 -0.4121 -0.5591
  373TMC3    C3 5578   4.326   1.596  13.383  0.1106  0.7616  0.4441
  373TMC3    C4 5579   4.572   1.621  13.286  0.4186  0.2033  0.1298
  373TMC3    C5 5580   4.539   1.526  13.379  0.1205 -0.4045 -0.1307
  373TMC3    C6 5581   4.416   1.506  13.423 -0.2987 -0.8105 -0.0033
  373TMC3     C 5582   4.532   1.844  13.197  0.8729 -0.0277  0.0126
  373TMC3     O 5583   4.455   1.895  13.120  0.3341  0.3456 -0.0929
  373TMC3     H 5584   4.284   1.783  13.292 -0.6532 -0.7449  1.0203
  373TMC3    H1 5585   4.669   1.629  13.238 -0.3715  2.8808 -0.9941
  373TMC3    H2 5586   4.378   1.420  13.478 -0.3104 -0.1232  1.0478
  373TMC3    C7 5587   4.634   1.414  13.386 -0.1803  0.3551  0.2042
  373TMC3    C8 5588   4.232   1.641  13.487  0.1532 -0.1909 -0.4333
  373TMC3    O1 5589   0.028   1.446  13.351 -0.4555  0.7590  0.1521
  373TMC3    O2 5590   4.136   1.710  13.459 -0.2405  0.9702 -0.3478
  374TMC3    C1 5591   0.609   1.300   9.512 -0.3148 -0.8130 -0.7000
  374TMC3    C2 5592   0.742   1.327   9.541  0.0778  0.2465 -0.0726
  374TMC3    C3 5593   0.835   1.317   9.442 -0.4300  0.4733 -0.0180
  374TMC3    C4 5594   0.570   1.259   9.386 -0.7318 -0.4521 -0.1262
  374TMC3    C5 5595   0.671   1.248   9.294  0.4522 -0.2106  0.3457
  374TMC3    C6 5596   0.799   1.291   9.308 -0.2127  0.3768  0.8660
  374TMC3     C 5597   0.522   1.295   9.621  0.2498 -0.2464  0.2140
  374TMC3     O 5598   0.577   1.301   9.731  0.7772 -0.0979 -0.4026
  374TMC3     H 5599   0.764   1.373   9.636 -0.5439 -0.6354  0.5001
  374TMC3    H1 5600   0.466   1.239   9.366 -0.8643 -0.1711  0.2911
  374TMC3    H2 5601   0.876   1.292   9.232 -2.1019  2.1387 -1.0107
  374TMC3    C7 5602   0.639   1.190   9.165  0.5178  0.1150 -0.5001
  374TMC3    C8 5603   0.977   1.316   9.474  0.2119 -0.1398 -0.4923
  374TMC3    O1 5604   0.691   1.252   9.068 -0.6839 -0.0229  0.0722
  374TMC3    O2 5605   1.049   1.281   9.383  0.1881  0.6369 -0.3734
  375MPD2     C 5606   0.204   2.877  17.220  0.1686 -0.0331 -0.6543
  375MPD2    C1 5607   0.140   2.789  17.130 -0.5844  1.1029  0.1527
  375MPD2    C2 5608   0.203   2.764  17.008  0.0116  0.2323 -0.6248
  375MPD2    C3 5609   0.319   2.838  16.964 -0.0139 -0.0645  0.0740
  375MPD2    C4 5610   0.378   2.920  17.057  1.0770 -0.0113 -0.6000
  375MPD2    C5 5611   0.326   2.929  17.180 -0.9392  0.4956  1.0116
  375MPD2     H 5612   0.160   2.688  16.944 -1.6483 -1.1572  2.1456
  375MPD2    H1 5613   0.461   2.986  17.036  1.5577  0.3733  2.4052
  375MPD2    H2 5614   0.161   2.898  17.317  1.4951 -0.3148  0.0002
  375MPD2    H3 5615   0.386   2.990  17.246  1.7139 -1.9950  0.8965
  375MPD2     N 5616   0.382   2.817  16.839 -0.2280 -0.1468 -0.0775
  375MPD2    H5 5617   0.478   2.846  16.827 -0.1950  0.9109  2.8067
  375MPD2    N1 5618   0.013   2.721  17.155  0.1669 -0.4401 -0.0097
  375MPD2    H7 5619   4.709   2.642  17.097 -1.5194  0.2724 -0.2516
  376TMC3    C1 5620   0.419   2.730  16.625  0.0646 -0.5690 -0.1529
  376TMC3    C2 5621   0.531   2.808  16.623  0.7299 -0.4884 -0.2016
  376TMC3    C3 5622   0.629   2.763  16.539 -0.2933 -0.7023 -0.1559
  376TMC3    C4 5623   0.394   2.624  16.548 -0.1471  0.5276  0.6129
  376TMC3    C5 5624   0.498   2.585  16.466  0.6791 -0.0104  0.1090
  376TMC3    C6 5625   0.615   2.649  16.470  0.7208 -0.1893 -0.4243
  376TMC3     C 5626   0.329   2.745  16.737  0.0880  0.1810 -0.3132
  376TMC3     O 5627   0.219   2.685  16.731  0.1415 -0.0394 -0.3783
  376TMC3     H 5628   0.534   2.905  16.672 -1.4837  0.1994 -1.4138
  376TMC3    H1 5629   0.293   2.585  16.537 -0.8301  2.9130 -1.5923
  376TMC3    H2 5630   0.692   2.611  16.405  2.0447  1.4236  0.2075
  376TMC3    C7 5631   0.462   2.554  16.326  0.8639  0.0131 -0.6163
  376TMC3    C8 5632   0.752   2.845  16.511  0.6936  0.1026 -0.6479
  376TMC3    O1 5633   0.534   2.606  16.243  0.0894  1.2810  0.0677
  376TMC3    O2 5634   0.807   2.822  16.404 -0.4319 -0.3163  0.4609
  377MPD2     C 5635   3.471   2.225  11.974  0.1567 -0.5076  0.0698
  377MPD2    C1 5636   3.521   2.187  12.098 -0.1007  0.9141  0.1765
  377MPD2    C2 5637   3.443   2.132  12.198  0.8229  0.5924 -0.7750
  377MPD2    C3 5638   3.301   2.120  12.175  0.5191  0.0383 -0.0275
  377MPD2    C4 5639   3.255   2.165  12.056 -1.3446 -0.4676 -0.4628
  377MPD2    C5 5640   3.333   2.208  11.953 -0.0543 -0.2361  0.0628
  377MPD2     H 5641   3.480   2.102  12.296 -1.4990  1.5348  0.3864
  377MPD2    H1 5642   3.149   2.177  12.043 -0.9279  1.7013 -1.8366
  377MPD2    H2 5643   3.538   2.269  11.900  0.8260 -1.6777 -0.0194
  377MPD2    H3 5644   3.283   2.239  11.862  0.1895  1.4151  0.5023
  377MPD2     N 5645   3.201   2.098  12.273  0.3325  0.0591 -0.2732
  377MPD2    H5 5646   3.104   2.109  12.244  0.0994  1.0853  0.8740
  377MPD2    N1 5647   3.665   2.211  12.111 -0.3762  0.1366 -0.3303
  377MPD2    H7 5648   3.711   2.248  12.029 -0.2426  1.4603  0.3413
  378TMC3    C1 5649   4.010   2.319  12.027  0.8728 -0.0924 -0.3089
  378TMC3    C2 5650   3.895   2.331  12.104  0.5747  0.4661 -0.2257
  378TMC3    C3 5651   3.874   2.244  12.203  0.4873 -0.1867  0.0357
  378TMC3    C4 5652   4.121   2.250  12.071 -0.4424 -1.0559  0.8805
  378TMC3    C5 5653   4.103   2.186  12.187 -0.2277  0.0676 -0.5219
  378TMC3    C6 5654   3.979   2.169  12.253  0.5832 -0.6254 -0.7342
  378TMC3     C 5655   3.973   2.307  11.889  0.1905  0.0328 -0.5776
  378TMC3     O 5656   3.863   2.354  11.857 -0.3468 -0.4160 -0.5041
  378TMC3     H 5657   3.812   2.396  12.076 -0.0409 -0.8545 -1.4466
  378TMC3    H1 5658   4.214   2.257  12.017  0.4919 -1.5003  2.4368
  378TMC3    H2 5659   3.962   2.098  12.333 -0.7935  0.0231 -0.4463
  378TMC3    C7 5660   4.215   2.134  12.263  0.2311  0.3209  0.0461
  378TMC3    C8 5661   3.744   2.183  12.215 -0.0450 -0.4383 -0.0721
  378TMC3    O1 5662   4.192   2.088  12.376  0.0300 -0.4277 -0.1989
  378TMC3    O2 5663   3.710   2.152  12.327  0.0017  0.4437  0.0333
  379MPD2     C 5664   3.756   0.605  16.351 -0.3008  0.5797 -0.4052
  379MPD2    C1 5665   3.686   0.516  16.427 -0.9544 -0.2439  0.0213
  379MPD2    C2 5666   3.743   0.469  16.547 -0.0434  0.7344  0.2803
  379MPD2    C3 5667   3.876   0.513  16.585 -0.8210 -0.4890  0.0107
  379MPD2    C4 5668   3.941   0.597  16.502  0.1939 -0.2321  0.4963
  379MPD2    C5 5669   3.881   0.639  16.385 -0.1545 -0.1714  0.0623
  379MPD2     H 5670   3.684   0.417  16.622  0.6538 -0.5692 -0.0812
  379MPD2    H1 5671   4.043   0.630  16.519  0.0417  0.9764 -0.8627
  379MPD2    H2 5672   3.700   0.643  16.266 -1.7403  1.5498  0.9651
  379MPD2    H3 5673   3.931   0.696  16.308 -0.0187  0.9376  0.9763
  379MPD2     N 5674   3.941   0.472  16.710  0.2243 -0.4623  0.3032
  379MPD2    H5 5675   4.037   0.502  16.721  0.0096  0.9137 -1.4950
  379MPD2    N1 5676   3.560   0.491  16.374  0.2893  0.1832  0.3170
  379MPD2    H7 5677   3.525   0.542  16.294  1.7779 -1.8884 -1.6381
  380TMC3    C1 5678   3.358   0.366  16.341 -0.5147 -0.0358  0.3110
  380TMC3    C2 5679   3.371   0.248  16.272  0.1705 -0.0345 -0.4070
  380TMC3    C3 5680   3.321   0.228  16.143 -0.2104  0.2239 -0.1813
  380TMC3    C4 5681   3.309   0.477  16.278 -0.4215 -0.4360  0.1406
  380TMC3    C5 5682   3.250   0.461  16.153 -0.0637 -0.4712 -0.0911
  380TMC3    C6 5683   3.262   0.338  16.086  0.3279  0.6317  0.1443
  380TMC3     C 5684   3.478   0.387  16.420 -0.0020  0.0692 -0.1297
  380TMC3     O 5685   3.516   0.298  16.494  0.3014  0.3189 -0.5735
  380TMC3     H 5686   3.435   0.176  16.322 -0.8545  0.1142  1.1140
  380TMC3    H1 5687   3.322   0.575  16.323  2.0830 -1.6017  1.9793
  380TMC3    H2 5688   3.215   0.327  15.989  0.6153  2.9045 -0.2506
  380TMC3    C7 5689   3.168   0.569  16.100 -0.2055 -0.1324  0.4725
  380TMC3    C8 5690   3.425   0.179  16.062  0.2697 -0.0921 -0.7137
  380TMC3    O1 5691   3.169   0.673  16.170 -0.4292 -0.1501  0.0298
  380TMC3    O2 5692   3.415   0.069  16.006 -0.2353 -0.3070  0.2913
  381TMC3    C1 5693   3.022   1.641  16.232 -0.0905 -0.2671 -0.2237
  381TMC3    C2 5694   3.153   1.672  16.191  0.0803 -0.2606  0.4566
  381TMC3    C3 5695   3.247   1.675  16.293  0.0991 -0.1460  0.1516
  381TMC3    C4 5696   2.987   1.633  16.364  0.4449 -0.0829 -0.7558
  381TMC3    C5 5697   3.088   1.642  16.462  0.1798  0.1065 -0.1251
  381TMC3    C6 5698   3.219   1.664  16.424 -0.2090  0.4049 -0.0031
  381TMC3     C 5699   2.918   1.613  16.141  0.1287  0.0018  0.6109
  381TMC3     O 5700   2.805   1.612  16.187  0.1377  0.0348 -0.3145
  381TMC3     H 5701   3.174   1.678  16.085 -3.1288 -0.8291 -0.2275
  381TMC3    H1 5702   2.887   1.605  16.395  0.9415  0.4307  1.3251
  381TMC3    H2 5703   3.294   1.666  16.503  1.3886 -0.6844 -1.5110
  381TMC3    C7 5704   3.070   1.580  16.589 -0.6082  0.0327  0.3665
  381TMC3    C8 5705   3.369   1.742  16.245  0.1229  0.0504  0.2321
  381TMC3    O1 5706   3.164   1.517  16.635 -0.1102  0.7776  0.1485
  381TMC3    O2 5707   3.422   1.733  16.135 -0.2494  0.1052 -0.5384
  382MPD2     C 5708   2.719   4.062  17.454  0.4387 -0.4572  0.0559
  382MPD2    C1 5709   2.591   4.064  17.511  0.2531  0.2150 -0.4418
  382MPD2    C2 5710   2.527   3.946  17.539 -0.6424  0.1450 -0.2798
  382MPD2    C3 5711   2.588   3.824  17.501  0.4423  1.1415  1.0252
  382MPD2    C4 5712   2.711   3.822  17.444 -0.7742  0.1207 -0.8758
  382MPD2    C5 5713   2.775   3.945  17.423 -0.6422 -0.5936  0.3719
  382MPD2     H 5714   2.432   3.952  17.591 -0.5690  0.7465 -0.2106
  382MPD2    H1 5715   2.758   3.727  17.421 -1.2179  0.3928 -2.8898
  382MPD2    H2 5716   2.775   4.153  17.435 -1.7075  0.9413  0.4090
  382MPD2    H3 5717   2.867   3.959  17.368 -0.9401  0.5734  0.1583
  382MPD2     N 5718   2.529   3.698  17.527 -0.1027 -0.1446 -0.6258
  382MPD2    H5 5719   2.571   3.626  17.470  1.5775  0.0070  0.4361
  382MPD2    N1 5720   2.513   4.178  17.539 -0.3852 -0.0867  0.1633
  382MPD2    H7 5721   2.435   4.167  17.603 -2.1101  0.8234 -1.8015
  383TMC3    C1 5722   2.357   3.546  17.562 -0.3649 -0.9161 -0.4156
  383TMC3    C2 5723   2.371   3.498  17.432  0.0768  0.1314 -0.0506
  383TMC3    C3 5724   2.344   3.368  17.409 -0.0144  0.9913  0.9385
  383TMC3    C4 5725   2.315   3.472  17.669  0.6844  0.3969 -0.1649
  383TMC3    C5 5726   2.294   3.338  17.640  0.3971  0.1521 -0.8386
  383TMC3    C6 5727   2.299   3.287  17.511  0.4464  0.3382  0.4959
  383TMC3     C 5728   2.408   3.676  17.591 -0.4564 -0.4892  0.1366
  383TMC3     O 5729   2.343   3.747  17.670  0.4474 -0.6844  1.2623
  383TMC3     H 5730   2.400   3.562  17.349  0.2018  1.0182  0.6753
  383TMC3    H1 5731   2.309   3.505   0.085  0.3195  1.0777 -0.4024
  383TMC3    H2 5732   2.273   3.184  17.492 -0.2150  0.9199 -1.8035
  383TMC3    C7 5733   2.328   3.245   0.068 -0.0940 -0.3562 -0.8818
  383TMC3    C8 5734   2.281   3.344  17.286 -0.0017 -0.0809 -0.4861
  383TMC3    O1 5735   2.380   3.298   0.166 -0.0219 -0.4117  0.5149
  383TMC3    O2 5736   2.214   3.433  17.235 -0.6941 -0.0678 -0.3373
  384MPD2     C 5737   4.489   0.198  12.296  0.0790  0.7742  0.1340
  384MPD2    C1 5738   4.437   0.101  12.377 -0.2141 -0.0947 -0.5146
  384MPD2    C2 5739   4.489   4.697  12.371  0.4587 -0.1417  0.5950
  384MPD2    C3 5740   4.583   4.660  12.282  0.6003  0.3122 -0.1501
  384MPD2    C4 5741   4.632   0.033  12.197 -0.6258  0.5096  0.4750
  384MPD2    C5 5742   4.597   0.164  12.211 -0.6517 -0.0862 -0.5736
  384MPD2     H 5743   4.442   4.622  12.434 -1.0206 -0.7811 -1.2782
  384MPD2    H1 5744   4.703   0.007  12.119  1.5071  3.5287  1.4235
  384MPD2    H2 5745   4.467   0.303  12.315 -0.6472  0.8016 -0.8857
  384MPD2    H3 5746   4.643   0.242  12.153 -2.1692  0.2737 -1.3033
  384MPD2     N 5747   4.620   4.525  12.278  0.2019  0.5190  0.9976
  384MPD2    H5 5748   4.577   4.465  12.348 -0.6231 -1.9074 -1.5805
  384MPD2    N1 5749   4.326   0.130  12.466 -0.4595  0.1394  0.0844
  384MPD2    H7 5750   4.299   0.052  12.524  0.0638  0.4641  0.7649
  385TMC3    C1 5751   0.027   4.336  12.245 -0.3145 -0.0936 -0.0452
  385TMC3    C2 5752   0.007   4.249  12.145 -0.3960  0.0466 -1.0806
  385TMC3    C3 5753   4.651   4.136  12.170  0.4349  0.1258 -0.6413
  385TMC3    C4 5754   4.701   4.311  12.372 -0.1428 -0.0040  0.2652
  385TMC3    C5 5755   4.603   4.215  12.392 -0.1592 -0.4648 -0.7587
  385TMC3    C6 5756   4.579   4.128  12.290 -0.0906  0.6186 -0.1841
  385TMC3     C 5757   4.713   4.469  12.200  0.7952  0.4241  0.4124
  385TMC3     O 5758   0.050   4.515  12.102  0.1820 -0.4509 -0.7348
  385TMC3     H 5759   0.063   4.267  12.054 -0.3865  1.1484 -0.8575
  385TMC3    H1 5760   0.004   4.388  12.444  1.9716  1.7140 -2.3267
  385TMC3    H2 5761   4.528   4.037  12.317  0.1425  0.2024 -1.1760
  385TMC3    C7 5762   4.488   4.273  12.453  0.1491 -0.2083  0.4427
  385TMC3    C8 5763   4.616   4.061  12.052  0.1188 -0.4163 -0.2519
  385TMC3    O1 5764   4.511   4.386  12.490  0.5670 -0.3658 -0.1886
  385TMC3    O2 5765   4.501   4.016  12.044 -0.1499 -0.4894 -0.9703
  386TMC3    C1 5766   0.300   2.071  12.239 -0.0616  0.2220 -0.2578
  386TMC3    C2 5767   0.317   2.079  12.106 -0.1362 -0.1472  0.0868
  386TMC3    C3 5768   0.241   2.167  12.034  0.0555  0.4145  0.2105
  386TMC3    C4 5769   0.215   2.157  12.306 -0.5177 -0.4428 -0.4002
  386TMC3    C5 5770   0.139   2.251  12.229 -0.1199  0.0117 -0.2155
  386TMC3    C6 5771   0.157   2.250  12.096  0.0620  0.2248 -0.0897
  386TMC3     C 5772   0.372   1.970  12.313  0.3076 -0.4359  0.1652
  386TMC3     O 5773   0.346   1.971  12.432  0.5869  0.3995  0.1364
  386TMC3     H 5774   0.387   2.013  12.056  0.2927 -0.6101  1.2844
  386TMC3    H1 5775   0.204   2.141  12.413 -0.8254  1.2326 -0.1770
  386TMC3    H2 5776   0.092   2.314  12.037 -1.3894 -0.8209  0.3682
  386TMC3    C7 5777   0.040   2.335  12.286 -0.0099 -0.3141  0.5410
  386TMC3    C8 5778   0.187   2.119  11.903 -0.6578  0.4577 -0.5621
  386TMC3    O1 5779   4.679   2.390  12.211 -0.1805 -0.1211  0.6299
  386TMC3    O2 5780   0.071   2.149  11.870  0.1434 -0.4687  0.2239
  387MPD2     C 5781   3.554   2.082   9.927  0.6337 -0.4512 -0.4576
  387MPD2    C1 5782   3.469   2.065  10.031  0.6862 -0.7095 -0.6991
  387MPD2    C2 5783   3.368   1.973  10.027 -0.3091  0.5125  1.0115
  387MPD2    C3 5784   3.364   1.881   9.926 -0.3719 -0.5613  1.3648
  387MPD2    C4 5785   3.452   1.898   9.823 -0.5554  0.3605 -0.8049
  387MPD2    C5 5786   3.553   2.000   9.818  0.2391 -0.1964 -0.2070
  387MPD2     H 5787   3.317   1.951  10.120  0.4589  1.2125  1.6039
  387MPD2    H1 5788   3.456   1.838   9.732 -1.1780  0.3549 -0.8268
  387MPD2    H2 5789   3.634   2.154   9.924  0.1570  0.0642 -0.8898
  387MPD2    H3 5790   3.627   2.024   9.742  1.1134 -0.0483  0.6915
  387MPD2     N 5791   3.282   1.772   9.943  0.6177 -0.1301 -0.3242
  387MPD2    H5 5792   3.240   1.767  10.035  3.3356  0.2808  0.9384
  387MPD2    N1 5793   3.491   2.121  10.156  0.0195 -0.1118 -0.0299
  387MPD2    H7 5794   3.444   2.082  10.237  4.2832 -1.9786  1.5547
  388TMC3    C1 5795   3.588   2.244  10.331 -0.1409  0.4577 -0.4279
  388TMC3    C2 5796   3.608   2.372  10.383 -0.3507 -0.3331  0.1301
  388TMC3    C3 5797   3.626   2.377  10.520 -0.0250  0.2335  0.0135
  388TMC3    C4 5798   3.584   2.133  10.413 -0.5896 -0.0443  0.2914
  388TMC3    C5 5799   3.595   2.140  10.548  0.1928  0.4562 -0.0310
  388TMC3    C6 5800   3.609   2.264  10.605  0.3786 -0.6395  0.3140
  388TMC3     C 5801   3.581   2.226  10.177  0.4797 -0.3969 -0.5253
  388TMC3     O 5802   3.643   2.298  10.099  0.0239 -0.3342 -0.3220
  388TMC3     H 5803   3.605   2.463  10.323 -0.3599 -0.9719 -0.8423
  388TMC3    H1 5804   3.610   2.036  10.372 -2.3409  1.3159 -4.0609
  388TMC3    H2 5805   3.613   2.265  10.714 -0.5005  1.5581  0.3171
  388TMC3    C7 5806   3.544   2.028  10.624  0.1424  0.3228 -0.4351
  388TMC3    C8 5807   3.713   2.468  10.581  0.1026 -0.6176 -1.1566
  388TMC3    O1 5808   3.579   2.018  10.738  0.2646 -0.7774 -0.3609
  388TMC3    O2 5809   3.785   2.424  10.670  0.4627 -0.3033 -0.3269
  389MPD2     C 5810   2.089   0.648  10.325  0.0233  0.3767 -0.2807
  389MPD2    C1 5811   2.057   0.521  10.290  0.3186 -0.7744 -0.1440
  389MPD2    C2 5812   1.976   0.451  10.376 -0.1897 -0.1570  0.4340
  389MPD2    C3 5813   1.923   0.499  10.494 -0.2714  0.8192 -1.0774
  389MPD2    C4 5814   1.941   0.638  10.509 -0.3576 -0.7020  0.3737
  389MPD2    C5 5815   2.027   0.708  10.428 -0.2511  0.1023 -1.0303
  389MPD2     H 5816   1.949   0.349  10.355  0.3380 -0.4611  1.2301
  389MPD2    H1 5817   1.868   0.686  10.574  1.0430 -0.6660  1.9200
  389MPD2    H2 5818   2.143   0.717  10.261  0.7685 -0.9622 -1.0946
  389MPD2    H3 5819   2.033   0.816  10.442 -1.2502 -0.1055  1.0041
  389MPD2     N 5820   1.844   0.427  10.584  0.2374 -0.2672 -0.2250
  389MPD2    H5 5821   1.792   0.476  10.656 -1.4081 -0.9783 -0.9516
  389MPD2    N1 5822   2.096   0.465  10.162  0.2045  0.1481  0.0645
  389MPD2    H7 5823   2.174   0.514  10.119 -0.3861  0.3098 -0.8186
  390TMC3    C1 5824   1.708   0.246  10.653 -0.5314  0.3443  0.6026
  390TMC3    C2 5825   1.649   0.336  10.737 -0.4656  0.4464 -0.0984
  390TMC3    C3 5826   1.513   0.331  10.758 -0.0463  0.1796 -0.3237
  390TMC3    C4 5827   1.631   0.149  10.588 -0.2321  0.7902  0.4581
  390TMC3    C5 5828   1.489   0.154  10.601 -0.3251 -0.4697  0.6608
  390TMC3    C6 5829   1.439   0.244  10.693 -0.0784 -0.6880  0.1507
  390TMC3     C 5830   1.820   0.291  10.574  0.1546  0.3439  0.1487
  390TMC3     O 5831   1.861   0.210  10.494 -0.1756  0.8121  0.5014
  390TMC3     H 5832   1.711   0.397  10.803  0.5765 -2.4480  1.5922
  390TMC3    H1 5833   1.678   0.075  10.524  0.9025 -0.1688  2.4086
  390TMC3    H2 5834   1.332   0.257  10.707  0.1261 -0.4957  1.5548
  390TMC3    C7 5835   1.421   0.029  10.598  0.8494 -0.5744 -0.6486
  390TMC3    C8 5836   1.462   0.364  10.888  0.4302  0.3856  0.2252
  390TMC3    O1 5837   1.481   4.652  10.561  0.0461  0.4450  0.2897
  390TMC3    O2 5838   1.509   0.449  10.960 -0.1662 -0.5228 -0.3595
  391MPD2     C 5839   0.961   1.595  11.044 -0.6320 -0.8782 -0.1823
  391MPD2    C1 5840   1.079   1.654  11.004  0.6288  0.4862 -0.0261
  391MPD2    C2 5841   1.115   1.662  10.873  0.5594  0.2443 -0.0863
  391MPD2    C3 5842   1.035   1.598  10.772  0.0832  0.2613 -0.2136
  391MPD2    C4 5843   0.907   1.546  10.813  0.4995  0.7846 -0.4437
  391MPD2    C5 5844   0.877   1.543  10.947 -0.0698 -0.4568 -0.1555
  391MPD2     H 5845   1.213   1.703  10.854 -0.1532  1.9163 -0.1803
  391MPD2    H1 5846   0.841   1.491  10.748 -0.8664  2.2456 -0.2801
  391MPD2    H2 5847   0.924   1.600  11.145  0.8575 -0.6836  0.3623
  391MPD2    H3 5848   0.790   1.483  10.974  1.4933 -2.5601  0.1952
  391MPD2     N 5849   1.085   1.593  10.642  0.0644 -0.3286 -0.4906
  391MPD2    H5 5850   1.183   1.618  10.633  0.0597  0.3715  1.3903
  391MPD2    N1 5851   1.156   1.713  11.110 -0.2976  0.6483  0.3854
  391MPD2    H7 5852   1.154   1.685  11.207  0.2238 -3.5805 -0.7945
  392TMC3    C1 5853   1.113   1.557  10.415 -0.3633 -0.6238  0.6056
  392TMC3    C2 5854   1.094   1.474  10.312  0.5217 -0.0306 -0.3102
  392TMC3    C3 5855   1.182   1.484  10.210  0.9737  0.3395  0.0623
  392TMC3    C4 5856   1.196   1.671  10.413 -0.3658  0.2381  0.1652
  392TMC3    C5 5857   1.283   1.665  10.303 -0.1804  0.6601 -0.4797
  392TMC3    C6 5858   1.281   1.572  10.199 -0.7999  0.8062 -0.1021
  392TMC3     C 5859   1.024   1.546  10.531  0.3416 -0.8417  0.1701
  392TMC3     O 5860   0.914   1.495  10.513  0.5678 -0.0682 -0.4792
  392TMC3     H 5861   1.013   1.403  10.319 -0.2800  1.0365  1.4054
  392TMC3    H1 5862   1.217   1.742  10.492 -0.3594 -0.2560  0.6016
  392TMC3    H2 5863   1.326   1.589  10.102  1.1537  1.7487  0.9689
  392TMC3    C7 5864   1.379   1.769  10.302  0.0573  0.3520  0.2552
  392TMC3    C8 5865   1.149   1.393  10.102 -0.6749  0.2770  0.3332
  392TMC3    O1 5866   1.348   1.874  10.357  0.5054 -0.0267 -0.3112
  392TMC3    O2 5867   1.050   1.324  10.114  0.5251  0.6451  0.3049
  393TMC3    C1 5868   0.240   4.676  10.184 -0.1172 -0.4043  0.4100
  393TMC3    C2 5869   0.161   4.675  10.299 -0.3640 -0.2950 -0.2323
  393TMC3    C3 5870   0.223   0.014  10.402  0.9211 -0.6544  0.2537
  393TMC3    C4 5871   0.360   0.010  10.173  0.2577 -0.0830  0.6885
  393TMC3    C5 5872   0.412   0.074  10.282 -0.4517  0.3335  0.0402
  393TMC3    C6 5873   0.350   0.076  10.403  0.0757  0.9636 -0.1282
  393TMC3     C 5874   0.202   4.598  10.066  0.2017  0.0345 -0.5036
  393TMC3     O 5875   0.295   4.559   9.992  0.4638  0.2742 -0.5893
  393TMC3     H 5876   0.071   4.618  10.317 -0.2192  0.9615  4.4726
  393TMC3    H1 5877   0.412   0.014  10.078 -2.2219  1.1673 -0.6065
  393TMC3    H2 5878   0.398   0.115  10.492  2.1870 -1.2163 -0.3102
  393TMC3    C7 5879   0.536   0.151  10.260 -0.2022  0.1885 -0.0239
  393TMC3    C8 5880   0.158   0.007  10.534 -0.5065  0.5537  0.1918
  393TMC3    O1 5881   0.558   0.238  10.345 -0.3579  0.1851  0.3740
  393TMC3    O2 5882   0.096   4.623  10.558  0.1732  0.5780  0.2961
  394TMC3    C1 5883   2.084   0.322   9.962  0.0469 -0.4804 -0.3156
  394TMC3    C2 5884   2.053   0.202   9.925 -0.5215 -0.4853  0.7625
  394TMC3    C3 5885   2.084   0.166   9.796 -0.1192  0.5051 -0.1226
  394TMC3    C4 5886   2.135   0.417   9.886  0.4598 -0.2015  0.9363
  394TMC3    C5 5887   2.162   0.384   9.754 -0.4728  0.6973  0.3461
  394TMC3    C6 5888   2.130   0.265   9.705 -0.2950  0.6130  0.0878
  394TMC3     C 5889   2.044   0.351  10.100 -0.3168  0.3853  0.2475
  394TMC3     O 5890   1.955   0.275  10.144 -0.0491 -0.5725  0.3061
  394TMC3     H 5891   2.018   0.129   9.997 -0.7281 -0.1528  1.0004
  394TMC3    H1 5892   2.159   0.518   9.918 -0.3816 -0.2779  1.7912
  394TMC3    H2 5893   2.149   0.247   9.600 -3.2355 -0.8221 -0.1852
  394TMC3    C7 5894   2.231   0.478   9.674  0.2669  0.0475  0.0060
  394TMC3    C8 5895   1.997   0.061   9.737 -0.0061  0.7085 -0.1271
  394TMC3    O1 5896   2.224   0.597   9.703  0.3326 -0.2407 -0.4053
  394TMC3    O2 5897   1.975   0.074   9.620  0.2981 -0.3795  0.1366
  395TMC3    C1 5898   1.326   2.811  14.197  0.1233 -0.5262 -0.9052
  395TMC3    C2 5899   1.192   2.818  14.191 -0.6880  0.3053  0.0321
  395TMC3    C3 5900   1.121   2.928  14.237  0.3096  0.3339  0.4362
  395TMC3    C4 5901   1.392   2.924  14.240 -0.7291 -0.1802  0.1304
  395TMC3    C5 5902   1.326   3.037  14.276  0.2615  0.5912 -0.2857
  395TMC3    C6 5903   1.189   3.042  14.275 -1.0376  0.4070 -0.5667
  395TMC3     C 5904   1.369   2.693  14.267  0.7284  0.1404 -0.3650
  395TMC3     O 5905   1.454   2.717  14.352  0.2986  0.5718  0.3210
  395TMC3     H 5906   1.132   2.734  14.158 -1.1556  0.4604  0.4825
  395TMC3    H1 5907   1.499   2.927  14.227 -0.5764 -0.3819  1.3147
  395TMC3    H2 5908   1.143   3.127  14.324 -1.3865  0.0514 -0.2624
  395TMC3    C7 5909   1.401   3.146  14.324 -0.2095  0.7392  0.1479
  395TMC3    C8 5910   1.002   2.903  14.314  0.1267 -0.3548 -0.6792
  395TMC3    O1 5911   1.514   3.124  14.357  0.1070  0.0818 -0.1873
  395TMC3    O2 5912   0.940   3.001  14.352  0.0628  0.2211 -0.3542
  396MPD2     C 5913   0.885   3.430   0.167 -0.2985 -0.0795 -0.2546
  396MPD2    C1 5914   0.934   3.426   0.040 -0.3225 -0.2203 -0.1362
  396MPD2    C2 5915   1.035   3.516   0.015 -0.1440 -0.0900 -0.5056
  396MPD2    C3 5916   1.089   3.606   0.108 -0.2565 -0.6565  0.6580
  396MPD2    C4 5917   1.052   3.597   0.240  0.0902  0.1878  0.3208
  396MPD2    C5 5918   0.944   3.505   0.270 -0.0143  0.6278  0.0590
  396MPD2     H 5919   1.077   3.517  17.603 -2.5668  1.3012 -1.5284
  396MPD2    H1 5920   1.094   3.671   0.308 -1.8108  0.6062  1.0486
  396MPD2    H2 5921   0.789   3.391   0.197  0.4603 -0.1017  2.1427
  396MPD2    H3 5922   0.898   3.503   0.368 -0.0248 -0.7681  0.0248
  396MPD2     N 5923   1.182   3.706   0.054  0.1566 -0.4096 -0.4003
  396MPD2    H5 5924   1.186   3.716  17.641  1.2419 -0.7601 -0.3977
  396MPD2    N1 5925   0.882   3.340  17.629  0.1611 -0.0209  0.5333
  396MPD2    H7 5926   0.805   3.279  17.654  0.1828 -0.5791 -0.7138
  397TMC3    C1 5927   0.839   3.253  17.413  0.0233 -1.0991 -0.1482
  397TMC3    C2 5928   0.888   3.237  17.287  0.1541  0.8991  0.5818
  397TMC3    C3 5929   0.818   3.287  17.187  0.1540 -0.1551 -0.4348
  397TMC3    C4 5930   0.709   3.281  17.428  0.1915  0.3868  0.6257
  397TMC3    C5 5931   0.627   3.298  17.319  0.0643 -0.0768  0.4179
  397TMC3    C6 5932   0.685   3.299  17.194 -0.4351 -0.0048 -0.4257
  397TMC3     C 5933   0.929   3.332  17.497 -0.8288 -1.1979 -0.1434
  397TMC3     O 5934   1.021   3.394  17.434 -0.3231 -0.1948 -0.2086
  397TMC3     H 5935   0.994   3.215  17.280  0.3162  0.8063  3.5526
  397TMC3    H1 5936   0.674   3.268  17.529  1.2698  1.5001  1.1409
  397TMC3    H2 5937   0.627   3.343  17.114 -0.0726  0.6546 -0.3273
  397TMC3    C7 5938   0.481   3.260  17.327  0.1214 -0.4663 -0.4619
  397TMC3    C8 5939   0.888   3.369  17.093  0.7702  0.6158  0.2909
  397TMC3    O1 5940   0.421   3.257  17.220  0.0306  0.3050 -0.3074
  397TMC3    O2 5941   0.814   3.415  17.005  0.1952  0.2603 -0.0654
  398MPD2     C 5942   3.856   4.634   0.334 -0.1909  0.4320  0.0435
  398MPD2    C1 5943   3.969   4.561   0.323  0.3592 -0.1951 -0.1401
  398MPD2    C2 5944   4.083   4.622   0.286  0.8299 -0.3451  0.0631
  398MPD2    C3 5945   4.089   0.034   0.244  0.5094  0.4298 -0.5407
  398MPD2    C4 5946   3.976   0.105   0.241 -0.2599 -0.1046 -0.6753
  398MPD2    C5 5947   3.861   0.044   0.287  0.8871  0.0971 -0.4191
  398MPD2     H 5948   4.175   4.564   0.286  1.3164  0.4168 -0.6889
  398MPD2    H1 5949   3.973   0.207   0.206  1.9464  0.8789  1.9773
  398MPD2    H2 5950   3.760   4.600   0.372 -1.0289  0.9912 -1.5658
  398MPD2    H3 5951   3.769   0.101   0.290 -0.6501 -2.3560 -0.8854
  398MPD2     N 5952   4.199   0.088   0.172 -0.3202  0.2676 -0.1908
  398MPD2    H5 5953   4.278   0.027   0.153 -0.0849 -0.3240  2.7113
  398MPD2    N1 5954   3.970   4.428   0.365 -0.6416 -0.3698 -0.9598
  398MPD2    H7 5955   4.065   4.395   0.362 -0.3180  0.5542 -0.7075
  399TMC3    C1 5956   3.903   4.204   0.386  0.7678  0.1340 -0.1927
  399TMC3    C2 5957   4.023   4.177   0.445 -0.5156 -0.3251 -0.0997
  399TMC3    C3 5958   4.054   4.048   0.457  0.0886 -0.2594 -0.5131
  399TMC3    C4 5959   3.811   4.107   0.358  0.1868  0.5366  0.0288
  399TMC3    C5 5960   3.852   3.971   0.366 -0.3722  0.6543  0.2047
  399TMC3    C6 5961   3.972   3.940   0.425 -0.0421  0.7479  0.5451
  399TMC3     C 5962   3.866   4.345   0.352  0.2631  0.5112  0.4155
  399TMC3     O 5963   3.748   4.368   0.315  0.2681  0.3201 -0.2001
  399TMC3     H 5964   4.096   4.256   0.458  2.1938 -3.0941  1.5400
  399TMC3    H1 5965   3.721   4.135   0.304 -0.3896 -1.2680  0.0552
  399TMC3    H2 5966   4.005   3.840   0.448  0.0080  0.5483 -0.3818
  399TMC3    C7 5967   3.746   3.873   0.391 -0.4666 -0.1495  0.2550
  399TMC3    C8 5968   4.173   4.017   0.535 -0.0334  0.0554  0.7406
  399TMC3    O1 5969   3.776   3.754   0.410 -1.1646  0.2934  0.3755
  399TMC3    O2 5970   4.211   4.104   0.613 -0.0326  0.3365 -0.6418
  400TMC3    C1 5971   2.435   3.067  16.887 -0.1759 -0.2668 -0.4386
  400TMC3    C2 5972   2.323   3.075  16.817  0.0471 -0.2354  0.7758
  400TMC3    C3 5973   2.269   3.201  16.806  0.7506 -0.5099  0.7887
  400TMC3    C4 5974   2.505   3.173  16.938  0.1434 -0.0453 -0.3476
  400TMC3    C5 5975   2.449   3.298  16.915 -0.3186 -0.1422  0.2011
  400TMC3    C6 5976   2.330   3.316  16.848 -0.3832 -0.2928  0.8950
  400TMC3     C 5977   2.482   2.933  16.920 -0.6515  0.1888  0.2263
  400TMC3     O 5978   2.439   2.837  16.852  0.0541  0.4473  0.1203
  400TMC3     H 5979   2.270   2.985  16.786 -2.1926  0.4475  2.6673
  400TMC3    H1 5980   2.598   3.165  16.992 -0.5246 -2.7933  0.4365
  400TMC3    H2 5981   2.281   3.412  16.836 -0.1172 -0.8260 -4.4901
  400TMC3    C7 5982   2.529   3.407  16.965 -0.1529 -1.0174 -0.5401
  400TMC3    C8 5983   2.139   3.225  16.739 -0.9066 -0.1719 -0.5795
  400TMC3    O1 5984   2.647   3.391  16.996 -0.0737  0.0555 -0.0059
  400TMC3    O2 5985   2.093   3.337  16.751  0.0270  0.1079 -0.2091
  401MPD2     C 5986   0.675   1.355   0.435 -0.1175  0.0648  0.7203
  401MPD2    C1 5987   0.627   1.336   0.564  0.0133  0.2487 -0.0788
  401MPD2    C2 5988   0.607   1.204   0.604 -0.5766  0.2553 -0.3929
  401MPD2    C3 5989   0.628   1.098   0.523 -0.5498 -0.5209  0.2261
  401MPD2    C4 5990   0.663   1.124   0.387  0.6787  0.8221  0.2157
  401MPD2    C5 5991   0.696   1.252   0.350  0.1243  0.3077 -0.8683
  401MPD2     H 5992   0.561   1.185   0.700 -0.6821  0.8073 -0.3308
  401MPD2    H1 5993   0.679   1.046   0.313  2.0815 -1.4504  2.9238
  401MPD2    H2 5994   0.709   1.449   0.394  1.6415 -1.1376 -0.5538
  401MPD2    H3 5995   0.735   1.256   0.249 -0.4544  1.9563 -1.0273
  401MPD2     N 5996   0.622   0.965   0.577 -0.0510  0.7658  0.3587
  401MPD2    H5 5997   0.619   0.953   0.678  0.6732  3.3906  0.6919
  401MPD2    N1 5998   0.605   1.435   0.658  0.1014  0.2244 -0.4956
  401MPD2    H7 5999   0.578   1.399   0.749 -0.1431  1.3395 -0.1248
  402TMC3    C1 6000   0.605   0.729   0.589  0.0925  0.0071  0.1420
  402TMC3    C2 6001   0.515   0.736   0.691  0.2893  0.0356 -0.2195
  402TMC3    C3 6002   0.514   0.639   0.781  0.0540  0.0743 -0.0475
  402TMC3    C4 6003   0.687   0.618   0.574 -0.3575  0.1884 -0.0823
  402TMC3    C5 6004   0.673   0.505   0.661  0.4978 -0.1579  0.0339
  402TMC3    C6 6005   0.587   0.519   0.769  0.3991 -0.3584 -0.5460
  402TMC3     C 6006   0.615   0.847   0.502  0.1081  0.2982 -0.4677
  402TMC3     O 6007   0.657   0.825   0.391 -0.7180  0.3979 -0.1064
  402TMC3     H 6008   0.441   0.816   0.698 -1.0977 -1.2369 -0.4018
  402TMC3    H1 6009   0.761   0.623   0.494 -0.2922 -0.6711 -0.0800
  402TMC3    H2 6010   0.583   0.452   0.854  0.6285  1.8041  1.1889
  402TMC3    C7 6011   0.806   0.446   0.693 -0.3466  0.1639 -0.4214
  402TMC3    C8 6012   0.484   0.686   0.918 -0.0268  0.1775  0.4269
  402TMC3    O1 6013   0.902   0.512   0.653  0.0555  0.0986  0.3258
  402TMC3    O2 6014   0.536   0.615   1.003  0.0398  0.1536 -0.1593
  403MPD2     C 6015   3.436   0.307  13.759  0.5619  0.1000 -0.4638
  403MPD2    C1 6016   3.538   0.223  13.727 -0.3995 -0.0461 -0.9125
  403MPD2    C2 6017   3.665   0.241  13.781  0.9505  0.3160  0.1425
  403MPD2    C3 6018   3.692   0.350  13.867  0.0455  0.8407 -0.0166
  403MPD2    C4 6019   3.589   0.427  13.911  0.3612  0.2699 -0.3700
  403MPD2    C5 6020   3.463   0.409  13.849  0.1926  0.2760 -0.8245
  403MPD2     H 6021   3.750   0.177  13.762 -0.7469 -0.8101 -3.5235
  403MPD2    H1 6022   3.597   0.522  13.963 -0.6627  1.0298 -1.5676
  403MPD2    H2 6023   3.336   0.300  13.718  0.2187  2.1544  0.0593
  403MPD2    H3 6024   3.390   0.486  13.872  0.9146  0.1229  2.0565
  403MPD2     N 6025   3.828   0.377  13.897  0.6401 -0.6588  0.3467
  403MPD2    H5 6026   3.891   0.303  13.869  0.9577 -0.6621  1.0694
  403MPD2    N1 6027   3.530   0.112  13.636 -0.1592 -0.3581 -0.2653
  403MPD2    H7 6028   3.612   0.055  13.618 -0.5352 -0.2235 -2.3417
  404TMC3    C1 6029   3.447   4.691  13.465  0.3989  0.9308 -0.1743
  404TMC3    C2 6030   3.494   4.572  13.510  0.1361 -0.8561 -0.7060
  404TMC3    C3 6031   3.512   4.468  13.424  0.0702  0.3928 -0.8456
  404TMC3    C4 6032   3.452   4.711  13.330  0.5734 -0.5223 -0.2429
  404TMC3    C5 6033   3.465   4.603  13.244 -0.1307 -0.2127  0.4910
  404TMC3    C6 6034   3.503   4.475  13.288 -0.5490 -0.1961 -0.9458
  404TMC3     C 6035   3.422   0.089  13.560 -0.3673  0.0590 -0.2994
  404TMC3     O 6036   3.332   0.167  13.525  0.5007 -0.3911 -0.4672
  404TMC3     H 6037   3.537   4.578  13.610 -1.1740 -2.3680 -0.0660
  404TMC3    H1 6038   3.433   0.090  13.292  1.1140  0.6502  2.5699
  404TMC3    H2 6039   3.507   4.389  13.222  2.2246 -0.1876 -0.7883
  404TMC3    C7 6040   3.463   4.638  13.103  0.0830  0.0856 -0.3609
  404TMC3    C8 6041   3.555   4.339  13.465 -0.5476 -0.3714  0.1045
  404TMC3    O1 6042   3.491   0.035  13.074 -0.0493 -0.1833 -0.6634
  404TMC3    O2 6043   3.570   4.258  13.380 -0.0016 -0.2096  0.4647
  405MPD2     C 6044   4.568   0.580  14.870 -0.7199 -0.4032  0.9451
  405MPD2    C1 6045   4.492   0.480  14.807 -0.5437 -0.1824  0.7550
  405MPD2    C2 6046   4.445   0.504  14.683 -0.1423  0.3495 -0.0168
  405MPD2    C3 6047   4.468   0.628  14.619 -0.4495  0.3089  0.4532
  405MPD2    C4 6048   4.520   0.734  14.688 -0.0118  0.1485  0.0638
  405MPD2    C5 6049   4.577   0.696  14.805  0.3579  0.3049 -0.5228
  405MPD2     H 6050   4.398   0.421  14.632 -1.1941  0.1292  1.3075
  405MPD2    H1 6051   4.531   0.837  14.655 -1.6206  0.1991 -0.3439
  405MPD2    H2 6052   4.598   0.575  14.974  0.9245 -0.9440  0.4595
  405MPD2    H3 6053   4.630   0.773  14.859 -1.9964  2.1804 -0.8841
  405MPD2     N 6054   4.405   0.638  14.491 -0.8372  0.0281  0.4622
  405MPD2    H5 6055   4.356   0.555  14.459 -2.5970  0.3725  2.2703
  405MPD2    N1 6056   4.478   0.357  14.874  0.1732 -0.2099 -0.0677
  405MPD2    H7 6057   4.508   0.355  14.971  1.3377  1.7905 -0.3881
  406TMC3    C1 6058   4.092   0.862  14.309  0.3552 -0.2723 -0.8423
  406TMC3    C2 6059   4.017   0.747  14.315  0.8913 -0.1631  0.2813
  406TMC3    C3 6060   4.084   0.626  14.310 -0.6551  0.4494 -0.1494
  406TMC3    C4 6061   4.228   0.859  14.311  0.0996 -0.6021 -0.8288
  406TMC3    C5 6062   4.293   0.740  14.314  0.2604 -0.0828 -0.0812
  406TMC3    C6 6063   4.217   0.623  14.322  0.3456  0.4207 -0.6233
  406TMC3     C 6064   4.023   0.987  14.335 -0.2705  0.3423  0.2486
  406TMC3     O 6065   4.065   1.088  14.279 -0.1941 -0.7551  0.1179
  406TMC3     H 6066   3.910   0.756  14.301  0.8275 -1.5570 -0.1691
  406TMC3    H1 6067   4.287   0.950  14.318 -0.6369 -0.2470  0.6101
  406TMC3    H2 6068   4.262   0.529  14.290 -0.9512  0.0957 -1.5194
  406TMC3    C7 6069   4.404   0.743  14.405 -0.2538  1.2125 -0.3198
  406TMC3    C8 6070   4.002   0.507  14.333 -0.5611  0.0716 -0.2119
  406TMC3    O1 6071   4.454   0.852  14.423  0.0425  0.0499  0.6960
  406TMC3    O2 6072   3.879   0.507  14.317  0.3624  0.1342  0.4486
  407MPD2     C 6073   2.988   1.834   9.394 -0.2869 -0.5247  0.2963
  407MPD2    C1 6074   3.043   1.780   9.509  0.1077 -0.2740  0.9912
  407MPD2    C2 6075   3.023   1.846   9.630  0.4516 -0.0895 -0.2202
  407MPD2    C3 6076   2.956   1.965   9.631 -0.1630 -0.2446  0.2822
  407MPD2    C4 6077   2.913   2.025   9.522  0.4964  0.8595  0.2181
  407MPD2    C5 6078   2.932   1.962   9.404 -0.1631 -0.0095  0.0480
  407MPD2     H 6079   3.040   1.796   9.725 -0.3500  2.2583  1.1399
  407MPD2    H1 6080   2.865   2.122   9.515 -2.1613 -0.3212  1.9307
  407MPD2    H2 6081   3.000   1.782   9.300 -0.9825 -0.1236 -0.0111
  407MPD2    H3 6082   2.899   2.008   9.312  1.6731  1.3606  0.0895
  407MPD2     N 6083   2.930   2.042   9.748  0.1085  0.0664 -0.2272
  407MPD2    H5 6084   2.901   2.138   9.739 -1.7522 -0.6462 -1.9097
  407MPD2    N1 6085   3.102   1.651   9.518  0.0517 -0.6517 -0.2376
  407MPD2    H7 6086   3.154   1.637   9.604  3.4743  2.2286 -1.8548
  408TMC3    C1 6087   3.133   1.421   9.487 -0.3240 -0.3716 -0.1263
  408TMC3    C2 6088   3.249   1.404   9.560 -0.3866  0.4249  0.2919
  408TMC3    C3 6089   3.299   1.278   9.574  0.0193  0.3007 -0.0711
  408TMC3    C4 6090   3.070   1.310   9.429  0.5428 -0.3330 -0.1369
  408TMC3    C5 6091   3.138   1.193   9.430 -0.1239  0.0404 -0.4648
  408TMC3    C6 6092   3.249   1.171   9.499  0.9297 -0.2015 -0.2531
  408TMC3     C 6093   3.081   1.546   9.430  0.2829  0.3737 -0.3805
  408TMC3     O 6094   3.011   1.539   9.332 -0.0131  0.4388 -0.2289
  408TMC3     H 6095   3.307   1.493   9.584 -0.2095  0.5224 -0.5077
  408TMC3    H1 6096   2.978   1.325   9.374  0.1656  2.0982  1.1786
  408TMC3    H2 6097   3.296   1.074   9.504  1.8941  0.3276  0.7924
  408TMC3    C7 6098   3.082   1.101   9.337  0.1378 -0.0965  0.6379
  408TMC3    C8 6099   3.385   1.255   9.692 -0.5927  0.3140 -0.0087
  408TMC3    O1 6100   2.961   1.097   9.318 -0.4067  0.1301 -1.0972
  408TMC3    O2 6101   3.383   1.142   9.739 -0.7275  0.3840  0.3532
  409MPD2     C 6102   1.125   2.758  16.763  0.7864  0.1746 -0.0978
  409MPD2    C1 6103   1.141   2.797  16.892  0.2485 -0.1427 -0.3484
  409MPD2    C2 6104   1.222   2.902  16.913  0.0198 -0.1806 -0.5199
  409MPD2    C3 6105   1.285   2.963  16.803 -0.0507 -0.5681 -0.2176
  409MPD2    C4 6106   1.254   2.928  16.675 -0.3105 -0.6605 -0.0843
  409MPD2    C5 6107   1.172   2.823  16.654 -0.0364 -0.1993  0.1045
  409MPD2     H 6108   1.235   2.938  17.014  0.0169 -0.6851 -0.3435
  409MPD2    H1 6109   1.283   2.989  16.591  0.3235  0.0291  0.6302
  409MPD2    H2 6110   1.069   2.668  16.737 -3.0554  3.3488 -2.6998
  409MPD2    H3 6111   1.148   2.808  16.550  0.8887 -0.5285 -0.0552
  409MPD2     N 6112   1.360   3.081  16.817  0.2066  0.2233  0.3416
  409MPD2    H5 6113   1.404   3.126  16.738 -0.0886  0.5354  0.3539
  409MPD2    N1 6114   1.090   2.723  17.001 -1.5460 -0.1549 -0.6409
  409MPD2    H7 6115   1.100   2.761  17.095 -0.8206 -2.6970  0.3271
  410TMC3    C1 6116   1.490   3.243  16.898 -0.3557  0.0886 -0.0442
  410TMC3    C2 6117   1.611   3.241  16.970 -0.0004  0.0661  0.4183
  410TMC3    C3 6118   1.712   3.325  16.926  0.7185 -0.1264 -0.5342
  410TMC3    C4 6119   1.467   3.323  16.791 -0.0911 -0.5624 -0.6301
  410TMC3    C5 6120   1.574   3.401  16.752 -0.5747  0.4815 -0.4779
  410TMC3    C6 6121   1.695   3.410  16.817  0.7279 -0.0307  0.1467
  410TMC3     C 6122   1.395   3.144  16.937 -0.7387 -0.2616 -0.8581
  410TMC3     O 6123   1.397   3.103  17.052  0.5774  0.5736 -0.2690
  410TMC3     H 6124   1.605   3.193  17.067 -0.3471 -1.9393 -0.5834
  410TMC3    H1 6125   1.373   3.327  16.737 -1.5578  1.8696  2.0277
  410TMC3    H2 6126   1.782   3.464  16.781 -0.0076  2.0472  1.4772
  410TMC3    C7 6127   1.546   3.475  16.631 -0.3023  0.0419  0.4919
  410TMC3    C8 6128   1.843   3.314  16.981  0.1547  0.0944  0.1869
  410TMC3    O1 6129   1.461   3.426  16.561 -0.6192  0.1116  0.5825
  410TMC3    O2 6130   1.892   3.422  17.023 -0.5395 -0.1109 -0.6731
  411MPD2     C 6131   1.757   4.709  14.564  0.1055 -0.6380 -0.0571
  411MPD2    C1 6132   1.694   4.669  14.450  0.1383 -0.1716 -0.2542
  411MPD2    C2 6133   1.753   4.588  14.361 -1.0484  0.2391  0.4998
  411MPD2    C3 6134   1.873   4.530  14.389  0.3607  0.2626 -0.1774
  411MPD2    C4 6135   1.930   4.551  14.515 -0.5133 -0.5950 -0.2064
  411MPD2    C5 6136   1.872   4.639  14.601  0.0664 -0.3910  0.5423
  411MPD2     H 6137   1.696   4.560  14.273  1.1989  1.4886 -1.3357
  411MPD2    H1 6138   2.019   4.494  14.536  0.2929  0.1775 -1.5246
  411MPD2    H2 6139   1.704   0.045  14.639 -0.5188  0.1154 -1.0671
  411MPD2    H3 6140   1.925   4.651  14.695  0.1386 -0.0897  0.4653
  411MPD2     N 6141   1.934   4.447  14.296 -0.3333 -0.0208  0.1273
  411MPD2    H5 6142   2.002   4.383  14.336  0.4647  0.0557 -1.0859
  411MPD2    N1 6143   1.570   0.006  14.430 -0.3742 -0.5633 -0.5611
  411MPD2    H7 6144   1.535   0.070  14.500  0.7934  0.0012 -0.4863
  412TMC3    C1 6145   1.979   4.326  14.102  0.3870 -0.2718 -0.1559
  412TMC3    C2 6146   2.030   4.219  14.175 -0.3691 -0.5412 -0.8345
  412TMC3    C3 6147   2.092   4.125  14.100  0.0049 -0.0976  0.4406
  412TMC3    C4 6148   1.995   4.340  13.964  0.6612  0.6097 -1.2698
  412TMC3    C5 6149   2.058   4.245  13.894  0.2689 -0.8478 -0.5273
  412TMC3    C6 6150   2.112   4.140  13.964 -0.3811 -0.6319  0.7708
  412TMC3     C 6151   1.899   4.431  14.163  0.1231  1.0902 -0.1535
  412TMC3     O 6152   1.834   4.494  14.088  0.3957  0.1527 -0.2749
  412TMC3     H 6153   2.002   4.207  14.279  0.7041 -0.4920 -0.5401
  412TMC3    H1 6154   1.953   4.426  13.914  1.1310  1.1028 -0.8024
  412TMC3    H2 6155   2.180   4.074  13.911  0.0988 -0.4372  1.1488
  412TMC3    C7 6156   1.971   4.186  13.793 -0.1623 -0.0925 -0.0251
  412TMC3    C8 6157   2.042   3.995  14.145 -0.7678  0.0706 -0.2197
  412TMC3    O1 6158   1.974   4.066  13.779 -0.2346 -0.1561  0.6256
  412TMC3    O2 6159   2.034   3.973  14.263  0.1336 -0.1145 -0.0604
  413MPD2     C 6160   3.047   2.023  15.788 -0.0288 -0.4319 -0.1921
  413MPD2    C1 6161   3.063   2.012  15.652 -0.9122 -0.4516 -0.1198
  413MPD2    C2 6162   3.115   1.893  15.592 -0.0822 -0.5724 -0.5094
  413MPD2    C3 6163   3.188   1.805  15.664  0.6523  0.5169  0.3237
  413MPD2    C4 6164   3.190   1.825  15.805  0.1503  1.0602  0.5961
  413MPD2    C5 6165   3.106   1.917  15.863  0.6933  0.2254  0.3115
  413MPD2     H 6166   3.111   1.883  15.484  1.4401  0.4001 -0.6583
  413MPD2    H1 6167   3.245   1.756  15.868  0.0960  0.6071  0.1507
  413MPD2    H2 6168   2.984   2.096  15.836 -3.1481 -3.2778  0.0950
  413MPD2    H3 6169   3.099   1.915  15.971  0.2211 -0.6578  0.2653
  413MPD2     N 6170   3.256   1.703  15.589  0.6490 -0.1994 -0.5282
  413MPD2    H5 6171   3.266   1.720  15.490  3.4560  2.5489  0.2162
  413MPD2    N1 6172   2.994   2.101  15.565  0.7098 -0.3397 -1.0164
  413MPD2    H7 6173   2.988   2.072  15.468 -1.9651  0.7932 -1.2043
  414TMC3    C1 6174   3.419   1.528  15.592 -0.2377  0.4677 -0.1466
  414TMC3    C2 6175   3.483   1.418  15.654  0.1052 -0.6022  0.0572
  414TMC3    C3 6176   3.595   1.362  15.595 -0.1164 -0.0241  0.0209
  414TMC3    C4 6177   3.461   1.574  15.467  0.1454 -0.1391  0.9808
  414TMC3    C5 6178   3.571   1.520  15.421  0.8662 -0.0061  0.3537
  414TMC3    C6 6179   3.640   1.412  15.476 -0.3827  0.0948  0.1240
  414TMC3     C 6180   3.312   1.595  15.653 -0.0413  0.3051  1.1389
  414TMC3     O 6181   3.276   1.562  15.762 -0.1050 -0.4873  0.4708
  414TMC3     H 6182   3.440   1.367  15.740  1.2808  2.3394  2.3651
  414TMC3    H1 6183   3.401   1.641  15.406 -1.0515 -1.5551  0.6097
  414TMC3    H2 6184   3.717   1.362  15.419 -1.6729  0.1371 -1.6666
  414TMC3    C7 6185   3.606   1.572  15.283  0.3465 -0.4563 -0.5173
  414TMC3    C8 6186   3.676   1.260  15.652  0.2475 -0.2992 -0.1182
  414TMC3    O1 6187   3.519   1.627  15.210  0.2674  0.4918  0.5344
  414TMC3    O2 6188   3.763   1.207  15.583 -0.1420  0.3999  0.0472
  415TMC3    C1 6189   3.810   3.913   9.597  0.6747  0.1835  0.4617
  415TMC3    C2 6190   3.881   3.888   9.483  0.4226  0.0560  0.1756
  415TMC3    C3 6191   3.826   3.780   9.411 -0.2103  0.5829 -0.1487
  415TMC3    C4 6192   3.708   3.834   9.644 -0.2141  0.2259  0.6116
  415TMC3    C5 6193   3.670   3.722   9.572  0.1680 -0.2844 -0.3963
  415TMC3    C6 6194   3.723   3.703   9.453 -0.2489 -0.8590  0.4837
  415TMC3     C 6195   3.862   3.998   9.695  0.2360 -0.4182  0.4322
  415TMC3     O 6196   3.843   3.958   9.807 -0.0335 -0.1194  0.3027
  415TMC3     H 6197   3.959   3.954   9.449  1.1866 -1.5194 -1.1058
  415TMC3    H1 6198   3.673   3.856   9.744 -2.9101 -0.6730 -0.1311
  415TMC3    H2 6199   3.693   3.613   9.401  2.8769 -0.2493 -2.3538
  415TMC3    C7 6200   3.583   3.623   9.633  0.4588 -0.5945 -0.5066
  415TMC3    C8 6201   3.885   3.749   9.286 -0.6455 -0.6011 -0.3379
  415TMC3    O1 6202   3.534   3.540   9.559 -0.2747  0.2276 -0.2707
  415TMC3    O2 6203   3.806   3.689   9.211 -0.4972  0.3735 -0.4224
  416MPD2     C 6204   1.204   3.032  11.661 -0.4077 -0.3032  0.4926
  416MPD2    C1 6205   1.172   3.095  11.542  1.2022  0.7611  0.7437
  416MPD2    C2 6206   1.172   3.022  11.427  0.4440 -0.1408 -0.5416
  416MPD2    C3 6207   1.202   2.888  11.422 -0.3413  0.5198  0.0355
  416MPD2    C4 6208   1.242   2.826  11.537 -0.0339  0.9115  0.5367
  416MPD2    C5 6209   1.242   2.898  11.657  0.1734  0.3976  0.0435
  416MPD2     H 6210   1.156   3.071  11.332  1.0784  0.4762 -0.3255
  416MPD2    H1 6211   1.254   2.718  11.529 -1.3315  0.8417 -0.6200
  416MPD2    H2 6212   1.193   3.074  11.761 -0.9351  1.6425 -0.3731
  416MPD2    H3 6213   1.268   2.846  11.749 -0.2529 -1.6555 -0.9956
  416MPD2     N 6214   1.193   2.808  11.306 -0.5129  0.4117  0.3248
  416MPD2    H5 6215   1.241   2.719  11.299  2.9717  2.2978 -0.0557
  416MPD2    N1 6216   1.141   3.227  11.557 -0.4963  0.0839 -0.0375
  416MPD2    H7 6217   1.156   3.273  11.647 -0.7702  0.3486 -0.1265
  417TMC3    C1 6218   1.049   3.441  11.519  0.0607  0.0172 -0.2138
  417TMC3    C2 6219   1.025   3.447  11.654  0.1877  0.1255  0.2223
  417TMC3    C3 6220   0.994   3.569  11.717  0.5555  0.1179 -0.6717
  417TMC3    C4 6221   1.034   3.551  11.443 -0.6119  0.4863 -0.4228
  417TMC3    C5 6222   1.000   3.664  11.504  0.5189  0.0242 -0.7361
  417TMC3    C6 6223   0.987   3.682  11.642 -0.1441  0.0520 -0.0080
  417TMC3     C 6224   1.092   3.309  11.460 -0.0712 -0.0760  0.4331
  417TMC3     O 6225   1.102   3.297  11.338 -0.0306  0.0699 -0.0803
  417TMC3     H 6226   1.005   3.352  11.703  0.1540 -0.9504 -1.8783
  417TMC3    H1 6227   1.049   3.550  11.336  1.8954 -0.8618 -0.0511
  417TMC3    H2 6228   0.971   3.778  11.690  0.7460  0.9639 -1.5492
  417TMC3    C7 6229   0.958   3.779  11.419 -0.0364  0.6744  0.7189
  417TMC3    C8 6230   0.958   3.576  11.859 -0.1480 -0.0194  0.1460
  417TMC3    O1 6231   1.028   3.796  11.318  1.1013 -0.4326 -1.0333
  417TMC3    O2 6232   0.903   3.676  11.901 -0.6984 -0.2969  0.2583
  418TMC3    C1 6233   4.512   0.094  17.672  0.2863  0.3491  0.2809
  418TMC3    C2 6234   4.378   0.134  17.673  0.4244 -0.2955 -0.1039
  418TMC3    C3 6235   4.344   0.235   0.077  0.6479  0.4218 -0.4984
  418TMC3    C4 6236   4.604   0.154   0.059  0.1787  0.0359  0.8156
  418TMC3    C5 6237   4.570   0.263   0.137  0.1317  0.1507  0.7567
  418TMC3    C6 6238   4.437   0.314   0.139 -0.0588 -0.0349  0.4201
  418TMC3     C 6239   4.555   4.695  17.595  0.6091 -0.4958  0.5553
  418TMC3     O 6240   4.498   4.671  17.490 -0.6871 -0.5239  0.0937
  418TMC3     H 6241   4.300   0.073  17.629  1.6111 -1.6406 -0.3449
  418TMC3    H1 6242   4.705   0.117   0.062 -0.3093 -1.4209 -0.8279
  418TMC3    H2 6243   4.411   0.383   0.218  0.9643 -0.9924  1.5907
  418TMC3    C7 6244   4.647   0.277   0.257 -0.1189 -0.3226 -0.6657
  418TMC3    C8 6245   4.219   0.219   0.140 -0.5146  0.0341 -0.2921
  418TMC3    O1 6246   4.720   0.184   0.285  0.1608 -0.1796 -0.1184
  418TMC3    O2 6247   4.174   0.320   0.191  0.2159 -0.6031  0.1326
  419MPD2     C 6248   2.095   3.023  12.617 -1.0725  0.6905 -0.0236
  419MPD2    C1 6249   2.166   3.145  12.605 -0.2109 -0.1761 -0.3785
  419MPD2    C2 6250   2.176   3.244  12.702 -0.2507 -0.0980 -0.6429
  419MPD2    C3 6251   2.130   3.204  12.825  0.2380 -0.7949  0.4558
  419MPD2    C4 6252   2.061   3.085  12.845 -0.4352  0.2329 -0.1944
  419MPD2    C5 6253   2.038   3.002  12.739 -0.1712  0.8187 -0.0222
  419MPD2     H 6254   2.239   3.330  12.684 -0.1663  0.1473  0.8283
  419MPD2    H1 6255   2.011   3.063  12.939  3.0630 -0.2675  1.5172
  419MPD2    H2 6256   2.077   2.951  12.538 -1.1297  0.7830 -0.0944
  419MPD2    H3 6257   1.983   2.910  12.754 -0.6807  1.1565  0.1792
  419MPD2     N 6258   2.155   3.287  12.933  0.0042 -0.0834 -0.0581
  419MPD2    H5 6259   2.182   3.382  12.911  2.0312 -0.5754  0.3255
  419MPD2    N1 6260   2.234   3.171  12.481  0.8017  0.1029 -0.0887
  419MPD2    H7 6261   2.284   3.259  12.478 -0.1304  0.5462 -2.3898
  420TMC3    C1 6262   2.193   3.360  13.157 -0.4622  0.0243 -0.1645
  420TMC3    C2 6263   2.197   3.490  13.110  0.5413  0.0804 -0.3222
  420TMC3    C3 6264   2.264   3.583  13.178 -0.0292 -0.3694  0.0145
  420TMC3    C4 6265   2.270   3.330  13.273  0.1796 -0.8210  0.6009
  420TMC3    C5 6266   2.339   3.430  13.334 -0.2978 -0.2523 -0.0099
  420TMC3    C6 6267   2.335   3.561  13.296  0.1457  0.1029 -0.4292
  420TMC3     C 6268   2.158   3.249  13.066  0.1955 -0.4640  0.3200
  420TMC3     O 6269   2.174   3.138  13.116  0.1824 -0.3171 -0.0002
  420TMC3     H 6270   2.130   3.517  13.030  0.3477 -1.9033 -0.8435
  420TMC3    H1 6271   2.278   3.232  13.318  1.4481 -0.0333  2.0914
  420TMC3    H2 6272   2.402   3.632  13.345 -0.1644 -0.7052  1.1638
  420TMC3    C7 6273   2.423   3.390  13.444  0.4484 -0.5585  0.2865
  420TMC3    C8 6274   2.261   3.721  13.134 -0.2876  0.0987  0.2133
  420TMC3    O1 6275   2.472   3.276  13.442  0.0246  0.6963  0.2221
  420TMC3    O2 6276   2.347   3.790  13.183  0.2733  0.0872 -0.5808
  421TMC3    C1 6277   4.020   0.491  13.962 -0.7393  0.3188  0.5638
  421TMC3    C2 6278   4.090   0.611  13.957 -0.5927 -0.1153  0.9063
  421TMC3    C3 6279   4.222   0.608  13.978 -0.0649  0.8057 -0.3070
  421TMC3    C4 6280   4.080   0.377  13.989 -0.5372 -0.4020 -0.5579
  421TMC3    C5 6281   4.216   0.377  14.009  0.2275  0.3633 -0.4543
  421TMC3    C6 6282   4.293   0.488  14.004  0.1315 -0.0574  0.9183
  421TMC3     C 6283   3.876   0.491  13.952  0.3247  0.4264  0.0216
  421TMC3     O 6284   3.808   0.588  13.988  0.1189 -0.1469 -0.0246
  421TMC3     H 6285   4.039   0.705  13.940 -1.5114 -1.3124 -2.8909
  421TMC3    H1 6286   4.017   0.290  14.006  2.6116 -2.5490  0.1427
  421TMC3    H2 6287   4.401   0.488  14.015  0.2801  2.4013 -0.6084
  421TMC3    C7 6288   4.285   0.258  14.061  0.1819 -0.0931 -0.7638
  421TMC3    C8 6289   4.287   0.735  13.986  0.0340  0.3155 -0.6367
  421TMC3    O1 6290   4.392   0.257  14.118  0.5084  0.6241  0.1865
  421TMC3    O2 6291   4.209   0.829  14.005  0.1637  0.3495 -0.3580
  422TMC3    C1 6292   2.140   1.397  12.999  0.4615 -0.2219 -0.3150
  422TMC3    C2 6293   2.125   1.505  13.075  0.9389  0.5194  0.3114
  422TMC3    C3 6294   2.001   1.526  13.131  0.3697 -0.2845  0.2610
  422TMC3    C4 6295   2.038   1.310  12.976 -0.0848 -0.2830 -0.0874
  422TMC3    C5 6296   1.916   1.323  13.037 -0.6356  0.3327 -1.0569
  422TMC3    C6 6297   1.900   1.434  13.113 -0.3867 -0.4214 -0.5742
  422TMC3     C 6298   2.224   1.422  12.878  0.1063 -0.6164  0.4359
  422TMC3     O 6299   2.240   1.539  12.851 -0.5911  0.1135 -0.0793
  422TMC3     H 6300   2.207   1.575  13.088  0.4755  0.6670  2.5428
  422TMC3    H1 6301   2.065   1.233  12.905 -0.6824 -0.9121  0.3733
  422TMC3    H2 6302   1.795   1.460  13.120 -0.1020  1.1320 -2.2266
  422TMC3    C7 6303   1.806   1.241  12.985 -0.2890 -0.7709  0.2961
  422TMC3    C8 6304   1.977   1.672  13.150 -0.2235 -0.0434  0.4138
  422TMC3    O1 6305   1.839   1.167  12.894  0.2060  0.5994  0.1979
  422TMC3    O2 6306   2.049   1.744  13.081 -0.4455 -0.1169 -0.2233
  423MPD2     C 6307   2.609   2.517   0.388  0.0099 -0.4449  1.1035
  423MPD2    C1 6308   2.748   2.530   0.379  0.1048 -0.0341 -0.4397
  423MPD2    C2 6309   2.817   2.454   0.292  0.2712  0.5519 -0.1729
  423MPD2    C3 6310   2.753   2.358   0.216 -0.0482 -1.0148  0.5959
  423MPD2    C4 6311   2.617   2.348   0.218 -0.8537  0.8987  0.3180
  423MPD2    C5 6312   2.543   2.424   0.305 -0.2781  0.2611 -0.6294
  423MPD2     H 6313   2.925   2.464   0.293  0.3642 -0.4164 -0.3276
  423MPD2    H1 6314   2.573   2.273   0.154  0.9261 -0.7513  1.0192
  423MPD2    H2 6315   2.552   2.576   0.458 -0.6823  0.8058 -0.4965
  423MPD2    H3 6316   2.437   2.408   0.320 -0.3441  0.5536 -0.7834
  423MPD2     N 6317   2.822   2.279   0.131  0.2473  0.3485 -0.5502
  423MPD2    H5 6318   2.778   2.192   0.106  0.8592  0.1240 -0.8421
  423MPD2    N1 6319   2.825   2.602   0.467 -0.0669  0.5199 -1.1144
  423MPD2    H7 6320   2.926   2.606   0.459 -0.1464 -0.3449 -2.4362
  424TMC3    C1 6321   2.875   2.732   0.666  0.0200  0.6088  0.3732
  424TMC3    C2 6322   3.006   2.687   0.656 -0.3494  0.2145 -1.2446
  424TMC3    C3 6323   3.088   2.691   0.764  0.1892 -0.5089  0.4108
  424TMC3    C4 6324   2.825   2.779   0.786  0.5264 -0.2575  0.2799
  424TMC3    C5 6325   2.911   2.785   0.895  0.3025  0.0729  0.1012
  424TMC3    C6 6326   3.036   2.741   0.881  0.1201  0.0462  0.7145
  424TMC3     C 6327   2.776   2.686   0.568  0.4688 -0.0520 -0.5744
  424TMC3     O 6328   2.667   2.740   0.573 -0.0020  0.6957  0.4320
  424TMC3     H 6329   3.044   2.653   0.560  0.2422 -0.8938 -0.6213
  424TMC3    H1 6330   2.723   2.812   0.801  0.0077 -2.1776  1.0454
  424TMC3    H2 6331   3.099   2.736   0.969  1.4631 -0.5811 -0.2811
  424TMC3    C7 6332   2.851   2.766   1.026 -0.5008  0.1119 -0.3130
  424TMC3    C8 6333   3.146   2.563   0.793 -0.0383 -0.3969 -0.0793
  424TMC3    O1 6334   2.766   2.848   1.052  0.2054 -0.0083 -1.1685
  424TMC3    O2 6335   3.111   2.509   0.898 -0.1554  0.1277  0.0322
  425MPD2     C 6336   1.913   1.821  17.344  0.2867  0.7007 -0.2016
  425MPD2    C1 6337   1.854   1.698  17.379  0.7623 -0.3878 -0.0150
  425MPD2    C2 6338   1.725   1.705  17.430 -0.6884 -0.6564 -0.6984
  425MPD2    C3 6339   1.660   1.829  17.450  0.1811  0.0489  0.0557
  425MPD2    C4 6340   1.720   1.946  17.415 -0.6124  0.1436 -0.3987
  425MPD2    C5 6341   1.845   1.934  17.350  0.1907 -0.3324 -0.4222
  425MPD2     H 6342   1.676   1.617  17.469  0.6994 -0.4723  1.4531
  425MPD2    H1 6343   1.681   2.046  17.431  1.0790  1.1022 -2.2469
  425MPD2    H2 6344   2.011   1.828  17.298  1.6612 -0.5790  2.5681
  425MPD2    H3 6345   1.886   2.025  17.308 -0.4613  0.1844  0.0615
  425MPD2     N 6346   1.526   1.823  17.507  0.5928 -0.7442 -0.4787
  425MPD2    H5 6347   1.480   1.735  17.527  0.0625 -0.3536  0.0154
  425MPD2    N1 6348   1.927   1.580  17.349 -0.0205  0.0820  0.0361
  425MPD2    H7 6349   2.019   1.592  17.309 -0.5274  1.6938 -0.6699
  426TMC3    C1 6350   1.969   1.348  17.324 -0.9397  0.1140 -0.7319
  426TMC3    C2 6351   1.916   1.238  17.269  0.1007  0.2048  0.0147
  426TMC3    C3 6352   1.996   1.127  17.259 -0.3900 -0.4198  0.2482
  426TMC3    C4 6353   2.089   1.350  17.394 -0.1226 -0.1344  0.2399
  426TMC3    C5 6354   2.165   1.229  17.377 -0.4959  0.0877  0.4059
  426TMC3    C6 6355   2.122   1.123  17.301 -0.3879 -0.6000 -0.1624
  426TMC3     C 6356   1.875   1.455  17.358 -0.9828 -0.5284 -0.0740
  426TMC3     O 6357   1.758   1.423  17.367  0.7897 -0.0942 -0.0734
  426TMC3     H 6358   1.815   1.252  17.233 -0.1643 -2.3545 -0.2453
  426TMC3    H1 6359   2.117   1.447  17.433 -0.4945 -0.0523  0.2989
  426TMC3    H2 6360   2.165   1.023  17.301 -1.6055 -1.1073  1.4265
  426TMC3    C7 6361   2.247   1.190  17.485 -0.3351  0.2043 -0.0719
  426TMC3    C8 6362   1.949   1.013  17.182  0.0923  0.0730  0.0129
  426TMC3    O1 6363   2.331   1.103  17.467  0.1669  0.0440  0.2246
  426TMC3    O2 6364   2.026   0.915  17.175 -0.2126  0.5433 -0.0430
  427MPD2     C 6365   0.714   3.583  14.666 -0.2854  0.0121  0.1960
  427MPD2    C1 6366   0.725   3.545  14.803  0.1346  0.4293  0.3607
  427MPD2    C2 6367   0.625   3.574  14.894 -0.8090 -0.3311  0.4672
  427MPD2    C3 6368   0.508   3.637  14.850 -0.0604 -0.2006  0.5207
  427MPD2    C4 6369   0.495   3.669  14.716  0.9157  0.0464  0.4776
  427MPD2    C5 6370   0.598   3.648  14.626 -0.8247  0.3983 -0.5752
  427MPD2     H 6371   0.642   3.534  14.994 -1.5606 -1.3689  0.1772
  427MPD2    H1 6372   0.408   3.720  14.679 -0.1219 -0.8829  1.6250
  427MPD2    H2 6373   0.795   3.563  14.598  0.5185 -1.6061  1.6366
  427MPD2    H3 6374   0.583   3.689  14.527 -1.0996  1.5912 -0.0341
  427MPD2     N 6375   0.399   3.668  14.932 -0.0148 -0.2525  0.4118
  427MPD2    H5 6376   0.322   3.692  14.870 -0.8278  0.4876  1.7256
  427MPD2    N1 6377   0.846   3.478  14.839  0.2446  0.1369 -0.1518
  427MPD2    H7 6378   0.920   3.480  14.770  1.8454  0.0645  1.5499
  428TMC3    C1 6379   1.008   3.367  14.975  0.0330 -0.7753  0.7018
  428TMC3    C2 6380   1.009   3.260  15.058  0.6874 -0.0536  0.0547
  428TMC3    C3 6381   1.132   3.214  15.099 -0.1761  0.6877  0.6705
  428TMC3    C4 6382   1.108   3.437  14.928 -0.1007 -0.6010  0.5367
  428TMC3    C5 6383   1.231   3.386  14.962  0.0304  0.1793 -0.0308
  428TMC3    C6 6384   1.242   3.280  15.052  0.0329 -0.3666 -0.0504
  428TMC3     C 6385   0.878   3.424  14.960 -1.2658 -0.2340  0.0945
  428TMC3     O 6386   0.815   3.414  15.065  0.3971 -0.0316  0.3831
  428TMC3     H 6387   0.918   3.203  15.071  1.7523 -1.1489  2.6173
  428TMC3    H1 6388   1.085   3.520  14.862  1.4930 -0.3123  0.3430
  428TMC3    H2 6389   1.339   3.245  15.087  0.6994  0.8201 -0.7022
  428TMC3    C7 6390   1.347   3.469  14.945 -0.6353  0.0851  0.0876
  428TMC3    C8 6391   1.154   3.076  15.125  0.0667  0.1456  0.1314
  428TMC3    O1 6392   1.434   3.469  15.035 -0.2813  0.4658  0.2472
  428TMC3    O2 6393   1.254   3.024  15.075  0.0635 -0.1412  0.2915
  429MPD2     C 6394   1.477   3.706  17.341 -0.6136 -0.1159 -0.1906
  429MPD2    C1 6395   1.543   3.703  17.461 -0.6472  0.1596  0.6269
  429MPD2    C2 6396   1.654   3.781  17.480  0.7076 -0.5591 -0.0893
  429MPD2    C3 6397   1.692   3.865  17.376 -0.7704  0.3101  0.1612
  429MPD2    C4 6398   1.621   3.870  17.262  0.8726  0.5340 -0.0891
  429MPD2    C5 6399   1.519   3.787  17.242  0.6649  0.0082  0.1229
  429MPD2     H 6400   1.714   3.780  17.570  2.0814  0.3918 -1.0018
  429MPD2    H1 6401   1.664   3.923  17.179  0.4306 -2.1895 -2.0759
  429MPD2    H2 6402   1.383   3.653  17.330 -0.4498 -0.8198  1.8186
  429MPD2    H3 6403   1.469   3.788  17.146  1.4227 -2.2736 -0.2950
  429MPD2     N 6404   1.802   3.955  17.371  0.2891  0.5474 -0.7327
  429MPD2    H5 6405   1.829   3.999  17.284 -0.5618 -0.0846 -1.3182
  429MPD2    N1 6406   1.506   3.615  17.569  0.2035  0.0696  0.0302
  429MPD2    H7 6407   1.572   3.606  17.646 -2.0034 -1.3756  1.7410
  430TMC3    C1 6408   2.016   4.053  17.440 -0.1650 -0.4913  0.4036
  430TMC3    C2 6409   1.994   4.156  17.354 -0.0426  0.1666 -0.8415
  430TMC3    C3 6410   2.101   4.187  17.269 -0.2681  0.1772  0.0734
  430TMC3    C4 6411   2.135   3.978  17.437  0.0317 -0.4099  0.3463
  430TMC3    C5 6412   2.231   4.009  17.337  0.8550  0.8721 -0.2109
  430TMC3    C6 6413   2.216   4.117  17.267  0.1023  0.3906 -0.6516
  430TMC3     C 6414   1.900   3.966  17.473 -0.4661  0.1195 -0.4234
  430TMC3     O 6415   1.893   3.911  17.579  0.1324  0.2503 -0.4484
  430TMC3     H 6416   1.905   4.218  17.355 -0.1184  0.0161  0.8353
  430TMC3    H1 6417   2.142   3.887  17.495 -0.3885  0.2217  1.3857
  430TMC3    H2 6418   2.288   4.147  17.192 -1.0772  1.1145 -1.4968
  430TMC3    C7 6419   2.299   3.897  17.281  0.4267  0.0069  1.1025
  430TMC3    C8 6420   2.071   4.280  17.157  0.7959 -0.7010  0.0230
  430TMC3    O1 6421   2.264   3.781  17.318  0.4591  0.2248 -0.0174
  430TMC3    O2 6422   2.157   4.274  17.069 -0.1296  0.6785 -0.2359
  431MPD2     C 6423   2.927   3.466  12.802 -0.8407 -0.9924  0.7190
  431MPD2    C1 6424   2.907   3.524  12.668  0.0421  0.3326  0.3494
  431MPD2    C2 6425   2.849   3.436  12.571 -0.6116 -0.5318 -0.0888
  431MPD2    C3 6426   2.802   3.308  12.609  1.0415  0.6973  0.1868
  431MPD2    C4 6427   2.804   3.267  12.733  0.9608 -0.1112 -0.3514
  431MPD2    C5 6428   2.875   3.341  12.825  0.2406  0.7748 -0.1564
  431MPD2     H 6429   2.845   3.477  12.471 -0.5754 -1.0686 -0.3134
  431MPD2    H1 6430   2.754   3.177  12.765 -1.9235  2.3490  2.1002
  431MPD2    H2 6431   2.952   3.524  12.891 -1.1053  0.6303 -0.2512
  431MPD2    H3 6432   2.889   3.308  12.927  1.0068  0.4176 -0.3742
  431MPD2     N 6433   2.726   3.226  12.520 -1.0710  0.0933  0.3562
  431MPD2    H5 6434   2.670   3.153  12.563 -1.2285 -1.0019 -1.6547
  431MPD2    N1 6435   2.953   3.653  12.628 -0.5520 -0.1248 -0.7882
  431MPD2    H7 6436   2.956   3.675  12.529 -1.4573 -1.6012 -1.1444
  432TMC3    C1 6437   2.605   3.173  12.315  0.5364  0.8457  0.2446
  432TMC3    C2 6438   2.617   3.173  12.178 -0.5566 -0.3344 -0.1053
  432TMC3    C3 6439   2.510   3.121  12.108  0.4743  0.8137  0.0046
  432TMC3    C4 6440   2.487   3.154  12.380 -0.2269  0.4813 -0.0066
  432TMC3    C5 6441   2.381   3.107  12.306 -1.1719  0.0831  0.3721
  432TMC3    C6 6442   2.384   3.098  12.167 -0.2200 -0.1771  0.5245
  432TMC3     C 6443   2.712   3.242  12.385  0.1370 -0.0264 -0.0114
  432TMC3     O 6444   2.795   3.302  12.316  0.1219 -0.0576  0.6213
  432TMC3     H 6445   2.702   3.212  12.124 -0.5099  0.6538  0.6758
  432TMC3    H1 6446   2.483   3.159  12.488  0.1661  1.5298 -0.0493
  432TMC3    H2 6447   2.316   3.035  12.111  1.1545  0.2008 -1.6016
  432TMC3    C7 6448   2.267   3.078  12.383 -0.3691  0.6312 -0.2829
  432TMC3    C8 6449   2.537   3.062  11.974 -0.2009  0.0884 -1.2929
  432TMC3    O1 6450   2.220   2.965  12.358 -0.4122  0.8201 -0.2127
  432TMC3    O2 6451   2.446   3.085  11.896  0.3427  0.1082  0.3374
  433MPD2     C 6452   2.156   2.300  10.737  0.7789  0.0839  0.0830
  433MPD2    C1 6453   2.226   2.202  10.809  0.3851 -0.0181  0.2623
  433MPD2    C2 6454   2.229   2.208  10.946  0.1523 -0.3106 -0.0304
  433MPD2    C3 6455   2.162   2.307  11.011 -0.4948 -0.3979  0.0013
  433MPD2    C4 6456   2.090   2.407  10.937 -0.0946  0.2329  0.7599
  433MPD2    C5 6457   2.086   2.407  10.799  0.1805  0.2712 -0.3689
  433MPD2     H 6458   2.280   2.135  11.008 -0.5644  0.0646  0.9994
  433MPD2    H1 6459   2.023   2.474  10.990 -0.7014  0.1144  0.1541
  433MPD2    H2 6460   2.143   2.299  10.630  0.6475  0.2501  0.0970
  433MPD2    H3 6461   2.030   2.481  10.743  2.6269  2.3133 -0.0868
  433MPD2     N 6462   2.167   2.302  11.155  0.6590 -0.1495 -0.9606
  433MPD2    H5 6463   2.200   2.214  11.194 -3.1595 -1.0729  0.1828
  433MPD2    N1 6464   2.283   2.099  10.732 -0.3367 -0.4078  0.3736
  433MPD2    H7 6465   2.271   2.097  10.631 -0.0037 -0.0668  0.3274
  434TMC3    C1 6466   2.390   1.890  10.683 -0.9622  0.0827  0.7842
  434TMC3    C2 6467   2.517   1.830  10.682  0.6201  0.0154 -0.3679
  434TMC3    C3 6468   2.535   1.711  10.618 -0.3084 -0.2491  0.4773
  434TMC3    C4 6469   2.285   1.846  10.605  0.1547 -0.5112  0.2416
  434TMC3    C5 6470   2.307   1.725  10.541 -0.3445  0.1701 -0.2901
  434TMC3    C6 6471   2.427   1.654  10.554  0.1181  0.4737 -0.0785
  434TMC3     C 6472   2.365   2.003  10.776  0.5653 -0.3219 -0.1579
  434TMC3     O 6473   2.415   1.993  10.887  0.5288  0.0185  0.4762
  434TMC3     H 6474   2.594   1.878  10.741  0.1111  1.5549 -0.9328
  434TMC3    H1 6475   2.186   1.888  10.609  0.0603 -0.7022 -0.0806
  434TMC3    H2 6476   2.445   1.563  10.498 -2.7443 -0.0109 -0.2165
  434TMC3    C7 6477   2.208   1.684  10.451 -0.1136 -0.0969  0.1082
  434TMC3    C8 6478   2.631   1.630  10.686  0.5864  0.7442  0.1343
  434TMC3    O1 6479   2.091   1.716  10.477 -0.1888  0.3611 -0.0008
  434TMC3    O2 6480   2.621   1.512  10.704 -0.0665  0.7104  0.1831
  435MPD2     C 6481   3.581   2.172  15.347  0.0763 -0.3673  0.6562
  435MPD2    C1 6482   3.554   2.226  15.472 -0.1587 -0.0949 -0.8263
  435MPD2    C2 6483   3.654   2.208  15.568  0.0977  0.3405  0.0903
  435MPD2    C3 6484   3.768   2.131  15.542 -0.3421  0.4413  0.0382
  435MPD2    C4 6485   3.787   2.080  15.418  1.2752 -0.0450 -0.6506
  435MPD2    C5 6486   3.697   2.100  15.322 -0.6442 -0.6981  0.0595
  435MPD2     H 6487   3.643   2.265  15.660  3.1910 -0.2093  0.8148
  435MPD2    H1 6488   3.864   2.015  15.379  0.4758 -2.2046  1.4108
  435MPD2    H2 6489   3.508   2.176  15.267  0.2084 -1.4914  0.4839
  435MPD2    H3 6490   3.712   2.059  15.223  0.0608  2.6748 -1.2263
  435MPD2     N 6491   3.858   2.098  15.651 -1.1124  0.5451  0.1033
  435MPD2    H5 6492   3.847   2.147  15.739 -1.9479  0.7418 -0.1069
  435MPD2    N1 6493   3.437   2.289  15.520  0.0936  0.2103  0.2378
  435MPD2    H7 6494   3.428   2.316  15.618 -0.7444  2.1742 -0.3805
  436TMC3    C1 6495   3.171   2.518  15.691  0.1455 -0.0639 -0.5262
  436TMC3    C2 6496   3.228   2.406  15.645  0.6427 -0.1232 -0.1988
  436TMC3    C3 6497   3.220   2.380  15.507 -0.1233 -0.0684  0.0649
  436TMC3    C4 6498   3.099   2.612  15.615  0.0927  0.7053  0.1282
  436TMC3    C5 6499   3.093   2.579  15.486  0.0192  0.2989 -0.0527
  436TMC3    C6 6500   3.163   2.477  15.425 -0.3450 -0.7148 -0.0185
  436TMC3     C 6501   3.228   2.579  15.813  0.3185 -1.1102 -0.2759
  436TMC3     O 6502   3.351   2.560  15.829 -0.0129 -0.2858 -0.5640
  436TMC3     H 6503   3.290   2.360  15.721  0.5694  0.0700 -0.0201
  436TMC3    H1 6504   3.065   2.701  15.667  1.9806  0.5826  1.5860
  436TMC3    H2 6505   3.167   2.472  15.317  1.4935 -0.0815  0.0217
  436TMC3    C7 6506   3.033   2.683  15.406  0.6162  0.3175 -0.0912
  436TMC3    C8 6507   3.327   2.317  15.437  0.4097 -0.5127  0.6681
  436TMC3    O1 6508   3.076   2.701  15.295 -0.5404  0.1214 -0.3247
  436TMC3    O2 6509   3.296   2.277  15.324 -0.1006 -0.1738  0.2424
  437TMC3    C1 6510   2.450   4.014  11.940  0.3161 -0.3376  0.4791
  437TMC3    C2 6511   2.336   4.024  11.874 -0.1603 -0.8074  0.2021
  437TMC3    C3 6512   2.338   4.129  11.786  0.3945  0.0623 -0.5810
  437TMC3    C4 6513   2.554   4.098  11.931  0.1228 -0.6014 -0.3096
  437TMC3    C5 6514   2.547   4.208  11.846  0.1498 -0.3867 -0.8745
  437TMC3    C6 6515   2.438   4.222  11.768 -0.4854 -0.1653  0.3356
  437TMC3     C 6516   2.486   3.892  12.014 -1.1503  0.2523  0.4153
  437TMC3     O 6517   2.596   3.837  11.998  0.0391 -0.3810 -0.0951
  437TMC3     H 6518   2.255   3.951  11.874 -0.0826 -0.8983  1.0515
  437TMC3    H1 6519   2.647   4.069  11.980 -0.4388 -0.8707  0.5917
  437TMC3    H2 6520   2.425   4.308  11.702  2.4453  1.7257  2.2363
  437TMC3    C7 6521   2.668   4.286  11.817 -1.0817 -0.4048 -0.2548
  437TMC3    C8 6522   2.216   4.136  11.704 -0.0361 -0.5938 -0.0652
  437TMC3    O1 6523   2.684   4.322  11.704  0.7019  0.1938  0.1291
  437TMC3    O2 6524   2.129   4.060  11.738 -0.5002 -0.4645  0.1393
  438MPD2     C 6525   4.635   0.433  16.844  0.2192 -0.6211 -0.2744
  438MPD2    C1 6526   4.706   0.424  16.963  0.3814  0.0575 -0.1670
  438MPD2    C2 6527   4.676   0.510  17.064  0.0162  0.2022  0.0688
  438MPD2    C3 6528   4.571   0.594  17.061 -0.5039 -0.1999 -0.2828
  438MPD2    C4 6529   4.486   0.590  16.950  0.1564 -0.3632 -0.2236
  438MPD2    C5 6530   4.525   0.517  16.847 -0.2561 -0.0499 -0.6955
  438MPD2     H 6531   0.019   0.506  17.151  1.4513 -0.3173 -1.0163
  438MPD2    H1 6532   4.401   0.656  16.935  1.1974  1.0165 -0.0696
  438MPD2    H2 6533   4.657   0.369  16.759  0.2332  0.0337 -0.7591
  438MPD2    H3 6534   4.455   0.508  16.765 -1.1753 -0.7505  0.1608
  438MPD2     N 6535   4.528   0.673  17.175  0.1542 -0.4092  0.2983
  438MPD2    H5 6536   4.431   0.703  17.168 -0.3494 -2.3247 -1.2242
  438MPD2    N1 6537   0.089   0.337  16.976  0.0981 -1.0361 -0.1700
  438MPD2    H7 6538   0.130   0.331  17.068  0.3209  1.8646 -0.0913
  439TMC3    C1 6539   0.211   0.146  16.960 -0.7791 -0.2806  0.7005
  439TMC3    C2 6540   0.217   0.013  16.922  0.3508  0.0869 -0.6425
  439TMC3    C3 6541   0.321   4.646  16.959  0.1783  1.0978 -0.4812
  439TMC3    C4 6542   0.315   0.206  17.026 -0.3168 -0.4046  0.5956
  439TMC3    C5 6543   0.413   0.116  17.069  0.0752 -0.2146 -0.9872
  439TMC3    C6 6544   0.418   4.703  17.033  0.0309  0.1178 -1.0837
  439TMC3     C 6545   0.107   0.227  16.897 -0.2018 -0.0897 -0.1794
  439TMC3     O 6546   0.049   0.186  16.797 -0.3497 -0.9208  0.0036
  439TMC3     H 6547   0.128   4.695  16.873  0.1022  0.4614 -0.4907
  439TMC3    H1 6548   0.305   0.304  17.071  1.8661 -0.4092  1.0830
  439TMC3    H2 6549   0.500   4.641  17.067 -1.5052 -1.9218 -1.0291
  439TMC3    C7 6550   0.507   0.157  17.178  0.1787  0.4000  0.2552
  439TMC3    C8 6551   0.351   4.519  16.892 -0.5007 -0.1854 -0.5392
  439TMC3    O1 6552   0.530   0.059  17.247  0.3995 -0.2060  0.4755
  439TMC3    O2 6553   0.431   4.449  16.952  0.8821 -0.0430 -0.1535
  440MPD2     C 6554   4.138   0.667  15.036 -0.3004  0.5585  0.2001
  440MPD2    C1 6555   4.070   0.766  15.119 -0.3892  0.0984 -0.3120
  440MPD2    C2 6556   4.069   0.752  15.257 -0.0661 -0.3738 -0.1325
  440MPD2    C3 6557   4.150   0.656  15.317  0.4996 -0.5098  0.0304
  440MPD2    C4 6558   4.213   0.564  15.236 -0.4663  0.1386 -0.0738
  440MPD2    C5 6559   4.208   0.568  15.097 -1.2214 -0.3570  0.1963
  440MPD2     H 6560   4.030   0.833  15.318 -0.1715 -0.0003 -0.7035
  440MPD2    H1 6561   4.266   0.485  15.288  0.1339  1.1538  0.8462
  440MPD2    H2 6562   4.144   0.671  14.927 -1.2214  0.6802  0.1592
  440MPD2    H3 6563   4.271   0.500  15.041 -0.0446  0.0973  0.9749
  440MPD2     N 6564   4.164   0.653  15.456  0.1429  0.0146 -0.2006
  440MPD2    H5 6565   4.220   0.576  15.492  0.0090 -0.7799 -1.6818
  440MPD2    N1 6566   3.998   0.872  15.066  0.0431  0.9748 -0.6208
  440MPD2    H7 6567   3.954   0.927  15.140  0.5942  1.2260 -0.4755
  441TMC3    C1 6568   4.151   0.711  15.687  0.3628 -0.1170  0.1874
  441TMC3    C2 6569   4.146   0.798  15.786  0.1408 -0.1838  0.0933
  441TMC3    C3 6570   4.131   0.758  15.914 -0.4393  0.4690  0.0925
  441TMC3    C4 6571   4.177   0.580  15.720 -0.0700  0.3488 -0.4663
  441TMC3    C5 6572   4.164   0.536  15.848  0.1043 -0.3589 -0.1752
  441TMC3    C6 6573   4.140   0.624  15.951 -0.3072 -0.6120 -0.0145
  441TMC3     C 6574   4.128   0.747  15.546 -0.1593  0.0862  0.2169
  441TMC3     O 6575   4.089   0.860  15.536  0.3700  0.1451  0.1529
  441TMC3     H 6576   4.142   0.902  15.755 -1.3915 -0.8833 -2.0830
  441TMC3    H1 6577   4.168   0.502  15.646  0.0661 -0.0392 -0.0755
  441TMC3    H2 6578   4.117   0.600  16.054 -2.1858  2.8958  0.3911
  441TMC3    C7 6579   4.105   0.401  15.863  0.5485 -0.1711  0.4181
  441TMC3    C8 6580   4.045   0.841  15.999 -0.3962 -0.6239 -0.0142
  441TMC3    O1 6581   4.153   0.321  15.786  0.4108 -0.6278 -0.5038
  441TMC3    O2 6582   4.024   0.819  16.112  0.4430 -0.1272  0.5072
  442MPD2     C 6583   1.437   1.835  16.671  0.0523 -0.7801  0.3881
  442MPD2    C1 6584   1.327   1.769  16.726  0.1324 -0.1366 -0.3144
  442MPD2    C2 6585   1.319   1.626  16.715 -0.7476  0.0924  0.4623
  442MPD2    C3 6586   1.421   1.553  16.659  0.0977 -0.3704  0.2231
  442MPD2    C4 6587   1.526   1.620  16.605 -0.1790 -0.2751 -0.0053
  442MPD2    C5 6588   1.536   1.756  16.612  0.0960  0.2657 -0.3123
  442MPD2     H 6589   1.225   1.580  16.743  0.6958 -2.8155  0.4485
  442MPD2    H1 6590   1.605   1.563  16.556  1.8270  0.1581  2.7296
  442MPD2    H2 6591   1.451   1.943  16.675  1.0389 -0.8858 -0.1814
  442MPD2    H3 6592   1.622   1.812  16.579 -0.3043  0.8862 -0.3042
  442MPD2     N 6593   1.414   1.416  16.641  0.3850  0.3575 -0.2546
  442MPD2    H5 6594   1.485   1.378  16.579 -2.1193 -1.3859 -2.0260
  442MPD2    N1 6595   1.226   1.830  16.791 -0.5209 -0.5130  0.3597
  442MPD2    H7 6596   1.150   1.773  16.827  0.1608 -0.5641  1.7180
  443TMC3    C1 6597   1.106   1.986  16.905 -0.4001  0.5064 -0.4408
  443TMC3    C2 6598   1.036   2.098  16.863  1.3889 -0.4523  0.4299
  443TMC3    C3 6599   0.904   2.104  16.902 -0.3686  0.0456  0.4634
  443TMC3    C4 6600   1.056   1.884  16.985 -0.8816 -0.1731 -0.5253
  443TMC3    C5 6601   0.920   1.896  17.020 -0.8125 -0.6592 -0.1355
  443TMC3    C6 6602   0.848   2.000  16.982 -0.3641 -0.7162 -0.4846
  443TMC3     C 6603   1.224   1.963  16.823  0.5774 -0.2627  0.1299
  443TMC3     O 6604   1.293   2.057  16.780 -0.0147  0.0324  0.9010
  443TMC3     H 6605   1.077   2.174  16.797 -1.1884  0.5658 -0.0181
  443TMC3    H1 6606   1.108   1.791  17.005  0.5674  1.0369  1.3767
  443TMC3    H2 6607   0.741   1.997  16.996 -0.2419 -1.1538  0.3042
  443TMC3    C7 6608   0.847   1.785  17.083  0.3704 -0.2334 -0.1724
  443TMC3    C8 6609   0.823   2.219  16.860 -0.6975  1.0147  0.2174
  443TMC3    O1 6610   0.897   1.675  17.084 -0.4739  0.4699  0.2021
  443TMC3    O2 6611   0.764   2.277  16.948 -0.2783  0.0568 -0.2667
  444MPD2     C 6612   1.982   1.029   0.163  0.3444 -0.2466 -0.6210
  444MPD2    C1 6613   1.873   0.964   0.112  1.2503 -0.3499  0.1396
  444MPD2    C2 6614   1.881   0.895  17.686  0.3107  0.2285 -0.1708
  444MPD2    C3 6615   1.999   0.884  17.614 -0.8330 -0.5960  0.0361
  444MPD2    C4 6616   2.101   0.957  17.662  0.1373 -0.1845  0.8099
  444MPD2    C5 6617   2.093   1.029   0.086 -0.2117 -0.5698 -0.0655
  444MPD2     H 6618   1.798   0.842  17.641  1.2815 -1.1248 -0.3870
  444MPD2    H1 6619   2.193   0.953  17.604 -1.0395  0.2712 -1.0968
  444MPD2    H2 6620   1.979   1.072   0.262 -0.6233  1.1244 -1.2566
  444MPD2    H3 6621   2.181   1.084   0.119  0.4525 -1.5524 -0.2082
  444MPD2     N 6622   1.989   0.790  17.507 -0.2881 -0.9875  0.1834
  444MPD2    H5 6623   1.895   0.759  17.485 -0.5283 -1.1662  1.4641
  444MPD2    N1 6624   1.747   0.951   0.174  0.0117  1.3521  0.1874
  444MPD2    H7 6625   1.667   0.917   0.120  0.8089  0.9312 -0.7370
  445TMC3    C1 6626   2.051   0.617  17.361  0.2546 -0.2636  0.4018
  445TMC3    C2 6627   1.918   0.598  17.320  0.9155  0.0064  0.2216
  445TMC3    C3 6628   1.885   0.470  17.274  0.0127  0.4990 -0.5790
  445TMC3    C4 6629   2.143   0.519  17.351  0.2952  0.1013 -0.2124
  445TMC3    C5 6630   2.108   0.397  17.306 -0.1804 -0.0423  0.1686
  445TMC3    C6 6631   1.980   0.368  17.265  0.6183  0.1484  0.0215
  445TMC3     C 6632   2.097   0.742  17.433 -0.7036 -0.4210  0.2614
  445TMC3     O 6633   2.215   0.768  17.443 -0.1301  0.5752  0.2290
  445TMC3     H 6634   1.844   0.677  17.328 -0.7331 -1.5952  0.9934
  445TMC3    H1 6635   2.243   0.532  17.392  0.1019  4.0236 -1.0487
  445TMC3    H2 6636   1.967   0.271  17.219 -2.9754  0.6664 -0.0434
  445TMC3    C7 6637   2.220   0.305  17.289  0.0249 -0.0816 -0.3463
  445TMC3    C8 6638   1.756   0.441  17.224  0.6086  0.1603 -0.2861
  445TMC3    O1 6639   2.330   0.360  17.284 -0.5281 -0.7203  0.5954
  445TMC3    O2 6640   1.740   0.324  17.181 -0.0940  0.2107 -0.3666
  446MPD2     C 6641   2.321   1.449  10.956  0.5796 -0.0968  1.1810
  446MPD2    C1 6642   2.270   1.566  10.915  0.1734 -0.4608  0.3646
  446MPD2    C2 6643   2.311   1.683  10.974 -0.2972 -0.7756 -0.8536
  446MPD2    C3 6644   2.410   1.684  11.063 -0.0679 -0.0689 -1.0777
  446MPD2    C4 6645   2.463   1.566  11.103 -0.1318 -0.0426  0.2717
  446MPD2    C5 6646   2.417   1.449  11.050  0.1308  0.0605  0.1226
  446MPD2     H 6647   2.265   1.778  10.948  0.0619 -0.6048 -0.8577
  446MPD2    H1 6648   2.543   1.551  11.174  0.1522  0.7373  0.1118
  446MPD2    H2 6649   2.293   1.351  10.919 -1.2645 -0.3677  3.3265
  446MPD2    H3 6650   2.469   1.363  11.093 -0.3713 -1.5500 -2.4932
  446MPD2     N 6651   2.462   1.807  11.110 -0.4045  0.3998  0.1520
  446MPD2    H5 6652   2.449   1.890  11.054 -1.7645  0.7902  1.0641
  446MPD2    N1 6653   2.168   1.569  10.826 -0.1863 -0.1465 -0.3414
  446MPD2    H7 6654   2.106   1.650  10.823 -0.6571 -0.5075 -0.4149
  447TMC3    C1 6655   2.630   1.951  11.201 -0.0905  0.2442 -0.8924
  447TMC3    C2 6656   2.675   1.979  11.070  0.6273  0.3667  0.5087
  447TMC3    C3 6657   2.800   2.032  11.058 -0.6825 -0.1606 -0.1224
  447TMC3    C4 6658   2.711   1.964  11.314 -0.4446  0.3027 -0.3900
  447TMC3    C5 6659   2.841   1.995  11.287 -0.3752  0.4102 -0.6944
  447TMC3    C6 6660   2.887   2.033  11.164  0.1195  0.5319  0.2104
  447TMC3     C 6661   2.554   1.834  11.207 -0.4016  0.2306  0.0840
  447TMC3     O 6662   2.590   1.762  11.299  0.2233 -0.0254 -0.2841
  447TMC3     H 6663   2.615   1.974  10.980  0.1625  0.6101  0.7997
  447TMC3    H1 6664   2.674   1.936  11.412  0.1019  2.9496  0.5815
  447TMC3    H2 6665   2.994   2.043  11.149  0.1058 -0.1316 -0.3481
  447TMC3    C7 6666   2.940   1.903  11.351 -0.0185  0.3968  0.1494
  447TMC3    C8 6667   2.848   2.069  10.918  0.6309 -0.5142  0.3647
  447TMC3    O1 6668   3.051   1.889  11.295  0.2473  0.0548  0.4170
  447TMC3    O2 6669   2.779   2.040  10.825 -0.0156 -0.2756  0.5154
  448TMC3    C1 6670   4.358   2.241  17.090 -0.9868 -0.3090  0.4333
  448TMC3    C2 6671   4.375   2.120  17.031 -0.6403 -0.1168  0.3717
  448TMC3    C3 6672   4.487   2.053  17.072  0.6040  0.2461 -0.0873
  448TMC3    C4 6673   4.453   2.304  17.167 -0.5517  0.0292  0.1440
  448TMC3    C5 6674   4.559   2.226  17.204 -0.1761  0.2080 -0.1560
  448TMC3    C6 6675   4.583   2.103  17.162 -0.1674 -0.0881 -0.1967
  448TMC3     C 6676   4.245   2.324  17.041 -0.7528  0.2678 -0.1586
  448TMC3     O 6677   4.195   2.294  16.938  0.3012  0.4437  0.6253
  448TMC3     H 6678   4.293   2.078  16.973 -1.2705 -0.1431  1.2814
  448TMC3    H1 6679   4.441   2.403  17.208  2.5709 -0.2827  1.8229
  448TMC3    H2 6680   4.653   2.029  17.197 -0.7338 -0.0320  1.0326
  448TMC3    C7 6681   4.653   2.283  17.304 -0.0560  0.1807  0.1640
  448TMC3    C8 6682   4.509   1.917  17.029 -0.0028 -0.3143 -0.4224
  448TMC3    O1 6683   4.673   2.405  17.297  0.0401 -0.8940 -0.1066
  448TMC3    O2 6684   4.582   1.847  17.096  0.2177  0.4017  0.1899
  449MPD2     C 6685   1.706   0.797  14.242 -0.5696  0.7076 -0.0390
  449MPD2    C1 6686   1.676   0.780  14.111  0.3444  0.0371 -0.2653
  449MPD2    C2 6687   1.596   0.671  14.078  0.2935  0.1579  0.4433
  449MPD2    C3 6688   1.565   0.576  14.172 -0.0873 -0.2626 -0.2309
  449MPD2    C4 6689   1.594   0.598  14.307 -0.4002  0.2742 -0.1698
  449MPD2    C5 6690   1.666   0.711  14.340 -0.7627 -0.9410 -0.2281
  449MPD2     H 6691   1.574   0.649  13.974  0.6701 -0.4368  0.4905
  449MPD2    H1 6692   1.574   0.527  14.387 -1.4523 -0.0423 -0.7241
  449MPD2    H2 6693   1.752   0.889  14.275  0.0141  0.6707 -0.7410
  449MPD2    H3 6694   1.684   0.733  14.445 -0.1581 -0.2582 -0.4804
  449MPD2     N 6695   1.489   0.463  14.134  0.8128  0.5715 -0.0395
  449MPD2    H5 6696   1.462   0.461  14.036  0.3044  1.5754  0.0747
  449MPD2    N1 6697   1.715   0.874  14.005 -0.8376  0.8311  0.7447
  449MPD2    H7 6698   1.682   0.843  13.915 -0.8814 -1.2789  1.4893
  450TMC3    C1 6699   1.794   1.057  13.879  0.2383  0.3809  0.1559
  450TMC3    C2 6700   1.924   1.059  13.831  0.2980 -0.6573  0.3596
  450TMC3    C3 6701   1.946   0.972  13.730 -0.7441 -0.2511 -0.5952
  450TMC3    C4 6702   1.697   1.007  13.798  0.3119  0.3374 -0.4315
  450TMC3    C5 6703   1.718   0.956  13.674 -0.3475  0.0476 -0.1853
  450TMC3    C6 6704   1.848   0.927  13.645  0.3657  0.6059 -0.4987
  450TMC3     C 6705   1.788   0.995  14.014  0.1255 -0.1707 -0.3699
  450TMC3     O 6706   1.870   1.028  14.100  0.0080  0.2012 -0.5933
  450TMC3     H 6707   2.001   1.104  13.892 -0.0415  0.2899  0.0939
  450TMC3    H1 6708   1.590   1.011  13.814  0.3805 -1.3738  0.4668
  450TMC3    H2 6709   1.874   0.871  13.556 -0.4546  0.4574 -0.6489
  450TMC3    C7 6710   1.628   0.846  13.661 -0.4923 -0.0191 -0.1181
  450TMC3    C8 6711   2.084   0.969  13.683 -0.5938  0.1191 -0.0405
  450TMC3    O1 6712   1.658   0.766  13.752 -0.3550  0.1671 -0.2516
  450TMC3    O2 6713   2.161   1.045  13.739  0.0283  0.0451  0.0759
  451MPD2     C 6714   2.541   3.967   1.252  0.7890 -0.0592  0.4420
  451MPD2    C1 6715   2.456   3.858   1.281  0.0391  0.0686 -0.4216
  451MPD2    C2 6716   2.521   3.738   1.312 -0.1466 -0.4197 -0.3424
  451MPD2    C3 6717   2.663   3.724   1.314  0.8011 -0.4605  0.0570
  451MPD2    C4 6718   2.740   3.836   1.285 -0.7811 -0.3052  0.6714
  451MPD2    C5 6719   2.680   3.959   1.266  0.1838 -0.6471 -0.0320
  451MPD2     H 6720   2.467   3.646   1.328 -2.4446  0.9118 -0.4899
  451MPD2    H1 6721   2.847   3.828   1.277 -0.6923  0.1396  1.3978
  451MPD2    H2 6722   2.504   4.068   1.238  0.9797 -0.2362 -1.3652
  451MPD2    H3 6723   2.750   4.039   1.245 -0.4202 -0.1075 -0.0028
  451MPD2     N 6724   2.729   3.599   1.329 -0.1377 -0.5636 -0.2735
  451MPD2    H5 6725   2.829   3.603   1.315  0.1142 -1.2494  1.3862
  451MPD2    N1 6726   2.315   3.877   1.261 -0.9318  0.5625 -0.0073
  451MPD2    H7 6727   2.292   3.975   1.247 -2.9333 -0.2540 -2.5381
  452TMC3    C1 6728   2.761   3.386   1.427 -0.9848  0.4814  0.5774
  452TMC3    C2 6729   2.714   3.297   1.518  0.4575 -0.2999 -0.1114
  452TMC3    C3 6730   2.771   3.170   1.531  0.1077  0.3494 -0.2832
  452TMC3    C4 6731   2.864   3.350   1.349  0.2071 -0.3162 -0.1714
  452TMC3    C5 6732   2.922   3.225   1.368 -0.3100  0.1243  0.5668
  452TMC3    C6 6733   2.876   3.133   1.457 -0.3473 -0.5227 -0.4376
  452TMC3     C 6734   2.665   3.480   1.374 -0.6038  0.4012 -0.2985
  452TMC3     O 6735   2.543   3.458   1.390 -0.1461 -0.7182  0.0205
  452TMC3     H 6736   2.620   3.324   1.566  1.0685 -2.1914  2.1482
  452TMC3    H1 6737   2.900   3.420   1.275 -0.0182  1.0339  0.9931
  452TMC3    H2 6738   2.919   3.036   1.479  2.8351  0.1431 -3.6360
  452TMC3    C7 6739   3.020   3.184   1.266 -0.6093 -0.6460  0.3713
  452TMC3    C8 6740   2.736   3.091   1.646  0.4552  0.1469 -0.1623
  452TMC3    O1 6741   3.049   3.269   1.183 -0.3589 -0.3015  0.1189
  452TMC3    O2 6742   2.763   2.975   1.643  0.1977  0.5077  0.6288
  453TMC3    C1 6743   4.274   0.867  11.904 -0.2094  0.1377  0.1136
  453TMC3    C2 6744   4.196   0.807  12.001  0.0454  0.2138 -0.3933
  453TMC3    C3 6745   4.112   0.712  11.950 -0.1492 -0.3243 -0.2198
  453TMC3    C4 6746   4.272   0.846  11.768 -0.1008 -0.3269  0.2727
  453TMC3    C5 6747   4.173   0.762  11.728 -0.0780 -0.6865 -0.4133
  453TMC3    C6 6748   4.100   0.698  11.816 -0.1631 -0.4225  0.2008
  453TMC3     C 6749   4.367   0.971  11.940  0.1762 -0.1044  0.5532
  453TMC3     O 6750   4.465   0.991  11.866  0.0484 -0.0038 -0.1145
  453TMC3     H 6751   4.193   0.826  12.108 -1.9028 -1.7409 -0.1025
  453TMC3    H1 6752   4.350   0.876  11.698 -0.5035  0.8596  0.3500
  453TMC3    H2 6753   4.034   0.620  11.779 -1.1126  1.2963 -1.7432
  453TMC3    C7 6754   4.208   0.686  11.603 -0.3824  0.3059 -0.0814
  453TMC3    C8 6755   4.057   0.612  12.038 -0.2749  0.0815  0.2289
  453TMC3    O1 6756   4.181   0.569  11.599 -0.1408 -0.5688  0.1082
  453TMC3    O2 6757   4.111   0.585  12.145 -0.2441  0.1289  0.1998
  454MPD2     C 6758   2.365   0.035  16.628  0.0936  0.0998  0.0745
  454MPD2    C1 6759   2.301   0.155  16.670  0.5031  0.0608 -0.2139
  454MPD2    C2 6760   2.212   0.146  16.768  0.2173 -0.1933 -0.0438
  454MPD2    C3 6761   2.169   0.028  16.826 -0.9003  0.1584 -0.1630
  454MPD2    C4 6762   2.242   4.640  16.791  0.0020  0.2371 -0.5876
  454MPD2    C5 6763   2.332   4.644  16.690 -0.5298  0.5581 -0.2910
  454MPD2     H 6764   2.157   0.235  16.793  0.5850  0.3815 -1.2838
  454MPD2    H1 6765   2.209   4.544  16.828 -0.4001  0.0656 -1.3792
  454MPD2    H2 6766   2.446   0.035  16.556 -0.1573  1.7703 -0.2174
  454MPD2    H3 6767   2.362   4.546  16.657 -1.0947 -0.1441  1.2377
  454MPD2     N 6768   2.061   0.014  16.916 -0.4482 -0.3896  0.0861
  454MPD2    H5 6769   2.059   4.650  16.971  1.7703 -0.5317 -0.0481
  454MPD2    N1 6770   2.317   0.285  16.608  0.4741  0.5748  0.1275
  454MPD2    H7 6771   2.254   0.358  16.638  0.5382  1.9514 -3.0139
  455TMC3    C1 6772   1.916   0.196  16.842 -0.2757  0.3106  0.2814
  455TMC3    C2 6773   1.883   0.314  16.901 -0.6053  0.5479 -0.1359
  455TMC3    C3 6774   1.838   0.412  16.820 -0.3297  0.8225  0.1089
  455TMC3    C4 6775   1.912   0.178  16.704  0.7935  0.2383 -0.1038
  455TMC3    C5 6776   1.854   0.280  16.630 -0.6794  0.1668 -1.1755
  455TMC3    C6 6777   1.811   0.397  16.688 -0.4930 -0.3550 -0.1555
  455TMC3     C 6778   1.954   0.095  16.942  0.3049  0.4597  0.2109
  455TMC3     O 6779   1.880   0.095  17.038  0.2149  0.4472 -0.2007
  455TMC3     H 6780   1.888   0.329  17.008 -2.0626  2.5977 -0.3547
  455TMC3    H1 6781   1.954   0.086  16.665  1.1286  0.8641 -1.2360
  455TMC3    H2 6782   1.782   0.479  16.624 -0.6004 -1.7700 -1.9353
  455TMC3    C7 6783   1.861   0.276  16.483  0.0909 -0.2176  0.3482
  455TMC3    C8 6784   1.844   0.542  16.876  0.2188 -0.5181 -0.1328
  455TMC3    O1 6785   1.960   0.232  16.424  0.5783 -0.1572 -0.4454
  455TMC3    O2 6786   1.915   0.550  16.972  0.1706  0.1466 -0.1874
  456MPD2     C 6787   4.714   0.495  16.491  0.0732 -0.2438  0.0568
  456MPD2    C1 6788   0.095   0.535  16.572 -0.2275 -0.2269 -0.6566
  456MPD2    C2 6789   0.070   0.652  16.641 -1.0377  0.5642  0.2901
  456MPD2    C3 6790   4.676   0.722  16.634 -0.3852  0.4675 -0.3613
  456MPD2    C4 6791   4.571   0.680  16.555 -0.0581  0.0776 -0.0073
  456MPD2    C5 6792   4.590   0.567  16.481  0.0885 -0.4529 -0.2338
  456MPD2     H 6793   0.145   0.690  16.710  0.2407  1.3030 -1.5243
  456MPD2    H1 6794   4.482   0.741  16.544 -0.8706 -0.7991  1.7257
  456MPD2    H2 6795   0.007   0.404  16.434  0.5139 -0.1593  0.0261
  456MPD2    H3 6796   4.511   0.538  16.413 -0.9729  0.6223  0.5348
  456MPD2     N 6797   4.672   0.834  16.714  0.1520  0.1246 -0.4989
  456MPD2    H5 6798   0.034   0.852  16.770 -1.2236 -0.0160  1.5924
  456MPD2    N1 6799   0.210   0.463  16.575 -0.3176  0.1955  0.3896
  456MPD2    H7 6800   0.210   0.375  16.523 -2.6359 -1.0412  2.4774
  457TMC3    C1 6801   4.599   1.018  16.840  0.8209 -0.0002 -0.0593
  457TMC3    C2 6802   4.565   1.147  16.822 -0.0218 -0.0607  0.3682
  457TMC3    C3 6803   4.617   1.234  16.911  0.6077  0.0856  0.6759
  457TMC3    C4 6804   4.676   0.961  16.937 -0.0115 -0.3544 -0.1751
  457TMC3    C5 6805   0.001   1.047  17.030 -0.3609 -0.7636  0.3845
  457TMC3    C6 6806   4.695   1.185  17.019  0.8530 -0.7485  0.5132
  457TMC3     C 6807   4.576   0.926  16.720  0.4718  0.0258 -0.0168
  457TMC3     O 6808   4.468   0.933  16.668  0.0584 -0.6715 -0.2286
  457TMC3     H 6809   4.497   1.179  16.743  0.4922  0.3071  0.0749
  457TMC3    H1 6810   4.681   0.854  16.952 -0.5168 -0.6595 -2.1699
  457TMC3    H2 6811   0.013   1.260  17.086  1.0685 -0.8078  0.4534
  457TMC3    C7 6812   0.090   0.997  17.135  0.0185 -0.4792  0.0173
  457TMC3    C8 6813   4.610   1.377  16.897 -0.7985  0.3863 -0.2623
  457TMC3    O1 6814   0.095   0.879  17.148  0.2410  0.0644 -0.8795
  457TMC3    O2 6815   4.653   1.450  16.980 -0.5062 -0.1387  0.2073
  458MPD2     C 6816   3.103   4.490  11.982 -0.3500 -0.2851 -0.3323
  458MPD2    C1 6817   3.017   4.463  12.089 -0.2546  0.6656  0.5324
  458MPD2    C2 6818   2.901   4.402  12.062 -0.0201 -0.1678  0.6040
  458MPD2    C3 6819   2.859   4.361  11.941 -0.4617 -0.4614 -0.3050
  458MPD2    C4 6820   2.935   4.405  11.831 -0.0856  0.0939  0.0681
  458MPD2    C5 6821   3.055   4.464  11.854  0.0712  1.1421  0.5569
  458MPD2     H 6822   2.835   4.383  12.146  0.1158 -0.6621  0.5948
  458MPD2    H1 6823   2.896   4.387  11.731 -4.3918 -1.4422  2.0702
  458MPD2    H2 6824   3.204   4.530  11.986 -0.7615  0.7481 -0.2245
  458MPD2    H3 6825   3.125   4.494  11.777 -0.2722 -1.6523 -0.8687
  458MPD2     N 6826   2.733   4.300  11.931  0.2383  0.1194  0.3911
  458MPD2    H5 6827   2.679   4.290  12.017 -0.1301  0.0740  0.1508
  458MPD2    N1 6828   3.055   4.506  12.224  0.5489 -0.3831 -0.4564
  458MPD2    H7 6829   3.141   4.560  12.231  0.0905  0.2815  0.0416
  459TMC3    C1 6830   3.057   4.556  12.447 -0.5293  0.0259 -0.6418
  459TMC3    C2 6831   3.134   4.665  12.427 -0.1739  0.0594 -0.1538
  459TMC3    C3 6832   3.165   0.023  12.537  0.2825 -0.0132  0.2871
  459TMC3    C4 6833   2.991   4.531  12.573  0.6519 -0.0118  0.3626
  459TMC3    C5 6834   3.035   4.611  12.678  0.0112  0.2501  0.0876
  459TMC3    C6 6835   3.120   4.717  12.661  0.1920  0.3574 -0.0216
  459TMC3     C 6836   2.986   4.489  12.340 -0.6497  0.2180  0.2470
  459TMC3     O 6837   2.897   4.409  12.368 -0.4735 -0.0900 -0.0952
  459TMC3     H 6838   3.173   4.686  12.328  1.5247 -1.7709  0.1233
  459TMC3    H1 6839   2.917   4.454  12.593 -1.1700  1.2928 -1.4535
  459TMC3    H2 6840   3.163   0.047  12.746  0.7608 -0.6245  0.2909
  459TMC3    C7 6841   3.022   4.559  12.814  0.3106 -0.4164  0.6124
  459TMC3    C8 6842   3.275   0.122  12.522  0.7330 -0.1610 -0.2576
  459TMC3    O1 6843   2.986   4.443  12.832  0.5950  0.0340  0.3363
  459TMC3    O2 6844   3.332   0.155  12.623  0.3423  0.5386  0.7501
  460MPD2     C 6845   3.154   2.235  10.797  0.2197 -0.2295  0.0089
  460MPD2    C1 6846   3.022   2.185  10.790  0.0756  0.2699  0.2398
  460MPD2    C2 6847   2.971   2.167  10.660 -0.0395  0.2845 -1.0483
  460MPD2    C3 6848   3.031   2.214  10.550  0.1572  0.0467  1.2099
  460MPD2    C4 6849   3.159   2.264  10.555  0.5200  0.3677 -0.2418
  460MPD2    C5 6850   3.219   2.277  10.678  0.6662  0.3461  0.2808
  460MPD2     H 6851   2.873   2.119  10.651  0.9591 -1.6701 -1.5940
  460MPD2    H1 6852   3.214   2.301  10.468  0.8855  0.4737  0.0347
  460MPD2    H2 6853   3.199   2.257  10.894 -1.1203  1.2890  0.2835
  460MPD2    H3 6854   3.325   2.301  10.673  0.2078  2.3811  0.1124
  460MPD2     N 6855   2.960   2.207  10.429  0.0835  0.3113 -0.0040
  460MPD2    H5 6856   2.862   2.181  10.437  0.7351 -1.7263  1.2935
  460MPD2    N1 6857   2.967   2.144  10.909  1.1752  0.6503 -0.1636
  460MPD2    H7 6858   3.020   2.166  10.993  1.4939 -0.8855  0.0532
  461TMC3    C1 6859   2.916   2.167  10.211  0.2160 -0.0297 -0.4682
  461TMC3    C2 6860   2.979   2.101  10.108 -0.2417  0.4005 -0.0861
  461TMC3    C3 6861   2.940   2.119   9.978 -0.4908 -0.1019 -0.1805
  461TMC3    C4 6862   2.815   2.256  10.183  0.1178 -0.1918 -1.2373
  461TMC3    C5 6863   2.787   2.281  10.049 -1.0050  0.2297  0.0317
  461TMC3    C6 6864   2.845   2.212   9.947  0.0219  0.9150 -0.5181
  461TMC3     C 6865   3.017   2.210  10.306  1.3089  0.1555 -0.3481
  461TMC3     O 6866   3.138   2.223  10.276 -0.9573 -0.5058  0.2221
  461TMC3     H 6867   3.054   2.028  10.133 -1.0247 -0.1659  0.6056
  461TMC3    H1 6868   2.761   2.305  10.263  0.8159 -0.7002 -0.4427
  461TMC3    H2 6869   2.803   2.216   9.847  0.1323 -0.6332 -0.6257
  461TMC3    C7 6870   2.661   2.355  10.026  0.0201  0.5422 -0.2345
  461TMC3    C8 6871   2.958   2.009   9.879  0.2634  0.4722  0.2600
  461TMC3    O1 6872   2.617   2.331   9.913  0.1642 -0.3764 -0.0427
  461TMC3    O2 6873   3.001   1.904   9.916 -0.1187 -0.4491 -0.3962
  462TMC3    C1 6874   2.114   2.915   0.479 -0.0217 -0.4779  0.6614
  462TMC3    C2 6875   2.170   2.792   0.456  0.3609  0.2152 -1.1140
  462TMC3    C3 6876   2.104   2.711   0.371  0.4711 -1.1514  0.7651
  462TMC3    C4 6877   1.990   2.960   0.428 -0.2374  0.2725 -0.5718
  462TMC3    C5 6878   1.923   2.865   0.356  0.7212  0.2940  0.2386
  462TMC3    C6 6879   1.989   2.747   0.314 -0.8789 -0.1724  0.2926
  462TMC3     C 6880   2.155   2.984   0.600  0.0827 -1.3433  0.6578
  462TMC3     O 6881   2.070   3.058   0.644 -0.9849  0.1887 -0.1235
  462TMC3     H 6882   2.269   2.759   0.486 -0.3363  1.0856  2.1144
  462TMC3    H1 6883   1.960   3.063   0.442  0.4833  0.6488 -1.8327
  462TMC3    H2 6884   1.932   2.666   0.271 -1.7867  0.3141  0.5700
  462TMC3    C7 6885   1.778   2.876   0.342 -0.4073 -0.3460  0.0479
  462TMC3    C8 6886   2.151   2.574   0.353  0.5857  0.5641  0.3347
  462TMC3    O1 6887   1.706   2.780   0.306 -0.0908 -0.0786 -0.4678
  462TMC3    O2 6888   2.217   2.527   0.442 -0.0348 -0.3078  0.6170
  463MPD2     C 6889   3.326   1.965   1.481  0.3790 -0.4084  0.1583
  463MPD2    C1 6890   3.286   1.860   1.556 -0.2988 -0.2062 -0.0890
  463MPD2    C2 6891   3.370   1.749   1.571  0.1897  0.5738  0.3608
  463MPD2    C3 6892   3.484   1.750   1.487  0.7013  0.5728 -0.0378
  463MPD2    C4 6893   3.521   1.854   1.409 -0.8967 -0.6109  0.0347
  463MPD2    C5 6894   3.440   1.963   1.405  0.7889 -0.6534  0.2515
  463MPD2     H 6895   3.350   1.664   1.636  0.6275 -0.0086 -0.2648
  463MPD2    H1 6896   3.608   1.850   1.344 -0.3417  1.5645  0.6449
  463MPD2    H2 6897   3.273   2.060   1.482  0.4003 -0.3902 -0.3616
  463MPD2    H3 6898   3.460   2.051   1.346  1.4868 -1.2178 -0.3632
  463MPD2     N 6899   3.578   1.640   1.487  0.6018  0.0011 -0.5129
  463MPD2    H5 6900   3.650   1.647   1.415  2.0793 -1.5303  0.8295
  463MPD2    N1 6901   3.155   1.872   1.606 -0.6677 -0.2135  0.3319
  463MPD2    H7 6902   3.105   1.958   1.587 -1.4894 -0.7896 -0.0708
  464TMC3    C1 6903   2.946   1.815   1.726 -0.0214  0.2902 -0.5688
  464TMC3    C2 6904   2.890   1.943   1.718  1.6644 -0.2966  0.3274
  464TMC3    C3 6905   2.760   1.962   1.762 -0.1436  0.0314 -0.8357
  464TMC3    C4 6906   2.887   1.716   1.802 -0.3630 -0.2616 -0.8124
  464TMC3    C5 6907   2.768   1.748   1.860  0.4370 -0.0203  0.3995
  464TMC3    C6 6908   2.712   1.875   1.856 -0.3025 -0.0025  0.0694
  464TMC3     C 6909   3.087   1.782   1.689  0.5134 -0.1403  0.0763
  464TMC3     O 6910   3.122   1.676   1.729  0.1700  0.1426 -0.5097
  464TMC3     H 6911   2.942   2.012   1.653  2.2397 -0.3836  0.6989
  464TMC3    H1 6912   2.920   1.613   1.798  2.9621  0.7829  0.1233
  464TMC3    H2 6913   2.618   1.883   1.908  0.2504 -4.6530  1.8402
  464TMC3    C7 6914   2.695   1.640   1.916  0.5573 -0.0448 -0.4063
  464TMC3    C8 6915   2.718   2.095   1.766  0.1763  0.0092  0.1265
  464TMC3    O1 6916   2.762   1.549   1.958  0.6008  0.0145  0.2765
  464TMC3    O2 6917   2.786   2.181   1.705 -0.1154  0.4255 -0.3622
  465MPD2     C 6918   4.321   0.998  17.232  0.6409 -0.0327  0.5957
  465MPD2    C1 6919   4.209   0.926  17.271 -0.6769 -0.2421  0.0060
  465MPD2    C2 6920   4.123   0.883  17.170  0.4387  0.0583  0.0302
  465MPD2    C3 6921   4.148   0.915  17.039 -0.3350  0.1634  0.0499
  465MPD2    C4 6922   4.264   0.970  17.005 -0.3873  0.2016 -0.7202
  465MPD2    C5 6923   4.360   0.997  17.099  0.0526 -0.8947 -0.7447
  465MPD2     H 6924   4.035   0.830  17.204  0.6610  0.2238  0.8586
  465MPD2    H1 6925   4.287   0.988  16.900  1.3576 -0.0942 -0.3893
  465MPD2    H2 6926   4.389   1.043  17.304  1.5357 -1.0041  0.3619
  465MPD2    H3 6927   4.450   1.048  17.069  0.3370  0.2534  2.0338
  465MPD2     N 6928   4.048   0.883  16.941 -0.2353  0.1577  0.0297
  465MPD2    H5 6929   3.957   0.858  16.978  1.1892 -2.5559  1.6814
  465MPD2    N1 6930   4.172   0.899  17.405  0.7452  0.2408 -0.1919
  465MPD2    H7 6931   4.085   0.849  17.419  2.5881 -2.2627  2.2467
  466TMC3    C1 6932   3.716   0.822  16.749 -0.0073 -0.0574 -1.0100
  466TMC3    C2 6933   3.687   0.882  16.630  0.0672 -0.1277  0.0354
  466TMC3    C3 6934   3.793   0.935  16.567 -1.5610 -0.2259 -0.1222
  466TMC3    C4 6935   3.836   0.808  16.803  0.2972  0.1095  0.1761
  466TMC3    C5 6936   3.936   0.870  16.735 -0.2803 -0.4308  0.7553
  466TMC3    C6 6937   3.915   0.930  16.616  0.1053 -0.5208  0.5439
  466TMC3     C 6938   3.621   0.753  16.831 -0.3315 -0.0935  0.4307
  466TMC3     O 6939   3.642   0.710  16.944 -0.1673 -0.0592  0.4770
  466TMC3     H 6940   3.586   0.897  16.593  0.0841 -0.9983 -0.3667
  466TMC3    H1 6941   3.855   0.742  16.886 -0.2561  0.6131  0.7034
  466TMC3    H2 6942   4.000   0.975  16.565  0.6826 -2.1167  0.0914
  466TMC3    C7 6943   4.059   0.904  16.802  0.0659  0.5650 -0.5244
  466TMC3    C8 6944   3.781   1.066  16.497 -1.0718  0.7330 -0.3212
  466TMC3    O1 6945   4.140   0.963  16.735 -0.0724 -0.0133 -0.0689
  466TMC3    O2 6946   3.866   1.090  16.413 -0.4818  0.5116 -0.1093
  467TMC3    C1 6947   0.141   4.198  14.065 -0.0838  0.6735 -0.3135
  467TMC3    C2 6948   0.045   4.272  13.992  0.4204 -0.1264  0.5001
  467TMC3    C3 6949   4.660   4.200  13.952  0.2948  0.8125  0.4065
  467TMC3    C4 6950   0.115   4.073  14.107 -0.2973  0.1286 -0.7689
  467TMC3    C5 6951   0.002   4.016  14.078 -0.4264 -0.1574 -0.1579
  467TMC3    C6 6952   4.634   4.075  13.992  0.4746 -0.6469 -0.2502
  467TMC3     C 6953   0.275   4.202  14.007 -0.3327 -0.4132  0.5320
  467TMC3     O 6954   0.308   4.096  13.955  0.8283 -0.1046  0.1656
  467TMC3     H 6955   0.077   4.364  13.945  1.4394 -1.1818 -0.8731
  467TMC3    H1 6956   0.191   4.026  14.168  0.6643  1.8759 -0.6428
  467TMC3    H2 6957   4.540   4.028  13.967 -0.0461  1.2367 -1.8357
  467TMC3    C7 6958   4.703   3.881  14.123  0.2040  0.0583  0.4254
  467TMC3    C8 6959   4.660   4.207  13.811 -0.4181  0.3449 -0.3811
  467TMC3    O1 6960   0.083   3.818  14.159 -0.1890 -0.8205 -0.1614
  467TMC3    O2 6961   4.674   4.322  13.766  0.4665 -0.0023 -0.0737
  468MPD2     C 6962   4.197   1.613  10.841  0.5085 -0.3929 -0.1973
  468MPD2    C1 6963   4.308   1.575  10.910 -0.0416 -0.3844  0.2472
  468MPD2    C2 6964   4.368   1.448  10.894 -0.0231  0.5186 -0.3777
  468MPD2    C3 6965   4.297   1.349  10.825  1.1239  0.0767 -0.3186
  468MPD2    C4 6966   4.178   1.385  10.762  0.4046  0.1495  0.9281
  468MPD2    C5 6967   4.132   1.516  10.763 -0.3690  0.3495  0.7351
  468MPD2     H 6968   4.461   1.425  10.944  0.6195 -2.1530 -2.7875
  468MPD2    H1 6969   4.126   1.305  10.711  1.8782 -0.2868  0.0988
  468MPD2    H2 6970   4.147   1.708  10.848  0.2386 -0.8154  3.4664
  468MPD2    H3 6971   4.039   1.545  10.715  0.1491 -0.2963 -0.6809
  468MPD2     N 6972   4.322   1.214  10.833  0.3502  0.0473  0.6646
  468MPD2    H5 6973   4.245   1.154  10.804 -0.5937  2.0965 -1.1419
  468MPD2    N1 6974   4.367   1.667  11.003  0.1896 -1.2177 -0.0910
  468MPD2    H7 6975   4.453   1.641  11.050 -1.1065  1.9756  4.1274
  469TMC3    C1 6976   4.361   1.846  11.161 -0.0408  0.2075 -0.0187
  469TMC3    C2 6977   4.488   1.828  11.201 -0.4012  0.4499  0.2716
  469TMC3    C3 6978   4.539   1.896  11.304  0.6903 -0.0561  0.2707
  469TMC3    C4 6979   4.278   1.937  11.229  0.1183 -0.3145 -0.4123
  469TMC3    C5 6980   4.330   2.012  11.329 -0.2170 -0.4755  0.5206
  469TMC3    C6 6981   4.459   1.988  11.365 -0.7973 -0.4177 -0.2794
  469TMC3     C 6982   4.307   1.788  11.041  0.0511 -0.2883 -0.2985
  469TMC3     O 6983   4.210   1.850  10.999  0.2085  0.1507  0.6408
  469TMC3     H 6984   4.555   1.765  11.143  0.5025  1.1284  0.5904
  469TMC3    H1 6985   4.173   1.950  11.205  0.1086  1.4303  0.6155
  469TMC3    H2 6986   4.505   2.056  11.435  1.3309 -0.9069 -1.2036
  469TMC3    C7 6987   4.243   2.112  11.390  0.0441  0.7702  0.0008
  469TMC3    C8 6988   4.681   1.876  11.335  0.5599  0.1358  0.6779
  469TMC3    O1 6989   4.119   2.102  11.377  0.0116  0.5052  0.0214
  469TMC3    O2 6990   0.019   1.802  11.262  0.2306  0.0251 -0.1601
  470TMC3    C1 6991   0.550   2.687   0.807 -0.0581 -0.3218  0.1297
  470TMC3    C2 6992   0.630   2.758   0.891  0.3014  0.3449 -0.5121
  470TMC3    C3 6993   0.585   2.768   1.019 -0.0193 -0.2940  0.4889
  470TMC3    C4 6994   0.434   2.630   0.854  0.6501 -0.2362  0.3288
  470TMC3    C5 6995   0.396   2.641   0.984 -0.5057  0.2123  0.0209
  470TMC3    C6 6996   0.467   2.721   1.067  0.7871 -0.4143  0.3936
  470TMC3     C 6997   0.574   2.703   0.663 -0.6335 -0.5431  0.0576
  470TMC3     O 6998   0.665   2.778   0.634  0.1373  0.0714 -0.0431
  470TMC3     H 6999   0.710   2.820   0.852  1.3072 -0.3303  0.4959
  470TMC3    H1 7000   0.376   2.575   0.781 -2.3996  3.8251 -0.3452
  470TMC3    H2 7001   0.458   2.718   1.175  0.4249 -1.6926  0.3287
  470TMC3    C7 7002   0.344   2.515   1.040 -0.6193 -0.5567  0.3452
  470TMC3    C8 7003   0.671   2.837   1.113 -0.5534 -0.4023 -0.7013
  470TMC3    O1 7004   0.374   2.417   0.982  0.0338 -0.3484  0.6096
  470TMC3    O2 7005   0.618   2.864   1.221 -0.4766  0.2236  0.1795
  471MPD2     C 7006   1.762   4.515  16.837 -0.1810 -0.0306  0.2023
  471MPD2    C1 7007   1.881   4.449  16.815  0.0178  0.2247  0.0567
  471MPD2    C2 7008   1.948   4.402  16.929  0.2559  0.7068 -0.1499
  471MPD2    C3 7009   1.890   4.407  17.057  0.5529 -0.3525 -0.0339
  471MPD2    C4 7010   1.772   4.481  17.077 -0.3415 -0.8901  0.3112
  471MPD2    C5 7011   1.710   4.533  16.963  0.4647 -0.2713 -0.4993
  471MPD2     H 7012   2.042   4.354  16.907  0.1729  1.2744 -1.7711
  471MPD2    H1 7013   1.724   4.478  17.175  1.1529  0.2371  1.0775
  471MPD2    H2 7014   1.702   4.559  16.758  0.6741  1.3720  0.3262
  471MPD2    H3 7015   1.610   4.573  16.978 -0.1109 -0.4754 -3.6911
  471MPD2     N 7016   1.954   4.339  17.168 -0.0363 -0.4553 -0.2913
  471MPD2    H5 7017   1.912   4.346  17.260 -3.3031  1.0709 -1.8872
  471MPD2    N1 7018   1.929   4.427  16.688  0.0330 -0.0804 -1.0893
  471MPD2    H7 7019   2.014   4.372  16.680  1.7863  2.4524  0.2400
  472TMC3    C1 7020   1.923   4.354  16.471 -0.2120  0.3212  0.2442
  472TMC3    C2 7021   1.881   4.369  16.341  0.3350 -0.4777 -0.6195
  472TMC3    C3 7022   1.898   4.264  16.253  0.2097  0.0020  0.1452
  472TMC3    C4 7023   1.956   4.224  16.515  0.1662 -0.2491 -0.3038
  472TMC3    C5 7024   1.955   4.120  16.422 -0.4187  0.4729  0.1305
  472TMC3    C6 7025   1.943   4.145  16.291 -0.2202 -0.1249  0.1718
  472TMC3     C 7026   1.867   4.445  16.564 -0.2524 -0.3970  1.0272
  472TMC3     O 7027   1.762   4.496  16.536 -0.0260  0.4979  0.2353
  472TMC3     H 7028   1.821   4.453  16.309 -2.8943 -2.5797 -0.1382
  472TMC3    H1 7029   1.959   4.203  16.622 -0.2080 -1.9947 -0.6388
  472TMC3    H2 7030   1.965   4.066  16.219 -1.7713 -2.1532  1.9155
  472TMC3    C7 7031   1.902   3.990  16.461 -0.5136  0.2253  0.4828
  472TMC3    C8 7032   1.808   4.250  16.138  0.2098  0.0014  0.8066
  472TMC3    O1 7033   1.920   3.954  16.577 -0.6205  0.0902  0.1082
  472TMC3    O2 7034   1.861   4.232  16.029 -0.0966  0.3517  0.4530
  473MPD2     C 7035   2.251   1.545  14.213 -0.6014 -0.1587  0.2335
  473MPD2    C1 7036   2.216   1.629  14.110  0.0554  0.8703  0.3482
  473MPD2    C2 7037   2.236   1.759  14.126 -0.5198 -0.1288 -0.2892
  473MPD2    C3 7038   2.281   1.822  14.242  0.2356  0.3249 -0.3091
  473MPD2    C4 7039   2.296   1.738  14.354 -0.1456  0.4511 -0.0120
  473MPD2    C5 7040   2.286   1.603  14.336  0.5393  0.3103  0.3086
  473MPD2     H 7041   2.215   1.825  14.043  0.1260  0.5373  0.0825
  473MPD2    H1 7042   2.331   1.782  14.446  2.2026  1.8841 -1.5892
  473MPD2    H2 7043   2.234   1.440  14.197  2.4095 -0.6388  0.0498
  473MPD2    H3 7044   2.307   1.535  14.419 -0.2585 -1.2633 -0.7818
  473MPD2     N 7045   2.292   1.963  14.260  0.1810 -0.2783  0.1628
  473MPD2    H5 7046   2.339   1.986  14.347  0.5389  0.8221 -0.3095
  473MPD2    N1 7047   2.148   1.594  13.996 -0.3529 -0.3104 -0.3270
  473MPD2    H7 7048   2.138   1.676  13.936 -2.1472  0.6338  1.2542
  474TMC3    C1 7049   2.317   2.195  14.215  0.2177  0.6492 -0.3325
  474TMC3    C2 7050   2.246   2.304  14.185 -0.9478  0.0603  0.5888
  474TMC3    C3 7051   2.273   2.420  14.253  0.4285  0.0778 -0.9049
  474TMC3    C4 7052   2.421   2.200  14.306 -0.0245 -0.2319  0.1767
  474TMC3    C5 7053   2.448   2.323  14.358 -0.2649 -1.1301 -0.0143
  474TMC3    C6 7054   2.379   2.432  14.342  0.3543  0.0482 -0.0436
  474TMC3     C 7055   2.276   2.067  14.166 -0.1471 -1.1528 -0.4093
  474TMC3     O 7056   2.193   2.057  14.079 -0.3054  0.2888  0.2443
  474TMC3     H 7057   2.168   2.305  14.111 -0.4734  2.5179  0.1361
  474TMC3    H1 7058   2.477   2.109  14.321  2.7043  1.0388 -2.2482
  474TMC3    H2 7059   2.404   2.524  14.395 -0.4417 -0.2996  0.9358
  474TMC3    C7 7060   2.542   2.322  14.470  0.1122 -0.2411 -0.8856
  474TMC3    C8 7061   2.169   2.521  14.258 -0.1630  0.3738  0.4016
  474TMC3    O1 7062   2.642   2.252  14.447  0.3417  0.2122 -0.1381
  474TMC3    O2 7063   2.057   2.491  14.218  0.0439 -0.3068  0.3881
  475MPD2     C 7064   0.978   0.259  10.013  0.1421  0.3380 -0.0436
  475MPD2    C1 7065   0.932   0.133   9.983  0.4674 -0.5784  0.1089
  475MPD2    C2 7066   0.821   0.082  10.039  0.2291 -0.0088 -0.1986
  475MPD2    C3 7067   0.747   0.156  10.129  0.1275 -0.0232  0.1965
  475MPD2    C4 7068   0.794   0.282  10.170 -1.0432 -0.0347 -0.1957
  475MPD2    C5 7069   0.909   0.327  10.111 -0.5959  0.4951  0.5757
  475MPD2     H 7070   0.773   4.715   9.997  0.4886 -0.5421  0.6166
  475MPD2    H1 7071   0.749   0.347  10.244 -0.6069  1.4242 -1.2218
  475MPD2    H2 7072   1.055   0.313   9.961  1.5118 -1.4525  0.1227
  475MPD2    H3 7073   0.948   0.421  10.149 -1.3210  1.8713 -2.0993
  475MPD2     N 7074   0.619   0.101  10.164  0.0699 -0.1142  0.3199
  475MPD2    H5 7075   0.589   0.017  10.115  2.2296 -0.5610 -0.2522
  475MPD2    N1 7076   0.999   0.064   9.878  0.3852  0.2312  0.0809
  475MPD2    H7 7077   1.066   0.115   9.822  1.0458  0.0261  0.6924
  476TMC3    C1 7078   1.062   4.603   9.737  0.2263 -0.2560  0.3111
  476TMC3    C2 7079   1.002   4.496   9.677 -0.3943 -0.6958 -0.3948
  476TMC3    C3 7080   0.996   4.497   9.535 -0.4071 -0.1609 -0.3676
  476TMC3    C4 7081   1.143   4.688   9.667 -0.2054  0.5107 -0.3684
  476TMC3    C5 7082   1.153   4.676   9.530 -0.4519 -0.2122 -0.1408
  476TMC3    C6 7083   1.077   4.587   9.464 -0.4267  0.1895  0.0366
  476TMC3     C 7084   0.993   4.654   9.853  0.8112  0.4537  0.2067
  476TMC3     O 7085   0.917   4.572   9.910 -0.3872  0.4594 -0.4435
  476TMC3     H 7086   0.940   4.427   9.733  0.0108 -1.0332 -0.3554
  476TMC3    H1 7087   1.187   0.057   9.708  1.4286 -1.6710  2.7233
  476TMC3    H2 7088   1.090   4.576   9.357  1.3260 -0.5924  0.3187
  476TMC3    C7 7089   1.257   0.025   9.468  0.0728 -0.0325 -0.2285
  476TMC3    C8 7090   0.873   4.458   9.466  0.3815 -0.0863 -0.6354
  476TMC3    O1 7091   1.236   0.069   9.355 -0.0360  0.7760 -0.3234
  476TMC3    O2 7092   0.863   4.467   9.345 -0.6764  0.0417 -0.4507
  477MPD2     C 7093   3.149   0.897  11.510 -0.1616 -0.6269  0.7524
  477MPD2    C1 7094   3.031   0.926  11.570 -0.4196 -0.3266  0.1049
  477MPD2    C2 7095   2.995   0.848  11.683 -0.3423 -0.2353  0.1391
  477MPD2    C3 7096   3.084   0.763  11.741 -0.2467 -0.2443  0.0986
  477MPD2    C4 7097   3.207   0.741  11.677  0.6184  0.0272 -0.2292
  477MPD2    C5 7098   3.243   0.816  11.568  0.0022  0.0456 -0.0200
  477MPD2     H 7099   2.898   0.859  11.731 -0.1682  1.7904 -0.0003
  477MPD2    H1 7100   3.285   0.674  11.712  0.3675  1.1924  2.5370
  477MPD2    H2 7101   3.168   0.953  11.419 -1.3622 -0.1442  0.7990
  477MPD2    H3 7102   3.335   0.797  11.513  0.3149  1.4564  0.0299
  477MPD2     N 7103   3.065   0.695  11.863  0.2650 -0.0588  0.3168
  477MPD2    H5 7104   3.133   0.622  11.879 -0.8119 -1.0185  0.4864
  477MPD2    N1 7105   2.947   1.025  11.510  0.0461  0.0973 -0.4552
  477MPD2    H7 7106   2.986   1.072  11.428  2.4138 -0.3155  0.4252
  478TMC3    C1 7107   2.799   1.201  11.507 -0.1093  0.3688  0.5786
  478TMC3    C2 7108   2.703   1.273  11.568  0.6861 -0.3042 -0.8689
  478TMC3    C3 7109   2.682   1.406  11.529  0.0750 -0.7440 -0.1674
  478TMC3    C4 7110   2.850   1.247  11.392 -0.3029 -0.4421 -0.4606
  478TMC3    C5 7111   2.816   1.371  11.343 -0.3452  0.3069 -0.1989
  478TMC3    C6 7112   2.735   1.455  11.413  0.2187 -0.4950  0.7696
  478TMC3     C 7113   2.833   1.076  11.565  0.1589 -0.0426 -0.5459
  478TMC3     O 7114   2.795   1.065  11.679 -0.3912  0.0808 -0.0266
  478TMC3     H 7115   2.671   1.243  11.667  0.8900  1.0811 -0.3852
  478TMC3    H1 7116   2.902   1.188  11.317  1.4863  1.3857 -0.6752
  478TMC3    H2 7117   2.727   1.562  11.392 -1.1268 -0.5162  1.1876
  478TMC3    C7 7118   2.893   1.424  11.235 -0.9264  0.1011  0.2875
  478TMC3    C8 7119   2.649   1.497  11.640  0.4726  0.8925  0.7727
  478TMC3    O1 7120   3.007   1.387  11.215  0.3555  0.0481  0.0742
  478TMC3    O2 7121   2.682   1.459  11.751 -0.4194  0.4157  0.4659
  479MPD2     C 7122   1.386   3.731  14.686  0.4676 -0.3451  0.0204
  479MPD2    C1 7123   1.408   3.669  14.811 -0.1035  0.5440 -0.0383
  479MPD2    C2 7124   1.477   3.736  14.912  0.3715  0.6266  0.3120
  479MPD2    C3 7125   1.533   3.864  14.885  0.0014  0.6813 -0.6777
  479MPD2    C4 7126   1.519   3.918  14.757 -0.0934 -0.5893  0.3092
  479MPD2    C5 7127   1.449   3.850  14.659 -0.9395 -1.0525  0.4534
  479MPD2     H 7128   1.485   3.695  15.011 -1.0921  0.0551  0.1937
  479MPD2    H1 7129   1.575   4.007  14.730 -1.1963 -0.5093 -1.7497
  479MPD2    H2 7130   1.330   3.686  14.605  2.0207 -0.7686 -0.8331
  479MPD2    H3 7131   1.436   3.897  14.562 -3.4975 -0.0817  1.2574
  479MPD2     N 7132   1.609   3.919  14.983  0.4689 -0.0171 -0.2455
  479MPD2    H5 7133   1.660   4.003  14.956 -1.8557  1.6566  0.6119
  479MPD2    N1 7134   1.328   3.552  14.840 -0.2144  0.4509 -0.4452
  479MPD2    H7 7135   1.254   3.528  14.775 -0.7925  0.6487  0.1421
  480TMC3    C1 7136   1.653   4.043  15.426  0.2788 -0.6876  0.2590
  480TMC3    C2 7137   1.593   4.159  15.397 -0.0567 -0.2591  0.3760
  480TMC3    C3 7138   1.584   4.198  15.264  0.1076 -0.1794 -0.7790
  480TMC3    C4 7139   1.702   3.970  15.325 -0.1944  0.4146 -0.6773
  480TMC3    C5 7140   1.685   4.000  15.195 -0.1232  0.2581  0.2458
  480TMC3    C6 7141   1.632   4.117  15.162  0.3426 -0.3058  0.2918
  480TMC3     C 7142   1.585   3.958  15.520 -0.4328 -0.3805  0.2535
  480TMC3     O 7143   1.656   3.880  15.581  0.2213  0.4215 -0.0237
  480TMC3     H 7144   1.536   4.210  15.474  1.3617 -0.9638  1.8917
  480TMC3    H1 7145   1.733   3.869  15.352  3.0353  1.4224 -0.6406
  480TMC3    H2 7146   1.616   4.155  15.061  1.9485 -0.5633 -0.0621
  480TMC3    C7 7147   1.635   3.885  15.119 -0.4497  0.0031  0.3814
  480TMC3    C8 7148   1.446   4.235  15.246  0.4561  1.1718  0.1070
  480TMC3    O1 7149   1.585   3.793  15.180 -0.4928 -0.1260 -0.1015
  480TMC3    O2 7150   1.365   4.192  15.328  0.3080  0.1229 -0.5386
  481MPD2     C 7151   3.577   2.977  14.202  0.1723  0.4380 -0.0336
  481MPD2    C1 7152   3.442   2.980  14.222 -1.1084 -0.0557  0.7269
  481MPD2    C2 7153   3.388   2.945  14.348  0.5597  0.5317  0.2405
  481MPD2    C3 7154   3.475   2.897  14.446 -0.7852 -0.6186  0.0080
  481MPD2    C4 7155   3.610   2.876  14.415 -0.0210  1.2811 -0.2373
  481MPD2    C5 7156   3.650   2.914  14.290  0.0612 -0.9789 -0.2880
  481MPD2     H 7157   3.281   2.959  14.358  0.6986  1.0494  1.0260
  481MPD2    H1 7158   3.684   2.827  14.478  1.0435 -0.1845 -2.5981
  481MPD2    H2 7159   3.619   3.013  14.108  1.3492  0.7122  0.5980
  481MPD2    H3 7160   3.754   2.898  14.265  0.3543 -0.3908  0.5864
  481MPD2     N 7161   3.438   2.876  14.578 -0.5158 -0.4404 -0.3492
  481MPD2    H5 7162   3.511   2.844  14.640 -1.0438  1.8819  1.5163
  481MPD2    N1 7163   3.369   3.022  14.112  0.3375 -0.2671  0.6432
  481MPD2    H7 7164   3.418   3.040  14.025 -0.9239 -0.5563 -0.1156
  482TMC3    C1 7165   3.196   3.109  13.975 -0.3978  0.4617  0.0450
  482TMC3    C2 7166   3.223   3.053  13.853 -0.1260  0.1424 -0.0346
  482TMC3    C3 7167   3.166   3.106  13.744  0.2004 -0.1545 -0.9524
  482TMC3    C4 7168   3.101   3.201  13.986  0.4055  0.5179  0.2866
  482TMC3    C5 7169   3.035   3.240  13.871  0.0969  0.2126  0.1677
  482TMC3    C6 7170   3.076   3.204  13.748 -0.9171 -0.6646  0.3247
  482TMC3     C 7171   3.239   3.048  14.107 -0.7511 -0.0168  0.6280
  482TMC3     O 7172   3.158   3.040  14.193  0.6060 -0.0914 -0.3375
  482TMC3     H 7173   3.296   2.973  13.848  0.9248  1.2327 -2.0757
  482TMC3    H1 7174   3.064   3.236  14.082 -0.6480  2.1030 -0.6822
  482TMC3    H2 7175   3.020   3.249  13.667  0.2944  1.1159  0.4652
  482TMC3    C7 7176   2.919   3.335  13.889  0.0914 -0.1088 -0.9636
  482TMC3    C8 7177   3.187   3.034  13.624 -0.2597 -0.5439 -0.1780
  482TMC3    O1 7178   2.927   3.410  13.989 -0.1041  0.0317  0.1085
  482TMC3    O2 7179   3.239   2.924  13.638 -0.1889 -0.3051 -0.2651
  483TMC3    C1 7180   0.588   1.640   0.764 -0.7040  0.0156  0.2038
  483TMC3    C2 7181   0.590   1.777   0.751 -0.0210 -0.0081  0.3921
  483TMC3    C3 7182   0.616   1.852   0.862 -0.6807  0.4197  0.1643
  483TMC3    C4 7183   0.634   1.582   0.884 -0.4180 -0.0753  0.0927
  483TMC3    C5 7184   0.660   1.662   0.986  0.1962 -0.8647  0.6216
  483TMC3    C6 7185   0.651   1.795   0.983 -0.4824  0.0349 -0.0180
  483TMC3     C 7186   0.621   1.569   0.643  0.1701 -0.1852  0.1656
  483TMC3     O 7187   0.649   1.635   0.541  0.7057  0.7713  0.2002
  483TMC3     H 7188   0.571   1.824   0.656  2.8467 -0.4046 -0.3802
  483TMC3    H1 7189   0.667   1.478   0.886  0.5057  0.2326  0.4800
  483TMC3    H2 7190   0.687   1.859   1.063 -1.3042  2.0934 -1.3176
  483TMC3    C7 7191   0.750   1.611   1.093 -0.2214 -0.0462 -0.6658
  483TMC3    C8 7192   0.640   1.993   0.848 -0.4099 -1.1920 -0.5210
  483TMC3    O1 7193   0.819   1.687   1.157 -0.2267  0.0374  0.5224
  483TMC3    O2 7194   0.640   2.031   0.734 -0.5342 -0.2943  0.0050
  484MPD2     C 7195   3.394   0.383  12.293  0.1533 -0.0168 -0.2163
  484MPD2    C1 7196   3.399   0.272  12.376 -0.0917  0.9593 -0.1280
  484MPD2    C2 7197   3.521   0.241  12.432 -0.2246 -0.2423  0.0921
  484MPD2    C3 7198   3.632   0.323  12.418  0.5970 -0.5094 -0.1472
  484MPD2    C4 7199   3.618   0.445  12.351  0.4487  0.9320  0.2289
  484MPD2    C5 7200   3.503   0.469  12.287  0.3261  0.3071 -0.1679
  484MPD2     H 7201   3.524   0.149  12.489 -0.3057 -0.2498  0.0844
  484MPD2    H1 7202   3.706   0.506  12.337  1.8142 -1.1801 -0.4796
  484MPD2    H2 7203   3.306   0.412  12.237  1.3081 -1.4345 -2.7651
  484MPD2    H3 7204   3.496   0.549  12.215 -2.2877  1.5730  1.5218
  484MPD2     N 7205   3.762   0.290  12.465 -0.0768  0.2284  0.1465
  484MPD2    H5 7206   3.832   0.362  12.482  0.1974  0.5038 -2.1745
  484MPD2    N1 7207   3.291   0.185  12.399 -0.5721  0.0395 -0.3089
  484MPD2    H7 7208   3.210   0.188  12.338  0.2187 -1.9987 -1.4539
  485TMC3    C1 7209   3.939   0.161  12.554 -0.9051  0.4348  0.7186
  485TMC3    C2 7210   3.961   0.044  12.622  0.5654  0.1345  0.2571
  485TMC3    C3 7211   4.086   0.032  12.672  0.0162 -0.6608 -0.4462
  485TMC3    C4 7212   4.031   0.259  12.543  0.0792 -0.4065  0.2657
  485TMC3    C5 7213   4.158   0.238  12.592  0.6113  0.1993 -0.2256
  485TMC3    C6 7214   4.181   0.129  12.669 -0.1338  0.6031 -0.3705
  485TMC3     C 7215   3.814   0.164  12.479  0.1889  1.4579  0.1537
  485TMC3     O 7216   3.762   0.057  12.450  0.4128  0.0380  0.0188
  485TMC3     H 7217   3.886   4.688  12.624 -0.6928  1.2990 -3.5702
  485TMC3    H1 7218   4.023   0.330  12.461  0.0157  0.2856  0.8652
  485TMC3    H2 7219   4.270   0.124  12.732 -0.1823 -0.2751 -0.3648
  485TMC3    C7 7220   4.260   0.248  12.488 -0.9039 -0.5161  0.6455
  485TMC3    C8 7221   4.148   4.624  12.668  0.5247 -0.2308 -0.4551
  485TMC3    O1 7222   4.269   0.362  12.443 -0.4005  0.2416  0.5416
  485TMC3    O2 7223   4.274   4.626  12.676 -0.0690 -0.0794  0.5243
  486MPD2     C 7224   0.890   4.019  12.726 -0.3915 -0.0370 -0.4315
  486MPD2    C1 7225   0.916   3.949  12.613  0.2730  0.7076 -0.5274
  486MPD2    C2 7226   0.898   4.011  12.494 -0.2073  0.2377 -0.6183
  486MPD2    C3 7227   0.850   4.144  12.482  1.1028  0.4779 -0.4446
  486MPD2    C4 7228   0.825   4.207  12.605 -1.0999 -0.0223 -0.1510
  486MPD2    C5 7229   0.844   4.153  12.729  0.2615  0.2621 -0.3717
  486MPD2     H 7230   0.923   3.971  12.397  1.6297  0.7291 -0.3499
  486MPD2    H1 7231   0.783   4.306  12.602 -0.2735  0.3304  0.0081
  486MPD2    H2 7232   0.925   3.982  12.822  1.5033 -0.3444 -1.2398
  486MPD2    H3 7233   0.817   4.208  12.818 -1.8821 -1.1765 -0.1285
  486MPD2     N 7234   0.829   4.204  12.361  0.2350  0.3144  0.2602
  486MPD2    H5 7235   0.842   4.141  12.282 -0.9886  0.3999 -0.0025
  486MPD2    N1 7236   0.978   3.823  12.627  0.4819 -0.0211 -0.7676
  486MPD2    H7 7237   1.012   3.809  12.722  0.2674 -0.4089 -0.7448
  487TMC3    C1 7238   1.072   3.612  12.570 -0.2708 -0.0571 -0.7447
  487TMC3    C2 7239   1.046   3.493  12.513  0.4601 -0.4190 -0.6133
  487TMC3    C3 7240   1.135   3.390  12.524  0.0279  0.0981 -0.1370
  487TMC3    C4 7241   1.189   3.641  12.635  0.5726  0.6291 -0.0796
  487TMC3    C5 7242   1.290   3.543  12.624 -0.6511 -0.3791  0.6159
  487TMC3    C6 7243   1.256   3.418  12.582  0.4472 -0.5581 -0.0740
  487TMC3     C 7244   0.987   3.729  12.531 -0.5109 -0.6187 -0.1004
  487TMC3     O 7245   0.951   3.733  12.414  0.0089  0.4329 -0.4439
  487TMC3     H 7246   0.944   3.476  12.478  1.0469 -1.6833 -1.7051
  487TMC3    H1 7247   1.220   3.740  12.667 -0.0349  0.5695  0.6958
  487TMC3    H2 7248   1.332   3.344  12.562 -0.9434 -1.2777 -2.6541
  487TMC3    C7 7249   1.382   3.544  12.735  0.1583 -0.1397 -0.1699
  487TMC3    C8 7250   1.074   3.287  12.597  0.3438 -0.9161  0.2214
  487TMC3    O1 7251   1.391   3.655  12.790 -0.3848  0.0601  0.1947
  487TMC3    O2 7252   0.962   3.318  12.637 -0.3258 -0.3790 -0.5698
  488MPD2     C 7253   0.846   1.017  16.562 -0.3068  0.1125 -0.3820
  488MPD2    C1 7254   0.836   1.136  16.627  0.1559 -0.4119  0.2357
  488MPD2    C2 7255   0.759   1.138  16.743 -0.0474 -0.4077  0.1163
  488MPD2    C3 7256   0.705   1.024  16.804  0.0140  0.2076 -0.0933
  488MPD2    C4 7257   0.708   0.906  16.735 -0.4743 -0.1115 -0.1880
  488MPD2    C5 7258   0.780   0.908  16.616 -0.2729 -0.2008 -0.2263
  488MPD2     H 7259   0.751   1.233  16.795 -1.6159 -1.3233  1.5648
  488MPD2    H1 7260   0.665   0.813  16.770  0.1266 -0.8795 -1.4837
  488MPD2    H2 7261   0.896   1.000  16.468  1.5617 -2.2174  1.0185
  488MPD2    H3 7262   0.783   0.814  16.562 -4.2244  0.4405 -1.5663
  488MPD2     N 7263   0.638   1.040  16.928 -0.7717 -0.1346  0.0007
  488MPD2    H5 7264   0.649   1.135  16.963  0.1872 -0.5977  0.9956
  488MPD2    N1 7265   0.907   1.254  16.600  0.1215 -0.2872  0.1476
  488MPD2    H7 7266   0.886   1.330  16.663  2.9172  0.9285 -0.3712
  489TMC3    C1 7267   0.523   0.993  17.125  0.2790 -0.8262 -0.9602
  489TMC3    C2 7268   0.514   1.133  17.135  0.3038  0.4278 -0.0327
  489TMC3    C3 7269   0.562   1.189  17.253  0.0833 -0.7145 -0.2863
  489TMC3    C4 7270   0.552   0.917  17.234  0.1158 -0.1849  0.0148
  489TMC3    C5 7271   0.584   0.979  17.351  0.3642  0.0287  0.2814
  489TMC3    C6 7272   0.588   1.114  17.367  0.7672 -0.2858 -0.4986
  489TMC3     C 7273   0.581   0.940  17.005 -0.1697 -0.4156  0.1208
  489TMC3     O 7274   0.566   0.821  16.988  1.1031  0.2063 -0.6536
  489TMC3     H 7275   0.461   1.190  17.060  1.3582 -1.6308 -2.3538
  489TMC3    H1 7276   0.565   0.811  17.218 -3.0331 -0.3478 -1.5789
  489TMC3    H2 7277   0.607   1.162  17.462  1.1629 -0.2233 -0.6129
  489TMC3    C7 7278   0.588   0.898  17.471  0.8561  0.6661 -0.4418
  489TMC3    C8 7279   0.592   1.335  17.243  0.0558 -0.3070  0.0311
  489TMC3    O1 7280   0.629   0.952  17.572 -0.6415 -0.7813 -0.5980
  489TMC3    O2 7281   0.567   1.391  17.136 -0.2468 -0.4636  0.4918
  490MPD2     C 7282   1.527   0.525   0.826  0.1676  0.3819 -1.0135
  490MPD2    C1 7283   1.587   0.438   0.738  0.2806 -0.1077  0.0416
  490MPD2    C2 7284   1.676   0.486   0.642  0.5395 -0.4592 -0.3407
  490MPD2    C3 7285   1.708   0.620   0.636 -0.1707 -0.1470 -0.5321
  490MPD2    C4 7286   1.653   0.706   0.732  0.2878 -0.2614 -0.4423
  490MPD2    C5 7287   1.577   0.651   0.830  0.0228  0.0692  0.6273
  490MPD2     H 7288   1.722   0.411   0.579 -2.0516 -1.2205 -1.3354
  490MPD2    H1 7289   1.676   0.812   0.736 -0.9964  0.0034 -0.1686
  490MPD2    H2 7290   1.443   0.495   0.888  0.9367 -0.5974 -0.4455
  490MPD2    H3 7291   1.535   0.720   0.903 -1.1692  0.1469 -0.1295
  490MPD2     N 7292   1.793   0.680   0.537  1.4078 -0.0150  0.4427
  490MPD2    H5 7293   1.837   0.770   0.554 -0.5224  1.4311 -2.2904
  490MPD2    N1 7294   1.557   0.300   0.728  0.2646  0.2896 -0.5776
  490MPD2    H7 7295   1.582   0.250   0.643 -1.1564 -1.4753  0.0519
  491TMC3    C1 7296   1.503   0.091   0.793  0.4233  0.5750 -0.1301
  491TMC3    C2 7297   1.506   0.003   0.896  0.3888 -0.1959  0.6720
  491TMC3    C3 7298   1.475   4.591   0.865  0.0825  0.5406 -0.5096
  491TMC3    C4 7299   1.484   0.061   0.658  0.6695 -0.4255  0.1440
  491TMC3    C5 7300   1.468   4.644   0.625  0.2787 -0.5339 -0.4853
  491TMC3    C6 7301   1.456   4.554   0.732 -0.3555 -0.0686  0.7155
  491TMC3     C 7302   1.513   0.229   0.836 -0.1442  0.0957 -0.3527
  491TMC3     O 7303   1.489   0.254   0.954  0.1460  0.1691  0.6232
  491TMC3     H 7304   1.523   0.035   0.998  1.4436 -0.6465  0.6415
  491TMC3    H1 7305   1.467   0.129   0.576  0.1790  0.1995  0.7590
  491TMC3    H2 7306   1.437   4.449   0.714  2.5694 -0.5008  0.0834
  491TMC3    C7 7307   1.456   4.588   0.486 -0.5998  0.6684  0.4313
  491TMC3    C8 7308   1.393   4.520   0.963  0.0883 -0.0707 -0.2391
  491TMC3    O1 7309   1.418   4.471   0.478 -0.0123  0.4068 -0.2033
  491TMC3    O2 7310   1.342   4.588   1.048  0.4418 -0.4006 -0.1532
  492MPD2     C 7311   2.222   0.189  11.206 -0.6325  0.4740 -0.0696
  492MPD2    C1 7312   2.152   0.082  11.160 -0.0831  0.2365 -0.3460
  492MPD2    C2 7313   2.040   0.030  11.222  0.2470  0.1036 -0.1838
  492MPD2    C3 7314   1.998   0.081  11.344  0.6421  0.2953  0.0149
  492MPD2    C4 7315   2.073   0.187  11.396  0.5635 -0.2965 -0.5737
  492MPD2    C5 7316   2.182   0.235  11.330 -0.2177 -0.0216  0.0285
  492MPD2     H 7317   1.986   4.669  11.176  2.7513 -0.1159 -2.7527
  492MPD2    H1 7318   2.053   0.229  11.494  1.2227  1.3254 -1.1320
  492MPD2    H2 7319   2.312   0.223  11.155  1.6032 -2.8124  1.6713
  492MPD2    H3 7320   2.239   0.313  11.379  0.2853 -0.0381 -0.5277
  492MPD2     N 7321   1.874   0.050  11.407 -0.3222 -0.2473  0.0057
  492MPD2    H5 7322   1.862   0.088  11.501 -1.6137  1.8133 -0.9886
  492MPD2    N1 7323   2.207   0.013  11.049  0.5838  0.5402  0.2353
  492MPD2    H7 7324   2.290   0.058  11.012  0.4666  0.5270 -0.0483
  493TMC3    C1 7325   2.238   4.589  10.866  0.3181  0.8266  0.0250
  493TMC3    C2 7326   2.286   4.688  10.785 -0.3260 -0.0851 -1.0508
  493TMC3    C3 7327   2.317   4.647  10.655 -0.9408 -0.4206  0.3416
  493TMC3    C4 7328   2.225   4.464  10.817  0.4101  0.0232  0.8457
  493TMC3    C5 7329   2.281   4.421  10.698 -0.1586  0.1372  0.4363
  493TMC3    C6 7330   2.332   4.519  10.615 -0.2675 -0.1619  0.3290
  493TMC3     C 7331   2.156   4.623  10.986  0.4429 -0.1551  0.2097
  493TMC3     O 7332   2.085   4.534  11.025 -0.5154  0.0709  0.5062
  493TMC3     H 7333   2.275   0.071  10.811  0.5165 -0.3610  0.4640
  493TMC3    H1 7334   2.174   4.388  10.874  1.5405 -1.8294 -0.6233
  493TMC3    H2 7335   2.359   4.489  10.514 -0.7034 -0.3715  0.2737
  493TMC3    C7 7336   2.260   4.290  10.636  0.7264  0.7871 -0.4996
  493TMC3    C8 7337   2.317   0.024  10.549  0.4702  0.4194  0.3285
  493TMC3    O1 7338   2.308   4.272  10.526  0.3431  0.8446  0.0146
  493TMC3    O2 7339   2.213   0.090  10.541  0.6690  0.4618  0.3133
  494TMC3    C1 7340   2.772   2.257   0.735 -0.0913 -0.4358  0.0952
  494TMC3    C2 7341   2.818   2.164   0.821  0.7208 -0.2630 -0.0195
  494TMC3    C3 7342   2.814   2.030   0.782  0.1177 -0.1128 -0.3552
  494TMC3    C4 7343   2.723   2.225   0.607  0.2753 -0.3639  0.4732
  494TMC3    C5 7344   2.713   2.090   0.577  1.1749  0.4673 -0.5333
  494TMC3    C6 7345   2.754   1.992   0.665 -0.6303 -0.6670  0.1017
  494TMC3     C 7346   2.718   2.366   0.801 -0.3920  0.4549 -0.2285
  494TMC3     O 7347   2.767   2.384   0.910  0.5137 -0.2570  0.5137
  494TMC3     H 7348   2.852   2.187   0.922  2.4156  1.6075 -1.0141
  494TMC3    H1 7349   2.665   2.294   0.548  0.4751  0.7554  1.5816
  494TMC3    H2 7350   2.747   1.887   0.641 -0.4322 -0.9818  1.4660
  494TMC3    C7 7351   2.684   2.055   0.440  0.1260  0.3276 -0.2939
  494TMC3    C8 7352   2.809   1.938   0.891  0.1099  0.0638  0.2809
  494TMC3    O1 7353   2.751   2.112   0.354 -0.4619  0.5606  0.1944
  494TMC3    O2 7354   2.765   1.975   0.999 -0.6305 -0.1852  0.1699
  495TMC3    C1 7355   1.334   4.707  14.385 -0.0460  0.7075  0.1313
  495TMC3    C2 7356   1.235   4.645  14.314 -0.0121  0.1525 -0.0836
  495TMC3    C3 7357   1.141   4.569  14.381 -0.2818 -0.0764  0.9174
  495TMC3    C4 7358   1.317   0.001  14.524 -0.0585  0.2354 -0.5898
  495TMC3    C5 7359   1.222   4.642  14.586  0.5263 -0.1553 -0.2482
  495TMC3    C6 7360   1.133   4.568  14.517 -0.5128  0.0737  0.3935
  495TMC3     C 7361   1.471   4.685  14.340 -0.8305 -0.0931  0.5702
  495TMC3     O 7362   1.496   4.639  14.226 -0.6040  0.0319 -0.7660
  495TMC3     H 7363   1.251   4.641  14.207  1.4393  2.3535  0.0618
  495TMC3    H1 7364   1.390   0.051  14.586 -1.3025  1.3514 -0.0417
  495TMC3    H2 7365   1.075   4.486  14.559  1.2050 -0.8332  1.0121
  495TMC3    C7 7366   1.268   4.603  14.717 -0.5325  0.3030  0.0016
  495TMC3    C8 7367   1.049   4.479  14.315  0.1312 -0.0575 -0.2688
  495TMC3    O1 7368   1.383   4.612  14.749 -0.1432 -0.0838 -0.2407
  495TMC3    O2 7369   0.968   4.419  14.385 -0.1279  0.0589  0.0838
  496MPD2     C 7370   3.454   3.801  15.702  0.7351  0.5692 -0.3137
  496MPD2    C1 7371   3.345   3.724  15.693 -0.0775 -0.3080 -0.1216
  496MPD2    C2 7372   3.238   3.733  15.785  0.5331 -0.0443  0.0324
  496MPD2    C3 7373   3.242   3.836  15.874  0.4589  0.1037 -0.0530
  496MPD2    C4 7374   3.350   3.917  15.876  0.0674 -0.1006 -0.7754
  496MPD2    C5 7375   3.456   3.897  15.795 -0.7801  0.1811  0.0026
  496MPD2     H 7376   3.158   3.661  15.779  0.6496 -0.1625 -0.1234
  496MPD2    H1 7377   3.356   3.994  15.951 -1.0385  0.7347 -1.5396
  496MPD2    H2 7378   3.536   3.797  15.631  0.7057 -3.1493 -0.1313
  496MPD2    H3 7379   3.538   3.969  15.797  2.1988 -3.1753 -2.0002
  496MPD2     N 7380   3.131   3.866  15.961  0.1700  0.2320  0.3258
  496MPD2    H5 7381   3.161   3.937  16.028 -0.5743 -0.8822  1.8411
  496MPD2    N1 7382   3.351   3.615  15.604 -0.7405  0.0705 -0.4069
  496MPD2    H7 7383   3.424   3.611  15.534  2.7495 -1.7346  3.3793
  497TMC3    C1 7384   2.914   3.917  16.015 -0.3479  0.1373  0.0780
  497TMC3    C2 7385   2.786   3.923  15.972  0.4430  0.1692  0.1469
  497TMC3    C3 7386   2.683   3.956  16.055  0.0046 -0.4142  0.3229
  497TMC3    C4 7387   2.937   3.933  16.147  0.3150 -0.3029 -0.3813
  497TMC3    C5 7388   2.832   3.965  16.234  0.0142 -0.4944  0.0422
  497TMC3    C6 7389   2.704   3.982  16.190 -0.0885 -0.4310  0.9619
  497TMC3     C 7390   3.001   3.846  15.928 -0.6452  0.2494  0.7145
  497TMC3     O 7391   2.950   3.788  15.832  0.0019  0.1521  0.3249
  497TMC3     H 7392   2.768   3.901  15.868 -2.5715 -0.2960  0.7526
  497TMC3    H1 7393   3.038   3.906  16.176  0.6664  2.0327  0.5657
  497TMC3    H2 7394   2.623   4.015  16.255 -0.5559 -1.5142  0.9377
  497TMC3    C7 7395   2.850   3.969  16.382 -0.1994 -0.6691  0.0542
  497TMC3    C8 7396   2.547   3.952  16.001  0.2638  0.1926  0.6992
  497TMC3    O1 7397   2.748   3.966  16.450  0.7698  0.4430  0.0509
  497TMC3    O2 7398   2.459   4.013  16.062 -0.3951  0.1178 -0.1730
  498MPD2     C 7399   4.260   3.804   8.934  0.8784 -0.4683 -0.2439
  498MPD2    C1 7400   4.298   3.845   9.058 -0.0416  0.1644 -0.7301
  498MPD2    C2 7401   4.215   3.826   9.168 -0.2857 -0.3049 -0.1046
  498MPD2    C3 7402   4.088   3.777   9.157 -0.0747 -0.5057 -0.4537
  498MPD2    C4 7403   4.055   3.732   9.030 -0.2914 -0.0865 -0.4718
  498MPD2    C5 7404   4.137   3.747   8.921  0.6685 -0.3925 -0.0817
  498MPD2     H 7405   4.268   3.853   9.259  0.2401 -2.2179  0.1422
  498MPD2    H1 7406   3.954   3.694   9.024 -0.4247  0.3340 -0.8383
  498MPD2    H2 7407   4.319   3.811   8.843  1.2954 -2.0546 -0.1048
  498MPD2    H3 7408   4.101   3.713   8.824 -0.3717  1.7168 -0.4441
  498MPD2     N 7409   4.016   3.790   9.273  0.0259  0.6369  0.2842
  498MPD2    H5 7410   4.058   3.830   9.356 -0.4125  0.6482  0.5043
  498MPD2    N1 7411   4.431   3.882   9.087 -0.2357 -0.2846 -0.1334
  498MPD2    H7 7412   4.460   3.887   9.184  2.1258  3.4921 -1.0260
  499TMC3    C1 7413   4.652   3.942   9.068  0.3615  0.0727  0.4649
  499TMC3    C2 7414   4.694   3.873   9.181  0.4052  0.3445 -1.1023
  499TMC3    C3 7415   0.097   3.912   9.235  0.4942 -0.5778  0.0423
  499TMC3    C4 7416   0.004   4.048   9.017 -0.1311  0.6890 -0.7479
  499TMC3    C5 7417   0.119   4.079   9.071  0.5670 -0.6042  0.0352
  499TMC3    C6 7418   0.173   4.012   9.177  0.0090  0.2107  0.2736
  499TMC3     C 7419   4.533   3.904   8.997  0.0311  0.6448 -0.2782
  499TMC3     O 7420   4.532   3.914   8.873  0.3131 -0.6353 -0.3131
  499TMC3     H 7421   4.638   3.792   9.226  0.7036 -0.6062 -2.4650
  499TMC3    H1 7422   4.678   4.101   8.935 -1.5584 -0.2211 -0.5122
  499TMC3    H2 7423   0.268   4.045   9.218 -0.2738  0.2593  0.8885
  499TMC3    C7 7424   0.187   4.196   9.029  0.3071 -0.1191 -0.7910
  499TMC3    C8 7425   0.139   3.842   9.358 -0.3496  0.5873  0.4765
  499TMC3    O1 7426   0.275   4.237   9.098  0.0132 -0.2933 -0.6215
  499TMC3    O2 7427   0.056   3.772   9.412  0.2090 -0.0344  0.4544
  500MPD2     C 7428   2.130   1.007   9.305  0.1138 -0.7805  0.2980
  500MPD2    C1 7429   2.070   1.054   9.415 -0.0857  0.0702 -0.5903
  500MPD2    C2 7430   1.932   1.068   9.417 -0.1800 -0.5354 -0.3611
  500MPD2    C3 7431   1.857   1.004   9.322  0.1373  0.3807 -0.1447
  500MPD2    C4 7432   1.913   0.947   9.215 -0.1816  0.7202 -0.4648
  500MPD2    C5 7433   2.051   0.945   9.211  0.1911  0.1119 -0.1435
  500MPD2     H 7434   1.883   1.108   9.505 -0.9420 -0.9628 -0.5961
  500MPD2    H1 7435   1.856   0.895   9.139 -1.8426  0.2357  1.1168
  500MPD2    H2 7436   2.237   0.993   9.293  0.2171  0.3311 -0.0806
  500MPD2    H3 7437   2.110   0.906   9.129  0.9824 -0.9279  0.9100
  500MPD2     N 7438   1.716   0.986   9.315 -0.5783 -0.1683  0.2458
  500MPD2    H5 7439   1.687   0.928   9.238  1.1848 -1.9276  0.9122
  500MPD2    N1 7440   2.135   1.064   9.535 -0.0756 -0.7049  0.1466
  500MPD2    H7 7441   2.085   1.118   9.605  0.3117  0.2202 -0.2869
  501TMC3    C1 7442   2.312   1.032   9.693 -0.2018  0.8276  0.0179
  501TMC3    C2 7443   2.291   1.159   9.747 -0.1653 -0.9447  1.0043
  501TMC3    C3 7444   2.384   1.201   9.836  0.3440  0.1830  0.3685
  501TMC3    C4 7445   2.398   0.949   9.756  0.5406 -0.1189  1.1321
  501TMC3    C5 7446   2.484   0.999   9.846  0.5992 -0.1185 -0.0574
  501TMC3    C6 7447   2.491   1.130   9.875 -0.4629 -0.1903  0.5153
  501TMC3     C 7448   2.252   0.995   9.573 -0.0021 -0.0959  0.1568
  501TMC3     O 7449   2.319   0.913   9.510  0.1828 -0.2975 -0.1795
  501TMC3     H 7450   2.237   1.231   9.687  1.0856 -0.0296  0.9841
  501TMC3    H1 7451   2.386   0.843   9.737 -1.7282  0.3247  0.1606
  501TMC3    H2 7452   2.567   1.161   9.946 -0.7629 -1.6965  1.5128
  501TMC3    C7 7453   2.529   0.895   9.936 -0.3467  0.5132 -0.3239
  501TMC3    C8 7454   2.355   1.312   9.927  0.3209 -0.2712 -0.1619
  501TMC3    O1 7455   2.435   0.827   9.978 -0.2654 -0.0959  0.1792
  501TMC3    O2 7456   2.452   1.355   9.989 -0.4729 -0.1159  0.9287
  502TMC3    C1 7457   0.968   4.598  15.821 -0.1522 -0.1056  0.3442
  502TMC3    C2 7458   0.954   4.703  15.729 -0.2790  0.2837 -0.4014
  502TMC3    C3 7459   0.845   4.705  15.649  1.0093  1.0832  0.3450
  502TMC3    C4 7460   0.868   4.508  15.834  0.0321  0.4212 -0.2109
  502TMC3    C5 7461   0.755   4.513  15.748 -0.2075  0.8701  0.1088
  502TMC3    C6 7462   0.743   4.610  15.651 -0.0676  0.0317 -0.3155
  502TMC3     C 7463   1.080   4.607  15.919 -0.2533 -0.2097  0.3875
  502TMC3     O 7464   1.147   4.706  15.926 -0.1533  0.4467 -0.0011
  502TMC3     H 7465   1.042   0.043  15.711 -1.3617  1.9290 -0.0865
  502TMC3    H1 7466   0.875   4.418  15.894 -0.6814 -0.1209 -0.9453
  502TMC3    H2 7467   0.652   4.614  15.592 -0.9083  1.7266  1.1010
  502TMC3    C7 7468   0.640   4.427  15.781  0.1943  0.3841 -0.8099
  502TMC3    C8 7469   0.843   0.091  15.557 -0.1114 -0.7307  0.2803
  502TMC3    O1 7470   0.662   4.314  15.828  0.1642 -0.0598  0.0158
  502TMC3    O2 7471   0.947   0.150  15.517  0.3346 -0.2527 -0.5809
  503MPD2     C 7472   2.742   0.729  17.004 -0.6845  0.7274 -0.2886
  503MPD2    C1 7473   2.752   0.771  17.135  0.8040  0.3168  0.1425
  503MPD2    C2 7474   2.807   0.686  17.235 -0.0431  0.1968  0.5547
  503MPD2    C3 7475   2.850   0.560  17.203  0.1065  0.1629 -0.4271
  503MPD2    C4 7476   2.835   0.519  17.071  0.2494  0.4974  0.5136
  503MPD2    C5 7477   2.782   0.601  16.975 -0.2112  0.0677  1.0287
  503MPD2     H 7478   2.814   0.717  17.339 -0.1589 -0.8406  0.8694
  503MPD2    H1 7479   2.851   0.418  17.036 -2.8946  0.8635 -1.9772
  503MPD2    H2 7480   2.694   0.783  16.923  0.0820  0.1474 -1.1289
  503MPD2    H3 7481   2.792   0.571  16.872 -0.9315  0.2030  0.9212
  503MPD2     N 7482   2.923   0.475  17.295  0.3335  0.2033  0.3290
  503MPD2    H5 7483   2.923   0.514  17.389  0.3258 -1.1346  0.8883
  503MPD2    N1 7484   2.719   0.908  17.165 -0.7064  0.3172  0.6306
  503MPD2    H7 7485   2.707   0.928  17.264  0.4096  1.0429  0.6195
  504TMC3    C1 7486   3.045   0.308  17.397 -0.5494  0.4029 -0.0615
  504TMC3    C2 7487   2.992   0.345  17.516 -0.0718 -0.2449 -0.1843
  504TMC3    C3 7488   3.073   0.332  17.624  0.0498 -0.4120  0.5308
  504TMC3    C4 7489   3.167   0.255  17.385 -0.0734  0.1503  0.1833
  504TMC3    C5 7490   3.245   0.260  17.492  0.0342 -0.2431  0.4153
  504TMC3    C6 7491   3.204   0.297  17.613  0.0081 -0.1053  0.0782
  504TMC3     C 7492   3.004   0.369  17.272  0.0847 -0.1800 -0.4083
  504TMC3     O 7493   3.039   0.323  17.161 -0.7366 -0.0113 -0.2516
  504TMC3     H 7494   2.893   0.389  17.526 -0.5730 -1.2152 -0.8323
  504TMC3    H1 7495   3.204   0.241  17.284 -2.4393  0.9409 -0.7844
  504TMC3    H2 7496   3.264   0.279   0.014 -1.9207  0.4478  1.4898
  504TMC3    C7 7497   3.384   0.270  17.470  0.5047  0.8676 -0.9012
  504TMC3    C8 7498   2.997   0.328   0.064 -0.5092 -0.1761 -0.1021
  504TMC3    O1 7499   3.428   0.218  17.369 -0.7326 -0.4557  0.2030
  504TMC3    O2 7500   2.879   0.311   0.050 -0.2569  0.2406 -0.3032
  505MPD2     C 7501   3.455   3.993  10.660  0.3331 -0.3616 -0.0178
  505MPD2    C1 7502   3.563   3.917  10.632  0.6927 -0.4859  0.1917
  505MPD2    C2 7503   3.688   3.973  10.604 -0.1336 -0.0447 -0.1408
  505MPD2    C3 7504   3.700   4.111  10.603 -0.0658  0.3219  0.6366
  505MPD2    C4 7505   3.592   4.187  10.619 -0.1898  0.1225 -0.4889
  505MPD2    C5 7506   3.472   4.125  10.654  0.7972 -0.2069 -1.0101
  505MPD2     H 7507   3.772   3.914  10.571  0.5329  1.2410 -0.7318
  505MPD2    H1 7508   3.590   4.295  10.613  1.4801  0.0653 -2.1113
  505MPD2    H2 7509   3.356   3.954  10.683  0.0236  0.0973 -0.5932
  505MPD2    H3 7510   3.388   4.192  10.666  1.1186  0.1504 -0.7502
  505MPD2     N 7511   3.824   4.169  10.578 -0.2033  0.0294  0.0673
  505MPD2    H5 7512   3.816   4.269  10.562  0.2935  0.1033  0.2895
  505MPD2    N1 7513   3.545   3.780  10.632  0.4323 -0.2345  0.2822
  505MPD2    H7 7514   3.450   3.748  10.623  0.8261 -1.5418  0.7512
  506TMC3    C1 7515   3.616   3.555  10.602  0.3194 -0.0276 -0.0270
  506TMC3    C2 7516   3.552   3.520  10.487 -0.1122 -0.2165 -0.3192
  506TMC3    C3 7517   3.574   3.398  10.431 -0.6799  0.0840 -0.5560
  506TMC3    C4 7518   3.699   3.469  10.664  0.7379  0.1047  0.2538
  506TMC3    C5 7519   3.744   3.356  10.590  0.5441 -0.2031 -0.5573
  506TMC3    C6 7520   3.677   3.315  10.474 -0.6080  0.0783  0.8629
  506TMC3     C 7521   3.648   3.690  10.633 -0.2846  0.8079 -0.7918
  506TMC3     O 7522   3.762   3.708  10.678 -0.1599 -0.1471 -0.5282
  506TMC3     H 7523   3.479   3.589  10.447 -0.9669 -0.9244  0.0091
  506TMC3    H1 7524   3.738   3.501  10.760  1.6868 -1.0683  0.2563
  506TMC3    H2 7525   3.710   3.230  10.415  1.3742  0.3544  1.5641
  506TMC3    C7 7526   3.888   3.350  10.574  0.4323 -0.1060 -0.2148
  506TMC3    C8 7527   3.509   3.354  10.310  0.8289 -0.3343  0.0426
  506TMC3    O1 7528   3.930   3.273  10.488  0.2967 -0.6926 -0.0901
  506TMC3    O2 7529   3.513   3.229  10.300  0.5355  0.4382  0.0623
  507TMC3    C1 7530   4.214   0.125  15.083  1.0952 -0.0735 -0.3649
  507TMC3    C2 7531   4.165   0.012  15.024  0.0817  0.4638  0.4389
  507TMC3    C3 7532   4.222   4.704  14.905  0.1263 -0.0994 -0.1767
  507TMC3    C4 7533   4.323   0.194  15.042 -0.6249 -0.5107 -0.3321
  507TMC3    C5 7534   4.395   0.148  14.936 -0.7456 -0.2028 -0.4734
  507TMC3    C6 7535   4.342   0.041  14.870  0.1978  0.6542 -0.1159
  507TMC3     C 7536   4.149   0.175  15.200 -0.1166  0.6754  0.4017
  507TMC3     O 7537   4.230   0.216  15.283  0.0947  0.2992 -0.4625
  507TMC3     H 7538   4.069   4.686  15.041  0.2827 -0.8602 -2.0727
  507TMC3    H1 7539   4.331   0.291  15.090  0.2400 -0.7620  0.0359
  507TMC3    H2 7540   4.393   0.001  14.783 -1.3535 -0.7410 -0.3687
  507TMC3    C7 7541   4.424   0.244  14.832  0.1193 -0.5234 -0.3214
  507TMC3    C8 7542   4.124   4.703  14.795 -0.5562 -0.1683 -0.3577
  507TMC3    O1 7543   4.402   0.217  14.715  0.0501  0.2404 -0.7518
  507TMC3    O2 7544   4.016   4.647  14.808  0.4234 -0.4758 -0.1630
  508MPD2     C 7545   0.133   2.427  16.224  0.6153  0.2866  0.1168
  508MPD2    C1 7546   0.264   2.461  16.202  0.0388 -0.3654 -0.2094
  508MPD2    C2 7547   0.308   2.461  16.074 -0.3937  0.0439  0.0501
  508MPD2    C3 7548   0.215   2.444  15.969  0.0784 -0.5505  0.2973
  508MPD2    C4 7549   0.087   2.412  15.994 -0.7725 -0.2030 -0.0670
  508MPD2    C5 7550   0.049   2.397  16.127  0.2935 -0.1698  0.0827
  508MPD2     H 7551   0.408   2.486  16.040 -0.0223  0.1436  1.2305
  508MPD2    H1 7552   0.016   2.388  15.916 -1.2573  1.9648 -0.2910
  508MPD2    H2 7553   0.098   2.429  16.327  2.5202 -2.6478  0.7929
  508MPD2    H3 7554   4.674   2.353  16.151  0.8609 -0.3098  2.0714
  508MPD2     N 7555   0.269   2.483  15.844 -0.0433 -0.2613  0.2092
  508MPD2    H5 7556   0.360   2.527  15.841 -0.3221  0.3714  1.0276
  508MPD2    N1 7557   0.336   2.496  16.318  0.6636  0.2831  0.3725
  508MPD2    H7 7558   0.303   2.460  16.407  0.7866 -0.1396  0.2498
  509TMC3    C1 7559   0.167   2.752  15.505 -0.2468  0.2511 -0.0986
  509TMC3    C2 7560   0.289   2.808  15.509  0.2417  0.1463  0.1890
  509TMC3    C3 7561   0.385   2.746  15.584 -0.1563 -0.3216 -0.2923
  509TMC3    C4 7562   0.144   2.619  15.539 -0.1036  0.0529  0.2917
  509TMC3    C5 7563   0.243   2.561  15.612 -0.3644  0.0815 -0.4878
  509TMC3    C6 7564   0.363   2.627  15.641 -0.1477 -0.1286  0.6370
  509TMC3     C 7565   0.077   2.816  15.417  0.4725 -0.3611  0.4783
  509TMC3     O 7566   0.011   2.747  15.342 -0.2704  0.5671 -0.0583
  509TMC3     H 7567   0.313   2.902  15.462 -1.0136 -0.7054 -2.1230
  509TMC3    H1 7568   0.046   2.574  15.533 -0.6494  1.3534 -0.4953
  509TMC3    H2 7569   0.451   2.574  15.676  0.3734 -0.0715 -0.5701
  509TMC3    C7 7570   0.195   2.473  15.725 -0.3419  0.2016  0.7821
  509TMC3    C8 7571   0.520   2.799  15.600 -0.2440 -0.2061  0.1933
  509TMC3    O1 7572   0.113   2.386  15.693 -0.7279 -0.0183 -0.2543
  509TMC3    O2 7573   0.616   2.735  15.623  0.5963  0.2093 -0.6314
  510MPD2     C 7574   2.879   4.382  14.678  0.0995 -0.7490  0.0230
  510MPD2    C1 7575   2.982   4.364  14.767 -0.0211  0.1730  0.1995
  510MPD2    C2 7576   3.101   4.328  14.709  0.3535 -0.7469 -0.1978
  510MPD2    C3 7577   3.121   4.307  14.571 -0.6850 -0.0845  0.1184
  510MPD2    C4 7578   3.006   4.320  14.490 -0.2274 -0.0994 -0.2058
  510MPD2    C5 7579   2.889   4.358  14.549 -0.1765 -0.1461  0.4767
  510MPD2     H 7580   3.188   4.309  14.772  0.5961 -1.4981 -0.7641
  510MPD2    H1 7581   3.010   4.302  14.383  2.3637 -0.0836 -0.1242
  510MPD2    H2 7582   2.776   4.405  14.705  1.1768  0.4427  3.1337
  510MPD2    H3 7583   2.802   4.358  14.484  0.7177  0.5715 -0.7079
  510MPD2     N 7584   3.248   4.262  14.531 -0.0925 -0.2166  0.1748
  510MPD2    H5 7585   3.323   4.272  14.599  0.9126 -1.0189 -0.8167
  510MPD2    N1 7586   2.955   4.366  14.907 -0.1497  0.3526 -0.0456
  510MPD2    H7 7587   2.860   4.387  14.934  0.7082  0.1418  3.1700
  511TMC3    C1 7588   2.968   4.323  15.139  0.0697  0.2578  0.9884
  511TMC3    C2 7589   2.833   4.368  15.156  0.2432 -0.0092 -0.1145
  511TMC3    C3 7590   2.761   4.324  15.261 -0.8351  0.2756  0.0235
  511TMC3    C4 7591   3.022   4.236  15.230 -0.2244  0.1829  0.0157
  511TMC3    C5 7592   2.945   4.191  15.328 -0.3028 -0.0593 -0.0449
  511TMC3    C6 7593   2.810   4.231  15.346  0.0066  0.1189 -0.1907
  511TMC3     C 7594   3.039   4.323  15.011  0.5794 -0.3345 -0.3301
  511TMC3     O 7595   3.152   4.287  14.987 -0.1721 -0.3502 -0.3879
  511TMC3     H 7596   2.782   4.434  15.087  1.6514 -1.4563 -2.5785
  511TMC3    H1 7597   3.109   4.176  15.207  0.6889  1.3200  0.5036
  511TMC3    H2 7598   2.753   4.198  15.432  2.6628  1.6805  2.1435
  511TMC3    C7 7599   2.968   4.063  15.383  0.0447  0.2571  0.0473
  511TMC3    C8 7600   2.623   4.370  15.268  0.8753  0.4855 -0.3301
  511TMC3    O1 7601   3.089   4.036  15.407  0.3483 -0.6343 -0.6356
  511TMC3    O2 7602   2.580   4.462  15.200 -0.1600  0.0905 -0.2276
  512TMC3    C1 7603   1.632   3.372  12.335  0.3538  0.0070 -0.2149
  512TMC3    C2 7604   1.714   3.400  12.443 -0.4748  0.3824 -0.6367
  512TMC3    C3 7605   1.808   3.309  12.489 -0.6048  0.8893  0.6943
  512TMC3    C4 7606   1.651   3.247  12.269 -0.1470 -0.0007  0.4096
  512TMC3    C5 7607   1.741   3.161  12.317 -0.5771  0.1966  0.2904
  512TMC3    C6 7608   1.818   3.186  12.431 -0.4529 -0.3218  0.0606
  512TMC3     C 7609   1.524   3.470  12.301 -0.4395  0.1087 -0.0352
  512TMC3     O 7610   1.440   3.416  12.227  0.1303 -0.4009 -0.1959
  512TMC3     H 7611   1.686   3.482  12.508  0.4018  0.5959 -0.5336
  512TMC3    H1 7612   1.585   3.233  12.184  1.5683 -0.0167 -0.9227
  512TMC3    H2 7613   1.882   3.124  12.493  2.2593 -0.2034 -2.6268
  512TMC3    C7 7614   1.692   3.028  12.305 -0.1823  0.0449 -0.0759
  512TMC3    C8 7615   1.809   3.295  12.632  0.0917 -0.0987 -0.2958
  512TMC3    O1 7616   1.617   3.004  12.212 -0.1072 -0.3506  0.5918
  512TMC3    O2 7617   1.767   3.184  12.668  0.3022 -0.1823  0.1211
  513MPD2     C 7618   3.484   3.193  13.383 -0.1360  0.9253 -0.8748
  513MPD2    C1 7619   3.572   3.246  13.292  0.0097 -0.3346  0.2013
  513MPD2    C2 7620   3.645   3.356  13.325  1.0895  0.7367 -1.1213
  513MPD2    C3 7621   3.636   3.412  13.449 -0.0640 -0.1028 -0.3697
  513MPD2    C4 7622   3.558   3.351  13.539  0.5508  0.7122  0.3217
  513MPD2    C5 7623   3.478   3.247  13.510 -0.3994  0.0588  0.0568
  513MPD2     H 7624   3.718   3.399  13.258  1.4615 -0.9342 -1.8056
  513MPD2    H1 7625   3.552   3.387  13.641 -0.0117 -1.2146  0.9814
  513MPD2    H2 7626   3.430   3.106  13.349 -0.7287  0.5166  1.0920
  513MPD2    H3 7627   3.418   3.214  13.594 -0.7977 -3.1030 -1.4610
  513MPD2     N 7628   3.719   3.529  13.478  0.4243  0.2384  0.0746
  513MPD2    H5 7629   3.775   3.565  13.401  1.8040 -2.5771 -0.2544
  513MPD2    N1 7630   3.578   3.188  13.164 -0.1782 -0.0386 -0.2124
  513MPD2    H7 7631   3.519   3.109  13.137  0.5401 -0.7631  0.3331
  514TMC3    C1 7632   3.646   3.169  12.938  0.4211 -0.6188 -0.0127
  514TMC3    C2 7633   3.531   3.212  12.884  0.2781 -0.6367  0.0153
  514TMC3    C3 7634   3.547   3.277  12.764 -0.2122 -1.2070  0.4808
  514TMC3    C4 7635   3.759   3.158  12.869 -0.2422  0.0344  0.1911
  514TMC3    C5 7636   3.771   3.215  12.748  0.1787 -0.9348 -0.1280
  514TMC3    C6 7637   3.663   3.276  12.694  0.2719  0.4991 -0.1824
  514TMC3     C 7638   3.680   3.206  13.073  0.7917 -0.7110  0.2586
  514TMC3     O 7639   3.793   3.259  13.096 -0.3282  0.2146 -0.5530
  514TMC3     H 7640   3.444   3.237  12.945 -0.4772 -1.8275 -0.5866
  514TMC3    H1 7641   3.852   3.128  12.915  0.7504  1.4715 -0.8392
  514TMC3    H2 7642   3.663   3.330  12.600 -1.5033 -0.8910 -0.9842
  514TMC3    C7 7643   3.888   3.294  12.738  0.5458 -0.7509  0.1323
  514TMC3    C8 7644   3.424   3.292  12.682 -0.3782  0.1738  0.4568
  514TMC3    O1 7645   3.972   3.255  12.654  0.0332 -0.3629 -0.1437
  514TMC3    O2 7646   3.332   3.326  12.752 -0.8076  0.2167  0.3031
  515MPD2     C 7647   1.369   1.058  14.909 -0.4165  0.0127  0.0511
  515MPD2    C1 7648   1.427   0.942  14.951  0.4498  0.7928  0.1748
  515MPD2    C2 7649   1.501   0.937  15.064  0.7763  0.3770  0.0197
  515MPD2    C3 7650   1.517   1.050  15.145 -0.0363 -0.1708  0.3528
  515MPD2    C4 7651   1.460   1.169  15.106 -0.3931  0.5649 -0.0224
  515MPD2    C5 7652   1.387   1.170  14.986 -0.5160  0.1627 -0.8001
  515MPD2     H 7653   1.553   0.850  15.103  1.9792 -0.7537 -4.1507
  515MPD2    H1 7654   1.457   1.262  15.160  1.8738 -0.3453  1.6481
  515MPD2    H2 7655   1.300   1.067  14.826 -1.3347  2.7950  1.0935
  515MPD2    H3 7656   1.336   1.263  14.959  0.6536  1.0308 -0.0223
  515MPD2     N 7657   1.586   1.039  15.271  0.5803 -0.4911 -0.7513
  515MPD2    H5 7658   1.638   0.952  15.279  2.5512  0.7777  0.2769
  515MPD2    N1 7659   1.416   0.828  14.873  0.0315 -0.4818  0.2779
  515MPD2    H7 7660   1.462   0.744  14.906 -1.1102 -1.0801  0.3369
  516TMC3    C1 7661   1.352   0.676  14.695 -1.2381 -0.0062 -1.0219
  516TMC3    C2 7662   1.317   0.672  14.570  0.5321 -0.0311  0.2452
  516TMC3    C3 7663   1.246   0.561  14.532 -0.4127  0.0448  0.2639
  516TMC3    C4 7664   1.333   0.574  14.783  0.3387  0.0025 -0.0773
  516TMC3    C5 7665   1.264   0.465  14.736 -0.2010 -0.0096  0.2770
  516TMC3    C6 7666   1.221   0.458  14.606  0.2084  0.7846 -0.5275
  516TMC3     C 7667   1.336   0.807  14.758 -0.5320 -0.5983  0.3883
  516TMC3     O 7668   1.269   0.890  14.693 -0.1620 -0.0065 -0.7412
  516TMC3     H 7669   1.332   0.758  14.505  2.7968 -0.1215  0.6274
  516TMC3    H1 7670   1.351   0.594  14.888 -1.0844 -1.2407  0.4043
  516TMC3    H2 7671   1.193   0.366  14.555 -0.2392  1.9209 -2.3119
  516TMC3    C7 7672   1.243   0.352  14.831 -0.1866 -0.8995  0.1350
  516TMC3    C8 7673   1.192   0.544  14.396  0.4832 -1.3151 -0.1587
  516TMC3    O1 7674   1.304   0.355  14.936 -0.1336  0.2727 -0.5802
  516TMC3    O2 7675   1.106   0.459  14.379 -0.4503 -0.0406  0.3345
  517MPD2     C 7676   0.768   2.184   0.072 -0.2346 -0.1504  0.2083
  517MPD2    C1 7677   0.898   2.215   0.077  0.4711  0.0875 -0.1758
  517MPD2    C2 7678   0.940   2.327   0.154  0.0196  0.8485 -0.5236
  517MPD2    C3 7679   0.841   2.383   0.238 -0.4410  0.9023  0.1813
  517MPD2    C4 7680   0.706   2.346   0.225  0.5637  0.7819  0.3616
  517MPD2    C5 7681   0.674   2.254   0.133  0.6404 -0.1573  0.2336
  517MPD2     H 7682   1.045   2.346   0.173 -0.1854  0.9625  0.5316
  517MPD2    H1 7683   0.624   2.391   0.278  0.1470  1.4159 -0.8054
  517MPD2    H2 7684   0.726   2.114   0.000  0.3322 -0.2480 -0.0288
  517MPD2    H3 7685   0.571   2.222   0.116  0.4453 -0.6194  2.2819
  517MPD2     N 7686   0.871   2.483   0.338 -0.2346  0.9863  0.2359
  517MPD2    H5 7687   0.809   2.476   0.418 -2.2296  0.8237 -1.3480
  517MPD2    N1 7688   1.003   2.139   0.023 -0.4971 -0.2080  0.1455
  517MPD2    H7 7689   1.097   2.176   0.015 -2.1783  4.0245 -0.0804
  518TMC3    C1 7690   1.112   1.932  17.686  0.5778  0.2353 -0.4841
  518TMC3    C2 7691   1.103   1.815   0.064  0.6190 -0.0147  0.4590
  518TMC3    C3 7692   1.231   1.761   0.078  0.0901 -0.1174  1.2166
  518TMC3    C4 7693   1.223   1.976  17.620 -0.1013 -0.3928 -0.5264
  518TMC3    C5 7694   1.335   1.900  17.613 -0.2251 -0.2737  0.6948
  518TMC3    C6 7695   1.344   1.787   0.007  0.2614 -0.1228  0.0035
  518TMC3     C 7696   0.985   2.004  17.686 -0.2920 -0.2245 -0.3119
  518TMC3     O 7697   0.888   1.932  17.688 -0.3932 -0.1229  0.0648
  518TMC3     H 7698   1.017   1.795   0.126  0.5517 -1.5984 -0.1404
  518TMC3    H1 7699   1.217   2.074  17.573 -0.4818  0.3721  1.1268
  518TMC3    H2 7700   1.433   1.730   0.032  1.0469  1.5829  1.0466
  518TMC3    C7 7701   1.448   1.933  17.536  0.5491 -0.1297 -0.5377
  518TMC3    C8 7702   1.255   1.655   0.183 -0.4745  0.0825  0.4100
  518TMC3    O1 7703   1.476   2.052  17.521 -0.0541  0.2326 -0.2005
  518TMC3    O2 7704   1.366   1.608   0.201 -0.4691  0.1256  0.0258
  519MPD2     C 7705   3.144   0.709  14.411  0.6667 -0.1820 -0.0305
  519MPD2    C1 7706   3.015   0.660  14.409  0.3239 -0.4203  0.2884
  519MPD2    C2 7707   3.007   0.522  14.432  0.1766 -0.1804  0.6349
  519MPD2    C3 7708   3.118   0.444  14.456  0.1440  0.5145  0.3542
  519MPD2    C4 7709   3.239   0.502  14.466  0.2913 -0.3085  0.7451
  519MPD2    C5 7710   3.254   0.631  14.440 -0.1181 -0.7930 -0.6737
  519MPD2     H 7711   2.909   0.477  14.442  0.0882 -0.1491 -0.0439
  519MPD2    H1 7712   3.330   0.448  14.490 -0.1180 -0.6854  1.4924
  519MPD2    H2 7713   3.157   0.809  14.371 -1.0930 -0.4916 -1.3864
  519MPD2    H3 7714   3.355   0.669  14.436  0.6452 -2.6381  0.6023
  519MPD2     N 7715   3.108   0.305  14.455 -0.4328  0.1140  0.1503
  519MPD2    H5 7716   3.195   0.253  14.460 -0.3532  0.2055 -0.2147
  519MPD2    N1 7717   2.902   0.739  14.377 -0.1845 -0.3676  0.3569
  519MPD2    H7 7718   2.813   0.691  14.390 -0.0408 -0.9445 -0.8077
  520TMC3    C1 7719   3.035   0.091  14.438  0.3738 -0.4835 -0.8875
  520TMC3    C2 7720   2.940   0.021  14.379 -0.1686 -0.2401 -0.4422
  520TMC3    C3 7721   2.977   4.631  14.307  0.1663 -0.1503 -0.5268
  520TMC3    C4 7722   3.159   0.044  14.457  0.2016  0.1785 -0.1940
  520TMC3    C5 7723   3.190   4.654  14.383 -0.3177  0.0135  0.7224
  520TMC3    C6 7724   3.102   4.593  14.296 -0.1709  0.3425 -0.3161
  520TMC3     C 7725   2.999   0.228  14.462 -0.0021 -0.6126 -0.8027
  520TMC3     O 7726   2.883   0.260  14.465 -0.0489 -0.3058 -0.0814
  520TMC3     H 7727   2.836   0.050  14.377 -0.3766 -0.9650  0.0954
  520TMC3    H1 7728   3.231   0.101  14.514  1.8800 -0.7781 -1.3556
  520TMC3    H2 7729   3.126   4.499  14.249  1.9164  0.2040  1.0152
  520TMC3    C7 7730   3.327   4.609  14.403 -0.4103 -0.2622 -0.4555
  520TMC3    C8 7731   2.886   4.567  14.218  0.0634  0.3451 -0.1755
  520TMC3    O1 7732   3.374   4.606  14.518  0.1275  0.4165  0.3124
  520TMC3    O2 7733   2.934   4.504  14.125 -0.6308 -0.4992 -0.5340
  521MPD2     C 7734   3.739   3.065  17.491 -0.1602 -0.5532  1.1094
  521MPD2    C1 7735   3.729   3.015  17.365 -0.1082  0.8677  0.2101
  521MPD2    C2 7736   3.834   2.960  17.297 -0.1673  0.5997  0.1271
  521MPD2    C3 7737   3.958   2.957  17.363 -0.4581  0.0993 -0.4801
  521MPD2    C4 7738   3.969   3.008  17.500  0.0226  0.0453  0.0408
  521MPD2    C5 7739   3.855   3.063  17.556  0.1588  1.0207  0.5774
  521MPD2     H 7740   3.820   2.929  17.194  1.8578 -0.1940  0.0870
  521MPD2    H1 7741   4.064   2.997  17.551  0.1745  0.4245 -0.1611
  521MPD2    H2 7742   3.660   3.112  17.549  0.5457 -0.3419  1.9027
  521MPD2    H3 7743   3.858   3.097  17.659  0.3322  1.5515  0.3990
  521MPD2     N 7744   4.062   2.891  17.294  0.1076 -0.0477 -0.0310
  521MPD2    H5 7745   4.038   2.867  17.199 -0.6142 -1.1519  0.4297
  521MPD2    N1 7746   3.593   3.029  17.324  0.7772  0.1776 -0.2819
  521MPD2    H7 7747   3.530   3.088  17.378  1.0155 -1.5520  1.9046
  522TMC3    C1 7748   4.287   2.801  17.250  0.6315 -0.0970  0.1081
  522TMC3    C2 7749   4.412   2.769  17.295 -0.0862 -0.3184  0.0136
  522TMC3    C3 7750   4.510   2.726  17.212  0.2032 -0.1425  0.5956
  522TMC3    C4 7751   4.247   2.780  17.124  0.2532  0.0153  0.3054
  522TMC3    C5 7752   4.346   2.733  17.038 -0.1224 -0.2087  0.1930
  522TMC3    C6 7753   4.474   2.702  17.079 -0.1692  0.3309  0.1927
  522TMC3     C 7754   4.187   2.856  17.343 -0.1583 -0.1091 -0.0989
  522TMC3     O 7755   4.224   2.865  17.460 -0.2080  0.2261 -0.7284
  522TMC3     H 7756   4.437   2.781  17.400  0.1065  0.0761 -0.0766
  522TMC3    H1 7757   4.145   2.798  17.090  0.9358  1.5110 -0.9738
  522TMC3    H2 7758   4.548   2.660  17.012  0.4641  4.3704 -1.6374
  522TMC3    C7 7759   4.306   2.696  16.900  0.3297  0.1292  0.0360
  522TMC3    C8 7760   4.643   2.769  17.246  0.2313  0.1325  0.6581
  522TMC3    O1 7761   4.377   2.615  16.849  0.1337 -0.1793  0.4725
  522TMC3    O2 7762   4.649   2.858  17.332 -0.1791  0.3936 -0.6638
  523MPD2     C 7763   2.514   2.634  10.211  0.1411 -0.3411 -0.4456
  523MPD2    C1 7764   2.524   2.538  10.113 -0.2909  0.0298 -0.8654
  523MPD2    C2 7765   2.427   2.543  10.013 -0.1478  0.1521  0.3688
  523MPD2    C3 7766   2.311   2.624  10.019 -0.3657 -0.2492  0.3434
  523MPD2    C4 7767   2.308   2.718  10.127 -0.1337 -0.3212  0.1353
  523MPD2    C5 7768   2.404   2.717  10.216  0.1509 -0.0444  0.0741
  523MPD2     H 7769   2.423   2.477   9.927 -2.5334 -1.3284  1.6059
  523MPD2    H1 7770   2.225   2.787  10.131  0.3508  0.2214  0.7296
  523MPD2    H2 7771   2.580   2.636  10.297 -0.8168 -1.5409  0.3278
  523MPD2    H3 7772   2.399   2.793  10.293 -1.2014 -0.6421  0.5896
  523MPD2     N 7773   2.205   2.626   9.920 -0.3308 -0.4140  0.4049
  523MPD2    H5 7774   2.120   2.673   9.951 -0.6434  0.8958 -2.4042
  523MPD2    N1 7775   2.632   2.446  10.119 -0.1969 -0.0800 -0.4339
  523MPD2    H7 7776   2.699   2.460  10.194 -0.9966  2.1097 -0.1404
  524TMC3    C1 7777   2.059   2.556   9.751  0.3508  0.2678  0.5675
  524TMC3    C2 7778   2.001   2.444   9.695 -0.6076  0.9608  0.7021
  524TMC3    C3 7779   1.863   2.437   9.695 -0.0426  0.7149 -0.0373
  524TMC3    C4 7780   1.995   2.672   9.775  0.2656  0.4202  0.2748
  524TMC3    C5 7781   1.858   2.657   9.786 -0.4831 -0.5644  0.3981
  524TMC3    C6 7782   1.791   2.540   9.742 -0.1766 -0.2203 -0.4067
  524TMC3     C 7783   2.192   2.542   9.811  0.3031  0.2217 -0.1319
  524TMC3     O 7784   2.267   2.458   9.770  0.0807  0.3298 -0.1497
  524TMC3     H 7785   2.055   2.350   9.686  0.3998  1.6935 -0.9384
  524TMC3    H1 7786   2.044   2.763   9.808  2.3806 -0.5789 -0.0354
  524TMC3    H2 7787   1.683   2.546   9.740 -0.1820 -0.7236 -1.2682
  524TMC3    C7 7788   1.798   2.752   9.879 -0.0472 -0.0145 -0.1021
  524TMC3    C8 7789   1.795   2.315   9.654 -0.4338 -0.3343  0.0029
  524TMC3    O1 7790   1.877   2.810   9.950  0.2217 -0.0821  0.5651
  524TMC3    O2 7791   1.691   2.291   9.715  0.2738  0.3755  0.6739
  525MPD2     C 7792   4.380   4.457  14.675  0.4588 -0.2324  0.2792
  525MPD2    C1 7793   4.505   4.474  14.738  0.3030 -0.5590  0.2668
  525MPD2    C2 7794   4.584   4.577  14.696  0.1965  0.0879  0.6495
  525MPD2    C3 7795   4.549   4.646  14.584  0.3177  0.2927 -0.3481
  525MPD2    C4 7796   4.434   4.614  14.514  0.0418  0.6014 -0.4691
  525MPD2    C5 7797   4.347   4.527  14.564 -0.3264 -0.0325  0.6477
  525MPD2     H 7798   4.670   4.605  14.757  0.1018  0.7853  0.4682
  525MPD2    H1 7799   4.395   4.682  14.438 -1.5280 -1.6663 -1.7032
  525MPD2    H2 7800   4.305   4.393  14.720  0.0612 -0.3967 -0.6204
  525MPD2    H3 7801   4.248   4.528  14.520 -0.6406  0.2727  1.3523
  525MPD2     N 7802   4.636   0.027  14.542 -0.2278  0.1427  0.3652
  525MPD2    H5 7803   4.690   0.065  14.619 -0.3815 -0.7261  0.8893
  525MPD2    N1 7804   4.539   4.406  14.853 -0.3302 -0.0897  0.2465
  525MPD2    H7 7805   4.630   4.410  14.897 -0.4285  0.5507  0.3804
  526TMC3    C1 7806   4.530   4.229  15.020  0.3318  0.4137  0.2249
  526TMC3    C2 7807   4.470   4.197  15.139 -0.1351 -0.1892 -0.1141
  526TMC3    C3 7808   4.537   4.127  15.237  0.2590  0.5175 -0.1310
  526TMC3    C4 7809   4.664   4.213  15.003 -0.5032 -0.2364  0.2282
  526TMC3    C5 7810   0.004   4.136  15.100  0.3040  0.2591  0.5770
  526TMC3    C6 7811   4.662   4.082  15.213  0.1757  0.0580 -0.6394
  526TMC3     C 7812   4.459   4.311  14.920  0.2289  0.1278  0.0199
  526TMC3     O 7813   4.347   4.267  14.905  0.7201  0.1886 -0.4370
  526TMC3     H 7814   4.373   4.241  15.159  0.4516  0.8353  0.5314
  526TMC3    H1 7815   4.715   4.245  14.913 -0.4808 -0.2195  0.2472
  526TMC3    H2 7816   4.713   4.008  15.273 -1.4551  0.8512  1.7249
  526TMC3    C7 7817   0.138   4.090  15.077  0.0612  0.4075 -0.5321
  526TMC3    C8 7818   4.492   4.136  15.381  0.3989 -0.7060 -0.4639
  526TMC3    O1 7819   0.191   4.044  15.172  0.5046  0.1672  0.7949
  526TMC3    O2 7820   4.571   4.109  15.471  0.3023 -0.0824 -0.1244
  527MPD2     C 7821   2.991   2.670   1.514  0.5222 -0.0855  0.6016
  527MPD2    C1 7822   3.081   2.618   1.431 -0.1023  0.0204 -0.3726
  527MPD2    C2 7823   3.050   2.604   1.294 -0.0557 -0.0276  0.7230
  527MPD2    C3 7824   2.941   2.670   1.238 -0.3456  0.2877 -0.4897
  527MPD2    C4 7825   2.856   2.737   1.323 -0.0320 -0.3635 -0.0610
  527MPD2    C5 7826   2.883   2.733   1.456  0.0621 -0.6308 -0.1523
  527MPD2     H 7827   3.119   2.546   1.234  0.2183 -1.4619  2.4184
  527MPD2    H1 7828   2.762   2.784   1.297  0.6477  0.0641 -1.8061
  527MPD2    H2 7829   3.014   2.680   1.620  0.8195  0.8477  0.4503
  527MPD2    H3 7830   2.817   2.790   1.520  0.3870  1.5776 -1.7892
  527MPD2     N 7831   2.921   2.671   1.099  0.5105  0.5045 -0.2971
  527MPD2    H5 7832   2.978   2.603   1.049  0.7546  0.5336 -0.0539
  527MPD2    N1 7833   3.198   2.567   1.499  0.7472  0.2817 -0.6143
  527MPD2    H7 7834   3.198   2.573   1.600 -0.0608 -1.8112 -0.4825
  528TMC3    C1 7835   3.382   2.434   1.545  0.8231  0.0819  0.0398
  528TMC3    C2 7836   3.358   2.440   1.680 -0.3719  0.3601 -0.7517
  528TMC3    C3 7837   3.405   2.338   1.765 -0.2033 -0.4519 -0.2110
  528TMC3    C4 7838   3.463   2.338   1.501  0.0433  0.1612  0.2635
  528TMC3    C5 7839   3.525   2.254   1.588 -0.8139  0.4243  0.2744
  528TMC3    C6 7840   3.492   2.247   1.726 -0.0178 -0.1009 -0.7138
  528TMC3     C 7841   3.302   2.502   1.437 -0.3976 -0.0432  0.3694
  528TMC3     O 7842   3.339   2.484   1.322 -0.0710 -0.3132  0.5594
  528TMC3     H 7843   3.293   2.522   1.708 -1.0481  0.0260 -1.3409
  528TMC3    H1 7844   3.505   2.347   1.402 -0.7037  2.2233  0.1269
  528TMC3    H2 7845   3.544   2.181   1.794  0.2757  0.4989 -0.3541
  528TMC3    C7 7846   3.637   2.178   1.534  0.1589 -0.6294  0.4849
  528TMC3    C8 7847   3.310   2.318   1.874 -0.0696 -0.2178  0.5378
  528TMC3    O1 7848   3.690   2.220   1.435  0.0107  0.3520  0.8306
  528TMC3    O2 7849   3.267   2.416   1.923 -0.3064 -0.1951 -0.1856
  529MPD2     C 7850   0.235   1.806   1.109  0.2237  0.7854 -0.7239
  529MPD2    C1 7851   0.184   1.690   1.054 -0.0206 -0.2330  0.3946
  529MPD2    C2 7852   0.158   1.684   0.917  0.2597 -0.7343 -0.2280
  529MPD2    C3 7853   0.186   1.795   0.841 -0.4963 -0.4660  0.9534
  529MPD2    C4 7854   0.228   1.917   0.902 -0.1416  0.1314  0.0982
  529MPD2    C5 7855   0.248   1.922   1.036  0.4855  0.4924  0.7354
  529MPD2     H 7856   0.115   1.591   0.882 -0.5236 -0.6203  0.4395
  529MPD2    H1 7857   0.256   2.004   0.844  1.0228 -1.0238 -1.0786
  529MPD2    H2 7858   0.239   1.821   1.217  0.3743  0.8642 -0.7406
  529MPD2    H3 7859   0.264   2.022   1.076  2.6927  0.8501 -1.0911
  529MPD2     N 7860   0.157   1.801   0.705  0.2717 -0.1996 -0.0812
  529MPD2    H5 7861   0.181   1.891   0.666  2.2751 -0.5698  0.2948
  529MPD2    N1 7862   0.133   1.578   1.128 -0.5678 -0.0839  0.1859
  529MPD2    H7 7863   0.069   1.513   1.081 -1.5970  0.9301  0.1855
  530TMC3    C1 7864   0.123   1.418   1.306 -0.0247  0.2833  0.3859
  530TMC3    C2 7865   0.174   1.378   1.427  0.2980  0.0211 -0.5401
  530TMC3    C3 7866   0.183   1.245   1.447 -0.0820  0.0271  0.4252
  530TMC3    C4 7867   0.079   1.334   1.204 -0.3183 -1.1493  0.1041
  530TMC3    C5 7868   0.074   1.201   1.240  0.2419  0.0801  0.2283
  530TMC3    C6 7869   0.135   1.157   1.353 -1.1311  0.2331  0.4890
  530TMC3     C 7870   0.169   1.552   1.257  1.2644 -0.4264 -0.5568
  530TMC3     O 7871   0.252   1.607   1.330  0.3738  0.0971 -0.4167
  530TMC3     H 7872   0.196   1.453   1.502 -0.4833  2.0062 -2.2851
  530TMC3    H1 7873   0.025   1.361   1.113 -0.0771  1.0884  0.6446
  530TMC3    H2 7874   0.144   1.051   1.375  1.2163  0.7949  2.2481
  530TMC3    C7 7875   0.014   1.108   1.141  0.8029 -0.0456  0.2332
  530TMC3    C8 7876   0.201   1.206   1.586 -0.3727  0.1925  0.8767
  530TMC3    O1 7877   4.720   1.142   1.027 -0.2822 -0.1074  0.2677
  530TMC3    O2 7878   0.223   1.301   1.662 -0.0196 -0.3354  0.1044
  531MPD2     C 7879   4.220   3.588  13.014 -0.1288 -0.2000  0.2916
  531MPD2    C1 7880   4.103   3.584  13.080 -0.1045 -0.5919 -0.1165
  531MPD2    C2 7881   4.003   3.519  13.017 -0.1874  0.4592  0.3618
  531MPD2    C3 7882   4.016   3.455  12.894  0.3580 -0.0916 -0.2332
  531MPD2    C4 7883   4.136   3.461  12.826  0.0080  0.4164  0.0896
  531MPD2    C5 7884   4.239   3.532  12.893 -0.0914  0.7960  0.6792
  531MPD2     H 7885   3.904   3.501  13.057 -0.7791  1.9278 -0.4464
  531MPD2    H1 7886   4.167   3.426  12.728  1.9188 -0.0512  0.8780
  531MPD2    H2 7887   4.311   3.643  13.035  0.0978 -0.5216  0.1473
  531MPD2    H3 7888   4.337   3.538  12.846 -0.5653  3.3906  0.0102
  531MPD2     N 7889   3.905   3.376  12.850  0.0800  0.2540  0.5984
  531MPD2    H5 7890   3.828   3.372  12.916  0.1278  1.4298  0.7219
  531MPD2    N1 7891   4.094   3.637  13.210  0.2074 -1.0919  0.0429
  531MPD2    H7 7892   4.180   3.677  13.245 -1.1435  1.0330  0.9322
  532TMC3    C1 7893   3.990   3.698  13.414  0.3296  0.6501 -0.0892
  532TMC3    C2 7894   3.866   3.715  13.468  0.2899 -0.2812 -0.0040
  532TMC3    C3 7895   3.840   3.682  13.597 -0.4017 -0.2150  0.1481
  532TMC3    C4 7896   4.093   3.639  13.477  0.5427  0.7033 -0.7377
  532TMC3    C5 7897   4.067   3.618  13.615 -0.3612  0.9157  0.0731
  532TMC3    C6 7898   3.945   3.645  13.681  0.0306 -0.3659  0.3787
  532TMC3     C 7899   3.979   3.649  13.277  0.4006  0.4745 -0.0260
  532TMC3     O 7900   3.866   3.619  13.237 -0.1616  0.0926  0.3482
  532TMC3     H 7901   3.790   3.774  13.419 -1.1702 -0.1344  2.4622
  532TMC3    H1 7902   4.197   3.638  13.449  0.8382  1.7331  0.2902
  532TMC3    H2 7903   3.933   3.622  13.787  0.0453  1.5035  0.7812
  532TMC3    C7 7904   4.158   3.543  13.702 -0.4529  0.5169  0.3274
  532TMC3    C8 7905   3.738   3.577  13.606 -0.4864  0.0892  0.2032
  532TMC3    O1 7906   4.152   3.566  13.822  0.2020 -0.0855  0.5626
  532TMC3    O2 7907   3.713   3.537  13.717  0.1786  0.0776  0.7604
  533TMC3    C1 7908   4.717   0.218  14.436 -0.0332 -0.1186 -1.1273
  533TMC3    C2 7909   0.114   0.216  14.374 -0.0112  0.6918  0.0805
  533TMC3    C3 7910   0.215   0.262  14.443  0.4338 -0.2268  0.3747
  533TMC3    C4 7911   4.693   0.270  14.556  0.4170 -0.7038  0.4963
  533TMC3    C5 7912   0.078   0.326  14.621  1.0371  0.5889 -0.1141
  533TMC3    C6 7913   0.202   0.320  14.569  0.1717 -0.2085  0.2653
  533TMC3     C 7914   4.635   0.098  14.424 -0.8553  0.0881  0.0515
  533TMC3     O 7915   4.605   0.064  14.314 -0.0597  0.0372 -0.1395
  533TMC3     H 7916   0.118   0.154  14.285 -2.1952  0.9879 -0.2226
  533TMC3    H1 7917   4.598   0.251  14.604  0.1690 -1.4493 -0.3087
  533TMC3    H2 7918   0.284   0.340  14.637  2.4590  0.2640 -2.6478
  533TMC3    C7 7919   0.072   0.289  14.762 -0.7353  0.2487 -0.5682
  533TMC3    C8 7920   0.351   0.254  14.406 -0.6243  0.1186 -0.1356
  533TMC3    O1 7921   0.033   0.174  14.776  0.3213  0.1456  0.0696
  533TMC3    O2 7922   0.422   0.189  14.484  0.5342 -0.0399  0.2433
  534MPD2     C 7923   2.512   1.419   1.997  0.3162 -0.9389 -0.5024
  534MPD2    C1 7924   2.468   1.542   1.945 -0.9096  0.3166  0.5628
  534MPD2    C2 7925   2.337   1.560   1.916  0.4366  0.1023 -0.5680
  534MPD2    C3 7926   2.241   1.456   1.925  0.0489  0.5568 -0.2927
  534MPD2    C4 7927   2.289   1.330   1.964  0.1104 -0.0711 -0.0248
  534MPD2    C5 7928   2.420   1.316   2.005  0.2033  0.2092 -0.4023
  534MPD2     H 7929   2.310   1.651   1.864  0.6534  0.8667  0.6504
  534MPD2    H1 7930   2.230   1.239   1.969 -0.3243  0.4257  3.8549
  534MPD2    H2 7931   2.614   1.392   2.023  0.5494  0.1405 -0.2895
  534MPD2    H3 7932   2.443   1.214   2.036 -0.4141  0.3651  0.5816
  534MPD2     N 7933   2.105   1.466   1.882 -0.1514 -0.7931 -0.5624
  534MPD2    H5 7934   2.055   1.378   1.874 -2.1131  0.2075  0.6880
  534MPD2    N1 7935   2.557   1.643   1.908 -0.1786  0.1808  0.0398
  534MPD2    H7 7936   2.518   1.714   1.846  1.5821 -0.0543 -1.3567
  535TMC3    C1 7937   1.964   1.548   1.733  0.0656  0.6305 -0.2035
  535TMC3    C2 7938   1.876   1.440   1.752  0.1320  0.3356  0.2344
  535TMC3    C3 7939   1.839   1.357   1.646  0.5320  0.0368  1.1428
  535TMC3    C4 7940   2.031   1.559   1.620  0.1003 -0.2697  0.5591
  535TMC3    C5 7941   2.000   1.474   1.514 -0.2269  0.2650  0.2357
  535TMC3    C6 7942   1.914   1.366   1.529  0.5623 -0.7237  0.0394
  535TMC3     C 7943   2.047   1.581   1.844  0.3592  0.3983 -0.4875
  535TMC3     O 7944   2.083   1.697   1.857  0.2613  0.3510  0.1621
  535TMC3     H 7945   1.823   1.434   1.846 -0.0788 -0.4590  0.0579
  535TMC3    H1 7946   2.103   1.640   1.610 -2.4613  1.7861 -1.2719
  535TMC3    H2 7947   1.884   1.315   1.438  0.3238  1.0803 -0.9038
  535TMC3    C7 7948   2.072   1.501   1.393  0.5039  0.4768 -0.2018
  535TMC3    C8 7949   1.700   1.309   1.646 -0.9473 -0.0676  0.5718
  535TMC3    O1 7950   2.083   1.410   1.313 -0.5416 -0.2412 -0.0204
  535TMC3    O2 7951   1.662   1.235   1.553  0.5684  0.3545  0.1614
  536MPD2     C 7952   1.520   4.194  17.143  0.0955 -0.1018  0.1912
  536MPD2    C1 7953   1.402   4.135  17.188 -0.2874  0.4608  0.2966
  536MPD2    C2 7954   1.299   4.114  17.097 -0.5180 -0.0567  0.5776
  536MPD2    C3 7955   1.312   4.162  16.967  0.4330  0.5054  0.0335
  536MPD2    C4 7956   1.428   4.225  16.936 -0.0750  0.2132  0.4150
  536MPD2    C5 7957   1.535   4.238  17.018 -0.5747  0.4561 -0.4228
  536MPD2     H 7958   1.209   4.060  17.125 -1.5054  0.5097 -1.5234
  536MPD2    H1 7959   1.436   4.270  16.838  0.5886  0.1353  0.4356
  536MPD2    H2 7960   1.601   4.221  17.210 -1.0867  0.3739  1.4325
  536MPD2    H3 7961   1.631   4.281  16.994 -0.3528 -0.3783 -1.0770
  536MPD2     N 7962   1.211   4.154  16.868 -0.8089 -0.4021  0.3527
  536MPD2    H5 7963   1.227   4.202  16.780  0.5207 -0.2166  0.6876
  536MPD2    N1 7964   1.398   4.107  17.327 -0.1766  0.1481 -0.3798
  536MPD2    H7 7965   1.479   4.123  17.386  0.7691 -0.1561 -1.5944
  537TMC3    C1 7966   1.317   4.024  17.528  0.2528  0.1688 -0.1352
  537TMC3    C2 7967   1.346   4.135  17.601 -0.0896 -0.3295  0.8562
  537TMC3    C3 7968   1.365   4.132   0.044  0.0953 -0.8071  0.8065
  537TMC3    C4 7969   1.290   3.910  17.595  0.4092  0.3171  0.1942
  537TMC3    C5 7970   1.302   3.912   0.045 -0.0612  0.0508 -0.2625
  537TMC3    C6 7971   1.352   4.019   0.119  0.2627  0.5854 -0.0652
  537TMC3     C 7972   1.297   4.032  17.388 -0.0184  0.4935  0.1722
  537TMC3     O 7973   1.216   3.956  17.342 -0.5829  0.1155 -0.3414
  537TMC3     H 7974   1.332   4.222  17.537 -2.6156 -2.2273 -1.1679
  537TMC3    H1 7975   1.261   3.823  17.538 -0.6004  0.9580 -0.2843
  537TMC3    H2 7976   1.368   4.019   0.226  2.1268  0.9515 -0.3428
  537TMC3    C7 7977   1.246   3.805   0.128 -0.1771 -0.5525 -0.6591
  537TMC3    C8 7978   1.379   4.259   0.110 -0.5505 -0.9027  0.7686
  537TMC3    O1 7979   1.244   3.825   0.248 -0.3217 -0.1741  0.6120
  537TMC3    O2 7980   1.351   4.254   0.229  0.2865 -0.3342 -0.5740
  538TMC3    C1 7981   2.720   2.383  10.899  0.3788  0.0956  0.2013
  538TMC3    C2 7982   2.834   2.459  10.879  0.4896 -0.3349 -0.1334
  538TMC3    C3 7983   2.858   2.507  10.758 -0.7744 -0.1041 -0.1601
  538TMC3    C4 7984   2.638   2.342  10.800  0.0371  0.4338 -0.6173
  538TMC3    C5 7985   2.657   2.402  10.676  0.1075 -0.3377 -0.1188
  538TMC3    C6 7986   2.770   2.484  10.658 -0.5234  1.0149 -0.0521
  538TMC3     C 7987   2.677   2.377  11.038  0.7280  0.1565  0.2121
  538TMC3     O 7988   2.565   2.331  11.050 -0.1261 -0.6015  0.0003
  538TMC3     H 7989   2.874   2.513  10.964 -0.9126  0.8554 -0.2485
  538TMC3    H1 7990   2.543   2.296  10.825  1.0054 -0.8360  0.7138
  538TMC3    H2 7991   2.772   2.545  10.568 -2.7338  0.8398 -0.2268
  538TMC3    C7 7992   2.545   2.454  10.608  0.1545  0.2483 -0.2769
  538TMC3    C8 7993   2.964   2.602  10.734  0.7528 -0.6703 -0.6811
  538TMC3    O1 7994   2.471   2.370  10.560  0.0294 -0.1572  0.3392
  538TMC3    O2 7995   2.960   2.666  10.629 -0.3943 -0.3606  0.1330
  539MPD2     C 7996   2.504   1.689  11.817  1.3815  0.2270  0.3815
  539MPD2    C1 7997   2.522   1.714  11.683  0.1430 -0.0400  0.7269
  539MPD2    C2 7998   2.483   1.830  11.626 -0.0703 -0.3496  0.1498
  539MPD2    C3 7999   2.417   1.929  11.700  1.5707 -0.2461 -1.1758
  539MPD2    C4 8000   2.401   1.902  11.836 -0.5394  0.6964  0.0723
  539MPD2    C5 8001   2.450   1.785  11.899  0.0507  0.4443  0.0749
  539MPD2     H 8002   2.503   1.857  11.523  0.1772 -1.2463 -0.0369
  539MPD2    H1 8003   2.360   1.976  11.904  1.1451  0.8686  0.8988
  539MPD2    H2 8004   2.527   1.591  11.858 -1.2958 -0.4739  0.2486
  539MPD2    H3 8005   2.426   1.761  12.002 -0.1287  0.1397 -0.0405
  539MPD2     N 8006   2.367   2.052  11.650 -0.3093 -0.5547 -0.1531
  539MPD2    H5 8007   2.328   2.117  11.717 -0.7657 -2.0551  1.0500
  539MPD2    N1 8008   2.587   1.619  11.596 -0.6194  0.1547 -0.1415
  539MPD2    H7 8009   2.591   1.631  11.496 -1.2731 -1.4617 -0.3499
  540TMC3    C1 8010   2.228   2.182  11.508  0.4508  0.0078  0.2824
  540TMC3    C2 8011   2.227   2.250  11.391  0.0930 -0.3548 -0.0822
  540TMC3    C3 8012   2.126   2.341  11.375  0.4310  0.4020 -0.3697
  540TMC3    C4 8013   2.139   2.194  11.608 -0.3938  0.1752  0.3644
  540TMC3    C5 8014   2.033   2.284  11.581 -0.4161  0.4391 -0.3837
  540TMC3    C6 8015   2.024   2.357  11.467 -0.1336  0.6352 -0.1866
  540TMC3     C 8016   2.339   2.082  11.518  0.2827  0.9788 -0.0471
  540TMC3     O 8017   2.368   2.024  11.418 -0.2373 -0.3196  0.2910
  540TMC3     H 8018   2.313   2.223  11.330 -0.4382  0.7379 -1.3031
  540TMC3    H1 8019   2.127   2.120  11.687  0.9206 -0.5485 -0.1018
  540TMC3    H2 8020   1.960   2.441  11.443  0.2193  1.3267  1.2710
  540TMC3    C7 8021   1.920   2.280  11.667  0.0376 -1.0369  0.2028
  540TMC3    C8 8022   2.112   2.390  11.241  0.0159  0.4816 -0.3979
  540TMC3    O1 8023   1.818   2.337  11.636  0.6057 -0.8233 -0.3890
  540TMC3    O2 8024   2.053   2.492  11.222  0.9576 -0.2161  0.2830
  541MPD2     C 8025   0.249   3.487  13.156  0.0332  0.2196 -0.7416
  541MPD2    C1 8026   0.338   3.405  13.095  0.0916  0.1167 -0.1934
  541MPD2    C2 8027   0.402   3.452  12.985 -0.1707  0.2661  0.1676
  541MPD2    C3 8028   0.379   3.580  12.936 -0.0139 -0.2162 -0.5010
  541MPD2    C4 8029   0.273   3.652  12.988  0.3423 -0.5235 -0.1474
  541MPD2    C5 8030   0.213   3.603  13.107  0.2367  0.1231  0.4506
  541MPD2     H 8031   0.476   3.385  12.942 -2.0908  0.7784 -3.9261
  541MPD2    H1 8032   0.256   3.754  12.956 -0.6538 -0.1851  1.4240
  541MPD2    H2 8033   0.226   3.464  13.259  0.0271  0.7544 -0.6218
  541MPD2    H3 8034   0.152   3.673  13.163  2.9534  2.7367  0.1848
  541MPD2     N 8035   0.445   3.648  12.836 -0.1119 -0.2661 -0.0740
  541MPD2    H5 8036   0.416   3.742  12.813  1.3660 -0.1067 -1.2369
  541MPD2    N1 8037   0.383   3.286  13.164 -0.2622  0.0560 -0.8305
  541MPD2    H7 8038   0.365   3.293  13.264 -0.2907 -0.5321 -0.7950
  542TMC3    C1 8039   0.612   3.674  12.673  0.0565 -0.2526 -0.0793
  542TMC3    C2 8040   0.636   3.613  12.553  0.2043  0.6014 -0.0559
  542TMC3    C3 8041   0.617   3.679  12.434 -0.3467  0.3396 -0.3382
  542TMC3    C4 8042   0.602   3.812  12.680 -0.1805 -0.6388  0.4307
  542TMC3    C5 8043   0.579   3.874  12.560 -0.2656 -0.4103 -0.3673
  542TMC3    C6 8044   0.598   3.815  12.429 -0.1323 -0.2387 -1.3177
  542TMC3     C 8045   0.558   3.597  12.777 -0.3301 -0.1082  0.5223
  542TMC3     O 8046   0.607   3.484  12.793 -0.0620 -0.4054  0.4408
  542TMC3     H 8047   0.640   3.504  12.556 -0.5897  0.6069  1.6013
  542TMC3    H1 8048   0.580   3.855  12.778 -0.0521  1.5512 -0.5017
  542TMC3    H2 8049   0.562   3.854  12.335 -0.0146  0.0004 -1.2659
  542TMC3    C7 8050   0.525   4.016  12.556 -0.3392 -0.0533 -0.3862
  542TMC3    C8 8051   0.662   3.620  12.308  0.0654 -0.3025  0.3392
  542TMC3    O1 8052   0.488   4.054  12.667  0.2474  0.1604  0.2256
  542TMC3    O2 8053   0.656   3.686  12.204 -0.6842  0.1549  0.1297
  543TMC3    C1 8054   4.509   0.700  17.402 -0.1240 -0.0177 -0.2700
  543TMC3    C2 8055   4.384   0.642  17.392  0.4072 -0.3294 -0.6210
  543TMC3    C3 8056   4.332   0.568  17.495 -0.3321 -1.3342  0.3245
  543TMC3    C4 8057   4.563   0.703  17.524  0.0144  0.4386  0.8022
  543TMC3    C5 8058   4.492   0.645  17.628 -0.1601 -0.2670  0.0130
  543TMC3    C6 8059   4.379   0.570  17.623 -0.2894  0.3232  0.1388
  543TMC3     C 8060   4.598   0.675  17.293 -0.0385 -0.2243 -0.4929
  543TMC3     O 8061   4.710   0.637  17.329 -0.5818 -0.2234 -0.5132
  543TMC3     H 8062   4.340   0.613  17.297  1.2401 -1.3915 -0.6751
  543TMC3    H1 8063   4.663   0.740  17.541 -0.6134  1.0391  3.1411
  543TMC3    H2 8064   4.324   0.520   0.014  0.8366 -1.7879 -0.4050
  543TMC3    C7 8065   4.531   0.684   0.071  0.4602 -0.2993 -0.2138
  543TMC3    C8 8066   4.315   0.439  17.455  1.0979 -0.4220  0.3834
  543TMC3    O1 8067   4.510   0.604   0.163 -0.1827 -0.2777 -0.5334
  543TMC3    O2 8068   4.382   0.393  17.364 -0.3518  0.3845 -0.5192
  544MPD2     C 8069   4.021   0.017  17.384  1.5786  0.0414  0.5001
  544MPD2    C1 8070   4.156   0.048  17.358  1.0461  0.0355  0.0667
  544MPD2    C2 8071   4.216   0.167  17.393  0.0769  0.2771  0.0348
  544MPD2    C3 8072   4.141   0.264  17.459  0.1352 -0.8001 -0.8533
  544MPD2    C4 8073   4.011   0.233  17.493  0.0440  0.1402 -0.1984
  544MPD2    C5 8074   3.959   0.110  17.463 -0.6797  0.3447  0.1423
  544MPD2     H 8075   4.324   0.171  17.381  0.1372 -1.0149  0.1896
  544MPD2    H1 8076   3.944   0.297  17.549  1.2177 -0.0157  1.3921
  544MPD2    H2 8077   3.969   4.646  17.360 -1.8472  1.5912  1.9763
  544MPD2    H3 8078   3.853   0.091  17.479 -0.2280 -1.4277  0.9101
  544MPD2     N 8079   4.198   0.386  17.503 -0.4940  0.1388 -0.0637
  544MPD2    H5 8080   4.140   0.437  17.569 -3.6046 -2.0430 -1.1098
  544MPD2    N1 8081   4.247   4.670  17.317 -1.0723  0.1016  1.0929
  544MPD2    H7 8082   4.345   4.687  17.335 -0.4651 -0.5671 -1.6064
  545TMC3    C1 8083   4.314   4.473  17.239  0.5019  0.1965  0.4030
  545TMC3    C2 8084   4.338   4.398  17.124  0.5454  0.3621  1.1252
  545TMC3    C3 8085   4.390   4.272  17.146  0.2510 -0.2692  0.0249
  545TMC3    C4 8086   4.334   4.421  17.366 -0.3495 -0.1107  0.0391
  545TMC3    C5 8087   4.373   4.288  17.378  0.3166 -0.3369  0.1191
  545TMC3    C6 8088   4.411   4.212  17.272  0.3573  0.2193 -0.3261
  545TMC3     C 8089   4.210   4.566  17.245 -0.3600 -0.2591 -0.0594
  545TMC3     O 8090   4.107   4.540  17.182 -0.4308 -0.3253  0.4784
  545TMC3     H 8091   4.300   4.437  17.030 -0.6444 -2.4011  0.4817
  545TMC3    H1 8092   4.302   4.479  17.452 -1.5317  0.6968 -0.9475
  545TMC3    H2 8093   4.417   4.104  17.277 -0.5870  0.1093 -1.4994
  545TMC3    C7 8094   4.369   4.226  17.515 -0.5634 -0.2670  0.2732
  545TMC3    C8 8095   4.421   4.199  17.029 -0.0967 -0.3484 -1.0892
  545TMC3    O1 8096   4.327   4.292  17.610  0.1644  0.5282 -0.0820
  545TMC3    O2 8097   4.361   4.248  16.930 -0.3327 -0.1989 -0.5508
  546MPD2     C 8098   1.186   0.198   0.500 -0.4802 -0.1397  0.0443
  546MPD2    C1 8099   1.226   0.239   0.376  0.2750 -0.3547  0.4662
  546MPD2    C2 8100   1.278   0.367   0.358  0.0310  0.9146 -0.3820
  546MPD2    C3 8101   1.293   0.451   0.467  0.3467  0.0019 -0.0839
  546MPD2    C4 8102   1.258   0.400   0.592  0.9011  0.1625  0.3009
  546MPD2    C5 8103   1.196   0.285   0.608  0.1751  0.7802 -0.5186
  546MPD2     H 8104   1.319   0.404   0.265  0.4953  3.0560  0.6839
  546MPD2    H1 8105   1.278   0.456   0.683 -0.9100 -1.9073  1.9558
  546MPD2    H2 8106   1.156   0.096   0.522  2.0463 -0.0595  3.9104
  546MPD2    H3 8107   1.173   0.256   0.710 -0.6738 -1.1142 -1.2457
  546MPD2     N 8108   1.358   0.579   0.462  0.0651 -0.2530  0.6286
  546MPD2    H5 8109   1.350   0.644   0.540 -0.2987  0.1715  0.2379
  546MPD2    N1 8110   1.202   0.148   0.271 -0.1170  0.1884  0.8070
  546MPD2    H7 8111   1.145   0.065   0.283  0.5720 -0.3644  0.2752
  547TMC3    C1 8112   1.176   0.083   0.053  0.4686  0.4786 -0.3001
  547TMC3    C2 8113   1.146   0.117  17.614  1.0155 -0.1870  0.9557
  547TMC3    C3 8114   1.063   0.042  17.534 -0.0325 -0.5292  0.9195
  547TMC3    C4 8115   1.142   4.677   0.103  0.5124  1.1671  0.3002
  547TMC3    C5 8116   1.086   4.593   0.012  0.1756 -0.5677 -0.0008
  547TMC3    C6 8117   1.048   4.630  17.573 -0.7215  0.4534  0.0966
  547TMC3     C 8118   1.245   0.170   0.140  0.5519 -0.0146 -0.1984
  547TMC3     O 8119   1.321   0.255   0.098 -0.0702  0.1378 -0.1419
  547TMC3     H 8120   1.182   0.217  17.589  1.2217  0.1677  2.7041
  547TMC3    H1 8121   1.168   4.642   0.203  0.3805 -0.2041 -0.1495
  547TMC3    H2 8122   1.002   4.564  17.500 -2.0680  1.8579 -0.3339
  547TMC3    C7 8123   1.056   4.462   0.062  0.2527  0.9074 -0.0442
  547TMC3    C8 8124   0.943   0.104  17.484  0.2578  0.3775  0.2877
  547TMC3    O1 8125   1.061   4.445   0.184  0.0170  0.4148 -0.3529
  547TMC3    O2 8126   0.850   0.021  17.477 -0.2367 -0.0945 -0.0411
  548MPD2     C 8127   1.769   0.946  12.126 -0.3585 -0.0605  1.3847
  548MPD2    C1 8128   1.694   0.843  12.182 -0.6597 -0.1092 -0.3350
  548MPD2    C2 8129   1.768   0.747  12.250 -0.5175  0.9107 -0.7712
  548MPD2    C3 8130   1.906   0.738  12.253 -0.4645 -0.1524 -0.4363
  548MPD2    C4 8131   1.974   0.847  12.201 -0.4800  0.0459 -0.8537
  548MPD2    C5 8132   1.909   0.950  12.140 -0.4142  0.5572  0.2111
  548MPD2     H 8133   1.717   0.662  12.293  2.1733  0.9923  2.5644
  548MPD2    H1 8134   2.079   0.858  12.224 -0.3791 -0.5069 -1.0529
  548MPD2    H2 8135   1.715   1.022  12.071  0.7690  0.9484  1.6785
  548MPD2    H3 8136   1.971   1.023  12.089  1.4712 -2.6878 -2.1497
  548MPD2     N 8137   1.958   0.617  12.312 -0.5821 -0.0534  0.0838
  548MPD2    H5 8138   1.883   0.566  12.358 -1.5136  0.8342 -0.4313
  548MPD2    N1 8139   1.554   0.838  12.169 -0.2636 -0.0158 -0.3901
  548MPD2    H7 8140   1.506   0.916  12.125  2.8020  1.2851 -1.4234
  549TMC3    C1 8141   1.335   0.735  12.142  0.5031  0.1085  0.2756
  549TMC3    C2 8142   1.276   0.864  12.150  0.0861 -0.5250 -0.0722
  549TMC3    C3 8143   1.171   0.880  12.068  0.2934  0.6602 -0.1649
  549TMC3    C4 8144   1.292   0.624  12.069 -0.1814  0.0614  0.6775
  549TMC3    C5 8145   1.190   0.658  11.983 -0.1604  0.5325  0.1762
  549TMC3    C6 8146   1.125   0.779  11.987  0.4983  0.4490  0.2428
  549TMC3     C 8147   1.479   0.719  12.181  0.1033  0.1556  0.2233
  549TMC3     O 8148   1.528   0.605  12.166  0.3901  0.0096 -0.4145
  549TMC3     H 8149   1.327   0.941  12.207 -0.7965 -0.5195  0.7052
  549TMC3    H1 8150   1.340   0.526  12.065 -0.9291 -0.4272  3.2894
  549TMC3    H2 8151   1.053   0.808  11.912  1.0431  2.1967  0.4008
  549TMC3    C7 8152   1.138   0.563  11.877  0.1336  0.5507  0.5913
  549TMC3    C8 8153   1.067   0.973  12.106 -0.5904 -0.1818  0.4308
  549TMC3    O1 8154   1.089   0.612  11.775  0.0531 -0.3214  0.4726
  549TMC3    O2 8155   0.965   0.967  12.044  0.1947 -0.3692  0.2598
  550TMC3    C1 8156   4.321   3.276  12.334  0.1793 -0.0867 -0.3326
  550TMC3    C2 8157   4.238   3.375  12.390  0.8631 -0.5733 -0.3249
  550TMC3    C3 8158   4.150   3.450  12.310  0.0817  0.5078  0.8305
  550TMC3    C4 8159   4.310   3.260  12.198 -0.2380  0.6182 -0.0687
  550TMC3    C5 8160   4.218   3.328  12.121  0.7488  0.1751  0.2114
  550TMC3    C6 8161   4.135   3.422  12.178  0.4496 -0.1041 -0.1055
  550TMC3     C 8162   4.405   3.192  12.411  1.0930 -0.2591  0.0834
  550TMC3     O 8163   4.365   3.150  12.518 -0.0336  0.3809 -0.1314
  550TMC3     H 8164   4.237   3.372  12.499 -0.0528 -0.9133 -0.3439
  550TMC3    H1 8165   4.365   3.185  12.142  1.0134  0.1489  1.8068
  550TMC3    H2 8166   4.067   3.483  12.119  1.6323  1.4779  0.1487
  550TMC3    C7 8167   4.129   3.249  12.031  0.3404 -0.4432 -0.2435
  550TMC3    C8 8168   4.031   3.491  12.375  0.1329 -0.7647  0.6263
  550TMC3    O1 8169   4.013   3.290  12.034 -0.5026  0.4639  0.5452
  550TMC3    O2 8170   4.046   3.525  12.488  0.0537  0.2072  0.3866
  551TMC3    C1 8171   2.570   1.331  13.363  0.2655  0.1524 -0.0341
  551TMC3    C2 8172   2.669   1.326  13.263  0.4523  0.2770  0.4865
  551TMC3    C3 8173   2.783   1.398  13.280  0.3388 -0.4454  0.0011
  551TMC3    C4 8174   2.592   1.382  13.490  0.8286 -0.4736  0.7807
  551TMC3    C5 8175   2.713   1.445  13.503 -0.0279  0.1815  0.4854
  551TMC3    C6 8176   2.810   1.459  13.399  0.1003 -0.2716 -0.4945
  551TMC3     C 8177   2.452   1.245  13.346 -0.3059  0.5528  0.2050
  551TMC3     O 8178   2.452   1.170  13.245 -0.2660 -0.5860  0.5605
  551TMC3     H 8179   2.651   1.272  13.171  0.7062  1.6977 -0.3868
  551TMC3    H1 8180   2.526   1.366  13.574  0.7533 -1.6377  0.4955
  551TMC3    H2 8181   2.907   1.502  13.417 -0.6039  0.9110  0.4936
  551TMC3    C7 8182   2.725   1.502  13.641 -0.0031  0.5993 -0.1111
  551TMC3    C8 8183   2.890   1.389  13.185  0.7778 -0.0298  0.3757
  551TMC3    O1 8184   2.832   1.522  13.697  0.1055  0.6598 -0.1764
  551TMC3    O2 8185   2.909   1.289  13.117 -0.0405 -0.2643 -0.2125
  552MPD2     C 8186   3.885   3.322  13.993 -0.2232  0.5459  0.2533
  552MPD2    C1 8187   3.989   3.272  13.917 -0.4748  0.1433 -0.0874
  552MPD2    C2 8188   4.107   3.245  13.977 -1.1758  0.2215 -0.4154
  552MPD2    C3 8189   4.128   3.264  14.113  0.3470 -0.7821 -1.0217
  552MPD2    C4 8190   4.025   3.314  14.188  0.0624  0.3483  0.4765
  552MPD2    C5 8191   3.907   3.336  14.128  0.5410 -0.2702  0.3640
  552MPD2     H 8192   4.188   3.214  13.913 -0.5279 -0.6052  0.8002
  552MPD2    H1 8193   4.028   3.316  14.296 -0.6308 -0.5405  0.5104
  552MPD2    H2 8194   3.791   3.360  13.955  0.1946  0.6564 -0.6828
  552MPD2    H3 8195   3.824   3.378  14.183  1.5490  0.4971  1.3010
  552MPD2     N 8196   4.231   3.199  14.185 -0.2935 -0.0128  0.3270
  552MPD2    H5 8197   4.241   3.229  14.281  0.3129 -0.8862  0.5349
  552MPD2    N1 8198   3.971   3.242  13.776 -0.4165 -1.3630 -0.0569
  552MPD2    H7 8199   4.049   3.204  13.724 -2.0253 -3.1718 -1.1960
  553TMC3    C1 8200   3.861   3.189  13.581  0.2648 -0.2119 -0.0525
  553TMC3    C2 8201   3.959   3.236  13.503  0.2325 -0.5437  0.0514
  553TMC3    C3 8202   3.968   3.179  13.376 -0.1914  0.0655 -0.5609
  553TMC3    C4 8203   3.791   3.076  13.552 -0.5180  0.3039  0.1637
  553TMC3    C5 8204   3.816   3.011  13.430  0.6632  0.5706  0.2701
  553TMC3    C6 8205   3.900   3.066  13.342  0.1793  0.4292  0.5908
  553TMC3     C 8206   3.847   3.230  13.721  0.0024 -0.0471  0.1926
  553TMC3     O 8207   3.736   3.219  13.773 -0.0626 -0.4006  0.1216
  553TMC3     H 8208   4.006   3.334  13.506 -1.2102  0.1631 -0.3223
  553TMC3    H1 8209   3.755   3.013  13.632  0.4457  0.9799  1.1161
  553TMC3    H2 8210   3.914   3.017  13.246 -1.3723 -0.3242  0.7592
  553TMC3    C7 8211   3.843   2.875  13.447  0.6623 -0.1434 -0.5814
  553TMC3    C8 8212   4.086   3.224  13.310 -0.1384 -0.2713  0.0594
  553TMC3    O1 8213   3.749   2.797  13.465  0.3446 -0.5169 -0.1267
  553TMC3    O2 8214   4.177   3.272  13.382 -0.6786  0.1197  0.2806
  554TMC3    C1 8215   1.394   1.794  11.419  0.0227 -0.4034 -1.0577
  554TMC3    C2 8216   1.309   1.766  11.314 -0.2413  0.2379  0.1288
  554TMC3    C3 8217   1.301   1.855  11.211  0.0747 -0.5850 -0.5258
  554TMC3    C4 8218   1.454   1.915  11.431 -0.0368  0.3961 -0.4415
  554TMC3    C5 8219   1.442   1.995  11.327  0.2544  0.2208  0.1512
  554TMC3    C6 8220   1.366   1.976  11.216  0.1816 -0.7658 -0.1491
  554TMC3     C 8221   1.373   1.729  11.551 -0.5435  0.3660 -0.3222
  554TMC3     O 8222   1.260   1.676  11.556 -0.6845 -0.1486  0.1879
  554TMC3     H 8223   1.259   1.670  11.305  0.0698 -0.0635  1.6224
  554TMC3    H1 8224   1.533   1.924  11.505 -1.9324  1.9068  1.3794
  554TMC3    H2 8225   1.374   2.047  11.135 -1.3533 -0.2714  0.1390
  554TMC3    C7 8226   1.523   2.116  11.335 -0.7394 -0.3174 -0.3484
  554TMC3    C8 8227   1.250   1.810  11.085  0.1386 -0.1030 -0.1580
  554TMC3    O1 8228   1.528   2.170  11.445 -0.6211 -0.1429  0.4590
  554TMC3    O2 8229   1.283   1.883  10.987  0.0801 -0.2788 -0.0437
  555TMC3    C1 8230   0.275   1.435  14.876  0.2453  0.8080  0.0871
  555TMC3    C2 8231   0.304   1.542  14.958  0.2198  0.1822 -0.0641
  555TMC3    C3 8232   0.285   1.525  15.092 -0.0171  0.1153 -0.1759
  555TMC3    C4 8233   0.207   1.320  14.924  0.8118 -0.8612  0.3156
  555TMC3    C5 8234   0.181   1.312  15.061  1.0350 -0.5174  0.0753
  555TMC3    C6 8235   0.224   1.412  15.150 -0.3181 -0.0813 -0.8597
  555TMC3     C 8236   0.264   1.463  14.732 -0.0163 -0.4770  0.0578
  555TMC3     O 8237   0.236   1.374  14.654 -0.4785 -0.0365 -0.1841
  555TMC3     H 8238   0.364   1.629  14.932  0.0723  0.1426 -0.5289
  555TMC3    H1 8239   0.174   1.241  14.858  1.5610 -0.8919 -0.0272
  555TMC3    H2 8240   0.200   1.390  15.253 -0.5183  2.2306 -0.4223
  555TMC3    C7 8241   0.146   1.182  15.120 -0.3424  0.3201  0.1697
  555TMC3    C8 8242   0.303   1.650  15.166 -1.3191 -0.0482 -0.9188
  555TMC3    O1 8243   0.207   1.159  15.221 -0.1198  0.2871  0.4033
  555TMC3    O2 8244   0.269   1.758  15.112 -0.7744  0.0373  0.3114
  556MPD2     C 8245   4.073   3.049  11.433 -0.4089  0.5627  0.3982
  556MPD2    C1 8246   3.942   3.006  11.457  0.1400  0.1579 -0.0413
  556MPD2    C2 8247   3.911   2.877  11.426  0.6741 -0.5370 -0.7010
  556MPD2    C3 8248   3.997   2.793  11.359 -0.0022  0.5041 -0.4452
  556MPD2    C4 8249   4.131   2.834  11.341 -0.4558 -0.1535  0.0691
  556MPD2    C5 8250   4.160   2.960  11.387 -0.3256  0.4237  0.1116
  556MPD2     H 8251   3.808   2.843  11.430 -0.0204  1.5791 -0.5078
  556MPD2    H1 8252   4.206   2.774  11.290  0.3960  1.3092 -0.3736
  556MPD2    H2 8253   4.106   3.144  11.473  3.7520 -0.5646 -0.4158
  556MPD2    H3 8254   4.260   2.997  11.367 -0.6626  0.8643 -0.7502
  556MPD2     N 8255   3.955   2.665  11.305  0.5956  0.4614 -0.1990
  556MPD2    H5 8256   3.855   2.651  11.314  0.9286 -1.4897  0.4474
  556MPD2    N1 8257   3.838   3.087  11.506  0.1815 -0.3993  0.1276
  556MPD2    H7 8258   3.745   3.048  11.509  0.3259 -0.6264  1.3855
  557TMC3    C1 8259   3.932   2.505  11.143 -0.3502  0.0570 -0.4718
  557TMC3    C2 8260   3.981   2.398  11.082  0.4028  0.1942 -0.1038
  557TMC3    C3 8261   3.904   2.341  10.986 -0.6613  0.3644 -0.9959
  557TMC3    C4 8262   3.808   2.556  11.116 -0.4459 -0.6713 -0.3108
  557TMC3    C5 8263   3.727   2.491  11.026  0.9675 -0.8513  0.1434
  557TMC3    C6 8264   3.777   2.383  10.956 -0.1348 -0.1422  0.4198
  557TMC3     C 8265   4.027   2.576  11.230 -0.5887  0.1989  0.4755
  557TMC3     O 8266   4.141   2.537  11.230 -0.0560  0.0683 -0.5017
  557TMC3     H 8267   4.071   2.346  11.115 -0.1541 -1.3964 -1.0645
  557TMC3    H1 8268   3.775   2.654  11.149 -1.5657 -2.1197  2.8057
  557TMC3    H2 8269   3.720   2.323  10.886  2.2744 -4.0510  1.8582
  557TMC3    C7 8270   3.656   2.578  10.941  0.1315 -0.0567  0.4977
  557TMC3    C8 8271   3.954   2.214  10.936 -0.1888 -0.9667  0.0992
  557TMC3    O1 8272   3.695   2.691  10.942 -0.4913 -0.2509  0.0399
  557TMC3    O2 8273   4.019   2.141  11.013 -0.5526  0.1828 -0.6442
  558TMC3    C1 8274   1.492   1.005   9.362  0.5875  0.1227 -0.8447
  558TMC3    C2 8275   1.388   1.019   9.450 -0.3989  0.7511  0.8017
  558TMC3    C3 8276   1.268   0.962   9.422 -0.7252 -0.2523 -0.1373
  558TMC3    C4 8277   1.471   0.930   9.253  0.1112  0.8207 -0.2335
  558TMC3    C5 8278   1.349   0.879   9.225 -0.9003 -0.7540  0.2059
  558TMC3    C6 8279   1.245   0.896   9.310  0.4756  0.6916 -0.0425
  558TMC3     C 8280   1.618   1.044   9.399 -0.2693  0.0426 -0.0710
  558TMC3     O 8281   1.630   1.117   9.497  0.1631  0.0901  0.1625
  558TMC3     H 8282   1.406   1.056   9.550  2.0748 -1.4672  1.1721
  558TMC3    H1 8283   1.546   0.924   9.175  1.2507 -1.8512  1.0697
  558TMC3    H2 8284   1.144   0.864   9.286  1.4740 -2.3920 -0.1193
  558TMC3    C7 8285   1.334   0.812   9.098  0.7256 -0.3052 -0.2719
  558TMC3    C8 8286   1.182   0.923   9.528  0.3475 -0.2634  0.2283
  558TMC3    O1 8287   1.403   0.843   9.003  0.3849  0.1076  0.7448
  558TMC3    O2 8288   1.062   0.921   9.504 -0.4753 -0.2846 -0.1889
  559MPD2     C 8289   1.223   1.326  11.012  0.2379 -0.2372 -0.2333
  559MPD2    C1 8290   1.224   1.283  10.881 -0.2861 -0.3034 -0.9946
  559MPD2    C2 8291   1.337   1.293  10.807 -0.0424  0.4338 -0.1467
  559MPD2    C3 8292   1.456   1.340  10.866 -1.0357  0.0451  0.5468
  559MPD2    C4 8293   1.459   1.376  10.999 -0.5124  0.6131 -1.0115
  559MPD2    C5 8294   1.337   1.370  11.066 -0.8666 -0.2517  0.3700
  559MPD2     H 8295   1.349   1.246  10.710  2.1937 -2.4613  1.5114
  559MPD2    H1 8296   1.544   1.409  11.058 -2.3698  1.7720  1.0313
  559MPD2    H2 8297   1.139   1.339  11.080  0.4288 -1.3438  0.2156
  559MPD2    H3 8298   1.329   1.389  11.172 -1.0078 -0.3375  0.3739
  559MPD2     N 8299   1.565   1.358  10.781  0.3887 -0.6091  0.0101
  559MPD2    H5 8300   1.554   1.338  10.682  2.5536 -2.8887  0.2407
  559MPD2    N1 8301   1.099   1.230  10.841  0.3804  0.2153 -0.7747
  559MPD2    H7 8302   1.026   1.216  10.910  0.9704  0.5751 -0.0796
  560TMC3    C1 8303   1.791   1.413  10.729  0.4575 -0.3758 -0.2368
  560TMC3    C2 8304   1.788   1.330  10.623 -0.6089 -0.7983 -0.5800
  560TMC3    C3 8305   1.895   1.332  10.529 -0.3003  0.1715 -0.1310
  560TMC3    C4 8306   1.904   1.489  10.758  0.0814  0.4824  0.3472
  560TMC3    C5 8307   2.009   1.477  10.675 -0.5810 -0.2532  0.7389
  560TMC3    C6 8308   2.005   1.409  10.564 -0.1330  0.0705 -0.1862
  560TMC3     C 8309   1.678   1.428  10.816  0.0059  0.2517  0.2239
  560TMC3     O 8310   1.702   1.489  10.920  0.3899 -0.4245 -0.0083
  560TMC3     H 8311   1.705   1.263  10.603 -0.3679 -1.1420 -0.4281
  560TMC3    H1 8312   1.924   1.543  10.850 -3.1025 -1.2480  2.0357
  560TMC3    H2 8313   2.095   1.401  10.504  0.5537 -0.8813  0.9567
  560TMC3    C7 8314   2.142   1.467  10.737 -0.4446 -0.2960 -0.1951
  560TMC3    C8 8315   1.894   1.220  10.433  0.2896 -0.7702  0.6242
  560TMC3    O1 8316   2.195   1.359  10.716 -0.0536 -0.7040 -0.0713
  560TMC3    O2 8317   1.784   1.179  10.410 -0.5073 -0.0612  0.2503
  561TMC3    C1 8318   3.767   0.149  11.376 -0.0045  0.2489  0.4493
  561TMC3    C2 8319   3.737   0.087  11.495 -0.0907 -0.6495  0.0091
  561TMC3    C3 8320   3.721   0.177  11.602 -0.0991 -0.5774 -0.2289
  561TMC3    C4 8321   3.793   0.287  11.371  0.2868  0.1155  0.5758
  561TMC3    C5 8322   3.785   0.364  11.487  0.0037  0.1013  0.5189
  561TMC3    C6 8323   3.747   0.310  11.607 -0.6883  0.0145  0.2452
  561TMC3     C 8324   3.724   0.077  11.259  0.5144  0.6397 -0.1348
  561TMC3     O 8325   3.629   0.002  11.280 -0.2609  0.1618 -0.2502
  561TMC3     H 8326   3.730   4.700  11.508  2.3344 -0.9325 -1.1245
  561TMC3    H1 8327   3.810   0.335  11.276 -1.6197  0.2417  0.2877
  561TMC3    H2 8328   3.717   0.368  11.693  0.4189  1.1283 -0.1220
  561TMC3    C7 8329   3.795   0.508  11.482  0.0630 -0.0701  0.3626
  561TMC3    C8 8330   3.639   0.108  11.696  0.2877  0.3717 -0.0733
  561TMC3    O1 8331   3.738   0.574  11.565  0.3242 -0.4122  0.0987
  561TMC3    O2 8332   3.662   4.710  11.707 -0.3128 -0.9210 -0.2352
  562TMC3    C1 8333   4.577   1.958  16.061 -0.1581  0.4588 -0.1397
  562TMC3    C2 8334   4.465   2.038  16.053  0.8218 -0.7059  0.2323
  562TMC3    C3 8335   4.404   2.035  15.927  1.1370 -0.1872  0.0044
  562TMC3    C4 8336   4.627   1.893  15.951  0.1145 -0.3512 -0.5194
  562TMC3    C5 8337   4.559   1.886  15.837 -0.3817  0.2357 -0.2761
  562TMC3    C6 8338   4.447   1.960  15.821 -0.5288 -0.2538  0.4065
  562TMC3     C 8339   4.640   1.940  16.192 -0.6384  0.3483  0.1613
  562TMC3     O 8340   4.580   1.985  16.287 -0.1043  0.4388  0.6259
  562TMC3     H 8341   4.432   2.108  16.129 -0.7632 -0.9514 -0.2368
  562TMC3    H1 8342   0.002   1.846  15.965 -0.5468 -1.4422  0.3161
  562TMC3    H2 8343   4.381   1.955  15.736  0.9593  0.0991 -0.7727
  562TMC3    C7 8344   4.600   1.803  15.727 -0.3633 -0.5041  0.0468
  562TMC3    C8 8345   4.297   2.127  15.901 -0.1707 -0.0815  0.8454
  562TMC3    O1 8346   4.553   1.808  15.612  0.3222  0.1882  0.5585
  562TMC3    O2 8347   4.227   2.160  15.998 -0.2800 -0.1158 -0.0355
  563MPD2     C 8348   2.220   3.368  15.763 -0.4489 -0.6321 -0.5563
  563MPD2    C1 8349   2.212   3.441  15.876 -0.7663 -0.0237  0.3684
  563MPD2    C2 8350   2.314   3.439  15.970 -0.6872 -0.6553  0.6144
  563MPD2    C3 8351   2.424   3.352  15.951 -0.1918  0.0024  0.2806
  563MPD2    C4 8352   2.431   3.284  15.832 -0.5487  0.0068  0.0642
  563MPD2    C5 8353   2.335   3.295  15.743  0.0014 -0.5466  0.0668
  563MPD2     H 8354   2.311   3.502  16.058  0.3228 -0.3673  0.4432
  563MPD2    H1 8355   2.487   3.192  15.826 -0.4385  0.2069 -2.0856
  563MPD2    H2 8356   2.140   3.367  15.691 -1.0918 -0.3165  0.1509
  563MPD2    H3 8357   2.339   3.225  15.660  1.7641 -0.4543  0.0899
  563MPD2     N 8358   2.506   3.338  16.065  0.1820  0.2414 -0.5538
  563MPD2    H5 8359   2.478   3.392  16.146 -2.6503  0.5796 -1.7400
  563MPD2    N1 8360   2.095   3.525  15.896 -0.6357 -0.1449 -0.1476
  563MPD2    H7 8361   2.016   3.491  15.842 -0.5713 -2.2435  1.1028
  564TMC3    C1 8362   1.976   3.606  16.080  0.8500  0.5963  0.2449
  564TMC3    C2 8363   1.876   3.526  16.027  0.0083  0.4142  0.3491
  564TMC3    C3 8364   1.803   3.460  16.121 -0.5814  0.4789  0.4293
  564TMC3    C4 8365   2.013   3.602  16.211 -0.0846 -0.4717 -0.2530
  564TMC3    C5 8366   1.944   3.517  16.296  0.4177  0.0059  0.0245
  564TMC3    C6 8367   1.835   3.457  16.257 -0.3356  0.1466  0.7647
  564TMC3     C 8368   2.090   3.616  15.999 -0.5308  0.0165 -0.3269
  564TMC3     O 8369   2.181   3.696  16.026 -0.0882  0.1364 -0.0517
  564TMC3     H 8370   1.833   3.541  15.928 -2.0426 -0.9403  1.0346
  564TMC3    H1 8371   2.108   3.637  16.250  0.0968  1.6360 -2.5959
  564TMC3    H2 8372   1.772   3.400  16.324 -2.2541 -0.8009 -1.8278
  564TMC3    C7 8373   2.035   3.425  16.363  0.0095 -0.2034 -0.1934
  564TMC3    C8 8374   1.773   3.321  16.086  0.1236 -0.1767 -0.0129
  564TMC3    O1 8375   2.138   3.472  16.412  0.2284 -0.8043 -0.2237
  564TMC3    O2 8376   1.730   3.250  16.173 -0.3438  0.7062 -0.2102
  565TMC3    C1 8377   3.094   4.053  10.022  0.1578 -0.6531  0.1017
  565TMC3    C2 8378   3.150   3.961  10.110 -0.2908 -0.3317  0.9210
  565TMC3    C3 8379   3.088   3.843  10.119  0.4490 -0.6083 -0.6094
  565TMC3    C4 8380   2.997   4.015   9.936 -0.8811  0.1080 -0.1766
  565TMC3    C5 8381   2.933   3.901   9.948  0.5415  0.9711 -0.4497
  565TMC3    C6 8382   2.984   3.804  10.042  0.3631  0.3735 -0.1306
  565TMC3     C 8383   3.175   4.180   9.999  0.2757 -0.2547  0.0079
  565TMC3     O 8384   3.144   4.246   9.903 -0.2953 -1.0164  0.0270
  565TMC3     H 8385   3.242   3.988  10.162 -1.0234  1.5576  1.2407
  565TMC3    H1 8386   2.969   4.078   9.852 -1.0846 -1.3249 -1.1884
  565TMC3    H2 8387   2.932   3.713  10.070 -2.0078  1.9209  0.4765
  565TMC3    C7 8388   2.804   3.877   9.891 -0.3831  0.4145 -0.3327
  565TMC3    C8 8389   3.132   3.769  10.236 -0.6253 -0.4183  0.2274
  565TMC3    O1 8390   2.722   3.822   9.964 -0.1527 -0.2080 -0.5628
  565TMC3    O2 8391   3.176   3.841  10.325  0.0415  0.2821 -0.1282
  566MPD2     C 8392   4.169   1.768  13.976  0.3222  0.1172 -0.4194
  566MPD2    C1 8393   4.303   1.742  13.952 -0.3549  0.2395  0.5880
  566MPD2    C2 8394   4.332   1.683  13.829  0.0787  0.4230 -0.0789
  566MPD2    C3 8395   4.236   1.674  13.730  0.4078  0.0627  0.1393
  566MPD2    C4 8396   4.109   1.699  13.756  0.0345 -0.3293 -0.3835
  566MPD2    C5 8397   4.073   1.738  13.885 -0.1539  0.6535  0.1984
  566MPD2     H 8398   4.436   1.662  13.806  0.3977  3.0799 -0.9966
  566MPD2    H1 8399   4.036   1.684  13.677 -0.9459  1.8397  0.1225
  566MPD2    H2 8400   4.133   1.812  14.068 -0.6831  0.0846 -0.7957
  566MPD2    H3 8401   3.967   1.755  13.902 -0.1794 -0.4189  1.0365
  566MPD2     N 8402   4.294   1.632  13.607  0.3222 -0.4180  0.3828
  566MPD2    H5 8403   4.390   1.597  13.608  0.3357 -0.3961 -1.2806
  566MPD2    N1 8404   4.399   1.791  14.044 -0.2220 -0.6229 -0.6199
  566MPD2    H7 8405   4.365   1.845  14.123 -0.4408  0.6255 -1.5526
  567TMC3    C1 8406   4.587   1.909  14.082 -0.2024 -0.2219 -0.2765
  567TMC3    C2 8407   4.632   2.019  14.008  0.5226 -0.5283  0.4753
  567TMC3    C3 8408   4.711   2.114  14.068  0.7218 -1.1308 -0.2541
  567TMC3    C4 8409   4.605   1.906  14.219 -0.0754 -0.2578  0.3455
  567TMC3    C5 8410   4.676   2.007  14.274 -0.1110  1.3232 -0.0963
  567TMC3    C6 8411   0.003   2.115  14.207  0.6455 -0.6564 -0.3809
  567TMC3     C 8412   4.534   1.798  14.012  0.4008  0.2217  0.5196
  567TMC3     O 8413   4.602   1.764  13.917 -0.4770  0.2938  0.0641
  567TMC3     H 8414   4.598   2.030  13.906 -0.8219  1.7232  1.1734
  567TMC3    H1 8415   4.578   1.818  14.275  0.0693  0.9394  2.2677
  567TMC3    H2 8416   0.059   2.193  14.257 -1.5051 -0.1703  1.2906
  567TMC3    C7 8417   4.692   2.014  14.420  0.0332 -0.4136  0.1363
  567TMC3    C8 8418   0.078   2.188  13.976  0.5604 -0.2580 -0.0363
  567TMC3    O1 8419   4.707   2.132  14.462  0.3494 -0.1876 -0.2419
  567TMC3    O2 8420   0.096   2.141  13.869 -0.2496 -0.2824  0.2412
  568MPD2     C 8421   2.073   1.935  16.632  0.1479  0.1197 -0.5325
  568MPD2    C1 8422   1.949   1.977  16.676  0.0835 -0.5347 -0.1942
  568MPD2    C2 8423   1.894   2.096  16.633 -0.4705  0.4870  0.0259
  568MPD2    C3 8424   1.964   2.165  16.542  0.5153  0.2053 -0.1642
  568MPD2    C4 8425   2.080   2.117  16.489 -0.0376  0.6689  0.6961
  568MPD2    C5 8426   2.136   2.005  16.532 -0.1092  0.1915 -0.5752
  568MPD2     H 8427   1.802   2.139  16.672  0.4943  3.5091 -1.0927
  568MPD2    H1 8428   2.135   2.175  16.415 -0.7195 -1.8298 -1.7784
  568MPD2    H2 8429   2.122   1.842  16.662 -2.3093 -1.4878 -1.4853
  568MPD2    H3 8430   2.234   1.966  16.507 -0.1648 -1.4678  1.7632
  568MPD2     N 8431   1.907   2.282  16.500 -0.6012 -0.0505  0.1438
  568MPD2    H5 8432   1.814   2.298  16.535  0.3833  0.1669  2.6777
  568MPD2    N1 8433   1.884   1.881  16.769  1.0940 -0.2239  0.0380
  568MPD2    H7 8434   1.940   1.803  16.802  0.6548 -0.1899  0.8674
  569TMC3    C1 8435   1.865   2.453  16.349  0.8422  0.0702  0.7029
  569TMC3    C2 8436   1.788   2.524  16.437 -0.0964  0.5451 -0.0691
  569TMC3    C3 8437   1.701   2.617  16.382 -0.1834 -0.1818  0.0617
  569TMC3    C4 8438   1.878   2.493  16.215  0.3189  0.3665 -0.1863
  569TMC3    C5 8439   1.795   2.595  16.165  0.4143 -0.1718 -0.1339
  569TMC3    C6 8440   1.709   2.657  16.251 -0.2845 -0.3972 -0.1555
  569TMC3     C 8441   1.957   2.361  16.396  0.5280  0.0386 -0.0906
  569TMC3     O 8442   2.067   2.362  16.339 -0.6745  0.5001 -0.6195
  569TMC3     H 8443   1.784   2.497  16.542  1.0270 -0.2960 -0.2444
  569TMC3    H1 8444   1.950   2.445  16.150 -1.1607 -2.3110  0.1324
  569TMC3    H2 8445   1.631   2.729  16.228  0.7619  0.8970  0.3817
  569TMC3    C7 8446   1.867   2.674  16.066  0.0894 -0.0303 -0.0866
  569TMC3    C8 8447   1.676   2.734  16.461  0.1599 -0.0483 -0.0224
  569TMC3    O1 8448   1.940   2.619  15.985 -0.4800  0.1092  0.4834
  569TMC3    O2 8449   1.566   2.791  16.440  0.0777  0.1226 -0.4837
  570TMC3    C1 8450   1.044   1.413  16.492 -0.5263  0.0685 -0.9838
  570TMC3    C2 8451   1.110   1.437  16.378 -0.0386  0.4824  0.0887
  570TMC3    C3 8452   1.120   1.561  16.323 -0.1954 -0.0357 -0.0043
  570TMC3    C4 8453   0.989   1.517  16.566  0.1760  0.6087  0.1805
  570TMC3    C5 8454   0.997   1.645  16.511 -0.1708  0.4004  0.3872
  570TMC3    C6 8455   1.072   1.666  16.397  0.4243 -0.0593  0.2646
  570TMC3     C 8456   0.974   1.283  16.486  0.7885 -0.0811  0.1522
  570TMC3     O 8457   0.992   1.205  16.394 -0.3987 -0.2757  0.2038
  570TMC3     H 8458   1.165   1.352  16.338 -0.1513 -0.5161  2.0695
  570TMC3    H1 8459   0.925   1.500  16.652 -2.2230 -1.3027 -1.9814
  570TMC3    H2 8460   1.082   1.764  16.351  0.3992 -0.4144 -0.5023
  570TMC3    C7 8461   0.926   1.758  16.564 -0.1423 -0.4130  0.0910
  570TMC3    C8 8462   1.214   1.585  16.216 -0.0163  0.5067  0.0905
  570TMC3    O1 8463   0.932   1.767  16.686  0.1234 -0.4190 -0.4885
  570TMC3    O2 8464   1.254   1.699  16.214  0.4444 -0.4543  0.0127
  571MPD2     C 8465   3.564   2.260  17.574 -0.4731 -0.0968  0.0193
  571MPD2    C1 8466   3.533   2.234   0.015  0.5260  0.3841  0.0600
  571MPD2    C2 8467   3.554   2.333   0.115 -0.6235  0.1554 -0.9061
  571MPD2    C3 8468   3.602   2.462   0.082  0.1379 -0.3846 -0.5282
  571MPD2    C4 8469   3.638   2.482  17.634  0.9442  0.1119  0.4822
  571MPD2    C5 8470   3.620   2.382  17.541  0.4918 -0.4350  0.7759
  571MPD2     H 8471   3.522   2.312   0.217 -0.5563 -1.1693 -1.1577
  571MPD2    H1 8472   3.670   2.580  17.599  1.5278 -0.2104  0.1047
  571MPD2    H2 8473   3.562   2.182  17.500 -0.0438  0.3528 -0.4655
  571MPD2    H3 8474   3.654   2.401  17.440  0.4345 -0.6396  0.7193
  571MPD2     N 8475   3.615   2.555   0.187 -0.1162 -0.0488  0.1092
  571MPD2    H5 8476   3.575   2.533   0.278  0.2000 -1.9092 -0.1971
  571MPD2    N1 8477   3.489   2.102   0.033  0.3757  0.0077  0.6318
  571MPD2    H7 8478   3.476   2.040  17.641  2.1118  1.2037 -0.5714
  572TMC3    C1 8479   3.674   2.768   0.284 -0.1265 -0.3562 -0.6316
  572TMC3    C2 8480   3.624   2.724   0.402 -0.5883 -0.3641  0.1512
  572TMC3    C3 8481   3.602   2.821   0.498  0.2127  1.1567 -0.0228
  572TMC3    C4 8482   3.718   2.893   0.269  0.4330 -0.4959 -0.1009
  572TMC3    C5 8483   3.681   2.983   0.363  0.3553 -0.2478 -0.6614
  572TMC3    C6 8484   3.645   2.947   0.486  0.0316 -0.5135  0.0027
  572TMC3     C 8485   3.658   2.686   0.161  0.1323  0.0787 -0.1301
  572TMC3     O 8486   3.703   2.731   0.058 -0.0403  0.3087  0.2898
  572TMC3     H 8487   3.557   2.638   0.408 -1.8319  0.6961  1.6418
  572TMC3    H1 8488   3.750   2.931   0.172  0.0706  2.4804  0.9453
  572TMC3    H2 8489   3.620   3.024   0.558 -0.5909 -1.1771  0.4900
  572TMC3    C7 8490   3.725   3.119   0.332  0.4947  0.1715  0.0686
  572TMC3    C8 8491   3.581   2.772   0.622 -0.4991  0.4579 -0.1793
  572TMC3    O1 8492   3.716   3.157   0.216  0.1258 -0.1047 -0.3800
  572TMC3    O2 8493   3.515   2.850   0.694 -0.3830 -0.1326  0.2014
  573MPD2     C 8494   4.585   3.022   0.708  0.0508  0.4518  0.2657
  573MPD2    C1 8495   4.673   3.126   0.714 -0.9380 -0.0324  0.2722
  573MPD2    C2 8496   4.712   3.194   0.595  0.0299 -0.3841 -0.7376
  573MPD2    C3 8497   4.666   3.141   0.474 -0.8888  0.0958 -0.2819
  573MPD2    C4 8498   4.575   3.034   0.473 -0.0316 -0.0396 -0.6434
  573MPD2    C5 8499   4.537   2.976   0.586  0.2905  0.5482  0.1797
  573MPD2     H 8500   0.052   3.283   0.590 -1.6131  0.6895 -1.7638
  573MPD2    H1 8501   4.522   3.012   0.382  1.4798 -2.6219 -0.8913
  573MPD2    H2 8502   4.539   2.971   0.792  1.9363 -0.9541  0.4404
  573MPD2    H3 8503   4.467   2.893   0.585  0.9877 -0.0876  3.6436
  573MPD2     N 8504   4.720   3.191   0.354 -0.1187  0.4977  0.1105
  573MPD2    H5 8505   4.671   3.186   0.266  1.9838 -0.7255 -1.0083
  573MPD2    N1 8506   4.716   3.179   0.843 -0.4403  0.1972 -0.0242
  573MPD2    H7 8507   4.682   3.126   0.922  0.7973 -1.1130 -0.3651
  574TMC3    C1 8508   0.130   3.340   0.215  0.1058  0.0345 -0.0472
  574TMC3    C2 8509   0.019   3.410   0.189  0.2530 -0.2098 -0.1641
  574TMC3    C3 8510   0.024   3.518   0.105  0.1109 -0.5002  0.2300
  574TMC3    C4 8511   0.253   3.380   0.180  0.1916 -0.4404  0.0668
  574TMC3    C5 8512   0.259   3.483   0.088  0.8199 -0.4481  0.7521
  574TMC3    C6 8513   0.145   3.550   0.050 -0.5491 -0.8460 -0.0027
  574TMC3     C 8514   0.116   3.268   0.346  0.1164 -0.3873  1.0572
  574TMC3     O 8515   0.206   3.270   0.430  0.9896 -0.2031  0.1100
  574TMC3     H 8516   4.646   3.389   0.237 -0.8414  0.5350 -1.9818
  574TMC3    H1 8517   0.342   3.330   0.217 -0.1904 -1.6182 -0.6068
  574TMC3    H2 8518   0.151   3.648   0.005  1.6712 -0.6404  0.7123
  574TMC3    C7 8519   0.391   3.516   0.028 -1.0536  0.2947  0.5884
  574TMC3    C8 8520   4.623   3.600   0.101 -0.3145 -1.0334  0.5846
  574TMC3    O1 8521   0.487   3.464   0.080  0.3344 -0.1376 -0.1205
  574TMC3    O2 8522   4.541   3.572   0.189  0.0028  0.4931 -0.2172
  575TMC3    C1 8523   3.179   3.720  11.083 -0.3147 -0.1361 -0.3547
  575TMC3    C2 8524   3.108   3.624  11.149  0.0893  0.0066  0.2107
  575TMC3    C3 8525   3.083   3.518  11.071  0.5605  0.4769 -0.0035
  575TMC3    C4 8526   3.251   3.707  10.964  0.2061  0.5589 -0.1728
  575TMC3    C5 8527   3.229   3.589  10.898 -0.1561 -0.6196  0.3363
  575TMC3    C6 8528   3.138   3.501  10.952 -0.7813  0.0622 -0.4077
  575TMC3     C 8529   3.156   3.863  11.112  0.6600  1.0541 -0.0256
  575TMC3     O 8530   3.175   3.949  11.023 -0.9703  0.4822 -0.5924
  575TMC3     H 8531   3.032   3.662  11.216  0.4490 -0.0112  0.6325
  575TMC3    H1 8532   3.304   3.787  10.913 -2.2506  3.2046  1.4134
  575TMC3    H2 8533   3.119   3.414  10.889 -1.5100  0.3135 -0.5403
  575TMC3    C7 8534   3.251   3.586  10.752 -0.2713 -0.1428  0.7239
  575TMC3    C8 8535   2.996   3.421  11.131  0.2704  0.0721 -0.1500
  575TMC3    O1 8536   3.284   3.688  10.699  0.6420  0.4268 -0.2707
  575TMC3    O2 8537   2.992   3.415  11.255 -0.2376  0.1054  0.2605
  576MPD2     C 8538   2.792   0.679  12.696 -0.5478 -0.2158  0.6826
  576MPD2    C1 8539   2.818   0.762  12.589  0.1651 -0.4574  0.2822
  576MPD2    C2 8540   2.799   0.898  12.607 -0.1247  0.4384  0.3695
  576MPD2    C3 8541   2.764   0.948  12.726  0.7897  0.2406 -0.3852
  576MPD2    C4 8542   2.763   0.867  12.838 -0.0616 -0.2121 -0.5900
  576MPD2    C5 8543   2.765   0.737  12.818 -0.1323 -0.1572 -0.6295
  576MPD2     H 8544   2.810   0.962  12.520  1.9015  0.7293  0.8477
  576MPD2    H1 8545   2.745   0.902  12.939  0.1866 -1.6153 -0.0572
  576MPD2    H2 8546   2.810   0.573  12.704 -2.7497 -0.7065 -0.7762
  576MPD2    H3 8547   2.746   0.666  12.897  0.9353 -0.0772 -0.2934
  576MPD2     N 8548   2.760   1.085  12.735 -0.6543  0.4607 -0.0910
  576MPD2    H5 8549   2.783   1.143  12.655 -1.2664  0.0665 -0.5493
  576MPD2    N1 8550   2.854   0.712  12.459  0.1000  0.7278 -0.1062
  576MPD2    H7 8551   2.868   0.786  12.390  0.0293  0.9090  0.0754
  577TMC3    C1 8552   2.921   0.559  12.291  1.0093  0.4002  0.4067
  577TMC3    C2 8553   2.940   0.432  12.246  0.3582 -0.2192 -0.8318
  577TMC3    C3 8554   2.999   0.400  12.122 -0.5757  0.4097  0.0569
  577TMC3    C4 8555   2.938   0.660  12.199  0.4278  0.1858  0.0367
  577TMC3    C5 8556   2.995   0.627  12.077  0.0364  0.0796  0.0558
  577TMC3    C6 8557   3.019   0.498  12.037 -0.1438  0.5982 -0.0650
  577TMC3     C 8558   2.869   0.578  12.428 -0.5087 -0.1395  0.7948
  577TMC3     O 8559   2.870   0.476  12.502  0.0688 -0.3203 -0.4429
  577TMC3     H 8560   2.935   0.349  12.316  1.2706 -0.3638 -0.9373
  577TMC3    H1 8561   2.922   0.764  12.224  0.8589  0.5074 -1.0083
  577TMC3    H2 8562   3.024   0.479  11.931 -1.2276  0.3461 -0.0689
  577TMC3    C7 8563   2.982   0.725  11.969  0.1572  0.1815 -0.1885
  577TMC3    C8 8564   3.070   0.274  12.104 -0.1656 -0.0148  0.1090
  577TMC3    O1 8565   2.909   0.821  11.991  0.2726  0.1436  0.5829
  577TMC3    O2 8566   3.058   0.198  12.204 -0.2709  0.9857  0.9426
  578MPD2     C 8567   0.350   1.017   1.018  0.1163  0.0370 -0.6382
  578MPD2    C1 8568   0.419   0.900   1.024  0.2365  0.0015 -0.4606
  578MPD2    C2 8569   0.522   0.886   1.119  1.1531  0.3188  0.2448
  578MPD2    C3 8570   0.544   0.994   1.207  0.7806 -0.4868 -0.4020
  578MPD2    C4 8571   0.468   1.106   1.204  0.6141  0.0501  0.0632
  578MPD2    C5 8572   0.371   1.118   1.108  0.1823  0.3891  0.6184
  578MPD2     H 8573   0.567   0.791   1.144  1.1741  0.7589  1.8810
  578MPD2    H1 8574   0.494   1.192   1.264 -2.2901  2.0851 -1.6097
  578MPD2    H2 8575   0.272   1.041   0.947  0.3704  0.8730 -0.6296
  578MPD2    H3 8576   0.303   1.202   1.100 -1.3211 -0.7662  1.2581
  578MPD2     N 8577   0.658   0.974   1.289  0.0085 -0.1575  0.9215
  578MPD2    H5 8578   0.728   0.907   1.261 -1.8099 -1.0218 -1.5692
  578MPD2    N1 8579   0.412   0.800   0.922  0.1489  0.2345 -0.1228
  578MPD2    H7 8580   0.365   0.832   0.837  0.4099 -2.2388 -1.1903
  579TMC3    C1 8581   0.781   0.995   1.488 -0.9354 -0.1733  0.4900
  579TMC3    C2 8582   0.852   1.087   1.567 -0.3497  0.3617 -0.8965
  579TMC3    C3 8583   0.977   1.045   1.607  0.5199  0.4339  0.4001
  579TMC3    C4 8584   0.815   0.869   1.482 -0.1978 -0.6626 -0.7376
  579TMC3    C5 8585   0.936   0.824   1.535 -0.3372  0.3618 -0.2444
  579TMC3    C6 8586   1.025   0.914   1.595  0.0574 -0.7276 -0.9830
  579TMC3     C 8587   0.673   1.046   1.410 -1.0674 -0.6101 -0.6131
  579TMC3     O 8588   0.609   1.137   1.455 -0.7507  0.9305  0.2275
  579TMC3     H 8589   0.832   1.193   1.568 -0.0153  0.4453 -2.8228
  579TMC3    H1 8590   0.754   0.803   1.421 -2.5846  0.0385  0.8679
  579TMC3    H2 8591   1.125   0.883   1.623 -0.6913  0.0051  2.4321
  579TMC3    C7 8592   0.987   0.690   1.508  0.3609 -0.3817  0.5633
  579TMC3    C8 8593   1.047   1.140   1.695 -0.4181 -0.1498  0.0732
  579TMC3    O1 8594   1.108   0.665   1.514  0.2721  0.2963  0.2330
  579TMC3    O2 8595   0.976   1.229   1.739  0.4169 -0.0087  0.2316
  580TMC3    C1 8596   0.715   0.162  11.098 -0.0484  0.6825  0.2437
  580TMC3    C2 8597   0.735   0.077  10.987  0.2638  0.4116  0.3426
  580TMC3    C3 8598   0.704   4.663  10.996  0.0169  0.0499 -0.0498
  580TMC3    C4 8599   0.653   0.120  11.212  0.3764 -0.3202  0.0677
  580TMC3    C5 8600   0.621   4.711  11.213 -0.4620  0.1394 -0.3634
  580TMC3    C6 8601   0.647   4.613  11.114 -0.6499 -0.0911  0.2779
  580TMC3     C 8602   0.769   0.302  11.091  0.1659  0.2521 -0.3260
  580TMC3     O 8603   0.803   0.345  10.984 -0.1143 -0.0239  0.3134
  580TMC3     H 8604   0.771   0.124  10.896  0.5036  1.2050  0.8456
  580TMC3    H1 8605   0.625   0.182  11.297  0.5579 -0.5770  0.3137
  580TMC3    H2 8606   0.637   4.506  11.129  5.0097 -0.8233 -1.2320
  580TMC3    C7 8607   0.611   4.652  11.346 -0.2424 -0.0542 -0.6209
  580TMC3    C8 8608   0.794   4.570  10.925 -0.4374 -0.1416 -0.4975
  580TMC3    O1 8609   0.669   4.709  11.441 -0.4833  0.8514  0.7449
  580TMC3    O2 8610   0.792   4.453  10.951 -0.1514  0.1416 -0.1943
  581MPD2     C 8611   3.380   0.270  15.708 -0.4249 -0.4092  1.1308
  581MPD2    C1 8612   3.283   0.183  15.666 -0.2070  0.7851 -0.1523
  581MPD2    C2 8613   3.174   0.238  15.603  0.1790  0.3476  0.1415
  581MPD2    C3 8614   3.165   0.371  15.574 -0.0167 -0.0550  0.2144
  581MPD2    C4 8615   3.269   0.459  15.613 -0.2392 -0.4498 -0.3316
  581MPD2    C5 8616   3.367   0.404  15.694  0.0019  0.4806  0.0882
  581MPD2     H 8617   3.096   0.173  15.565 -2.0854  2.2748  1.4736
  581MPD2    H1 8618   3.273   0.563  15.583 -1.5748 -0.0255  0.8995
  581MPD2    H2 8619   3.468   0.240  15.764  2.0902  0.6823 -2.2234
  581MPD2    H3 8620   3.450   0.468  15.724  1.1100 -0.5776 -0.7165
  581MPD2     N 8621   3.069   0.409  15.476  0.1582  0.1342  0.5963
  581MPD2    H5 8622   3.003   0.339  15.443  0.1189  1.2781 -1.7765
  581MPD2    N1 8623   3.302   0.046  15.694 -0.0704 -0.0201  0.1482
  581MPD2    H7 8624   3.381   0.017  15.750 -0.4937  0.0072  0.7618
  582TMC3    C1 8625   3.232   4.540  15.712 -0.1659  0.3636 -0.1696
  582TMC3    C2 8626   3.269   4.534  15.845  0.0038 -0.3343 -0.1319
  582TMC3    C3 8627   3.207   4.432  15.920  0.4135  0.9193 -0.1363
  582TMC3    C4 8628   3.158   4.438  15.648  0.6726 -0.2421  0.4323
  582TMC3    C5 8629   3.106   4.340  15.722 -0.4036  0.3509  0.2405
  582TMC3    C6 8630   3.123   4.343  15.857  0.7696 -1.0922 -0.2499
  582TMC3     C 8631   3.222   4.670  15.645 -0.6038 -0.3516 -0.5700
  582TMC3     O 8632   3.134   4.670  15.558  0.2005 -0.3321  0.0159
  582TMC3     H 8633   3.334   4.606  15.894 -0.0831  0.4274 -1.1540
  582TMC3    H1 8634   3.145   4.430  15.541  1.3357 -2.5788  0.5348
  582TMC3    H2 8635   3.077   4.265  15.917  4.0628 -2.1941  0.8499
  582TMC3    C7 8636   2.969   4.323  15.683 -0.5434  0.1290  0.0324
  582TMC3    C8 8637   3.186   4.463  16.061 -0.1106 -0.1136  0.3423
  582TMC3    O1 8638   2.919   4.219  15.726  0.4780  0.4624 -0.0440
  582TMC3    O2 8639   3.070   4.447  16.094  0.0770  0.3042 -0.1115
  583MPD2     C 8640   2.936   1.450  16.811 -0.0986 -0.8263 -1.3066
  583MPD2    C1 8641   2.917   1.580  16.780 -0.1701  0.3667  0.4968
  583MPD2    C2 8642   2.861   1.672  16.865 -0.2880 -1.2773  0.2649
  583MPD2    C3 8643   2.816   1.630  16.988 -0.1268 -0.1601  0.0178
  583MPD2    C4 8644   2.831   1.499  17.029  0.7469  0.0893  0.2748
  583MPD2    C5 8645   2.895   1.414  16.938  0.1341  0.3650  0.0792
  583MPD2     H 8646   2.831   1.768  16.825 -1.1193 -2.1105 -1.1150
  583MPD2    H1 8647   2.791   1.458  17.121 -0.5366 -0.6678 -0.6203
  583MPD2    H2 8648   2.986   1.377  16.749  1.1049  0.8589 -2.3154
  583MPD2    H3 8649   2.887   1.307  16.949  0.3722  0.0496 -2.7073
  583MPD2     N 8650   2.758   1.736  17.062 -0.2471  0.8851  0.5414
  583MPD2    H5 8651   2.764   1.829  17.023 -0.5960  0.2054 -1.1558
  583MPD2    N1 8652   2.960   1.631  16.659 -0.5967  0.1613  0.3836
  583MPD2    H7 8653   2.912   1.715  16.627  0.6624  0.4406 -0.7860
  584TMC3    C1 8654   2.645   1.849  17.231  0.8048  0.3797  0.2035
  584TMC3    C2 8655   2.644   1.960  17.151  0.2933 -0.6400  0.3389
  584TMC3    C3 8656   2.653   2.083  17.208 -0.8537 -0.8244 -0.3933
  584TMC3    C4 8657   2.630   1.861  17.368 -0.3293  0.0259 -0.0444
  584TMC3    C5 8658   2.628   1.987  17.420 -0.0160 -0.1999 -0.3954
  584TMC3    C6 8659   2.649   2.103  17.344  0.2305  0.3654  0.3224
  584TMC3     C 8660   2.693   1.720  17.183 -0.4666  0.1012 -0.0583
  584TMC3     O 8661   2.686   1.622  17.259 -0.4833 -0.2793 -0.5855
  584TMC3     H 8662   2.630   1.943  17.045 -0.9351 -0.1038  0.4131
  584TMC3    H1 8663   2.636   1.768  17.424 -0.9063 -1.0623 -1.7622
  584TMC3    H2 8664   2.652   2.202  17.388 -2.7487 -0.3941  2.3080
  584TMC3    C7 8665   2.627   2.005  17.566  0.3916  0.2363  0.3117
  584TMC3    C8 8666   2.674   2.198  17.120  0.5161  0.1426 -0.0591
  584TMC3    O1 8667   2.655   2.118  17.610  0.5739  0.1846 -0.5480
  584TMC3    O2 8668   2.641   2.174  17.005 -0.1196  0.2586 -0.7959
  585MPD2     C 8669   2.325   0.969   0.955  0.5373 -0.3812  0.1481
  585MPD2    C1 8670   2.376   1.028   0.842 -0.3873  0.3642 -0.1891
  585MPD2    C2 8671   2.358   0.956   0.732  0.2261  0.5537 -0.2424
  585MPD2    C3 8672   2.265   0.855   0.718 -0.6459  0.0431  0.5968
  585MPD2    C4 8673   2.203   0.817   0.833  0.1889  0.0894  0.0130
  585MPD2    C5 8674   2.236   0.867   0.952  0.4080  0.3680  0.6517
  585MPD2     H 8675   2.411   0.983   0.641  0.5096  0.7007 -0.0361
  585MPD2    H1 8676   2.131   0.736   0.832  0.8568 -0.5261  1.6325
  585MPD2    H2 8677   2.361   1.005   1.050  0.5621 -0.3894  0.1418
  585MPD2    H3 8678   2.195   0.821   1.042  0.0416 -0.2943  0.1455
  585MPD2     N 8679   2.240   0.783   0.599 -0.5861  0.1430  0.0316
  585MPD2    H5 8680   2.189   0.695   0.601 -2.0873  1.0215  0.2966
  585MPD2    N1 8681   2.457   1.139   0.846  0.3670 -0.3810  0.0444
  585MPD2    H7 8682   2.447   1.206   0.921 -1.4146 -0.6317  0.0292
  586TMC3    C1 8683   2.175   0.766   0.378 -0.5419 -0.4030 -0.1093
  586TMC3    C2 8684   2.223   0.704   0.259  0.1179  0.1257 -0.2298
  586TMC3    C3 8685   2.127   0.645   0.184 -1.2346 -1.2368 -0.8614
  586TMC3    C4 8686   2.051   0.745   0.428 -0.4197 -0.0074 -0.0929
  586TMC3    C5 8687   1.965   0.666   0.355  0.1648 -0.2379  1.0356
  586TMC3    C6 8688   2.006   0.620   0.233 -1.1583  0.0013 -0.1808
  586TMC3     C 8689   2.267   0.825   0.471 -0.2791  0.2470  0.5794
  586TMC3     O 8690   2.358   0.892   0.426  0.2559  0.0692 -0.3584
  586TMC3     H 8691   2.327   0.722   0.232  0.1648  2.0312  1.1762
  586TMC3    H1 8692   2.015   0.803   0.512  3.0642  1.1144  0.6460
  586TMC3    H2 8693   1.935   0.580   0.162 -0.0090 -0.9596 -0.7961
  586TMC3    C7 8694   1.843   0.613   0.420  0.0382 -0.4677  0.1693
  586TMC3    C8 8695   2.154   0.569   0.070  0.1287 -0.0259  0.1098
  586TMC3    O1 8696   1.790   0.529   0.353 -0.5208 -0.0440  0.1415
  586TMC3    O2 8697   2.077   0.478   0.036  0.0056 -0.0147  0.0460
  587TMC3    C1 8698   4.625   4.271  16.692 -0.4857 -0.3488  0.0429
  587TMC3    C2 8699   4.619   4.376  16.784 -0.4469 -0.3220 -0.3107
  587TMC3    C3 8700   4.695   4.369  16.899 -0.0753 -0.0254 -0.0112
  587TMC3    C4 8701   0.003   4.179  16.693 -0.0988 -1.1859 -0.2626
  587TMC3    C5 8702   0.094   4.192  16.795 -0.8014 -0.7632 -0.0529
  587TMC3    C6 8703   0.077   4.280  16.900 -0.0510  0.0874 -0.2025
  587TMC3     C 8704   4.526   4.255  16.591  0.5159  0.4152 -0.4223
  587TMC3     O 8705   4.556   4.203  16.485 -0.0378  0.1784  0.2843
  587TMC3     H 8706   4.533   4.442  16.788 -0.7766 -0.8071  0.5512
  587TMC3    H1 8707   4.718   4.096  16.624 -2.6933 -1.1442 -0.0453
  587TMC3    H2 8708   0.154   4.281  16.977 -2.5883  2.8932  2.3241
  587TMC3    C7 8709   0.188   4.089  16.814  0.1542 -0.1544  0.1778
  587TMC3    C8 8710   4.702   4.474  16.999 -0.9108  0.1505 -0.0059
  587TMC3    O1 8711   0.226   4.063  16.928 -0.1312  0.0132 -0.1090
  587TMC3    O2 8712   0.067   4.463  17.082 -0.0084  0.5955 -0.0565
  588TMC3    C1 8713   3.226   1.547   9.943 -0.1367 -0.0107  0.1940
  588TMC3    C2 8714   3.173   1.438   9.883  0.0677 -0.2046  0.2706
  588TMC3    C3 8715   3.165   1.321   9.954 -0.2475 -0.1034 -0.5804
  588TMC3    C4 8716   3.271   1.545  10.069 -0.0130 -0.3159 -0.3412
  588TMC3    C5 8717   3.259   1.429  10.141  0.1253  0.0559 -0.3341
  588TMC3    C6 8718   3.210   1.309  10.087  0.2764 -0.0268  0.5032
  588TMC3     C 8719   3.253   1.665   9.860  0.1976  0.3162 -0.9173
  588TMC3     O 8720   3.272   1.644   9.743  0.3882 -0.1641 -0.0789
  588TMC3     H 8721   3.132   1.442   9.783  0.2787  2.0109  0.2832
  588TMC3    H1 8722   3.343   1.616  10.108 -0.5990  0.7210 -1.1708
  588TMC3    H2 8723   3.200   1.225  10.156  0.5941  0.2737  0.9195
  588TMC3    C7 8724   3.303   1.425  10.287  0.2624 -0.4636  0.3376
  588TMC3    C8 8725   3.104   1.209   9.886  0.4529  0.4884  0.6883
  588TMC3    O1 8726   3.345   1.321  10.332 -0.2895 -0.0528 -0.1522
  588TMC3    O2 8727   3.036   1.239   9.790  0.5414 -0.0114 -0.0107
  589TMC3    C1 8728   0.719   3.573   1.533  0.1078 -0.0392  0.0673
  589TMC3    C2 8729   0.841   3.615   1.568  0.3238  0.8193  0.2689
  589TMC3    C3 8730   0.951   3.583   1.502  0.5382  0.1306  0.4998
  589TMC3    C4 8731   0.708   3.498   1.414 -0.1275 -0.6942 -0.0171
  589TMC3    C5 8732   0.822   3.448   1.361 -0.1304 -0.5320 -0.2324
  589TMC3    C6 8733   0.943   3.502   1.392 -0.1424  0.3544  0.6696
  589TMC3     C 8734   0.606   3.635   1.603  0.8190 -0.4735 -0.1639
  589TMC3     O 8735   0.495   3.587   1.587  0.0228 -0.1028 -0.8291
  589TMC3     H 8736   0.838   3.651   1.670 -1.8842 -0.1641  0.5468
  589TMC3    H1 8737   0.611   3.455   1.390  0.1108 -0.1990 -1.8610
  589TMC3    H2 8738   1.033   3.476   1.338 -0.9467 -3.1159  0.9653
  589TMC3    C7 8739   0.819   3.317   1.304 -0.3509 -0.2068 -0.4459
  589TMC3    C8 8740   1.073   3.626   1.573  0.0431 -0.6296  0.6083
  589TMC3    O1 8741   0.707   3.285   1.262 -0.3855 -0.3415  0.5583
  589TMC3    O2 8742   1.061   3.683   1.685  0.3011 -0.0054 -0.0455
  590MPD2     C 8743   0.878   3.133  16.715  0.0998  0.2567  0.3494
  590MPD2    C1 8744   0.869   3.050  16.604 -0.2319  0.6208  0.4839
  590MPD2    C2 8745   0.943   3.076  16.491 -0.7164  0.3773 -0.4128
  590MPD2    C3 8746   1.014   3.199  16.478 -0.1962  0.4663  0.3085
  590MPD2    C4 8747   1.020   3.273  16.587 -0.3211  0.0710  0.0205
  590MPD2    C5 8748   0.948   3.247  16.695  0.5930  0.2747 -0.1796
  590MPD2     H 8749   0.946   3.010  16.405  0.3564 -3.0968  2.3143
  590MPD2    H1 8750   1.073   3.367  16.584 -1.5363  0.7779  0.8073
  590MPD2    H2 8751   0.828   3.116  16.809  3.7606 -1.1258  2.0340
  590MPD2    H3 8752   0.941   3.312  16.782 -1.1238 -2.0117  1.3832
  590MPD2     N 8753   1.077   3.228  16.356 -0.7478  0.5856 -0.0441
  590MPD2    H5 8754   1.063   3.163  16.278 -1.0655  0.0360  0.4682
  590MPD2    N1 8755   0.790   2.934  16.617 -0.3269  0.2245 -0.4706
  590MPD2    H7 8756   0.742   2.932  16.707 -1.4776  1.0648 -1.0591
  591TMC3    C1 8757   1.236   3.344  16.204 -0.1723 -0.2162  0.2666
  591TMC3    C2 8758   1.239   3.237  16.118 -0.0150 -0.0044 -0.4133
  591TMC3    C3 8759   1.288   3.254  15.992 -0.1111  0.2273 -0.3629
  591TMC3    C4 8760   1.283   3.468  16.165 -0.3768  0.2068 -0.4686
  591TMC3    C5 8761   1.329   3.484  16.035  0.3748 -0.2849 -0.0740
  591TMC3    C6 8762   1.326   3.378  15.954 -0.1343  0.3652 -0.5034
  591TMC3     C 8763   1.161   3.336  16.333  0.4126  0.1913 -0.0943
  591TMC3     O 8764   1.184   3.428  16.409  0.2704  0.2364  0.5289
  591TMC3     H 8765   1.205   3.137  16.140  1.0212  0.0252  1.3080
  591TMC3    H1 8766   1.273   3.548  16.237 -0.6448  0.2359 -0.5371
  591TMC3    H2 8767   1.354   3.393  15.850  0.4430 -2.4528 -0.7627
  591TMC3    C7 8768   1.280   3.606  15.977  0.4432 -0.1669 -0.1889
  591TMC3    C8 8769   1.283   3.146  15.900  0.0822 -0.6395 -0.2834
  591TMC3    O1 8770   1.201   3.669  16.051 -0.1730  0.0467  0.2548
  591TMC3    O2 8771   1.302   3.034  15.941 -0.2124  0.0346  0.3243
  592MPD2     C 8772   1.427   0.159  11.492 -0.6789  0.6805  0.4655
  592MPD2    C1 8773   1.517   0.213  11.585 -0.8472 -0.6578  0.3366
  592MPD2    C2 8774   1.491   0.177  11.717 -0.0348 -0.3868  0.0684
  592MPD2    C3 8775   1.399   0.080  11.753 -0.4324 -0.1187  0.9780
  592MPD2    C4 8776   1.322   0.027  11.654  0.2905  0.5296 -0.1753
  592MPD2    C5 8777   1.334   0.068  11.522  0.2449 -0.4864  0.1325
  592MPD2     H 8778   1.552   0.219  11.797  2.5996  0.2737 -2.2805
  592MPD2    H1 8779   1.246   4.674  11.672  0.9412 -0.8669 -3.2284
  592MPD2    H2 8780   1.440   0.183  11.387 -0.8857 -0.2101  0.2374
  592MPD2    H3 8781   1.274   0.029  11.440  1.3940 -1.3568 -0.2817
  592MPD2     N 8782   1.393   0.039  11.887  0.7886  0.0064  0.6043
  592MPD2    H5 8783   1.454   0.089  11.951  1.0063  0.0179  0.3892
  592MPD2    N1 8784   1.613   0.305  11.536 -0.1590  0.4381  0.4092
  592MPD2    H7 8785   1.610   0.331  11.438 -0.7874  1.0060  0.5796
  593TMC3    C1 8786   1.801   0.445  11.556 -0.0725  0.4033  0.6044
  593TMC3    C2 8787   1.857   0.554  11.619 -0.8935  0.0224  0.2540
  593TMC3    C3 8788   1.925   0.645  11.545 -0.2439 -0.0014  0.1287
  593TMC3    C4 8789   1.815   0.426  11.419  0.4206 -0.7553 -0.2250
  593TMC3    C5 8790   1.876   0.527  11.347 -0.1440  0.4343 -0.5325
  593TMC3    C6 8791   1.931   0.639  11.404 -0.4934 -0.0619 -0.3030
  593TMC3     C 8792   1.706   0.365  11.623 -0.1063 -0.8197  0.4589
  593TMC3     O 8793   1.718   0.363  11.745  0.0760 -0.1869  0.0402
  593TMC3     H 8794   1.821   0.579  11.718 -0.1528  1.0066  0.2830
  593TMC3    H1 8795   1.769   0.342  11.369 -0.5940 -0.3137 -0.0467
  593TMC3    H2 8796   1.989   0.704  11.340  1.6856 -0.4819  1.2462
  593TMC3    C7 8797   1.939   0.498  11.217  0.7892 -0.0414  0.0097
  593TMC3    C8 8798   1.997   0.753  11.607  0.7486  0.0530 -0.2772
  593TMC3    O1 8799   2.052   0.533  11.191  0.3484  0.3703  0.2043
  593TMC3    O2 8800   2.028   0.850  11.541 -0.4837 -0.0717 -0.5491
  594MPD2     C 8801   0.199   3.291  13.926  0.1446 -0.8639 -0.0205
  594MPD2    C1 8802   0.186   3.300  14.059  0.2960 -0.0871  0.1424
  594MPD2    C2 8803   0.232   3.419  14.128  0.0727 -0.3161  0.2594
  594MPD2    C3 8804   0.294   3.524  14.054 -0.4667 -0.6843 -0.6427
  594MPD2    C4 8805   0.283   3.510  13.914 -0.3840  0.2981 -0.4773
  594MPD2    C5 8806   0.240   3.395  13.855  0.4391 -0.3221 -0.0234
  594MPD2     H 8807   0.235   3.421  14.236  1.0110  0.3840  0.2244
  594MPD2    H1 8808   0.311   3.589  13.846  0.7505 -0.4286 -0.8537
  594MPD2    H2 8809   0.157   3.208  13.869  2.4859 -1.9745 -0.1289
  594MPD2    H3 8810   0.230   3.387  13.747 -0.4485 -1.1875  0.1258
  594MPD2     N 8811   0.342   3.638  14.122  0.0242  0.0688  0.5884
  594MPD2    H5 8812   0.335   3.624  14.222 -1.9669 -0.1768  0.4109
  594MPD2    N1 8813   0.113   3.196  14.126  0.1984  0.8046 -0.5081
  594MPD2    H7 8814   0.090   3.123  14.060 -0.8356 -0.8513  1.6547
  595TMC3    C1 8815   0.522   4.064  14.205  0.2833 -0.2311 -0.1408
  595TMC3    C2 8816   0.509   3.950  14.124 -0.1305  0.8761  0.0961
  595TMC3    C3 8817   0.455   3.831  14.166  0.4947  0.0137  0.4362
  595TMC3    C4 8818   0.479   4.065  14.333 -0.6771  0.5487 -0.0992
  595TMC3    C5 8819   0.420   3.944  14.367  0.6492  0.2970 -0.1860
  595TMC3    C6 8820   0.407   3.833  14.295 -0.2218  0.1689  0.6362
  595TMC3     C 8821   0.623   4.165  14.176 -0.0298 -0.3747  0.4476
  595TMC3     O 8822   0.624   4.261  14.257  0.1790 -0.0188 -0.4967
  595TMC3     H 8823   0.529   3.968  14.019  0.9438  0.9634  0.3123
  595TMC3    H1 8824   0.496   4.150  14.398  2.8788 -0.1047 -0.2016
  595TMC3    H2 8825   0.354   3.746  14.331  0.7736 -0.9088 -0.5558
  595TMC3    C7 8826   0.358   3.935  14.492 -0.0821 -0.0500 -0.2432
  595TMC3    C8 8827   0.418   3.734  14.069  0.3666  0.4020 -0.1126
  595TMC3    O1 8828   0.235   3.914  14.503 -0.9377  0.1483 -0.9673
  595TMC3    O2 8829   0.457   3.737  13.952 -0.3481 -0.4858 -0.2731
  596MPD2     C 8830   4.053   1.448  16.803  1.0118  0.2650  0.2873
  596MPD2    C1 8831   4.011   1.549  16.714 -0.0365 -0.8084  0.4338
  596MPD2    C2 8832   4.032   1.539  16.582  0.1625  0.7675  0.2279
  596MPD2    C3 8833   4.100   1.432  16.530 -0.0047 -0.0796 -0.2787
  596MPD2    C4 8834   4.161   1.342  16.616  0.3628  0.2116  0.8033
  596MPD2    C5 8835   4.131   1.346  16.752  0.2713  0.5255  0.3732
  596MPD2     H 8836   3.989   1.622  16.528 -0.1043 -0.8721 -2.0772
  596MPD2    H1 8837   4.212   1.254  16.578 -4.1975 -1.7966 -0.7103
  596MPD2    H2 8838   4.044   1.448  16.911  1.8709  1.2660  0.3606
  596MPD2    H3 8839   4.173   1.275  16.822  0.9275  0.2997 -0.2550
  596MPD2     N 8840   4.112   1.416  16.389 -0.1102 -0.1888  0.0116
  596MPD2    H5 8841   4.153   1.327  16.365  0.5252 -0.4585  2.0571
  596MPD2    N1 8842   3.939   1.660  16.763 -0.6123  0.2206 -0.0991
  596MPD2    H7 8843   3.903   1.734  16.703 -0.6754 -0.7315 -1.2332
  597TMC3    C1 8844   3.835   1.812  16.895  0.4510  0.0875 -0.7689
  597TMC3    C2 8845   3.900   1.907  16.812 -0.5571 -0.2697  0.0325
  597TMC3    C3 8846   3.825   2.017  16.793 -0.0881 -0.2127  0.3108
  597TMC3    C4 8847   3.718   1.825  16.960  0.4135 -0.8773 -0.4726
  597TMC3    C5 8848   3.657   1.948  16.938 -0.0242 -0.1065 -0.5974
  597TMC3    C6 8849   3.711   2.047  16.863  0.1602  0.3414  0.9071
  597TMC3     C 8850   3.896   1.683  16.890  0.2645 -0.2588 -0.4519
  597TMC3     O 8851   3.880   1.603  16.979 -0.8421 -0.6518 -0.7383
  597TMC3     H 8852   4.000   1.884  16.776 -0.2767  0.6697  0.1980
  597TMC3    H1 8853   3.685   1.734  17.008  0.5110 -1.0574 -0.7506
  597TMC3    H2 8854   3.674   2.148  16.850 -1.6871 -0.3375  0.9061
  597TMC3    C7 8855   3.542   1.970  17.017 -0.6736 -0.2158 -0.4698
  597TMC3    C8 8856   3.873   2.106  16.697  0.1988 -0.5660 -0.3678
  597TMC3    O1 8857   3.531   1.901  17.116 -0.5696  0.0309 -0.4738
  597TMC3    O2 8858   3.981   2.081  16.641 -0.6224 -0.4201  0.1770
  598TMC3    C1 8859   2.214   3.336  15.310 -0.3727  0.2883 -0.2093
  598TMC3    C2 8860   2.186   3.400  15.189 -0.3099 -0.3133  0.6606
  598TMC3    C3 8861   2.289   3.472  15.130  0.1170 -0.5184  0.5657
  598TMC3    C4 8862   2.329   3.361  15.387 -0.2940 -0.6081 -0.4132
  598TMC3    C5 8863   2.424   3.440  15.326  0.4991  0.6325 -0.8570
  598TMC3    C6 8864   2.403   3.503  15.206 -0.3496  0.0490 -0.0888
  598TMC3     C 8865   2.111   3.267  15.391 -0.4080 -0.1922 -0.1836
  598TMC3     O 8866   2.147   3.197  15.483  0.4220  0.5251  0.1140
  598TMC3     H 8867   2.091   3.394  15.138  0.3557 -2.0803 -0.3543
  598TMC3    H1 8868   2.341   3.318  15.485  1.7833 -0.5821 -0.6725
  598TMC3    H2 8869   2.483   3.554  15.155 -1.2046  0.9655 -0.5147
  598TMC3    C7 8870   2.552   3.458  15.393 -1.2401  0.5058  0.3939
  598TMC3    C8 8871   2.281   3.507  14.990  0.3581 -0.2208  0.5623
  598TMC3    O1 8872   2.592   3.370  15.466 -0.5876  0.2021  0.2692
  598TMC3    O2 8873   2.372   3.580  14.957  0.1657 -0.1260  0.2362
  599MPD2     C 8874   2.125   0.945  16.550 -0.0228  0.5890  0.0751
  599MPD2    C1 8875   2.032   0.844  16.523 -0.7436 -0.5584  0.5285
  599MPD2    C2 8876   1.893   0.875  16.517 -0.3136  0.7409  0.1805
  599MPD2    C3 8877   1.842   1.005  16.540  0.1280 -0.1544  0.6590
  599MPD2    C4 8878   1.942   1.102  16.559  1.3365  0.2712  0.0498
  599MPD2    C5 8879   2.074   1.072  16.566  0.2129 -0.4316 -0.8805
  599MPD2     H 8880   1.832   0.786  16.506  0.7221  0.1355 -0.7108
  599MPD2    H1 8881   1.922   1.206  16.581  1.7617  0.2528  0.5172
  599MPD2    H2 8882   2.233   0.936  16.548 -0.0845  0.2978 -1.7000
  599MPD2    H3 8883   2.146   1.152  16.574 -1.2691  0.8968 -0.9818
  599MPD2     N 8884   1.708   1.043  16.541 -0.2160 -0.4749  0.2656
  599MPD2    H5 8885   1.689   1.142  16.552 -0.7337 -0.5540  0.0874
  599MPD2    N1 8886   2.089   0.720  16.498  0.1588  0.5793 -0.2338
  599MPD2    H7 8887   2.188   0.711  16.517  0.5857  0.5869 -2.4356
  600TMC3    C1 8888   1.466   1.019  16.561 -0.6321  0.2264  0.8024
  600TMC3    C2 8889   1.369   0.926  16.589 -0.0474 -0.1519  0.2722
  600TMC3    C3 8890   1.258   0.971  16.652 -0.1401  0.7868 -0.4879
  600TMC3    C4 8891   1.451   1.155  16.595  0.0067 -0.4709 -0.1244
  600TMC3    C5 8892   1.339   1.189  16.660 -0.9714 -0.5820  0.2662
  600TMC3    C6 8893   1.244   1.095  16.696 -0.3257  0.0860  0.4044
  600TMC3     C 8894   1.597   0.963  16.527 -0.0627  0.0461 -0.7712
  600TMC3     O 8895   1.590   0.846  16.485 -0.3973 -0.2480 -0.7925
  600TMC3     H 8896   1.376   0.821  16.562  0.7675 -0.8661  3.3249
  600TMC3    H1 8897   1.530   1.229  16.590 -0.6055  0.3587  2.5416
  600TMC3    H2 8898   1.151   1.121  16.745 -0.1282 -1.2670  1.5022
  600TMC3    C7 8899   1.309   1.334  16.683 -0.5748 -0.2120  0.1473
  600TMC3    C8 8900   1.167   0.869  16.685 -0.1467  0.1269 -0.5875
  600TMC3    O1 8901   1.213   1.363  16.753 -0.4550  0.7490 -0.3552
  600TMC3    O2 8902   1.149   0.779  16.604  0.1352 -0.3182 -0.0057
  601MPD2     C 8903   4.032   3.512   0.455  0.2016 -1.1368  0.6859
  601MPD2    C1 8904   3.955   3.496   0.342 -0.0035  0.5738 -0.2309
  601MPD2    C2 8905   3.881   3.379   0.331 -0.1472 -0.3334  0.1775
  601MPD2    C3 8906   3.876   3.290   0.433 -0.1188 -0.2458 -0.0854
  601MPD2    C4 8907   3.953   3.313   0.551  0.3317  0.0710 -0.5749
  601MPD2    C5 8908   4.033   3.426   0.553 -0.2033  0.7926  0.7955
  601MPD2     H 8909   3.824   3.366   0.240  0.1026 -0.1247 -0.0091
  601MPD2    H1 8910   3.956   3.235   0.626  1.4705 -0.2808 -0.9891
  601MPD2    H2 8911   4.092   3.602   0.463 -2.1821  0.4587  0.2459
  601MPD2    H3 8912   4.113   3.445   0.624  1.5624 -0.2895 -0.8913
  601MPD2     N 8913   3.795   3.174   0.441  0.4265 -0.0605  0.1502
  601MPD2    H5 8914   3.800   3.127   0.531 -2.9842  0.8137  0.7738
  601MPD2    N1 8915   3.955   3.583   0.234  0.2821 -0.4471 -0.2868
  601MPD2    H7 8916   3.879   3.574   0.168 -1.6893 -0.8652  2.0108
  602TMC3    C1 8917   3.998   3.756   0.099  0.6694 -0.1791  0.1175
  602TMC3    C2 8918   4.073   3.867   0.072  0.2170  0.3715  0.4487
  602TMC3    C3 8919   4.047   3.938  17.645 -0.3048  0.3349 -0.4813
  602TMC3    C4 8920   3.904   3.709   0.010 -0.1951 -0.2257  0.4625
  602TMC3    C5 8921   3.880   3.789  17.587 -1.0116 -0.1739 -0.9703
  602TMC3    C6 8922   3.952   3.897  17.559  0.2089  0.4068 -0.6278
  602TMC3     C 8923   4.039   3.688   0.216 -0.1691 -0.4629 -0.4048
  602TMC3     O 8924   4.150   3.717   0.271  0.5472  0.3938  0.5383
  602TMC3     H 8925   4.140   3.904   0.148 -0.3877 -0.2169  1.2717
  602TMC3    H1 8926   3.845   3.618   0.012 -1.4045  0.5200 -1.6725
  602TMC3    H2 8927   3.938   3.945  17.463 -1.3332  0.6107 -0.3047
  602TMC3    C7 8928   3.765   3.753  17.504 -0.4995 -0.4557 -0.6499
  602TMC3    C8 8929   4.056   4.080  17.670  0.1084  1.2264  0.0685
  602TMC3    O1 8930   3.744   3.637  17.474 -0.7513 -0.6596 -0.1126
  602TMC3    O2 8931   4.048   4.107   0.099  0.0886 -0.0897  0.8543
  603TMC3    C1 8932   2.896   3.614  10.673  0.0719 -0.3455 -0.2980
  603TMC3    C2 8933   2.881   3.639  10.807  0.4946  0.1513  0.2943
  603TMC3    C3 8934   2.854   3.764  10.855 -0.0049  0.8136  0.2224
  603TMC3    C4 8935   2.888   3.714  10.580 -0.1859  0.0261 -0.3966
  603TMC3    C5 8936   2.881   3.846  10.638  0.1641  0.5027 -0.0096
  603TMC3    C6 8937   2.871   3.875  10.773 -0.5408 -0.5870  1.1525
  603TMC3     C 8938   2.873   3.479  10.633  0.1276  0.7728 -0.4247
  603TMC3     O 8939   2.916   3.392  10.703 -0.3196  0.2478 -0.5257
  603TMC3     H 8940   2.884   3.553  10.873  0.5618 -1.5132 -1.8706
  603TMC3    H1 8941   2.910   3.704  10.474  2.4510 -3.3567  0.4903
  603TMC3    H2 8942   2.847   3.977  10.801 -2.1668 -0.1056 -2.0978
  603TMC3    C7 8943   2.878   3.961  10.553  0.1379  0.7550 -0.2822
  603TMC3    C8 8944   2.846   3.779  11.001 -0.3661 -0.4510  0.1610
  603TMC3    O1 8945   2.900   4.069  10.604 -0.2970 -0.4177  0.5429
  603TMC3    O2 8946   2.819   3.678  11.058  0.6119  0.7496  0.1414
  604MPD2     C 8947   3.231   2.898  16.208 -0.0281  0.1713 -0.3948
  604MPD2    C1 8948   3.098   2.856  16.196 -0.6133  0.6019 -0.1383
  604MPD2    C2 8949   3.062   2.775  16.089  0.3002 -0.2233 -0.0591
  604MPD2    C3 8950   3.166   2.730  16.000  0.0224 -0.7462 -0.6808
  604MPD2    C4 8951   3.294   2.784  16.004  0.0226  0.2241  0.1820
  604MPD2    C5 8952   3.320   2.866  16.112  0.0099  0.6217 -0.1019
  604MPD2     H 8953   2.963   2.732  16.081  0.9802 -1.3516 -2.2581
  604MPD2    H1 8954   3.380   2.766  15.941  0.7031  2.6347  0.4057
  604MPD2    H2 8955   3.255   2.976  16.281  0.6731  0.2637 -0.7239
  604MPD2    H3 8956   3.425   2.889  16.128  0.3780 -1.0979 -0.1000
  604MPD2     N 8957   3.136   2.637  15.899  0.0062 -0.0585  0.3216
  604MPD2    H5 8958   3.039   2.607  15.892 -0.0931 -0.4725  3.5192
  604MPD2    N1 8959   3.010   2.914  16.289 -0.2496  0.2111  0.1557
  604MPD2    H7 8960   3.058   2.947  16.373  0.7875 -0.6423 -0.0975
  605TMC3    C1 8961   2.808   2.974  16.398  0.7870  0.2688 -0.4333
  605TMC3    C2 8962   2.884   3.020  16.498 -0.3142 -0.4250  0.2942
  605TMC3    C3 8963   2.830   3.094  16.601 -1.1540  0.2801 -0.5130
  605TMC3    C4 8964   2.678   2.991  16.397 -0.9235  0.4214  0.5556
  605TMC3    C5 8965   2.624   3.067  16.500 -0.2954 -0.2130  0.5978
  605TMC3    C6 8966   2.701   3.119  16.602  0.3891 -0.2104  0.3865
  605TMC3     C 8967   2.872   2.906  16.285 -0.0168 -0.3829 -0.7496
  605TMC3     O 8968   2.800   2.875  16.189 -0.9330  0.1654  0.3152
  605TMC3     H 8969   2.985   2.984  16.515 -0.1664  0.6619  1.7133
  605TMC3    H1 8970   2.617   2.951  16.317  0.8694 -2.8494  0.8198
  605TMC3    H2 8971   2.666   3.192  16.675  1.2813 -1.8487  2.4439
  605TMC3    C7 8972   2.493   3.124  16.481  0.0040  0.1447  0.0434
  605TMC3    C8 8973   2.912   3.161  16.705 -0.0393  0.1267  0.0529
  605TMC3    O1 8974   2.467   3.239  16.519 -0.3782  0.1985 -0.0166
  605TMC3    O2 8975   2.862   3.195  16.813  0.3145 -0.0092 -0.4324
  606TMC3    C1 8976   4.054   1.266  17.433  0.3376 -0.0110 -0.1808
  606TMC3    C2 8977   4.171   1.324  17.469 -0.4016 -0.2767 -0.6759
  606TMC3    C3 8978   4.211   1.321  17.595  0.3670 -0.0200  0.0327
  606TMC3    C4 8979   3.985   1.193  17.525 -0.4612  0.0594 -0.4230
  606TMC3    C5 8980   4.020   1.194  17.658  0.1097 -0.2239  0.1460
  606TMC3    C6 8981   4.133   1.262   0.006  0.0575 -0.5452 -0.6594
  606TMC3     C 8982   4.015   1.266  17.296  0.5603 -0.7031  0.3894
  606TMC3     O 8983   4.103   1.294  17.217 -0.3336 -0.0708 -0.7238
  606TMC3     H 8984   4.232   1.363  17.388  2.0403 -1.2584  0.7034
  606TMC3    H1 8985   3.901   1.132  17.495 -1.3226 -0.0359  2.1268
  606TMC3    H2 8986   4.164   1.246   0.109 -1.8345  0.4738  0.0837
  606TMC3    C7 8987   3.945   1.118   0.068 -1.0310  0.1753  1.0093
  606TMC3    C8 8988   4.346   1.357  17.629 -0.3317  0.7112 -0.7856
  606TMC3    O1 8989   3.987   1.102   0.180 -0.9603  0.6186  1.1400
  606TMC3    O2 8990   4.367   1.376   0.061 -0.4518  0.1578 -0.6236
  607MPD2     C 8991   1.286   4.130  11.441 -0.1542 -0.5683 -0.5645
  607MPD2    C1 8992   1.330   4.187  11.556  0.6351  0.4976 -0.7739
  607MPD2    C2 8993   1.321   4.114  11.674 -0.0284 -0.3473  0.2350
  607MPD2    C3 8994   1.289   3.979  11.673 -0.8542 -0.1708  0.1762
  607MPD2    C4 8995   1.260   3.922  11.553  0.5640  0.3257  0.2574
  607MPD2    C5 8996   1.255   3.995  11.441  0.4450  1.0819 -0.0386
  607MPD2     H 8997   1.364   4.160  11.762 -2.3224  1.0788  0.6152
  607MPD2    H1 8998   1.243   3.816  11.540 -1.3846  0.5983  0.5782
  607MPD2    H2 8999   1.306   4.182  11.349 -0.2052  1.4966  0.6013
  607MPD2    H3 9000   1.246   3.949  11.343  0.0287  0.1156  0.4575
  607MPD2     N 9001   1.316   3.909  11.794  0.2632  0.5259  0.1289
  607MPD2    H5 9002   1.354   3.968  11.867  2.0347 -2.2694  1.4549
  607MPD2    N1 9003   1.377   4.322  11.565  0.9897 -0.2792  0.0435
  607MPD2    H7 9004   1.404   4.351  11.658  2.0512 -2.6841  0.4876
  608TMC3    C1 9005   1.492   4.520  11.520  0.3476 -0.1929  0.1817
  608TMC3    C2 9006   1.521   4.523  11.659  0.1039  0.7635 -0.6148
  608TMC3    C3 9007   1.633   4.592  11.681  0.3294 -0.5050  0.0948
  608TMC3    C4 9008   1.574   4.572  11.424 -0.3265  0.2417  0.0213
  608TMC3    C5 9009   1.682   4.649  11.459  0.0824 -0.0267 -0.0738
  608TMC3    C6 9010   1.712   4.651  11.586  0.3508 -0.5993 -0.7872
  608TMC3     C 9011   1.410   4.410  11.467  0.4794  0.3548  0.4564
  608TMC3     O 9012   1.388   4.406  11.346 -0.3138  0.2821  0.0761
  608TMC3     H 9013   1.454   4.505  11.741  0.6411 -1.5707 -0.6717
  608TMC3    H1 9014   1.541   4.569  11.321  2.8095 -1.0470 -0.9467
  608TMC3    H2 9015   1.811   4.683  11.616 -0.6031 -0.1402  1.8956
  608TMC3    C7 9016   1.768   4.700  11.354 -0.0698  0.1907  0.4674
  608TMC3    C8 9017   1.673   4.587  11.825  0.4196  0.2252  0.4840
  608TMC3    O1 9018   1.758   4.654  11.240  0.3768 -0.4173  0.0602
  608TMC3    O2 9019   1.736   4.685  11.869 -0.2649  0.0527  0.7859
  609TMC3    C1 9020   0.595   2.059   9.491  0.5305  0.1456 -0.9451
  609TMC3    C2 9021   0.604   2.040   9.356  0.6880  0.6766 -0.1355
  609TMC3    C3 9022   0.726   2.058   9.302 -0.6036 -0.0983 -0.4862
  609TMC3    C4 9023   0.696   2.089   9.571  0.2462 -0.3869 -0.1087
  609TMC3    C5 9024   0.818   2.114   9.509  0.2987 -0.1478 -0.1674
  609TMC3    C6 9025   0.833   2.083   9.378  0.1589  0.8483 -0.7162
  609TMC3     C 9026   0.467   2.066   9.552 -0.4798  0.7801  0.0477
  609TMC3     O 9027   0.452   2.170   9.617  0.0704  0.1353 -0.2982
  609TMC3     H 9028   0.509   2.029   9.306 -0.1675 -0.3282  1.7175
  609TMC3    H1 9029   0.688   2.110   9.677  1.7237 -3.1110  0.5553
  609TMC3    H2 9030   0.930   2.098   9.333  0.6751 -1.8406 -0.5344
  609TMC3    C7 9031   0.934   2.106   9.597  0.4059 -0.5452 -0.1655
  609TMC3    C8 9032   0.762   1.990   9.180  0.2620 -0.1887 -0.1255
  609TMC3    O1 9033   0.918   2.146   9.713 -0.3768  0.1282 -0.7770
  609TMC3    O2 9034   0.875   1.947   9.157  0.0542  0.1723 -0.7175
  610TMC3    C1 9035   2.659   4.471  13.110 -0.5496 -0.8425  0.0017
  610TMC3    C2 9036   2.662   4.530  12.984 -0.1826 -0.0535  0.0845
  610TMC3    C3 9037   2.566   4.489  12.890  0.0323 -0.3452  1.1364
  610TMC3    C4 9038   2.565   4.380  13.146 -0.1508  0.3120 -0.2527
  610TMC3    C5 9039   2.465   4.354  13.054  1.0912  0.1143  0.2499
  610TMC3    C6 9040   2.467   4.399  12.923  0.9431 -0.0072 -0.3779
  610TMC3     C 9041   2.716   4.530  13.227 -0.5959 -0.1695 -0.1755
  610TMC3     O 9042   2.742   4.455  13.319 -0.2757  0.4648  0.1654
  610TMC3     H 9043   2.753   4.580  12.952 -0.9546  0.9804 -0.4813
  610TMC3    H1 9044   2.559   4.338  13.246  1.4828 -1.8755 -1.0581
  610TMC3    H2 9045   2.413   4.350  12.843 -0.3573  1.0095 -0.1164
  610TMC3    C7 9046   2.399   4.221  13.066  0.0080  0.2693  0.1861
  610TMC3    C8 9047   2.589   4.512  12.752  0.4195  0.5004 -0.1285
  610TMC3    O1 9048   2.463   4.133  13.127 -0.2320  0.7851 -0.1147
  610TMC3    O2 9049   2.537   4.438  12.669  0.1015 -0.3414 -0.2028
  611MPD2     C 9050   1.961   3.527  10.067  0.7388 -0.0930  0.1638
  611MPD2    C1 9051   1.892   3.637  10.009  0.0790 -0.2051  0.4794
  611MPD2    C2 9052   1.957   3.748   9.961 -0.0728  0.0041  0.4395
  611MPD2    C3 9053   2.097   3.755   9.968 -0.0759  0.1790 -0.4362
  611MPD2    C4 9054   2.162   3.654  10.032  0.9159  0.4401  0.3167
  611MPD2    C5 9055   2.093   3.546  10.083 -0.4596 -0.6552  0.1640
  611MPD2     H 9056   1.906   3.833   9.918  0.7562  0.3512  0.1549
  611MPD2    H1 9057   2.270   3.658  10.043  0.9537 -0.6866  0.3633
  611MPD2    H2 9058   1.909   3.448  10.119  0.5624 -0.4413 -0.5418
  611MPD2    H3 9059   2.165   3.487  10.139 -2.5206 -1.4996  1.9153
  611MPD2     N 9060   2.174   3.848   9.907  0.0382 -0.0644  0.2625
  611MPD2    H5 9061   2.273   3.852   9.930  0.1290  0.6564 -0.2286
  611MPD2    N1 9062   1.752   3.635  10.029 -0.2936 -0.5384  1.3021
  611MPD2    H7 9063   1.716   3.551  10.073 -2.0095 -0.6479 -0.3293
  612TMC3    C1 9064   2.228   4.044   9.786  0.6150  0.1720  0.7700
  612TMC3    C2 9065   2.334   4.073   9.873  0.0055 -0.1344  0.3172
  612TMC3    C3 9066   2.441   4.147   9.840 -0.5517  0.5781  0.2661
  612TMC3    C4 9067   2.236   4.097   9.660  1.0742 -0.6394 -0.2516
  612TMC3    C5 9068   2.339   4.178   9.625  0.9195 -0.4744  0.0081
  612TMC3    C6 9069   2.447   4.193   9.709  0.5048  0.4354  0.1702
  612TMC3     C 9070   2.125   3.948   9.825  0.0221  0.4974  0.5569
  612TMC3     O 9071   2.014   3.958   9.773 -0.2133  0.2376 -0.0675
  612TMC3     H 9072   2.314   4.039   9.974 -1.4188  1.4215  0.5510
  612TMC3    H1 9073   2.155   4.084   9.590  1.3261 -1.3917 -0.3991
  612TMC3    H2 9074   2.525   4.261   9.677  1.6716 -0.6040  0.8374
  612TMC3    C7 9075   2.352   4.246   9.491 -0.3324  0.0730  0.2998
  612TMC3    C8 9076   2.570   4.166   9.914 -0.0050 -0.1041  0.0091
  612TMC3    O1 9077   2.467   4.276   9.461 -0.5593 -0.5583  0.0255
  612TMC3    O2 9078   2.653   4.241   9.867 -0.2508 -0.1027  0.5156
  613MPD2     C 9079   0.163   1.257  16.560 -0.4134 -0.0710  0.3152
  613MPD2    C1 9080   0.154   1.318  16.440  0.3771 -0.3313 -0.7397
  613MPD2    C2 9081   0.123   1.238  16.325  0.1464 -0.2607  0.1865
  613MPD2    C3 9082   0.098   1.101  16.336  0.2735  0.1739  0.1981
  613MPD2    C4 9083   0.087   1.051  16.466 -0.0531 -0.1359 -0.0421
  613MPD2    C5 9084   0.130   1.123  16.573  0.7892 -1.0540 -0.3711
  613MPD2     H 9085   0.119   1.291  16.231 -0.8113  0.1022  0.4366
  613MPD2    H1 9086   0.049   0.950  16.475 -2.1588  0.5998 -0.7295
  613MPD2    H2 9087   0.181   1.315  16.649  0.9139  1.2623 -0.8357
  613MPD2    H3 9088   0.128   1.077  16.671 -1.2910 -2.4896 -1.0862
  613MPD2     N 9089   0.073   1.011  16.228 -0.0701 -0.6555 -0.4717
  613MPD2    H5 9090   0.069   0.909  16.234  2.1619 -0.7721 -1.2335
  613MPD2    N1 9091   0.189   1.452  16.428 -0.3114  0.1351 -0.4306
  613MPD2    H7 9092   0.255   1.492  16.494 -0.4329  1.4335 -1.0947
  614TMC3    C1 9093   0.290   1.551  16.230  0.1707 -0.3069 -0.3958
  614TMC3    C2 9094   0.375   1.446  16.215  0.3564 -0.2433  0.0441
  614TMC3    C3 9095   0.430   1.424  16.096 -0.0503  0.5490  0.1506
  614TMC3    C4 9096   0.267   1.626  16.121  0.4119 -0.3047 -0.1876
  614TMC3    C5 9097   0.322   1.605  16.000  0.1839  1.0475  0.2654
  614TMC3    C6 9098   0.408   1.500  15.983 -0.0127  0.8288 -0.2277
  614TMC3     C 9099   0.172   1.520  16.307 -0.4104  0.0993 -0.1860
  614TMC3     O 9100   0.072   1.518  16.237  0.0100 -0.0277 -0.0269
  614TMC3     H 9101   0.398   1.380  16.298  1.8421  0.7683  0.4342
  614TMC3    H1 9102   0.203   1.711  16.141  0.6326 -0.1645 -0.0852
  614TMC3    H2 9103   0.457   1.480  15.888  2.2319 -1.7666  1.4521
  614TMC3    C7 9104   0.282   1.700  15.903 -0.2710 -0.1727  0.4916
  614TMC3    C8 9105   0.465   1.284  16.056 -0.0130 -0.4458 -0.0739
  614TMC3    O1 9106   0.206   1.794  15.940 -0.0708 -0.2146 -0.2309
  614TMC3    O2 9107   0.398   1.208  16.116  0.2303  0.0605  0.0138
  615MPD2     C 9108   4.645   2.734  15.814  0.2402  0.0093  0.1887
  615MPD2    C1 9109   4.614   2.863  15.787  0.6887 -0.3328  0.2610
  615MPD2    C2 9110   4.510   2.896  15.694 -0.0441  0.7073  0.5309
  615MPD2    C3 9111   4.456   2.797  15.617 -0.1699  0.2769  0.3891
  615MPD2    C4 9112   4.501   2.665  15.630 -0.4363 -0.1708 -0.1304
  615MPD2    C5 9113   4.595   2.641  15.728  0.3517  0.1215  0.3800
  615MPD2     H 9114   4.475   2.996  15.672  0.0573  0.6217 -0.0216
  615MPD2    H1 9115   4.462   2.582  15.573 -0.0153 -0.6591  0.2974
  615MPD2    H2 9116   4.719   2.705  15.888  2.5926 -0.0974 -2.1777
  615MPD2    H3 9117   4.612   2.534  15.742 -1.7538 -0.2492  0.1521
  615MPD2     N 9118   4.347   2.829  15.535  0.5150 -0.0731 -0.6459
  615MPD2    H5 9119   4.299   2.916  15.553 -1.2088 -0.9180 -1.1718
  615MPD2    N1 9120   4.676   2.969  15.850  0.3875  0.1610  0.1993
  615MPD2    H7 9121   4.633   3.059  15.833 -0.0895  0.4064  2.6917
  616TMC3    C1 9122   0.125   3.088  15.977 -0.4484  0.7757 -0.4178
  616TMC3    C2 9123   0.251   3.113  15.943 -0.4235 -0.1006 -0.2969
  616TMC3    C3 9124   0.331   3.192  16.026 -1.1132  0.5546  0.0567
  616TMC3    C4 9125   0.075   3.139  16.093  1.1415  0.1110  0.4822
  616TMC3    C5 9126   0.156   3.210  16.182 -0.3014 -0.5595  0.5501
  616TMC3    C6 9127   0.287   3.232  16.149  0.0882  0.4996 -0.0066
  616TMC3     C 9128   0.070   2.962  15.927 -0.3397 -0.2514  0.7728
  616TMC3     O 9129   0.138   2.860  15.951  0.2947 -0.5726  0.2104
  616TMC3     H 9130   0.288   3.063  15.854  0.6103  1.2432 -0.6212
  616TMC3    H1 9131   4.695   3.115  16.122  0.7558  2.2846  0.9079
  616TMC3    H2 9132   0.348   3.288  16.218  0.6279 -0.2747  0.1507
  616TMC3    C7 9133   0.106   3.250  16.312 -0.6895  0.8798 -0.2431
  616TMC3    C8 9134   0.472   3.203  15.988  0.7914 -0.0567 -0.1026
  616TMC3    O1 9135   0.003   3.190  16.333 -0.6678 -0.0511 -0.4633
  616TMC3    O2 9136   0.524   3.117  15.914 -0.0903  0.6334 -0.2009
  617MPD2     C 9137   2.685   1.349  14.046 -0.9162 -0.2941  0.0239
  617MPD2    C1 9138   2.724   1.314  14.173 -0.3299 -0.0692 -0.2143
  617MPD2    C2 9139   2.635   1.258  14.261 -0.6528 -0.2191 -0.7775
  617MPD2    C3 9140   2.504   1.242  14.226  0.0978  0.1559  0.8167
  617MPD2    C4 9141   2.462   1.293  14.102  0.4252 -0.0021  0.2542
  617MPD2    C5 9142   2.553   1.349  14.014  0.6477 -0.1799  0.1711
  617MPD2     H 9143   2.660   1.232  14.363 -0.8662 -0.6275 -0.8300
  617MPD2    H1 9144   2.363   1.275  14.062  0.6444  0.5942 -0.5599
  617MPD2    H2 9145   2.755   1.378  13.969  0.6843 -2.5186  0.6234
  617MPD2    H3 9146   2.526   1.380  13.913 -1.0637 -1.4339  0.2354
  617MPD2     N 9147   2.406   1.200  14.319 -0.4521 -0.1607  0.2673
  617MPD2    H5 9148   2.316   1.180  14.276 -1.0850  0.5871  1.2361
  617MPD2    N1 9149   2.862   1.321  14.211  0.1653  0.1749  0.6898
  617MPD2    H7 9150   2.919   1.368  14.141 -2.4706 -3.3715 -3.7797
  618TMC3    C1 9151   3.067   1.278  14.345  0.0684  0.6713 -0.2721
  618TMC3    C2 9152   3.124   1.194  14.436 -0.0752 -0.0237  0.3201
  618TMC3    C3 9153   3.261   1.212  14.451 -0.8030 -0.0721 -0.2752
  618TMC3    C4 9154   3.140   1.372  14.278  0.6334 -0.3946 -0.3191
  618TMC3    C5 9155   3.271   1.385  14.306  0.0894  0.3497 -0.1270
  618TMC3    C6 9156   3.340   1.302  14.387 -0.0958  0.6190  0.1152
  618TMC3     C 9157   2.926   1.263  14.323  0.6908 -0.0812 -0.0867
  618TMC3     O 9158   2.871   1.196  14.408  0.0953  0.4986  0.1665
  618TMC3     H 9159   3.069   1.112  14.479  1.2051 -0.3194  1.3989
  618TMC3    H1 9160   3.096   1.445  14.211 -2.7384  2.2089  4.7717
  618TMC3    H2 9161   3.446   1.306  14.407 -0.4486 -1.4286  2.3646
  618TMC3    C7 9162   3.342   1.450  14.197  0.1297  0.5253  0.5199
  618TMC3    C8 9163   3.329   1.093  14.468  0.1246  0.2558  0.1683
  618TMC3    O1 9164   3.291   1.472  14.089  0.5918 -0.4442 -0.2055
  618TMC3    O2 9165   3.296   1.009  14.551  0.1597  0.8230  0.3178
  619MPD2     C 9166   4.701   2.469  13.276 -0.6136  0.2407  0.1758
  619MPD2    C1 9167   4.607   2.567  13.251  0.0682 -0.2874 -0.3950
  619MPD2    C2 9168   4.487   2.537  13.197  0.2773 -0.5301 -0.7673
  619MPD2    C3 9169   4.459   2.413  13.145 -0.2982  1.1481 -0.8857
  619MPD2    C4 9170   4.556   2.311  13.158  0.6103  0.1935  0.3292
  619MPD2    C5 9171   4.673   2.347  13.223 -0.9974  0.5368  0.5359
  619MPD2     H 9172   4.408   2.611  13.187 -1.0021 -1.6618  1.1614
  619MPD2    H1 9173   4.542   2.208  13.129 -3.1316  0.9866 -0.6927
  619MPD2    H2 9174   0.076   2.482  13.324 -0.4123 -0.4339 -0.0381
  619MPD2    H3 9175   0.026   2.268  13.225 -0.1872  1.2871 -0.1773
  619MPD2     N 9176   4.335   2.387  13.078  0.3811 -0.0605 -0.3052
  619MPD2    H5 9177   4.315   2.288  13.078 -0.7527  0.1626  1.4966
  619MPD2    N1 9178   4.633   2.704  13.277  0.5970  0.2251 -0.0633
  619MPD2    H7 9179   4.557   2.769  13.260  1.2039  0.6224 -1.2259
  620TMC3    C1 9180   0.014   2.902  13.340  0.6613  0.3220  0.0753
  620TMC3    C2 9181   4.702   2.974  13.226 -0.1086 -0.9182  0.9684
  620TMC3    C3 9182   4.708   3.111  13.241  0.4815  0.0572 -0.5941
  620TMC3    C4 9183   0.062   2.957  13.455 -0.1734 -0.3004  0.3208
  620TMC3    C5 9184   0.073   3.092  13.468  0.4673 -0.2307 -0.5922
  620TMC3    C6 9185   0.049   3.163  13.353  0.4134 -0.6604  0.7004
  620TMC3     C 9186   0.031   2.755  13.331  0.0284  0.3111  0.1922
  620TMC3     O 9187   0.139   2.704  13.370  0.6180 -0.4557 -0.4999
  620TMC3     H 9188   4.660   2.922  13.141 -1.1607  0.7995  0.4515
  620TMC3    H1 9189   0.070   2.896  13.544 -0.4119 -1.7771 -0.6689
  620TMC3    H2 9190   0.069   3.269  13.358 -0.0380 -0.5286 -0.4112
  620TMC3    C7 9191   0.022   3.138  13.591 -0.6690  0.0363 -0.3920
  620TMC3    C8 9192   4.586   3.171  13.204  0.6416  0.1354  0.2371
  620TMC3    O1 9193   0.054   3.087  13.695 -0.9878  0.3925  0.6384
  620TMC3    O2 9194   4.542   3.247  13.291 -0.0596  0.5379  0.5953
  621MPD2     C 9195   0.360   2.277   9.907  0.1547  0.3707  0.6095
  621MPD2    C1 9196   0.466   2.213   9.980 -0.1367 -0.0522  0.1497
  621MPD2    C2 9197   0.543   2.290  10.069  0.1519  0.1168 -0.1392
  621MPD2    C3 9198   0.521   2.424  10.090 -0.8092 -0.4003 -0.4612
  621MPD2    C4 9199   0.410   2.482  10.026 -0.6760  0.1460 -0.3694
  621MPD2    C5 9200   0.336   2.409   9.933 -0.5792 -0.3653 -0.5826
  621MPD2     H 9201   0.622   2.241  10.124 -0.0391 -1.5478 -1.3488
  621MPD2    H1 9202   0.386   2.588  10.028 -0.7536  0.0615  3.7821
  621MPD2    H2 9203   0.322   2.223   9.822  1.3922 -1.4049  1.1891
  621MPD2    H3 9204   0.255   2.458   9.880 -1.4309 -1.2122 -0.0586
  621MPD2     N 9205   0.600   2.494  10.181 -0.2702  0.8751  0.6582
  621MPD2    H5 9206   0.692   2.454  10.200 -0.4899  0.0327 -0.0368
  621MPD2    N1 9207   0.494   2.075   9.962 -0.3029  0.0858  0.2032
  621MPD2    H7 9208   0.593   2.054   9.964 -0.3929 -0.2627  0.9572
  622TMC3    C1 9209   0.465   1.857   9.885  0.2863 -0.6374  0.1172
  622TMC3    C2 9210   0.536   1.831  10.000 -0.0485 -0.1795  0.3335
  622TMC3    C3 9211   0.508   1.716  10.062  0.8716  0.2718  0.1718
  622TMC3    C4 9212   0.376   1.766   9.826  0.0165 -0.4631  0.1408
  622TMC3    C5 9213   0.355   1.653   9.902 -0.3647 -0.3143 -0.5628
  622TMC3    C6 9214   0.418   1.620  10.014  0.0090 -0.2433  0.6963
  622TMC3     C 9215   0.415   1.988   9.889 -0.3335  0.4385 -0.2402
  622TMC3     O 9216   0.291   1.998   9.874  0.1771 -0.0548  0.2469
  622TMC3     H 9217   0.611   1.897  10.042  0.4623 -0.1627 -0.6017
  622TMC3    H1 9218   0.302   1.799   9.754 -0.0625 -1.9676 -0.4485
  622TMC3    H2 9219   0.402   1.524  10.062  1.2118 -1.0887 -0.5822
  622TMC3    C7 9220   0.218   1.596   9.902  0.0479  0.2981 -0.3389
  622TMC3    C8 9221   0.503   1.744  10.202 -0.1171  0.2911 -0.0361
  622TMC3    O1 9222   0.170   1.571  10.013 -0.0832 -0.7001 -0.0342
  622TMC3    O2 9223   0.588   1.819  10.253 -0.0695 -0.3217  0.5026
  623MPD2     C 9224   3.283   3.274  15.946 -0.4099  0.3946 -0.0439
  623MPD2    C1 9225   3.256   3.260  16.077 -0.2343 -0.5456 -0.3811
  623MPD2    C2 9226   3.362   3.240  16.166  0.4733 -0.7482 -0.2899
  623MPD2    C3 9227   3.494   3.252  16.123 -0.7609 -0.5459 -0.2008
  623MPD2    C4 9228   3.518   3.256  15.986 -0.1375 -0.2153 -0.7112
  623MPD2    C5 9229   3.415   3.265  15.897  0.1300  0.5754  0.1003
  623MPD2     H 9230   3.342   3.241  16.273 -1.3307 -1.2062 -0.6361
  623MPD2    H1 9231   3.619   3.257  15.945  0.5108  1.5812  0.9028
  623MPD2    H2 9232   3.198   3.277  15.878 -0.5373 -1.5751  0.0339
  623MPD2    H3 9233   3.429   3.261  15.790  2.0924 -1.1328  0.4309
  623MPD2     N 9234   3.597   3.265  16.217  0.4933  0.5049 -0.3680
  623MPD2    H5 9235   3.572   3.259  16.315  1.9891  1.6141  0.0772
  623MPD2    N1 9236   3.120   3.265  16.116  0.5231  0.4596  0.5117
  623MPD2    H7 9237   3.055   3.302  16.047 -0.0527  0.7078  1.1823
  624TMC3    C1 9238   3.817   3.175  16.506 -0.6202  0.1304  0.0724
  624TMC3    C2 9239   3.736   3.252  16.584 -0.5097  0.3407 -0.5631
  624TMC3    C3 9240   3.660   3.350  16.524  0.3476  0.5394 -0.4078
  624TMC3    C4 9241   3.854   3.221  16.379 -0.0566 -0.1457  0.1583
  624TMC3    C5 9242   3.783   3.326  16.326 -0.1943  0.0327 -0.3970
  624TMC3    C6 9243   3.693   3.391  16.398  0.9143  0.5662 -0.3807
  624TMC3     C 9244   3.882   3.060  16.561 -0.1135  0.0740 -0.3325
  624TMC3     O 9245   3.841   3.036  16.670 -0.1582  0.1380 -0.6195
  624TMC3     H 9246   3.714   3.210  16.681 -0.9210  0.8056 -0.4560
  624TMC3    H1 9247   3.917   3.166  16.310  0.2704 -1.9399  1.9185
  624TMC3    H2 9248   3.649   3.479  16.351 -1.2636  0.0633  0.7305
  624TMC3    C7 9249   3.733   3.292  16.192  0.5172 -0.3240  0.1047
  624TMC3    C8 9250   3.521   3.342  16.553 -0.4434 -0.7089 -0.2522
  624TMC3    O1 9251   3.800   3.286  16.090  0.2905 -0.5106  0.1280
  624TMC3    O2 9252   3.446   3.301  16.462 -0.2907 -0.2008  0.4030
  625MPD2     C 9253   3.778   0.113   1.311  0.1787 -0.2934  0.0424
  625MPD2    C1 9254   3.801   0.162   1.180 -0.0720 -0.4039  0.0334
  625MPD2    C2 9255   3.930   0.170   1.136  0.0542  0.0348 -0.2202
  625MPD2    C3 9256   4.037   0.139   1.219 -0.5912  0.7616 -0.4351
  625MPD2    C4 9257   4.013   0.097   1.342  0.1974  0.3547 -0.2835
  625MPD2    C5 9258   3.884   0.089   1.392 -0.4534  0.0469 -0.1628
  625MPD2     H 9259   3.954   0.228   1.047  1.3993  0.5501  0.4713
  625MPD2    H1 9260   4.093   0.078   1.412  2.1298  1.6960 -2.1240
  625MPD2    H2 9261   3.683   0.102   1.363  0.6829  0.5071  1.1375
  625MPD2    H3 9262   3.865   0.074   1.497 -0.7963  0.1992 -0.2041
  625MPD2     N 9263   4.168   0.144   1.166  0.0643  0.0571  0.2227
  625MPD2    H5 9264   4.176   0.169   1.068 -0.0072  1.8514  0.6809
  625MPD2    N1 9265   3.689   0.204   1.108  0.2986  0.5921 -0.5646
  625MPD2    H7 9266   3.599   0.189   1.152  1.8208 -1.1891  1.9496
  626TMC3    C1 9267   3.545   0.294   0.939 -0.0769 -0.1187 -0.1519
  626TMC3    C2 9268   3.495   0.283   0.812  0.7377  0.6086 -0.2890
  626TMC3    C3 9269   3.357   0.308   0.787  0.3303  0.4157  0.3989
  626TMC3    C4 9270   3.469   0.339   1.041  0.0380  0.2249 -0.4893
  626TMC3    C5 9271   3.336   0.370   1.017 -0.1997  0.7093 -0.6173
  626TMC3    C6 9272   3.282   0.348   0.897 -0.2285  0.6202 -0.0144
  626TMC3     C 9273   3.681   0.247   0.970  0.0424 -0.1612 -0.9310
  626TMC3     O 9274   3.768   0.253   0.886 -0.1481  0.8251 -0.0409
  626TMC3     H 9275   3.557   0.242   0.733  1.0044 -2.1491  1.3563
  626TMC3    H1 9276   3.506   0.361   1.141  0.1974  0.5368 -0.6168
  626TMC3    H2 9277   3.176   0.369   0.895 -0.0954  1.4223  1.3223
  626TMC3    C7 9278   3.257   0.399   1.135  0.0710  0.0432 -0.0212
  626TMC3    C8 9279   3.307   0.316   0.654 -0.0243 -0.2729 -0.0540
  626TMC3    O1 9280   3.298   0.355   1.243 -0.2584  0.0076 -0.2499
  626TMC3    O2 9281   3.383   0.303   0.558 -0.2174  0.4092  0.1404
  627MPD2     C 9282   2.955   0.148  14.907  0.0898  0.9100 -0.5165
  627MPD2    C1 9283   2.838   0.207  14.937  0.2010 -0.2192  0.4350
  627MPD2    C2 9284   2.724   0.163  14.870  0.4072 -0.3512  0.3445
  627MPD2    C3 9285   2.736   0.066  14.771 -0.2085 -0.7790 -0.2270
  627MPD2    C4 9286   2.864   0.015  14.740 -0.5613  0.3034  0.0593
  627MPD2    C5 9287   2.973   0.046  14.818 -0.4358  0.1218 -0.2290
  627MPD2     H 9288   2.627   0.198  14.901  0.1061  0.1794 -1.2217
  627MPD2    H1 9289   2.882   4.659  14.666  3.9210 -0.5454  2.0322
  627MPD2    H2 9290   3.043   0.179  14.963  0.0828  0.1838 -0.1071
  627MPD2    H3 9291   3.074   0.012  14.800 -0.4628 -0.9659  1.7721
  627MPD2     N 9292   2.614   0.012  14.718 -0.2283  0.1268 -0.6317
  627MPD2    H5 9293   2.525   0.051  14.747  0.7641  2.2069 -0.4030
  627MPD2    N1 9294   2.846   0.313  15.032 -0.0714  0.3366  0.4837
  627MPD2    H7 9295   2.934   0.333  15.079  1.1535 -0.2368 -1.5415
  628TMC3    C1 9296   2.772   0.491  15.174 -0.0116 -0.1824  0.1366
  628TMC3    C2 9297   2.886   0.466  15.251  0.0976  0.5575  0.0005
  628TMC3    C3 9298   2.921   0.552  15.347 -0.0302 -0.7695  0.0681
  628TMC3    C4 9299   2.694   0.597  15.193 -0.0280 -0.2157  0.5288
  628TMC3    C5 9300   2.740   0.684  15.297  0.1033  0.2636 -0.4156
  628TMC3    C6 9301   2.855   0.671  15.371  0.0405  0.3038 -0.9566
  628TMC3     C 9302   2.732   0.388  15.080  0.2720 -0.6470  0.3406
  628TMC3     O 9303   2.612   0.386  15.042  0.1789 -0.0179  0.0324
  628TMC3     H 9304   2.947   0.377  15.242 -0.4329  0.3375 -1.3836
  628TMC3    H1 9305   2.635   0.619  15.105 -1.6233  0.2680  1.7216
  628TMC3    H2 9306   2.881   0.739  15.452 -1.6770  0.6662 -0.7097
  628TMC3    C7 9307   2.662   0.812  15.313 -0.0936  0.9383 -0.2544
  628TMC3    C8 9308   3.042   0.539  15.429 -0.0468  0.5546 -0.5682
  628TMC3    O1 9309   2.676   0.870  15.422  0.5693 -0.3871  0.2471
  628TMC3    O2 9310   3.096   0.641  15.472 -0.3324  0.3426 -0.2128
  629MPD2     C 9311   0.945   3.402  16.028 -1.0033  0.7078  0.7687
  629MPD2    C1 9312   0.857   3.486  16.092  0.9128  0.1151 -0.2410
  629MPD2    C2 9313   0.721   3.453  16.101 -0.6692 -0.5822  0.1955
  629MPD2    C3 9314   0.674   3.341  16.037  0.3995 -0.0606 -0.0062
  629MPD2    C4 9315   0.765   3.257  15.976  0.8378 -0.1959  0.1603
  629MPD2    C5 9316   0.900   3.286  15.974 -0.0922 -0.5793 -0.5513
  629MPD2     H 9317   0.654   3.518  16.156 -0.2505 -1.1971  1.4371
  629MPD2    H1 9318   0.738   3.155  15.950  1.1891 -0.1801 -0.2680
  629MPD2    H2 9319   1.047   3.436  16.023 -1.6614  2.6614  0.4998
  629MPD2    H3 9320   0.972   3.227  15.919  1.6897  1.1935 -0.1151
  629MPD2     N 9321   0.533   3.312  16.044  0.0451 -0.6333  0.1552
  629MPD2    H5 9322   0.475   3.368  16.105 -1.2587 -1.4798 -0.3134
  629MPD2    N1 9323   0.907   3.599  16.155 -0.1725 -0.2697  0.6653
  629MPD2    H7 9324   1.008   3.610  16.146 -0.1965 -0.9803 -0.4117
  630TMC3    C1 9325   0.942   3.772  16.320  0.0914  0.4114  0.5469
  630TMC3    C2 9326   1.058   3.811  16.270  0.2326 -0.3300 -0.2679
  630TMC3    C3 9327   1.175   3.816  16.334 -0.0440 -0.3097 -0.7420
  630TMC3    C4 9328   0.939   3.740  16.460  0.0329  0.1194 -0.2358
  630TMC3    C5 9329   1.055   3.727  16.518 -0.0052  0.1440  0.4523
  630TMC3    C6 9330   1.174   3.761  16.462 -0.0766  0.2384 -0.3176
  630TMC3     C 9331   0.846   3.685  16.244 -0.7345  0.1443  0.3881
  630TMC3     O 9332   0.735   3.683  16.292 -0.3268 -0.3344 -0.1552
  630TMC3     H 9333   1.062   3.833  16.164 -2.7699 -0.5310 -0.4084
  630TMC3    H1 9334   0.850   3.696  16.503 -0.1196  1.0998  0.4445
  630TMC3    H2 9335   1.269   3.756  16.512 -0.7372  1.2334  1.0429
  630TMC3    C7 9336   1.050   3.647  16.641  0.2540  0.0056 -1.1253
  630TMC3    C8 9337   1.295   3.889  16.306 -0.4550 -0.6191 -0.2764
  630TMC3    O1 9338   0.954   3.586  16.670 -0.3430  0.1904 -0.2328
  630TMC3    O2 9339   1.363   3.922  16.404 -0.0960 -0.1266  0.8480
  631MPD2     C 9340   3.410   3.010  15.703  0.3544  0.1921 -0.0274
  631MPD2    C1 9341   3.429   3.035  15.568 -0.0600 -0.3133 -0.6393
  631MPD2    C2 9342   3.550   3.003  15.500  0.1597 -0.9655 -0.5787
  631MPD2    C3 9343   3.646   2.941  15.568  0.1009 -0.7497 -0.2870
  631MPD2    C4 9344   3.630   2.917  15.705  0.8639 -0.2603  0.2558
  631MPD2    C5 9345   3.519   2.962  15.763  0.6257 -0.5371  0.0087
  631MPD2     H 9346   3.570   3.036  15.399 -1.0997  0.3883 -0.3724
  631MPD2    H1 9347   3.696   2.864  15.774  0.0107 -2.0936 -0.3265
  631MPD2    H2 9348   3.325   3.035  15.765 -0.1983 -0.6305 -0.4462
  631MPD2    H3 9349   3.507   2.954  15.871  0.7463 -1.8590 -0.0816
  631MPD2     N 9350   3.754   2.894  15.490 -0.6102  0.1466  0.0409
  631MPD2    H5 9351   3.747   2.917  15.392 -0.5001 -0.0077 -0.0032
  631MPD2    N1 9352   3.322   3.104  15.506 -0.4113 -0.0962 -0.5596
  631MPD2    H7 9353   3.247   3.132  15.568 -1.5518  0.3657 -2.1463
  632TMC3    C1 9354   3.239   3.248  15.346  0.0808 -0.1754 -0.1802
  632TMC3    C2 9355   3.222   3.319  15.465  0.9099 -0.0145 -0.3655
  632TMC3    C3 9356   3.276   3.443  15.470  0.0703 -0.6081  0.2360
  632TMC3    C4 9357   3.284   3.300  15.232 -0.7623  0.3763 -0.0941
  632TMC3    C5 9358   3.332   3.424  15.246 -0.6626 -0.2027  0.0031
  632TMC3    C6 9359   3.336   3.498  15.363  0.3769 -0.3999 -0.4876
  632TMC3     C 9360   3.306   3.125  15.375 -0.0802  0.2432  0.2536
  632TMC3     O 9361   3.368   3.076  15.278 -0.1937  0.2065  0.1438
  632TMC3     H 9362   3.159   3.281  15.544  1.3961 -1.1080 -0.5049
  632TMC3    H1 9363   3.302   3.247  15.140 -1.6060  0.1179 -0.1122
  632TMC3    H2 9364   3.374   3.599  15.365  2.0097 -1.0547  2.6727
  632TMC3    C7 9365   3.400   3.481  15.135  0.1521 -0.0364 -0.2849
  632TMC3    C8 9366   3.261   3.511  15.596  0.3246 -0.5920 -0.5962
  632TMC3    O1 9367   3.352   3.438  15.031 -0.3004 -0.3862  0.6232
  632TMC3    O2 9368   3.201   3.453  15.682  0.8208 -0.1766  0.0903
  633MPD2     C 9369   3.083   1.563  17.417 -0.0705  0.4097 -0.2721
  633MPD2    C1 9370   3.082   1.493  17.299 -0.0910  0.4982  0.2810
  633MPD2    C2 9371   3.071   1.354  17.304  0.2252  0.7541  0.1814
  633MPD2    C3 9372   3.048   1.285  17.418 -0.0028  1.0743 -1.4902
  633MPD2    C4 9373   3.036   1.360  17.532 -0.4836 -1.0992  0.4190
  633MPD2    C5 9374   3.059   1.494  17.529  0.4429 -0.8801  0.0271
  633MPD2     H 9375   3.061   1.300  17.210  0.8670 -2.3873  1.8912
  633MPD2    H1 9376   3.025   1.324  17.633 -1.3620  0.6729  0.9707
  633MPD2    H2 9377   3.106   1.669  17.422  0.1848  0.3471 -0.1420
  633MPD2    H3 9378   3.052   1.547  17.624  0.6920 -0.4822 -0.1750
  633MPD2     N 9379   3.055   1.151  17.427 -0.4400  0.4277 -0.3590
  633MPD2    H5 9380   3.051   1.108  17.519  0.2628  2.3495  0.5746
  633MPD2    N1 9381   3.113   1.551  17.174  0.1077 -0.4513 -0.8781
  633MPD2    H7 9382   3.126   1.493  17.092  1.5208  1.4243 -1.9930
  634TMC3    C1 9383   3.199   1.702  17.021  0.7901 -0.0847 -0.4340
  634TMC3    C2 9384   3.288   1.612  16.981 -0.9617  0.5797 -0.7035
  634TMC3    C3 9385   3.359   1.645  16.867 -0.2123 -0.6141  0.2022
  634TMC3    C4 9386   3.163   1.809  16.937  0.5004 -0.9357  0.2720
  634TMC3    C5 9387   3.233   1.832  16.823 -0.0736 -0.1889 -0.4445
  634TMC3    C6 9388   3.335   1.750  16.788 -0.1076  0.5634  0.2085
  634TMC3     C 9389   3.134   1.686  17.150 -0.2178  0.3900 -0.4258
  634TMC3     O 9390   3.101   1.781  17.217  0.2901  0.5315 -0.1817
  634TMC3     H 9391   3.313   1.522  17.037  3.0478  1.2467 -1.4282
  634TMC3    H1 9392   3.090   1.873  16.986  0.8843  0.2564 -0.7277
  634TMC3    H2 9393   3.378   1.764  16.689 -1.1103  0.3485 -0.2586
  634TMC3    C7 9394   3.199   1.941  16.739 -0.0194 -0.2867  0.0447
  634TMC3    C8 9395   3.430   1.528  16.797 -0.7008  0.3616 -0.0239
  634TMC3    O1 9396   3.284   1.964  16.660  0.4205  0.0627 -0.2862
  634TMC3    O2 9397   3.431   1.420  16.854 -0.2225  0.6198  0.9502
  635TMC3    C1 9398   3.417   1.904   0.164 -0.5743  0.0582 -1.2417
  635TMC3    C2 9399   3.445   1.821   0.063  0.0099  0.0904  0.1698
  635TMC3    C3 9400   3.415   1.686   0.078  0.1478 -0.2359  0.2661
  635TMC3    C4 9401   3.360   1.859   0.281  0.0946  0.2758 -0.3141
  635TMC3    C5 9402   3.360   1.723   0.302 -0.1254  0.0624 -0.4489
  635TMC3    C6 9403   3.377   1.637   0.199  0.2752  0.1350 -0.4125
  635TMC3     C 9404   3.454   2.050   0.162 -0.2184  0.2515  0.3119
  635TMC3     O 9405   3.451   2.100   0.274 -0.1813  0.0433  0.1887
  635TMC3     H 9406   3.487   1.860  17.658  2.3105  1.0950  1.6480
  635TMC3    H1 9407   3.345   1.923   0.367  1.3586 -1.9719  1.5977
  635TMC3    H2 9408   3.368   1.529   0.206 -0.6788  0.1812 -0.9748
  635TMC3    C7 9409   3.329   1.673   0.435  0.1867  0.1456 -0.1231
  635TMC3    C8 9410   3.398   1.602  17.653 -0.7342  0.0817  0.1741
  635TMC3    O1 9411   3.291   1.754   0.518 -0.0883  0.7679  0.1033
  635TMC3    O2 9412   3.329   1.504  17.672  0.0804 -0.4879  0.0957
  636MPD2     C 9413   0.013   1.596  15.569 -0.4748  0.0646  0.3304
  636MPD2    C1 9414   0.006   1.589  15.704 -0.1286 -0.0239  0.3083
  636MPD2    C2 9415   0.030   1.473  15.768  0.4109  0.4405  0.7185
  636MPD2    C3 9416   0.094   1.374  15.698  0.1501 -0.2228 -0.0315
  636MPD2    C4 9417   0.111   1.386  15.563  0.0243 -0.6856 -0.0963
  636MPD2    C5 9418   0.059   1.493  15.500  0.1178 -0.0326 -0.5418
  636MPD2     H 9419   0.014   1.463  15.875  0.7064 -2.0326  0.5197
  636MPD2    H1 9420   0.177   1.321  15.507  1.6384  0.0786  0.9174
  636MPD2    H2 9421   4.700   1.682  15.512  0.3073  0.1605  0.0007
  636MPD2    H3 9422   0.089   1.510  15.398 -0.8901 -0.0126 -0.8328
  636MPD2     N 9423   0.116   1.249  15.765  0.0512 -0.5022  0.3308
  636MPD2    H5 9424   0.084   1.249  15.862 -2.3846  0.1366 -0.4751
  636MPD2    N1 9425   4.669   1.696  15.775  0.3414  0.2742  1.0475
  636MPD2    H7 9426   4.654   1.677  15.874  0.9515  0.3470  1.1526
  637TMC3    C1 9427   0.126   1.016  15.779 -0.8015  0.0867 -0.9229
  637TMC3    C2 9428   0.039   1.030  15.880  0.0705 -0.1993 -0.5858
  637TMC3    C3 9429   0.061   0.962  15.997  0.4281 -0.1728  0.6216
  637TMC3    C4 9430   0.221   0.918  15.785 -0.1314 -0.0969 -0.0119
  637TMC3    C5 9431   0.243   0.850  15.905  0.5225  0.1361 -0.3534
  637TMC3    C6 9432   0.156   0.868  16.012  0.5380  0.1228  1.0515
  637TMC3     C 9433   0.140   1.131  15.695 -0.4139 -0.4180  0.2518
  637TMC3     O 9434   0.174   1.102  15.581  0.0066  0.0814 -0.3238
  637TMC3     H 9435   4.673   1.093  15.868  0.9180  1.5377  2.3316
  637TMC3    H1 9436   0.295   0.906  15.706 -0.5838 -0.2853 -0.4091
  637TMC3    H2 9437   0.195   0.818  16.100  1.4096  3.4928  2.5519
  637TMC3    C7 9438   0.344   0.753  15.917  0.0783  0.0208 -0.3178
  637TMC3    C8 9439   0.062   1.061  16.104 -0.2480  0.1039  0.1081
  637TMC3    O1 9440   0.307   0.643  15.960 -0.0787 -0.1617 -0.5993
  637TMC3    O2 9441   0.030   1.168  16.058  0.1725 -0.3642 -0.0868
  638MPD2     C 9442   0.209   0.484  15.051  0.0152 -0.0008  0.5000
  638MPD2    C1 9443   0.144   0.369  14.990  0.0265 -0.2159 -0.1693
  638MPD2    C2 9444   0.090   0.261  15.062  0.3823  0.5587  0.2438
  638MPD2    C3 9445   0.086   0.271  15.203  0.2805 -0.4516 -1.3038
  638MPD2    C4 9446   0.145   0.385  15.261  0.2869  0.3054 -0.2663
  638MPD2    C5 9447   0.205   0.486  15.189 -0.3432 -0.0686  0.5078
  638MPD2     H 9448   0.031   0.180  15.021  0.5389  0.2152  0.6918
  638MPD2    H1 9449   0.137   0.402  15.368  2.7703  2.8966 -0.4950
  638MPD2    H2 9450   0.260   0.568  15.006  0.6734 -1.0038 -0.6327
  638MPD2    H3 9451   0.228   0.576  15.246 -0.3144 -0.7783  1.6084
  638MPD2     N 9452   0.009   0.171  15.277  0.1487  0.5127 -0.6440
  638MPD2    H5 9453   4.676   0.100  15.230  0.5334 -0.4128  0.3139
  638MPD2    N1 9454   0.132   0.378  14.848 -0.3084 -0.5653  1.1330
  638MPD2    H7 9455   0.165   0.464  14.806 -0.2361 -0.7107  0.8897
  639TMC3    C1 9456   4.627   0.056  15.463  0.5005  0.3212 -0.0327
  639TMC3    C2 9457   4.534   0.010  15.376  0.2052  0.1108 -0.4830
  639TMC3    C3 9458   4.453   4.629  15.421  0.1578 -0.2844 -0.4691
  639TMC3    C4 9459   4.649   0.016  15.588  0.0767 -0.4831 -0.5068
  639TMC3    C5 9460   4.572   4.626  15.628  0.0943 -0.2457  0.4051
  639TMC3    C6 9461   4.463   4.577  15.548 -0.2191  0.3521 -0.3414
  639TMC3     C 9462   0.005   0.156  15.415 -0.2971  0.5764  0.4090
  639TMC3     O 9463   0.062   0.221  15.503  0.5471  0.8078  1.0685
  639TMC3     H 9464   4.501   0.063  15.288 -0.3894 -0.8966 -0.8709
  639TMC3    H1 9465   0.006   0.063  15.646 -1.4288  0.9792  0.3174
  639TMC3    H2 9466   4.416   4.482  15.569 -0.4214  0.9631  1.9655
  639TMC3    C7 9467   4.647   4.519  15.698 -0.0473  0.8755 -0.4395
  639TMC3    C8 9468   4.383   4.549  15.326  0.0127 -0.0285 -0.4319
  639TMC3    O1 9469   4.579   4.427  15.747  0.0531  0.1053 -0.8627
  639TMC3    O2 9470   4.421   4.563  15.212  0.3461  0.3611  0.0719
  640MPD2     C 9471   0.831   3.639  10.099  0.1299  0.4061 -0.0893
  640MPD2    C1 9472   0.710   3.583  10.048  0.4700  0.3599  0.3183
  640MPD2    C2 9473   0.610   3.667  10.005 -0.4410 -1.0930  0.0053
  640MPD2    C3 9474   0.618   3.800  10.029  0.0919 -0.2799 -0.3489
  640MPD2    C4 9475   0.740   3.857  10.069 -0.1945 -0.5935  0.2273
  640MPD2    C5 9476   0.843   3.775  10.103  0.4665  0.8736  0.3581
  640MPD2     H 9477   0.514   3.628   9.973 -0.7218  1.4707 -2.3285
  640MPD2    H1 9478   0.757   3.964  10.075 -2.2596 -0.0628 -3.2341
  640MPD2    H2 9479   0.907   3.573  10.140  0.2510  0.3870 -0.3430
  640MPD2    H3 9480   0.930   3.826  10.144  1.4465 -1.5484  1.2963
  640MPD2     N 9481   0.515   3.889   9.995 -0.1111  0.0077 -0.0553
  640MPD2    H5 9482   0.544   3.986   9.985  0.3548  0.1358  2.4428
  640MPD2    N1 9483   0.705   3.444  10.043 -0.1650 -0.3688  0.5861
  640MPD2    H7 9484   0.795   3.403  10.063 -0.1283 -1.2635 -1.3526
  641TMC3    C1 9485   0.636   3.224   9.994  0.4053 -0.3846 -0.3189
  641TMC3    C2 9486   0.706   3.164  10.095  0.3977 -0.2098 -0.5904
  641TMC3    C3 9487   0.715   3.022  10.090  0.1499 -1.0231 -0.0176
  641TMC3    C4 9488   0.551   3.154   9.910 -0.3436  0.4061  0.4037
  641TMC3    C5 9489   0.534   3.017   9.943 -0.4988  0.1892  0.2911
  641TMC3    C6 9490   0.616   2.949  10.026  0.1277  0.1409  0.6569
  641TMC3     C 9491   0.603   3.371   9.999  0.2185 -0.1465  1.1482
  641TMC3     O 9492   0.503   3.400   9.938 -0.1686 -0.3185  0.5386
  641TMC3     H 9493   0.768   3.217  10.167  0.5297 -2.0909  0.6822
  641TMC3    H1 9494   0.480   3.199   9.842 -0.0172 -1.1470 -0.9561
  641TMC3    H2 9495   0.612   2.843  10.003 -0.3360  0.6318 -1.5671
  641TMC3    C7 9496   0.439   2.945   9.862  0.5224 -0.0054 -1.2033
  641TMC3    C8 9497   0.842   2.947  10.109  0.0001  0.4183  0.8213
  641TMC3    O1 9498   0.410   2.992   9.751 -0.0866 -0.4721 -0.5823
  641TMC3    O2 9499   0.851   2.830  10.077 -0.2042  0.2511 -0.5399
  642TMC3    C1 9500   2.105   0.478  12.426 -0.6738  0.4065  0.3569
  642TMC3    C2 9501   2.161   0.502  12.552 -0.1365 -0.0464  0.6781
  642TMC3    C3 9502   2.108   0.433  12.661 -0.0638  0.2509 -0.3222
  642TMC3    C4 9503   1.995   0.397  12.410  0.2333 -0.7307 -0.7334
  642TMC3    C5 9504   1.943   0.344  12.525  0.1412  0.7440 -0.3757
  642TMC3    C6 9505   2.002   0.351  12.648  0.1112 -0.2053 -0.8337
  642TMC3     C 9506   2.090   0.593  12.334  0.1857  0.0652 -0.0134
  642TMC3     O 9507   2.192   0.656  12.320 -0.1652 -0.3181  0.0923
  642TMC3     H 9508   2.223   0.590  12.563  0.5884 -0.3550 -0.8929
  642TMC3    H1 9509   1.954   0.384  12.310  0.7486 -2.9234 -0.6530
  642TMC3    H2 9510   1.965   0.299  12.735 -0.8461 -0.9648 -1.6965
  642TMC3    C7 9511   1.825   0.269  12.510  0.2579  0.7627 -0.2626
  642TMC3    C8 9512   2.136   0.470  12.806  0.4607 -0.1740  0.6846
  642TMC3    O1 9513   1.818   0.204  12.404  0.9882  0.3020 -0.2015
  642TMC3    O2 9514   2.050   0.439  12.890  0.2599 -0.1646  0.2910
  643TMC3    C1 9515   0.351   4.269   0.414  0.2629 -0.3419  0.4362
  643TMC3    C2 9516   0.292   4.309   0.289  0.2862 -0.3102 -0.1766
  643TMC3    C3 9517   0.334   4.256   0.172  0.1183  0.2237  0.2576
  643TMC3    C4 9518   0.471   4.189   0.410 -0.4229  0.2326  0.2352
  643TMC3    C5 9519   0.510   4.149   0.285 -0.3194 -0.5499 -0.2456
  643TMC3    C6 9520   0.438   4.166   0.167 -0.8549 -0.4019  0.0303
  643TMC3     C 9521   0.345   4.365   0.517 -0.1088  0.6005  0.0762
  643TMC3     O 9522   0.305   4.475   0.471  0.4691 -0.7981 -0.3045
  643TMC3     H 9523   0.200   4.367   0.292  0.7577  0.4507 -0.3737
  643TMC3    H1 9524   0.536   4.174   0.495  0.2357  0.2065 -0.2678
  643TMC3    H2 9525   0.472   4.124   0.073 -1.5739  0.8687 -0.7944
  643TMC3    C7 9526   0.656   4.164   0.262  0.5405  0.2902 -0.1001
  643TMC3    C8 9527   0.319   4.344   0.063 -0.5238  0.0360  0.2192
  643TMC3    O1 9528   0.713   4.234   0.343  0.1580  0.0649  0.1454
  643TMC3    O2 9529   0.374   4.308  17.646 -0.3613  0.0936 -0.0725
  644MPD2     C 9530   1.003   3.778   9.804 -0.1489  0.4363 -0.7174
  644MPD2    C1 9531   0.958   3.685   9.708 -0.0602  0.1604 -0.4812
  644MPD2    C2 9532   0.925   3.740   9.584 -0.6299 -0.2814  0.3911
  644MPD2    C3 9533   0.934   3.877   9.564 -0.2321 -0.0804  0.2336
  644MPD2    C4 9534   0.980   3.966   9.662  0.3595  0.4683  0.5245
  644MPD2    C5 9535   1.010   3.910   9.786  0.4900 -0.3046  0.3018
  644MPD2     H 9536   0.904   3.670   9.503  2.4471  0.5332 -1.0865
  644MPD2    H1 9537   0.972   4.073   9.644 -2.9834  0.1439 -0.0397
  644MPD2    H2 9538   1.025   3.743   9.904 -0.0192 -1.6224 -1.4615
  644MPD2    H3 9539   1.043   3.975   9.867  1.6411 -0.8214  0.2364
  644MPD2     N 9540   0.885   3.929   9.444  0.1926 -0.1190 -0.1450
  644MPD2    H5 9541   0.846   3.856   9.385 -2.0207  0.7638  0.2542
  644MPD2    N1 9542   0.959   3.547   9.740 -0.0070  0.0062  0.0067
  644MPD2    H7 9543   1.012   3.521   9.822 -1.0346  2.2224  1.3869
  645TMC3    C1 9544   0.811   4.094   9.292 -0.6548 -0.1435  0.3382
  645TMC3    C2 9545   0.839   4.199   9.204 -0.3898 -0.6591 -0.2382
  645TMC3    C3 9546   0.750   4.239   9.122 -0.0958 -0.4779 -0.0335
  645TMC3    C4 9547   0.698   4.024   9.271  0.4526 -0.2020 -0.2191
  645TMC3    C5 9548   0.617   4.054   9.167  0.0910  0.1792 -0.4932
  645TMC3    C6 9549   0.645   4.158   9.089  0.3591 -0.4442  0.3702
  645TMC3     C 9550   0.898   4.062   9.403  0.8470 -0.1270  0.5877
  645TMC3     O 9551   0.977   4.148   9.436  0.0816  0.0986  0.3743
  645TMC3     H 9552   0.934   4.251   9.212 -0.0296 -1.4340  0.5536
  645TMC3    H1 9553   0.660   3.948   9.339  2.1361 -2.3713 -1.7086
  645TMC3    H2 9554   0.563   4.196   9.028  0.8299  0.0950  0.0759
  645TMC3    C7 9555   0.529   3.949   9.119  0.6698 -0.1964 -0.3409
  645TMC3    C8 9556   0.766   4.353   9.028  0.5409  0.1048 -0.1697
  645TMC3    O1 9557   0.480   3.878   9.206  0.4624 -0.0632 -0.3056
  645TMC3    O2 9558   0.715   4.351   8.918 -0.3072  0.0387 -0.2349
  646MPD2     C 9559   4.582   3.697  14.663 -0.0645 -0.0127 -0.4280
  646MPD2    C1 9560   4.572   3.784  14.773 -0.2146  0.6275 -0.5401
  646MPD2    C2 9561   4.484   3.891  14.783  0.6549  0.9514 -0.3184
  646MPD2    C3 9562   4.394   3.906  14.675  0.3770 -0.6417  0.3720
  646MPD2    C4 9563   4.407   3.822  14.560  0.9904  0.4700 -0.0638
  646MPD2    C5 9564   4.502   3.726  14.554  0.2037 -1.0324  0.2064
  646MPD2     H 9565   4.486   3.964  14.863 -0.2735  0.8621 -0.2096
  646MPD2    H1 9566   4.346   3.824  14.470  0.1967  0.8591  0.4809
  646MPD2    H2 9567   4.657   3.619  14.662 -0.4197 -0.4242  3.5100
  646MPD2    H3 9568   4.501   3.671  14.460  0.1523  0.2508 -0.5459
  646MPD2     N 9569   4.304   4.014  14.681 -0.6139  0.2781 -0.2223
  646MPD2    H5 9570   4.295   4.063  14.769 -1.5570 -0.0277 -0.1508
  646MPD2    N1 9571   4.659   3.742  14.878 -0.2896 -0.3170 -0.6332
  646MPD2    H7 9572   0.017   3.685  14.849  0.8723 -0.1898  2.2637
  647TMC3    C1 9573   0.031   3.718  15.091 -0.4054  0.3042  0.9496
  647TMC3    C2 9574   4.710   3.656  15.201 -0.0548  0.2462  0.5112
  647TMC3    C3 9575   0.089   3.600  15.275  0.2486  0.0917  0.7214
  647TMC3    C4 9576   0.157   3.733  15.043 -0.2988  0.2159 -0.6599
  647TMC3    C5 9577   0.259   3.675  15.117  0.1378  0.6562  0.8772
  647TMC3    C6 9578   0.220   3.607  15.232 -0.1582  0.0125 -0.9131
  647TMC3     C 9579   4.644   3.771  15.009 -0.0868 -0.2115  0.6666
  647TMC3     O 9580   4.546   3.812  15.076  0.0212 -0.0287  0.3302
  647TMC3     H 9581   4.605   3.640  15.218 -0.8979  0.9700 -4.0465
  647TMC3    H1 9582   0.185   3.792  14.957 -0.8465  1.4276 -0.0115
  647TMC3    H2 9583   0.299   3.557  15.286  0.5008  1.0356 -0.9331
  647TMC3    C7 9584   0.392   3.659  15.067 -0.2565 -0.3822 -0.7827
  647TMC3    C8 9585   0.070   3.460  15.325 -0.2874 -0.3291  0.2162
  647TMC3    O1 9586   0.482   3.621  15.138  0.1429 -0.4109 -0.2086
  647TMC3    O2 9587   0.166   3.421  15.387 -0.3404 -0.0765  0.7313
  648TMC3    C1 9588   4.036   1.441  16.175 -1.4632 -0.1647  0.6570
  648TMC3    C2 9589   4.125   1.345  16.136  0.2383  0.3523 -0.2712
  648TMC3    C3 9590   4.109   1.298  16.012 -0.0095 -0.6849 -0.1034
  648TMC3    C4 9591   3.941   1.489  16.089 -0.1899 -0.4492 -0.5573
  648TMC3    C5 9592   3.941   1.445  15.960 -0.4216  0.1851 -0.0118
  648TMC3    C6 9593   4.014   1.341  15.923 -0.1585 -0.1690 -0.0730
  648TMC3     C 9594   4.059   1.505  16.296 -0.5944 -0.5027 -0.3233
  648TMC3     O 9595   4.016   1.617  16.308  0.3246  0.2607 -0.0279
  648TMC3     H 9596   4.220   1.332  16.188  0.1107  0.4890 -0.0021
  648TMC3    H1 9597   3.882   1.575  16.117  0.9635  0.6791 -1.5748
  648TMC3    H2 9598   4.009   1.300  15.823 -0.0642 -4.0895  1.5461
  648TMC3    C7 9599   3.880   1.522  15.855 -0.4031  0.3661 -0.0385
  648TMC3    C8 9600   4.199   1.193  15.963 -0.6506  0.8644  0.0655
  648TMC3    O1 9601   3.910   1.496  15.740  0.2560  0.3523  0.3192
  648TMC3    O2 9602   4.185   1.163  15.850 -0.2057  0.3522  0.2195
  649TMC3    C1 9603   3.405   2.553  12.141  0.8631  0.0036  0.0029
  649TMC3    C2 9604   3.528   2.588  12.125 -0.0219 -0.6374  1.1931
  649TMC3    C3 9605   3.617   2.555  12.228  0.2712 -0.0892 -0.2475
  649TMC3    C4 9606   3.360   2.481  12.252 -0.5865 -0.6236  0.0403
  649TMC3    C5 9607   3.452   2.435  12.343 -0.3525  0.3223 -0.2519
  649TMC3    C6 9608   3.583   2.478  12.337 -0.6737 -0.2833  0.1022
  649TMC3     C 9609   3.305   2.567  12.037 -0.2851 -0.4924  0.0525
  649TMC3     O 9610   3.187   2.578  12.066 -0.4417 -0.0446  0.3200
  649TMC3     H 9611   3.557   2.661  12.050 -0.3875 -1.7064 -0.0015
  649TMC3    H1 9612   3.260   2.440  12.255 -0.8660  0.1233  0.9308
  649TMC3    H2 9613   3.660   2.435  12.400 -0.5931 -0.5846 -0.2003
  649TMC3    C7 9614   3.384   2.366  12.449 -0.1738 -0.1237 -0.6626
  649TMC3    C8 9615   3.736   2.634  12.233  0.8216 -0.2008  0.4694
  649TMC3    O1 9616   3.263   2.389  12.464  0.5887  0.1757  0.3484
  649TMC3    O2 9617   3.782   2.660  12.122  0.5599  0.5149 -0.5913
  650TMC3    C1 9618   0.833   4.374  12.204  0.3724  0.6774 -0.0469
  650TMC3    C2 9619   0.885   4.501  12.185 -0.1644 -0.3196 -0.1579
  650TMC3    C3 9620   0.878   4.549  12.061  0.5410 -0.9876 -0.6422
  650TMC3    C4 9621   0.769   4.291  12.110  0.1877 -0.4526 -0.2993
  650TMC3    C5 9622   0.759   4.354  11.991  0.0097  0.9721  0.4341
  650TMC3    C6 9623   0.821   4.471  11.963 -0.8649 -0.3804 -0.2396
  650TMC3     C 9624   0.820   4.341  12.339  0.1241  0.1294 -0.2925
  650TMC3     O 9625   0.803   4.437  12.419  0.2293  0.3813  0.0997
  650TMC3     H 9626   0.930   4.561  12.263  0.8013 -1.2619  0.0148
  650TMC3    H1 9627   0.708   4.205  12.136 -1.2098  0.2006 -1.4397
  650TMC3    H2 9628   0.803   4.524  11.870  1.0879 -2.0273 -1.5810
  650TMC3    C7 9629   0.647   4.319  11.910 -0.6387  0.1296  0.4950
  650TMC3    C8 9630   0.937   4.680  12.033  1.0275  0.3261  0.1630
  650TMC3    O1 9631   0.549   4.264  11.955 -0.5552 -0.2029 -0.0497
  650TMC3    O2 9632   0.972   0.029  12.128 -0.0926 -0.2757 -0.4045
  651MPD2     C 9633   0.255   0.683  10.867  0.5247  0.2599  0.3820
  651MPD2    C1 9634   0.218   0.811  10.891  0.2138 -0.1173  0.0361
  651MPD2    C2 9635   0.313   0.917  10.881 -0.6559  0.0474  0.7699
  651MPD2    C3 9636   0.448   0.885  10.871  0.4035 -0.0452 -0.3272
  651MPD2    C4 9637   0.489   0.755  10.858 -0.6180 -0.2969  0.1194
  651MPD2    C5 9638   0.390   0.659  10.856 -0.0777  0.4460  0.1600
  651MPD2     H 9639   0.281   1.021  10.885  2.1721  0.9297  0.4208
  651MPD2    H1 9640   0.592   0.722  10.859 -0.2985  0.6797  0.1263
  651MPD2    H2 9641   0.192   0.595  10.873  0.1982  0.6888  3.0173
  651MPD2    H3 9642   0.427   0.558  10.860  0.8247  0.7529 -0.3227
  651MPD2     N 9643   0.532   0.993  10.858  0.6126  0.0444  0.6346
  651MPD2    H5 9644   0.484   1.080  10.838  1.5169  0.3099 -0.3784
  651MPD2    N1 9645   0.075   0.840  10.903  0.6112  0.0742  0.4237
  651MPD2    H7 9646   0.050   0.938  10.908  0.2761 -0.0842  1.8333
  652TMC3    C1 9647   0.928   1.183  10.702  0.1329  0.3859  0.3621
  652TMC3    C2 9648   0.861   1.126  10.812 -0.1351 -0.1716 -0.3821
  652TMC3    C3 9649   0.728   1.094  10.785 -0.1915  0.0329  0.6218
  652TMC3    C4 9650   0.877   1.210  10.580  0.3050 -0.0944 -0.2978
  652TMC3    C5 9651   0.747   1.177  10.566 -0.2660 -0.1671  0.3549
  652TMC3    C6 9652   0.675   1.117  10.663 -0.3283  0.1694  0.1814
  652TMC3     C 9653   1.074   1.202  10.710  0.0148 -0.1458  0.6401
  652TMC3     O 9654   1.146   1.210  10.614  0.0949 -0.0994  0.1218
  652TMC3     H 9655   0.903   1.101  10.909 -1.1716 -0.1298  0.0792
  652TMC3    H1 9656   0.940   1.234  10.495  0.5575 -0.1053 -0.1159
  652TMC3    H2 9657   0.573   1.089  10.635  0.4008 -2.3811 -0.0007
  652TMC3    C7 9658   0.685   1.207  10.441  1.1252 -0.2016  0.7082
  652TMC3    C8 9659   0.674   0.991  10.857  0.0980  0.3185  0.1865
  652TMC3    O1 9660   0.581   1.151  10.409  0.0608  0.3292 -0.7300
  652TMC3    O2 9661   0.752   0.910  10.905 -0.1564 -0.4050 -0.7169
  653MPD2     C 9662   2.771   1.608   0.182 -0.3246 -0.5233  0.1864
  653MPD2    C1 9663   2.806   1.668   0.061 -0.2861  0.0818 -0.3490
  653MPD2    C2 9664   2.775   1.612  17.620 -0.0805 -0.2814 -0.1196
  653MPD2    C3 9665   2.725   1.485  17.619 -0.0515  0.3781 -0.4603
  653MPD2    C4 9666   2.699   1.419   0.055  0.7510 -0.0493  0.6265
  653MPD2    C5 9667   2.713   1.487   0.170  0.3342  0.2246 -0.3316
  653MPD2     H 9668   2.789   1.661  17.525 -2.7661 -0.2716 -0.5062
  653MPD2    H1 9669   2.647   1.323   0.057  0.5549  0.0417  0.0841
  653MPD2    H2 9670   2.804   1.659   0.272 -1.5914 -1.6227  1.2674
  653MPD2    H3 9671   2.676   1.442   0.261 -2.1943 -1.4733 -2.1802
  653MPD2     N 9672   2.680   1.430  17.496  0.6644 -0.1098 -0.1693
  653MPD2    H5 9673   2.686   1.491  17.414 -1.0647 -2.6234 -2.1725
  653MPD2    N1 9674   2.889   1.781   0.072 -0.4051 -0.2158 -0.2405
  653MPD2    H7 9675   2.896   1.823   0.165 -2.7338  1.9398 -1.0155
  654TMC3    C1 9676   2.636   1.257  17.333  0.6045  0.7851 -0.0241
  654TMC3    C2 9677   2.565   1.344  17.259 -0.0685  0.4771 -0.3883
  654TMC3    C3 9678   2.532   1.310  17.133 -0.0700  0.0132 -0.2570
  654TMC3    C4 9679   2.692   1.148  17.275  0.0485  0.5583  0.5871
  654TMC3    C5 9680   2.677   1.132  17.139  0.9688  0.2922  0.7436
  654TMC3    C6 9681   2.591   1.209  17.065 -0.3140 -0.6931 -0.3105
  654TMC3     C 9682   2.657   1.290  17.473 -0.2450  0.1065 -0.0900
  654TMC3     O 9683   2.680   1.198  17.550  0.0399  0.0467 -0.0055
  654TMC3     H 9684   2.525   1.435  17.300 -1.9664  0.3687 -2.0190
  654TMC3    H1 9685   2.775   1.096  17.321 -0.8703 -1.1798  0.2906
  654TMC3    H2 9686   2.570   1.168  16.966  1.4108 -0.2284 -0.8697
  654TMC3    C7 9687   2.726   1.011  17.077  0.0395 -0.2397  0.5549
  654TMC3    C8 9688   2.391   1.337  17.105 -0.0669 -1.0496 -0.3499
  654TMC3    O1 9689   2.776   1.013  16.963  0.6889 -0.1039  0.1516
  654TMC3    O2 9690   2.335   1.423  17.172 -0.0463 -0.5945 -0.9086
  655MPD2     C 9691   4.391   1.463  15.826 -0.1946  0.6953  0.5702
  655MPD2    C1 9692   4.346   1.535  15.721  0.3630  0.2106 -0.2033
  655MPD2    C2 9693   4.375   1.512  15.589 -0.2187  0.0879  0.8473
  655MPD2    C3 9694   4.441   1.388  15.558  0.5079 -0.2684 -0.7125
  655MPD2    C4 9695   4.466   1.302  15.666 -0.5014  0.1266  0.0568
  655MPD2    C5 9696   4.448   1.342  15.794  0.0965  0.4694  0.5699
  655MPD2     H 9697   4.348   1.588  15.517 -1.7628 -1.8900 -0.6821
  655MPD2    H1 9698   4.519   1.209  15.650  0.2334  0.4648  0.5209
  655MPD2    H2 9699   4.372   1.464  15.933  1.9846  0.7886  0.9398
  655MPD2    H3 9700   4.477   1.274  15.873 -2.8757 -1.2735  0.1453
  655MPD2     N 9701   4.473   1.346  15.430  0.2011 -0.1249  0.1412
  655MPD2    H5 9702   4.507   1.251  15.422  1.6232  0.3697  0.2260
  655MPD2    N1 9703   4.260   1.646  15.756  0.3716 -0.0288 -0.3401
  655MPD2    H7 9704   4.219   1.696  15.677 -2.8026 -0.4047  1.0670
  656TMC3    C1 9705   4.124   1.795  15.885  0.3437  0.0233 -0.2237
  656TMC3    C2 9706   4.064   1.835  15.999 -0.4725 -0.0876 -0.3970
  656TMC3    C3 9707   3.963   1.926  15.995  0.0657  0.0949  0.0972
  656TMC3    C4 9708   4.100   1.860  15.758  0.5585 -0.4505  0.3488
  656TMC3    C5 9709   4.006   1.957  15.764  0.4882 -0.2721 -0.0508
  656TMC3    C6 9710   3.931   2.000  15.883 -0.2951  0.5337  0.0263
  656TMC3     C 9711   4.215   1.685  15.880 -0.7692  0.0397 -0.2709
  656TMC3     O 9712   4.239   1.636  15.989 -0.2857  0.2539 -0.1117
  656TMC3     H 9713   4.067   1.767  16.083 -2.6115 -0.6169 -0.7511
  656TMC3    H1 9714   4.148   1.830  15.666  1.0160 -1.3280  0.8750
  656TMC3    H2 9715   3.830   2.037  15.887 -1.1814 -2.1353  2.3228
  656TMC3    C7 9716   3.955   2.001  15.636  0.2997 -0.1684 -0.5155
  656TMC3    C8 9717   3.860   1.915  16.089 -0.7131 -0.1460  0.4561
  656TMC3    O1 9718   3.986   1.938  15.538 -0.1672 -0.1802  0.0543
  656TMC3    O2 9719   3.838   1.805  16.140  0.6960  0.2120  0.2187
  657TMC3    C1 9720   3.944   1.056  14.933 -0.3250 -0.6506  0.0209
  657TMC3    C2 9721   3.829   1.083  15.010  0.2034  0.7266  0.1590
  657TMC3    C3 9722   3.771   1.216  15.005  0.3333 -0.0205 -0.0076
  657TMC3    C4 9723   3.983   1.154  14.839 -0.3977 -0.2809  0.1570
  657TMC3    C5 9724   3.923   1.276  14.836 -0.2641 -0.3617  0.4746
  657TMC3    C6 9725   3.814   1.315  14.919  0.2231  0.6871  0.2080
  657TMC3     C 9726   4.014   0.930  14.941  0.4313 -0.6114  0.3903
  657TMC3     O 9727   4.082   0.883  14.848  0.2847  0.2610 -0.0537
  657TMC3     H 9728   3.780   1.000  15.060 -1.2570  0.3567 -1.8856
  657TMC3    H1 9729   4.067   1.130  14.775 -1.5144 -2.3269 -0.5254
  657TMC3    H2 9730   3.773   1.415  14.921 -2.9673 -0.6624  0.9301
  657TMC3    C7 9731   3.974   1.364  14.723 -0.5782 -0.5982  0.4787
  657TMC3    C8 9732   3.643   1.246  15.066 -0.3265 -0.4907  0.2421
  657TMC3    O1 9733   4.086   1.329  14.683 -0.0651 -0.1685 -0.2307
  657TMC3    O2 9734   3.558   1.319  15.013 -0.1173  0.1956 -1.2607
  658MPD2     C 9735   0.034   1.872  14.905  0.5081  0.6815  0.1637
  658MPD2    C1 9736   4.695   1.766  14.842  0.1691  0.0080  0.2888
  658MPD2    C2 9737   4.681   1.774  14.704  0.0772  0.3834 -0.0427
  658MPD2    C3 9738   4.702   1.888  14.633 -0.6469 -0.1942  0.1902
  658MPD2    C4 9739   0.044   1.992  14.704 -0.3767  0.2605  0.1239
  658MPD2    C5 9740   0.074   1.986  14.840  0.5559  0.2472  0.6629
  658MPD2     H 9741   4.639   1.687  14.654  0.0395 -0.2515  1.1079
  658MPD2    H1 9742   0.069   2.087  14.660  1.7326 -0.1624  0.4232
  658MPD2    H2 9743   0.020   1.881  15.012 -0.2055  0.0628  0.1240
  658MPD2    H3 9744   0.104   2.076  14.893  2.7692 -0.2815  0.3346
  658MPD2     N 9745   4.681   1.898  14.490 -0.0707  0.0785 -0.3259
  658MPD2    H5 9746   4.643   1.818  14.439 -0.0213 -0.5139  0.5569
  658MPD2    N1 9747   4.641   1.660  14.924 -1.1602 -0.7067 -0.0295
  658MPD2    H7 9748   4.654   1.670  15.025  0.3690  0.7096 -0.3662
  659TMC3    C1 9749   4.501   1.468  14.981 -0.5281 -0.2500 -0.4573
  659TMC3    C2 9750   4.556   1.441  15.107 -0.2240  0.5300  0.1214
  659TMC3    C3 9751   4.489   1.361  15.196  1.1341  0.0081  0.0649
  659TMC3    C4 9752   4.379   1.408  14.948  0.3536  0.5824 -0.0591
  659TMC3    C5 9753   4.308   1.340  15.045  0.2007 -0.1794  0.1166
  659TMC3    C6 9754   4.366   1.309  15.168  0.8502 -0.0558 -0.0736
  659TMC3     C 9755   4.575   1.545  14.880  0.1415  0.0786  0.2338
  659TMC3     O 9756   4.563   1.508  14.764  0.0323  0.4516 -0.5481
  659TMC3     H 9757   4.639   1.502  15.140 -0.1159 -0.6125  1.9640
  659TMC3    H1 9758   4.332   1.424  14.851  0.7286 -1.1824 -0.5256
  659TMC3    H2 9759   4.302   1.267  15.245  0.6660  0.6057  0.1300
  659TMC3    C7 9760   4.172   1.381  15.063  0.5123 -0.7259 -0.3289
  659TMC3    C8 9761   4.477   1.429  15.322  0.2512  0.5939  0.1427
  659TMC3    O1 9762   4.104   1.313  15.139 -0.2711 -0.3022  0.3874
  659TMC3    O2 9763   4.460   1.550  15.306 -0.0365  0.2667  0.2875
  660MPD2     C 9764   2.341   0.130  12.525  0.2726  0.7872  0.1656
  660MPD2    C1 9765   2.399   0.245  12.565 -0.6766 -1.1252 -0.2075
  660MPD2    C2 9766   2.424   0.272  12.699  0.3748  0.3469  0.1341
  660MPD2    C3 9767   2.369   0.180  12.790 -0.0361  0.0637  0.3865
  660MPD2    C4 9768   2.305   0.065  12.742 -0.0222  0.4378 -0.5031
  660MPD2    C5 9769   2.293   0.037  12.605 -0.5507  0.1846  0.0849
  660MPD2     H 9770   2.466   0.367  12.731 -2.3152  1.7549 -0.5238
  660MPD2    H1 9771   2.264   4.720  12.818  0.8333 -1.1694 -1.4513
  660MPD2    H2 9772   2.310   0.117  12.422 -0.3185  1.0011  0.3151
  660MPD2    H3 9773   2.242   4.668  12.575  2.5284 -1.6499  0.3844
  660MPD2     N 9774   2.376   0.199  12.929 -0.3458 -0.2119  0.8493
  660MPD2    H5 9775   2.323   0.137  12.989  0.1953 -0.4155  1.1143
  660MPD2    N1 9776   2.444   0.337  12.459 -0.8060 -0.1320 -0.0005
  660MPD2    H7 9777   2.441   0.307  12.362  0.8695 -0.5114  0.0644
  661TMC3    C1 9778   2.515   0.534  12.357 -0.1340 -0.1402 -0.1973
  661TMC3    C2 9779   2.578   0.459  12.257 -0.1505  0.1386 -0.1678
  661TMC3    C3 9780   2.615   0.523  12.144 -0.0533  0.5892  0.4305
  661TMC3    C4 9781   2.484   0.665  12.338 -0.0322 -0.2620 -0.3617
  661TMC3    C5 9782   2.514   0.719  12.218 -0.1196  1.2902  1.1146
  661TMC3    C6 9783   2.580   0.651  12.119 -0.4620  0.0021  0.3693
  661TMC3     C 9784   2.490   0.470  12.481 -0.7289  0.3917  0.5844
  661TMC3     O 9785   2.489   0.543  12.577 -0.6869 -0.0778 -0.0650
  661TMC3     H 9786   2.625   0.364  12.284 -1.3144 -0.4973 -0.3902
  661TMC3    H1 9787   2.436   0.717  12.420 -1.2213 -0.4931 -0.9131
  661TMC3    H2 9788   2.604   0.691  12.021 -3.4946 -0.9461 -0.7837
  661TMC3    C7 9789   2.437   0.828  12.167 -0.8649  0.5513 -0.4717
  661TMC3    C8 9790   2.673   0.447  12.035  1.0203  0.3885 -0.0987
  661TMC3    O1 9791   2.476   0.941  12.193 -0.4162  0.0363  0.1340
  661TMC3    O2 9792   2.710   0.510  11.935  0.6019  0.3336 -0.2134
  662MPD2     C 9793   2.543   0.358  17.509 -0.5393  0.2689 -0.3259
  662MPD2    C1 9794   2.428   0.298  17.560  0.3517 -0.4281 -0.2052
  662MPD2    C2 9795   2.341   0.390  17.618 -0.1671 -0.3485  0.2345
  662MPD2    C3 9796   2.361   0.523  17.627  0.2855  0.7009 -0.2822
  662MPD2    C4 9797   2.473   0.581  17.571 -0.5963 -0.2119 -0.3781
  662MPD2    C5 9798   2.558   0.494  17.503  1.0406  0.0392  0.5036
  662MPD2     H 9799   2.255   0.339  17.661 -1.4756  0.3831 -1.4923
  662MPD2    H1 9800   2.486   0.688  17.582 -0.7309 -0.4572  2.1769
  662MPD2    H2 9801   2.614   0.290  17.464  0.2505  0.9050 -0.0570
  662MPD2    H3 9802   2.649   0.528  17.455  1.2347 -0.1134  0.7608
  662MPD2     N 9803   2.277   0.607   0.015  0.1353 -0.6023 -0.9369
  662MPD2    H5 9804   2.318   0.698   0.035 -0.5093 -1.0903  2.6223
  662MPD2    N1 9805   2.396   0.163  17.569 -0.0886  0.2943  0.4512
  662MPD2    H7 9806   2.319   0.135  17.630  2.1206 -0.1648  3.0607
  663TMC3    C1 9807   2.431   4.654  17.559  0.2603 -0.6600 -1.0543
  663TMC3    C2 9808   2.296   4.642  17.572  0.2547  0.0103  0.2007
  663TMC3    C3 9809   2.253   4.517  17.530 -0.0779  0.1945 -0.1138
  663TMC3    C4 9810   2.514   4.547  17.548  0.4422  0.8201 -0.2896
  663TMC3    C5 9811   2.465   4.417  17.555 -0.0903  0.0934  0.1959
  663TMC3    C6 9812   2.329   4.402  17.547  0.0992 -0.1869  0.1492
  663TMC3     C 9813   2.478   0.062  17.522 -0.6294 -0.2610  0.2671
  663TMC3     O 9814   2.579   0.072  17.458  0.4696  0.1975 -0.5635
  663TMC3     H 9815   2.219   4.716  17.552 -1.1632 -0.6588  3.1945
  663TMC3    H1 9816   2.618   4.566  17.523  0.6331  0.1039 -0.0117
  663TMC3    H2 9817   2.278   4.310  17.520 -0.7396  0.6872 -1.2197
  663TMC3    C7 9818   2.555   4.309  17.505 -0.3655  0.0510 -0.4385
  663TMC3    C8 9819   2.124   4.491  17.574  0.1328 -0.3368  0.4124
  663TMC3    O1 9820   2.658   4.351  17.451 -0.7241 -0.1396 -0.6454
  663TMC3    O2 9821   2.053   4.418  17.501  0.0207  0.8656  0.3290
  664MPD2     C 9822   0.218   3.165  17.427  0.4108  0.2844 -0.0661
  664MPD2    C1 9823   0.335   3.153  17.498 -0.6410 -0.9725  0.4079
  664MPD2    C2 9824   0.343   3.079  17.621 -0.0555  0.1310  0.3728
  664MPD2    C3 9825   0.230   3.017  17.671 -0.0416 -0.6264 -0.1994
  664MPD2    C4 9826   0.110   3.030  17.594 -0.2520 -0.4390 -0.0989
  664MPD2    C5 9827   0.103   3.106  17.478  0.0121  0.0344  0.4431
  664MPD2     H 9828   0.441   3.067  17.665  1.3293 -2.0967 -3.2821
  664MPD2    H1 9829   0.015   2.980  17.609 -0.4693  0.3409  1.0566
  664MPD2    H2 9830   0.208   3.233  17.343 -0.9705 -0.5738 -0.6022
  664MPD2    H3 9831   0.009   3.127  17.429 -0.0991 -1.1658  0.1493
  664MPD2     N 9832   0.232   2.968   0.113 -0.4187  0.3134  0.4201
  664MPD2    H5 9833   0.318   2.946   0.162 -0.5729  0.3569  0.7056
  664MPD2    N1 9834   0.450   3.222  17.456  0.1338  0.1440 -0.4080
  664MPD2    H7 9835   0.521   3.214  17.528 -2.2396 -1.4455  1.7572
  665TMC3    C1 9836   0.148   2.866   0.315  0.0044 -0.4043  0.3500
  665TMC3    C2 9837   0.062   2.772   0.367  0.1803  0.3642 -0.3246
  665TMC3    C3 9838   0.102   2.734   0.489 -0.3619 -0.9534  0.2808
  665TMC3    C4 9839   0.240   2.940   0.382  0.5550  0.6601  0.3851
  665TMC3    C5 9840   0.261   2.907   0.511 -1.0324  0.7457 -0.1220
  665TMC3    C6 9841   0.196   2.799   0.569 -0.2135  0.7629 -0.2663
  665TMC3     C 9842   0.119   2.912   0.180  0.1132 -0.7440  1.4080
  665TMC3     O 9843   4.719   2.913   0.151 -0.0363 -0.1464 -0.1263
  665TMC3     H 9844   4.690   2.742   0.321 -0.2896  0.7313  0.3993
  665TMC3    H1 9845   0.297   3.026   0.347  0.4341  0.9755  0.9675
  665TMC3    H2 9846   0.206   2.763   0.671  0.3540 -1.1301 -0.9933
  665TMC3    C7 9847   0.367   2.984   0.581  0.6923 -0.8522 -0.5394
  665TMC3    C8 9848   0.005   2.645   0.566 -0.3667  0.4344  0.0205
  665TMC3    O1 9849   0.440   3.049   0.513  0.7223 -0.1959  0.3597
  665TMC3    O2 9850   4.720   2.671   0.688 -0.0208 -0.6721  0.1278
  666TMC3    C1 9851   0.686   2.664  10.316 -0.5390  0.2480 -0.3287
  666TMC3    C2 9852   0.805   2.593  10.323 -0.3954 -0.0631  0.7165
  666TMC3    C3 9853   0.908   2.659  10.389  0.4789 -0.6507 -0.1677
  666TMC3    C4 9854   0.669   2.780  10.373  1.0953  0.4455  0.7571
  666TMC3    C5 9855   0.765   2.836  10.449  0.3120 -1.0792  0.2414
  666TMC3    C6 9856   0.892   2.776  10.450  0.6714 -0.5189 -0.1001
  666TMC3     C 9857   0.581   2.618  10.226 -0.5741 -0.5779 -0.0097
  666TMC3     O 9858   0.506   2.705  10.182  0.0363  0.2977  0.7601
  666TMC3     H 9859   0.820   2.487  10.302 -0.8596 -0.4557  2.2977
  666TMC3    H1 9860   0.570   2.825  10.361  0.9695 -0.7541 -2.7982
  666TMC3    H2 9861   0.970   2.809  10.518 -0.6945  1.9518  0.2806
  666TMC3    C7 9862   0.761   2.981  10.458 -0.5322  0.1058  0.0332
  666TMC3    C8 9863   1.036   2.594  10.418 -0.2194  0.2523  0.5720
  666TMC3    O1 9864   0.671   3.031  10.400 -0.3988  0.1003  0.6996
  666TMC3    O2 9865   1.098   2.632  10.514 -0.2096  0.1679  0.0391
  667MPD2     C 9866   1.566   3.625  14.330 -0.0081 -0.0060 -0.2391
  667MPD2    C1 9867   1.578   3.524  14.420  0.5304  0.2469  0.4287
  667MPD2    C2 9868   1.506   3.406  14.404 -1.4468  0.3765  0.2035
  667MPD2    C3 9869   1.428   3.387  14.294  0.1812 -0.1824 -0.3176
  667MPD2    C4 9870   1.410   3.486  14.193 -0.7857 -0.5280 -0.5395
  667MPD2    C5 9871   1.482   3.603  14.219  0.3725  0.5278  0.8189
  667MPD2     H 9872   1.517   3.326  14.476  0.3545  0.3915 -0.0708
  667MPD2    H1 9873   1.342   3.491  14.109 -0.3554  0.8712 -0.8007
  667MPD2    H2 9874   1.618   3.720  14.338 -1.3691  0.6714  0.4566
  667MPD2    H3 9875   1.480   3.689  14.153  2.6620  0.9819  1.3566
  667MPD2     N 9876   1.356   3.267  14.280  0.2926 -0.4555  0.0423
  667MPD2    H5 9877   1.284   3.270  14.209  0.5357  0.8825 -0.1449
  667MPD2    N1 9878   1.648   3.539  14.545  0.5768 -0.5012 -0.5716
  667MPD2    H7 9879   1.637   3.461  14.609 -1.6422  0.2341 -0.0671
  668TMC3    C1 9880   1.787   3.628  14.721 -0.0149 -0.0255 -0.1956
  668TMC3    C2 9881   1.843   3.745  14.770 -0.6002  0.6957 -0.2034
  668TMC3    C3 9882   1.862   3.757  14.905  0.9723 -0.1312  0.8005
  668TMC3    C4 9883   1.750   3.525  14.799 -0.3152 -0.3665 -0.0380
  668TMC3    C5 9884   1.761   3.547  14.939  0.1720  0.4312  0.6140
  668TMC3    C6 9885   1.815   3.661  14.991 -0.1176 -0.5443  0.1264
  668TMC3     C 9886   1.733   3.636  14.583  0.1467  0.5187  0.0274
  668TMC3     O 9887   1.777   3.722  14.508 -0.2950 -0.0989  0.5207
  668TMC3     H 9888   1.873   3.823  14.701  1.9325  0.0487  0.1831
  668TMC3    H1 9889   1.733   3.424  14.762  3.1815 -1.1256  0.4190
  668TMC3    H2 9890   1.832   3.676  15.097  0.6509  2.6553 -0.4294
  668TMC3    C7 9891   1.797   3.432  15.016  0.5433  0.3582  0.3294
  668TMC3    C8 9892   1.961   3.860  14.966  0.4256  0.2662  0.3535
  668TMC3    O1 9893   1.887   3.446  15.100  0.0057  0.3224  0.0635
  668TMC3    O2 9894   1.949   3.878  15.089 -0.0496  0.0075 -0.5452
  669TMC3    C1 9895   4.522   3.071  14.448  0.1962  0.7514 -0.4053
  669TMC3    C2 9896   4.423   3.079  14.347 -0.1398  0.2300 -0.2794
  669TMC3    C3 9897   4.449   3.105  14.220 -0.3139  0.4388  0.1711
  669TMC3    C4 9898   4.655   3.080  14.401 -0.0212  0.1400 -0.0851
  669TMC3    C5 9899   4.681   3.109  14.271  0.5907  0.5444 -0.0765
  669TMC3    C6 9900   4.577   3.113  14.176 -0.4100  0.0999 -0.4333
  669TMC3     C 9901   4.504   2.980  14.558 -0.5262  0.1065 -0.6855
  669TMC3     O 9902   4.424   2.894  14.527  0.4074  0.4999 -0.3751
  669TMC3     H 9903   4.322   3.076  14.385 -0.6347 -1.0458 -1.7137
  669TMC3    H1 9904   0.017   3.078  14.470  0.6881 -0.5266 -0.9796
  669TMC3    H2 9905   4.592   3.146  14.073 -0.4114 -3.6460 -1.6509
  669TMC3    C7 9906   0.073   3.193  14.256 -0.7941 -0.3486  0.1738
  669TMC3    C8 9907   4.341   3.140  14.130  0.2391  0.2561  0.4666
  669TMC3    O1 9908   0.111   3.253  14.349  0.5562 -0.7645  0.2108
  669TMC3    O2 9909   4.366   3.114  14.014  0.4828 -0.9021  0.0167
  670MPD2     C 9910   2.920   1.082  13.475  0.1917 -0.2694 -0.4046
  670MPD2    C1 9911   3.005   1.087  13.580  0.5016  0.6971  0.1257
  670MPD2    C2 9912   2.961   1.071  13.710 -0.4621  0.3700 -0.0270
  670MPD2    C3 9913   2.827   1.061  13.737 -0.0437 -0.9568 -0.8267
  670MPD2    C4 9914   2.740   1.053  13.625 -0.1341 -0.5573 -0.3486
  670MPD2    C5 9915   2.789   1.060  13.499 -0.0646 -0.2375  1.1963
  670MPD2     H 9916   3.034   1.060  13.789 -0.9058  0.2310  0.3603
  670MPD2    H1 9917   2.639   1.028  13.654 -0.0671 -0.6891 -0.2289
  670MPD2    H2 9918   2.951   1.093  13.372 -0.0771  1.7858 -0.2575
  670MPD2    H3 9919   2.721   1.051  13.415  1.6497  1.5992 -0.4134
  670MPD2     N 9920   2.796   1.032  13.872 -0.1594  0.0189 -0.0156
  670MPD2    H5 9921   2.873   1.007  13.933  0.0954  0.5314 -0.1262
  670MPD2    N1 9922   3.138   1.121  13.565  0.7751 -0.4348  0.1791
  670MPD2    H7 9923   3.186   1.153  13.649 -2.5807  1.7216  1.2554
  671TMC3    C1 9924   2.667   0.954  14.058  0.5764  0.0482 -0.4509
  671TMC3    C2 9925   2.782   0.946  14.128  0.0632 -0.0110  0.0956
  671TMC3    C3 9926   2.775   0.894  14.252 -0.8581 -0.5149  0.1110
  671TMC3    C4 9927   2.548   0.895  14.102  0.5121 -0.0222  0.2831
  671TMC3    C5 9928   2.541   0.849  14.228  0.5279 -0.1615  0.4369
  671TMC3    C6 9929   2.659   0.837  14.305  0.4936 -0.1566  0.1849
  671TMC3     C 9930   2.673   1.009  13.925 -0.1092 -1.6355 -0.5554
  671TMC3     O 9931   2.565   1.012  13.863  0.2154  0.0511 -0.1096
  671TMC3     H 9932   2.871   1.005  14.112  0.7825 -0.6889  1.6188
  671TMC3    H1 9933   2.455   0.902  14.047  0.9620 -0.3833 -0.5117
  671TMC3    H2 9934   2.660   0.802  14.408 -1.1773 -0.1848  0.1902
  671TMC3    C7 9935   2.427   0.755  14.263 -0.6748  0.4263 -0.2458
  671TMC3    C8 9936   2.900   0.862  14.316 -0.8288 -0.3057 -0.3495
  671TMC3    O1 9937   2.369   0.701  14.170  0.1180  0.0653 -0.1577
  671TMC3    O2 9938   2.994   0.941  14.291  0.1353 -0.5099 -0.6273
  672MPD2     C 9939   2.561   1.872   1.487  0.6438  0.6562 -0.0838
  672MPD2    C1 9940   2.627   1.760   1.467  0.5510 -0.4669  0.2240
  672MPD2    C2 9941   2.759   1.765   1.415  0.2860 -0.2084 -0.4970
  672MPD2    C3 9942   2.809   1.887   1.371 -0.2319 -0.4794 -0.6222
  672MPD2    C4 9943   2.741   2.001   1.391  0.3559  0.2450  0.1571
  672MPD2    C5 9944   2.619   1.995   1.452  0.0479  0.4508  0.4168
  672MPD2     H 9945   2.808   1.672   1.386  0.8644 -0.0255 -0.1110
  672MPD2    H1 9946   2.767   2.098   1.351 -1.5974  0.9023  0.4958
  672MPD2    H2 9947   2.460   1.878   1.528  0.6452  1.1678 -0.1511
  672MPD2    H3 9948   2.560   2.085   1.467 -2.6492 -1.1623 -0.4905
  672MPD2     N 9949   2.933   1.894   1.309  0.3384 -0.2657 -0.4554
  672MPD2    H5 9950   2.965   1.980   1.267 -1.3146  0.2169 -0.7510
  672MPD2    N1 9951   2.574   1.628   1.506 -0.1960 -0.0469 -0.0958
  672MPD2    H7 9952   2.632   1.552   1.470 -0.9875 -0.2749 -0.9009
  673TMC3    C1 9953   2.418   1.485   1.453  0.2203  0.4314 -0.2321
  673TMC3    C2 9954   2.407   1.365   1.512  0.6061  0.1379 -0.0349
  673TMC3    C3 9955   2.445   1.248   1.450  0.0618 -0.8555 -0.4871
  673TMC3    C4 9956   2.488   1.484   1.336 -0.0471  0.8139 -0.0853
  673TMC3    C5 9957   2.532   1.371   1.280 -0.0452  0.4079  0.2173
  673TMC3    C6 9958   2.509   1.246   1.329 -0.5802  0.1430  0.6653
  673TMC3     C 9959   2.447   1.600   1.537  0.1091  1.2430 -0.1562
  673TMC3     O 9960   2.352   1.665   1.585  0.1954 -0.0065 -0.6662
  673TMC3     H 9961   2.367   1.362   1.613 -0.6451  2.5662 -0.4757
  673TMC3    H1 9962   2.494   1.580   1.286 -0.2530  1.4631  1.1304
  673TMC3    H2 9963   2.525   1.156   1.271 -0.5929 -0.6951  1.9603
  673TMC3    C7 9964   2.619   1.385   1.168  0.0472  0.4712  1.0796
  673TMC3    C8 9965   2.476   1.142   1.543 -0.5031 -1.0936  0.6708
  673TMC3    O1 9966   2.638   1.285   1.101 -0.2260 -0.1330 -0.7281
  673TMC3    O2 9967   2.402   1.138   1.638 -0.0313  0.0913 -0.6556
  674MPD2     C 9968   3.167   1.375   0.230  0.6312  0.4235 -0.7470
  674MPD2    C1 9969   3.150   1.274   0.326  0.3273 -0.2847  0.5026
  674MPD2    C2 9970   3.082   1.301   0.442  0.1241 -0.7131  0.0359
  674MPD2    C3 9971   3.015   1.422   0.455 -0.4232  0.1030 -0.7960
  674MPD2    C4 9972   3.024   1.514   0.353 -0.7267  0.0544  0.1376
  674MPD2    C5 9973   3.102   1.493   0.247  0.2974 -0.6390  0.3694
  674MPD2     H 9974   3.080   1.221   0.515 -0.3739 -0.1263  0.6546
  674MPD2    H1 9975   2.979   1.613   0.360  0.3748  0.7382 -2.4046
  674MPD2    H2 9976   3.218   1.350   0.137  1.6045  1.1946 -0.4247
  674MPD2    H3 9977   3.121   1.571   0.174 -2.2087 -0.2643  0.1267
  674MPD2     N 9978   2.939   1.431   0.571  0.1561 -0.7998 -0.5402
  674MPD2    H5 9979   2.948   1.354   0.636  0.4193  1.1314  1.7543
  674MPD2    N1 9980   3.182   1.131   0.313 -0.2888 -0.1389  0.7095
  674MPD2    H7 9981   3.175   1.071   0.394 -1.2362  1.7868  2.0684
  675TMC3    C1 9982   3.219   0.927   0.229  0.1528 -0.1412  0.4387
  675TMC3    C2 9983   3.108   0.858   0.189 -0.2142 -0.4230  0.1888
  675TMC3    C3 9984   3.070   0.758   0.276 -0.3651  0.6512  0.7931
  675TMC3    C4 9985   3.289   0.904   0.346  0.2610 -0.3210  0.1982
  675TMC3    C5 9986   3.240   0.806   0.425  0.2905  0.1036 -0.2790
  675TMC3    C6 9987   3.131   0.729   0.394  0.8469 -0.4842 -0.8714
  675TMC3     C 9988   3.217   1.068   0.202  0.0161 -0.1911 -0.0873
  675TMC3     O 9989   3.263   1.105   0.093  0.0638  0.3897  0.7457
  675TMC3     H 9990   3.049   0.888   0.104  1.2334  0.2793 -0.5696
  675TMC3    H1 9991   3.370   0.969   0.377  0.2818 -0.1269 -0.2746
  675TMC3    H2 9992   3.104   0.643   0.454  0.1871  0.0150 -0.4557
  675TMC3    C7 9993   3.322   0.751   0.530  0.4891 -0.5537 -0.1001
  675TMC3    C8 9994   2.952   0.683   0.248 -0.1710  0.1204  0.7357
  675TMC3    O1 9995   3.275   0.663   0.600  0.4949 -0.1734 -0.5495
  675TMC3    O2 9996   2.935   0.666   0.127 -0.4147  0.1022 -0.3502
  676MPD2     C 9997   1.286   4.080  11.020  0.7225  0.0889  0.6422
  676MPD2    C1 9998   1.166   4.043  11.077  0.0902  0.1789 -0.4052
  676MPD2    C2 9999   1.123   3.914  11.067  0.1788  0.4211 -0.1097
  676MPD2    C310000   1.197   3.820  11.006  0.1065 -0.2899 -0.3760
  676MPD2    C410001   1.322   3.854  10.959 -0.3994 -0.4922 -0.2112
  676MPD2    C510002   1.361   3.987  10.953 -0.1148  0.0832 -0.6737
  676MPD2     H10003   1.029   3.889  11.115  0.7137 -0.0485  0.6880
  676MPD2    H110004   1.382   3.778  10.909 -0.6282 -1.1096  0.4533
  676MPD2    H210005   1.328   4.179  11.033  0.4394  0.5659 -2.2463
  676MPD2    H310006   1.458   4.009  10.908  0.6656 -1.3044  0.3470
  676MPD2     N10007   1.155   3.688  10.991  0.1952 -0.3439  0.1772
  676MPD2    H510008   1.227   3.624  10.959  1.2366  1.6050 -1.3790
  676MPD2    N110009   1.081   4.131  11.148 -0.4251  0.0849 -0.5484
  676MPD2    H710010   1.019   4.087  11.216  0.3301 -1.0443 -0.5918
  677TMC3    C110011   1.021   4.344  11.231  1.0311 -0.8119 -0.5217
  677TMC3    C210012   0.998   4.299  11.359 -0.0949  0.1328 -0.4598
  677TMC3    C310013   0.949   4.397  11.442 -0.0820 -0.0661  0.8620
  677TMC3    C410014   1.011   4.470  11.191  0.2060  0.3374 -0.4032
  677TMC3    C510015   0.959   4.560  11.280 -0.0971  0.5430 -0.3402
  677TMC3    C610016   0.921   4.523  11.405 -0.2194  1.0482  0.0209
  677TMC3     C10017   1.099   4.268  11.143 -0.6731 -0.4620 -0.1955
  677TMC3     O10018   1.164   4.327  11.061  0.2932 -0.1629  0.1155
  677TMC3     H10019   1.025   4.197  11.380  2.2571  0.6411 -1.0278
  677TMC3    H110020   1.046   4.494  11.092 -0.2477 -1.1673 -0.9333
  677TMC3    H210021   0.908   4.601  11.479  2.0167  2.5014 -1.1272
  677TMC3    C710022   0.986   4.703  11.275 -0.3277 -0.2279  0.0420
  677TMC3    C810023   0.920   4.372  11.581 -0.2388 -0.2134  0.1098
  677TMC3    O110024   0.918   0.059  11.347 -0.0121 -0.3927 -0.4789
  677TMC3    O210025   0.893   4.457  11.662 -0.0075 -0.1897  0.2982
  678MPD2     C10026   1.567   3.739   1.602  0.3075 -0.3932  0.1542
  678MPD2    C110027   1.534   3.742   1.470  0.3965  0.5023  0.7002
  678MPD2    C210028   1.398   3.725   1.431  0.1253 -0.2185  0.3193
  678MPD2    C310029   1.307   3.671   1.523 -0.4003  0.6972 -0.6728
  678MPD2    C410030   1.342   3.673   1.655 -0.7655 -0.8486  0.0291
  678MPD2    C510031   1.470   3.717   1.690  0.5536 -0.1738  0.6001
  678MPD2     H10032   1.377   3.721   1.325 -0.0173 -0.7095  0.3651
  678MPD2    H110033   1.276   3.644   1.735  1.5562 -1.5810  1.6961
  678MPD2    H210034   1.663   3.763   1.646  1.1163 -0.8538 -1.3651
  678MPD2    H310035   1.499   3.704   1.794 -2.5578 -1.0791  1.3562
  678MPD2     N10036   1.182   3.627   1.490  0.0910  0.1525 -0.4058
  678MPD2    H510037   1.165   3.615   1.390  0.9889 -2.5979 -0.2420
  678MPD2    N110038   1.639   3.770   1.379  0.2938  0.2315 -0.3550
  678MPD2    H710039   1.615   3.798   1.284 -2.2084 -0.1579  0.1512
  679TMC3    C110040   2.079   3.829   1.251  0.5958  0.1875 -0.8286
  679TMC3    C210041   1.990   3.760   1.331 -0.5907  0.4788  1.1165
  679TMC3    C310042   1.863   3.792   1.314 -0.2649  0.1804  0.5536
  679TMC3    C410043   2.053   3.940   1.174  0.1831 -0.2146 -0.3789
  679TMC3    C510044   1.925   3.973   1.182 -0.2474 -0.2043  0.8165
  679TMC3    C610045   1.828   3.906   1.243 -0.1056  0.4217  0.6304
  679TMC3     C10046   2.218   3.781   1.275  0.5912 -0.7149  0.8554
  679TMC3     O10047   2.229   3.669   1.318 -0.2278  0.2298  0.3192
  679TMC3     H10048   2.021   3.672   1.386  0.1175  1.2124  1.8930
  679TMC3    H110049   2.122   3.993   1.110 -1.8519  1.2366 -1.3486
  679TMC3    H210050   1.724   3.935   1.232 -0.8426 -2.4715  0.1833
  679TMC3    C710051   1.905   4.114   1.140  0.0991  1.1834 -0.6774
  679TMC3    C810052   1.769   3.725   1.402  1.1483 -0.1308 -0.8147
  679TMC3    O110053   1.968   4.151   1.046  0.0175 -0.1264 -0.5885
  679TMC3    O210054   1.814   3.665   1.497  0.1625 -0.6791 -0.2147
  680MPD2     C10055   3.034   2.936  13.145  0.0412  0.1452 -0.8103
  680MPD2    C110056   3.033   2.851  13.258 -0.1878 -0.0597  0.1599
  680MPD2    C210057   3.077   2.900  13.377  0.6251 -0.5250  0.6355
  680MPD2    C310058   3.103   3.033  13.392  0.6713  0.3650  0.1662
  680MPD2    C410059   3.096   3.114  13.285  0.0419  0.2628  0.1539
  680MPD2    C510060   3.066   3.070  13.161  1.0798 -0.2442 -0.1148
  680MPD2     H10061   3.065   2.830  13.459  0.0201 -0.3614  0.6919
  680MPD2    H110062   3.121   3.219  13.297 -0.6428  0.4723 -0.2415
  680MPD2    H210063   3.011   2.908  13.042 -0.1499 -0.5504 -0.5747
  680MPD2    H310064   3.043   3.140  13.081 -1.7522  0.3341  1.2141
  680MPD2     N10065   3.132   3.095  13.512 -0.2613  0.2927 -0.2026
  680MPD2    H510066   3.133   3.196  13.511  2.5280  0.2407 -3.0331
  680MPD2    N110067   3.003   2.707  13.252 -0.0827 -0.4019  0.8596
  680MPD2    H710068   3.018   2.653  13.337 -4.4348 -0.0914  1.8166
  681TMC3    C110069   2.967   2.499  13.160  0.2040  0.2660 -0.5125
  681TMC3    C210070   2.898   2.451  13.265 -0.1158 -0.6680  0.6490
  681TMC3    C310071   2.880   2.314  13.276  0.8859 -1.1257 -0.1903
  681TMC3    C410072   3.014   2.419  13.061  0.0765  0.7658  0.2486
  681TMC3    C510073   3.004   2.282  13.077  0.3405 -0.3244 -0.0586
  681TMC3    C610074   2.924   2.222  13.174  0.4140  0.5367  0.0876
  681TMC3     C10075   2.977   2.642  13.136 -0.0366  0.8093  0.3163
  681TMC3     O10076   2.979   2.674  13.018 -0.1170  0.3566 -0.0868
  681TMC3     H10077   2.860   2.520  13.339  1.5691 -0.0115  0.9012
  681TMC3    H110078   3.057   2.469  12.975 -1.3384  0.1294 -0.8278
  681TMC3    H210079   2.932   2.115  13.191  1.0066  0.9197  2.2299
  681TMC3    C710080   3.120   2.206  13.031  0.8849 -0.0625  0.2321
  681TMC3    C810081   2.828   2.254  13.396  0.6174 -0.5094  0.3518
  681TMC3    O110082   3.139   2.098  13.079 -0.6641 -0.2506  0.1170
  681TMC3    O210083   2.779   2.143  13.375 -0.0989 -0.7214 -1.0515
  682MPD2     C10084   0.185   4.046  10.678 -0.1528 -0.7875 -0.8762
  682MPD2    C110085   0.297   3.966  10.697  0.0620  0.4184 -0.5725
  682MPD2    C210086   0.344   3.930  10.825 -0.0115 -0.1335 -0.3509
  682MPD2    C310087   0.270   3.966  10.938  0.9555  0.6007 -0.4055
  682MPD2    C410088   0.156   4.048  10.919  0.1257 -0.6170 -0.0621
  682MPD2    C510089   0.122   4.088  10.790  0.0048  0.5058 -0.2258
  682MPD2     H10090   0.429   3.863  10.826 -1.1989 -1.6083  1.9158
  682MPD2    H110091   0.105   4.083  11.007  1.5669  0.9698  0.1285
  682MPD2    H210092   0.154   4.084  10.582 -1.1283 -1.3383 -0.7804
  682MPD2    H310093   0.035   4.151  10.778 -0.4753 -0.6666 -3.0814
  682MPD2     N10094   0.306   3.930  11.068 -0.5298 -0.3647  0.1046
  682MPD2    H510095   0.252   3.963  11.147  0.1261 -1.4896  1.0308
  682MPD2    N110096   0.372   3.923  10.587 -0.3100  0.0744  0.1035
  682MPD2    H710097   0.459   3.876  10.610  1.3504  3.1042 -0.0590
  683TMC3    C110098   0.420   3.878  11.470 -0.2931 -0.8163  0.1417
  683TMC3    C210099   0.495   3.769  11.501  0.6047  0.3615 -0.0164
  683TMC3    C310100   0.545   3.700  11.397  0.2036  0.2783 -0.4034
  683TMC3    C410101   0.388   3.923  11.346 -0.2927 -0.7933  0.7798
  683TMC3    C510102   0.440   3.844  11.240 -0.8564  0.2009 -0.2466
  683TMC3    C610103   0.524   3.747  11.270 -0.4849  0.0866  0.2677
  683TMC3     C10104   0.332   3.927  11.574  0.1995  0.4636 -0.2094
  683TMC3     O10105   0.378   3.967  11.675 -0.4948  0.0698  0.1347
  683TMC3     H10106   0.516   3.749  11.605 -1.2756 -0.4731  0.1976
  683TMC3    H110107   0.311   3.997  11.328  2.1561  1.8663  1.3918
  683TMC3    H210108   0.544   3.678  11.189 -0.7267 -1.4785  1.5405
  683TMC3    C710109   0.421   3.865  11.100 -0.7584  0.8481 -0.1139
  683TMC3    C810110   0.629   3.583  11.416 -0.5087 -1.1807  0.0877
  683TMC3    O110111   0.521   3.843  11.030 -0.4964 -0.4390 -0.2418
  683TMC3    O210112   0.685   3.544  11.315 -0.5011 -0.1711  0.0026
  684MPD2     C10113   2.416   3.543  16.629  0.2990  0.7327  0.0348
  684MPD2    C110114   2.545   3.580  16.589  0.8525  0.4739 -0.0083
  684MPD2    C210115   2.590   3.715  16.595  0.0560 -0.1241 -0.5747
  684MPD2    C310116   2.500   3.813  16.634  0.5246  0.0075 -0.2663
  684MPD2    C410117   2.375   3.771  16.675 -0.3920  0.8703  0.2836
  684MPD2    C510118   2.336   3.640  16.680 -0.3107  0.1871  0.3477
  684MPD2     H10119   2.694   3.738  16.578  0.7182 -2.3017  0.5381
  684MPD2    H110120   2.299   3.840  16.709  0.6376  1.1338  2.0799
  684MPD2    H210121   2.376   3.442  16.626 -0.3604  0.9729  0.8512
  684MPD2    H310122   2.237   3.625  16.722 -0.4115  1.3224  0.5133
  684MPD2     N10123   2.541   3.951  16.627  0.6726  0.1763  0.0638
  684MPD2    H510124   2.629   3.969  16.579  0.0738  0.0296 -1.0901
  684MPD2    N110125   2.613   3.480  16.527 -0.4977  0.2991 -0.3377
  684MPD2    H710126   2.565   3.393  16.505 -0.3098 -0.2321  1.3202
  685TMC3    C110127   2.763   3.372  16.390  0.2162 -0.3535 -0.1302
  685TMC3    C210128   2.669   3.344  16.292 -0.2108  0.4631 -0.5257
  685TMC3    C310129   2.710   3.280  16.179 -0.9223  0.0350 -0.5723
  685TMC3    C410130   2.889   3.339  16.375 -0.3543 -0.3392 -0.2557
  685TMC3    C510131   2.932   3.282  16.255 -0.3292  0.1992  0.3588
  685TMC3    C610132   2.842   3.251  16.154 -0.2412  0.1442 -0.0156
  685TMC3     C10133   2.737   3.485  16.480  0.7921 -0.4993  0.9017
  685TMC3     O10134   2.834   3.558  16.500 -0.2407  0.3347  0.2444
  685TMC3     H10135   2.565   3.350  16.321 -0.3306  4.0170 -1.6880
  685TMC3    H110136   2.957   3.347  16.460 -0.6571  0.7480 -0.1104
  685TMC3    H210137   2.868   3.197  16.064  0.2246 -3.0833  2.0448
  685TMC3    C710138   3.069   3.252  16.245  0.2114  1.0964  0.2533
  685TMC3    C810139   2.618   3.258  16.061 -0.2279  0.0619 -0.6707
  685TMC3    O110140   3.125   3.208  16.347  0.0477  0.6209 -0.4150
  685TMC3    O210141   2.679   3.208  15.968  0.0903 -0.6521 -0.2700
  686MPD2     C10142   3.823   3.265  15.477 -0.0466  0.7664  0.0580
  686MPD2    C110143   3.944   3.205  15.481 -0.8245  0.6036  0.0509
  686MPD2    C210144   4.006   3.145  15.371 -0.5624  0.2258 -0.4594
  686MPD2    C310145   3.924   3.139  15.255 -1.5770 -0.2963  0.0832
  686MPD2    C410146   3.809   3.214  15.249  0.7366  0.9148  0.7963
  686MPD2    C510147   3.759   3.284  15.357 -0.7539 -1.3492  0.0547
  686MPD2     H10148   4.098   3.088  15.377 -1.0279 -0.3385  1.2258
  686MPD2    H110149   3.754   3.213  15.156  0.2838  1.3403  1.0600
  686MPD2    H210150   3.776   3.313  15.562 -0.9388  0.7351 -0.4154
  686MPD2    H310151   3.671   3.347  15.348  0.8932  0.6991 -1.4187
  686MPD2     N10152   3.976   3.078  15.137  0.2647  0.2593  0.6438
  686MPD2    H510153   3.958   3.125  15.049  0.9368  0.2532  0.5065
  686MPD2    N110154   3.999   3.186  15.616 -0.0694  0.2093 -0.1460
  686MPD2    H710155   3.941   3.212  15.695 -0.9375 -1.6874 -0.1598
  687TMC3    C110156   4.048   2.861  15.213 -0.8274  0.4357  0.4545
  687TMC3    C210157   3.944   2.855  15.303 -1.4745 -0.1063 -0.1951
  687TMC3    C310158   3.966   2.821  15.430 -0.5918  0.0658  0.7803
  687TMC3    C410159   4.163   2.801  15.254 -0.0203  0.3457 -0.4099
  687TMC3    C510160   4.185   2.777  15.384  0.3304  0.5646 -0.1520
  687TMC3    C610161   4.095   2.802  15.475 -0.3199  1.0098 -0.2892
  687TMC3     C10162   4.071   2.980  15.132 -0.6521 -0.3891 -0.4451
  687TMC3     O10163   4.167   2.980  15.053  0.0500  0.1961  0.6739
  687TMC3     H10164   3.852   2.895  15.261 -0.7786  1.2654 -0.4320
  687TMC3    H110165   4.249   2.803  15.187  0.4414  0.3513  0.1824
  687TMC3    H210166   4.113   2.785  15.581 -0.8983 -4.2423 -1.0453
  687TMC3    C710167   4.316   2.751  15.425 -0.2439 -0.1255  0.1397
  687TMC3    C810168   3.861   2.826  15.534 -0.4555  0.0320 -0.8298
  687TMC3    O110169   4.395   2.690  15.358 -0.1087 -0.0837 -1.0019
  687TMC3    O210170   3.897   2.791  15.647  0.1964 -0.4017  0.2013
  688MPD2     C10171   3.238   2.334  17.215 -0.1005 -0.2567  0.3231
  688MPD2    C110172   3.278   2.220  17.268  0.5151  0.2843  0.0445
  688MPD2    C210173   3.351   2.128  17.189  0.0163 -0.3236 -0.4553
  688MPD2    C310174   3.382   2.157  17.053  0.4495  0.7323 -0.1255
  688MPD2    C410175   3.335   2.276  17.003 -0.0692  0.4104 -0.4905
  688MPD2    C510176   3.262   2.364  17.085  0.1017  0.3078 -0.3400
  688MPD2     H10177   3.392   2.041  17.239 -0.3576 -0.8202 -1.0011
  688MPD2    H110178   3.355   2.301  16.900  1.1623  3.0799  0.3978
  688MPD2    H210179   3.176   2.405  17.267  1.1575  1.9046 -1.1267
  688MPD2    H310180   3.233   2.457  17.038  0.9683  0.5327 -0.4259
  688MPD2     N10181   3.467   2.077  16.975  0.3170  0.7537  0.7050
  688MPD2    H510182   3.496   2.122  16.888  1.1730  0.7813  1.0022
  688MPD2    N110183   3.247   2.195  17.400  0.7447  0.1571  0.3444
  688MPD2    H710184   3.198   2.276  17.438  1.0559  1.0951 -1.2829
  689TMC3    C110185   3.196   2.080  17.604 -0.7597  0.0377 -0.5034
  689TMC3    C210186   3.136   2.195  17.652 -0.6289  0.0895  0.0470
  689TMC3    C310187   3.009   2.181   0.021 -0.5545  0.3334  0.4179
  689TMC3    C410188   3.144   1.955  17.634  0.2627 -0.4400 -0.0453
  689TMC3    C510189   3.031   1.947   0.017 -0.7072 -0.0387 -0.7098
  689TMC3    C610190   2.958   2.057   0.056 -0.6733 -0.7926 -0.2548
  689TMC3     C10191   3.283   2.091  17.487  0.1316  0.4802 -0.4619
  689TMC3     O10192   3.343   1.985  17.466 -0.4872  0.3089  0.5616
  689TMC3     H10193   3.181   2.291  17.631  1.4693 -0.6938  1.0143
  689TMC3    H110194   3.184   1.869  17.580  0.3152  0.8258 -2.0178
  689TMC3    H210195   2.862   2.045   0.106  0.3956 -0.8829  1.7960
  689TMC3    C710196   2.934   1.852  17.655  0.3374 -0.2708  0.1926
  689TMC3    C810197   2.953   2.296   0.089  0.2523  0.3369  0.4414
  689TMC3    O110198   2.916   1.843  17.537  0.0486 -0.2392 -0.4808
  689TMC3    O210199   3.030   2.392   0.110  0.9197  0.2734  0.8057
  690MPD2     C10200   1.005   4.064  15.975 -0.3708  0.0423 -0.1879
  690MPD2    C110201   0.949   4.053  15.855 -0.1372  0.4438 -0.4156
  690MPD2    C210202   0.996   4.131  15.756 -0.1166  0.0695  0.0334
  690MPD2    C310203   1.105   4.211  15.772  0.0009 -0.2403  0.1616
  690MPD2    C410204   1.163   4.217  15.893 -0.0417  0.0515  0.8370
  690MPD2    C510205   1.112   4.143  15.999  0.1853  0.4338 -1.3670
  690MPD2     H10206   0.945   4.133  15.660  0.8203  1.4991 -0.4313
  690MPD2    H110207   1.249   4.282  15.906 -1.3155  1.5989  1.4777
  690MPD2    H210208   0.971   4.004  16.059 -0.1264 -1.4691 -1.1640
  690MPD2    H310209   1.160   4.151  16.096 -2.3487  0.5282 -0.1218
  690MPD2     N10210   1.149   4.295  15.661 -0.5016  0.0892  0.6376
  690MPD2    H510211   1.105   4.274  15.572 -0.1641 -0.8879  0.6940
  690MPD2    N110212   0.833   3.978  15.830  0.1005 -0.9893 -0.0794
  690MPD2    H710213   0.805   3.971  15.732 -0.7753  0.1431  0.0920
  691TMC3    C110214   0.665   3.827  15.862 -0.8601  0.4236 -0.3851
  691TMC3    C210215   0.551   3.798  15.945 -0.2500  0.3462 -0.0400
  691TMC3    C310216   0.489   3.678  15.930 -0.3941 -0.6050  0.1943
  691TMC3    C410217   0.724   3.729  15.786  0.2063  0.5234  0.3033
  691TMC3    C510218   0.655   3.607  15.768  0.4453  0.1163  0.3096
  691TMC3    C610219   0.544   3.582  15.848  0.7559  0.4239 -0.0132
  691TMC3     C10220   0.758   3.918  15.925  0.1701 -0.3358 -0.0521
  691TMC3     O10221   0.760   3.933  16.051 -0.0997  0.1769  0.6534
  691TMC3     H10222   0.535   3.864  16.029 -1.7464  1.1656 -0.9824
  691TMC3    H110223   0.820   3.745  15.738 -0.2589  0.1100 -0.7672
  691TMC3    H210224   0.497   3.484  15.850  1.4893  0.0969  1.7034
  691TMC3    C710225   0.728   3.502  15.707  0.5077 -0.0236 -0.3812
  691TMC3    C810226   0.368   3.640  16.013  0.7533 -0.8051  0.4371
  691TMC3    O110227   0.851   3.504  15.713  0.0738 -0.2161  0.0458
  691TMC3    O210228   0.336   3.523  16.029 -0.7746  0.5601  0.2710
  692TMC3    C110229   2.125   0.511  16.396  0.8056  0.3001  0.7114
  692TMC3    C210230   2.240   0.495  16.465  0.2791 -0.3905 -0.2853
  692TMC3    C310231   2.341   0.416  16.411 -0.0792  0.1883 -0.6467
  692TMC3    C410232   2.100   0.450  16.276 -0.3706 -0.4346 -0.6673
  692TMC3    C510233   2.208   0.387  16.218 -0.1323  0.7118  0.1285
  692TMC3    C610234   2.332   0.381  16.278 -0.5164 -0.5749 -0.2555
  692TMC3     C10235   2.027   0.611  16.441  0.2847  0.9240  0.4771
  692TMC3     O10236   1.917   0.593  16.392  0.2684  0.1795  0.2781
  692TMC3     H10237   2.252   0.530  16.567  0.5389  0.8773 -0.7550
  692TMC3    H110238   2.001   0.460  16.234 -0.5840 -1.1625 -0.3377
  692TMC3    H210239   2.405   0.313  16.235 -1.0310 -0.6498 -1.0128
  692TMC3    C710240   2.165   0.262  16.164 -0.2463 -0.9668 -0.2811
  692TMC3    C810241   2.381   0.301  16.487 -0.0721 -0.0025 -0.0777
  692TMC3    O110242   2.068   0.265  16.093 -0.3117  0.0950  0.1641
  692TMC3    O210243   2.447   0.226  16.417  0.0282  0.0428  0.1339
  693MPD2     C10244   2.213   2.845  10.508  0.1671 -0.2590 -0.7115
  693MPD2    C110245   2.186   2.707  10.509  0.8836 -0.1822  0.2888
  693MPD2    C210246   2.289   2.617  10.540  0.0303  0.2833  0.1721
  693MPD2    C310247   2.418   2.670  10.574  0.3289  0.4119 -0.2830
  693MPD2    C410248   2.440   2.809  10.579  0.0358  0.4324 -0.0611
  693MPD2    C510249   2.341   2.897  10.536  0.5441  0.4631  1.1278
  693MPD2     H10250   2.269   2.512  10.554 -0.9000  0.1711 -1.9702
  693MPD2    H110251   2.536   2.844  10.617 -0.8199  1.5879  1.0304
  693MPD2    H210252   2.131   2.908  10.476 -0.3617 -1.3314 -1.4500
  693MPD2    H310253   2.357   3.004  10.546  2.9791  0.0057  1.8894
  693MPD2     N10254   2.530   2.589  10.615  0.4972  0.2210  0.0117
  693MPD2    H510255   2.602   2.649  10.652  0.0151 -0.1236  1.4934
  693MPD2    N110256   2.059   2.660  10.479 -0.2807 -0.0460 -0.3742
  693MPD2    H710257   1.983   2.725  10.498  0.1511 -0.1871  1.7655
  694TMC3    C110258   1.903   2.493  10.446 -0.2081  0.1001  0.2567
  694TMC3    C210259   1.871   2.369  10.415 -0.3116 -0.0493 -0.1433
  694TMC3    C310260   1.765   2.307  10.479 -0.0626 -0.0767 -0.0298
  694TMC3    C410261   1.843   2.545  10.559 -0.0057  0.0566 -0.1998
  694TMC3    C510262   1.750   2.474  10.629 -0.1260 -0.6627  0.2332
  694TMC3    C610263   1.696   2.359  10.586 -0.0712 -0.6660  0.8671
  694TMC3     C10264   2.038   2.532  10.425  0.1641  0.0632 -0.2902
  694TMC3     O10265   2.117   2.439  10.396  0.3294  0.4931 -0.8262
  694TMC3     H10266   1.925   2.326  10.331  0.8160  0.3691  0.3742
  694TMC3    H110267   1.875   2.635  10.610 -1.1135  1.3622 -1.8407
  694TMC3    H210268   1.615   2.313  10.641 -1.2597 -1.0462 -1.2442
  694TMC3    C710269   1.741   2.508  10.772  0.4339 -0.1740 -0.2538
  694TMC3    C810270   1.715   2.181  10.427 -0.3283 -0.0148 -0.5300
  694TMC3    O110271   1.765   2.621  10.812 -0.7550 -0.0127  0.5276
  694TMC3    O210272   1.611   2.137  10.474  0.2314  0.6719 -0.7279
  695MPD2     C10273   2.651   4.502  14.050  0.3864 -0.0132 -0.3301
  695MPD2    C110274   2.646   4.561  14.181 -0.2736  0.1933 -0.7031
  695MPD2    C210275   2.526   4.610  14.222 -0.0944  0.3555  0.2777
  695MPD2    C310276   2.411   4.612  14.145 -0.5024  0.1890  0.5381
  695MPD2    C410277   2.423   4.559  14.018 -0.4115 -0.0077 -0.8182
  695MPD2    C510278   2.538   4.494  13.980 -0.9241  0.3283 -0.1164
  695MPD2     H10279   2.523   4.661  14.318  0.4509  1.4638 -0.2844
  695MPD2    H110280   2.341   4.550  13.948  0.0575 -2.4982 -1.0291
  695MPD2    H210281   2.739   4.456  14.007  0.3163 -0.2928 -0.1744
  695MPD2    H310282   2.540   4.451  13.880 -0.7648 -0.6427  0.3032
  695MPD2     N10283   2.289   4.654  14.196  0.6042  0.2180  0.2873
  695MPD2    H510284   2.299   4.698  14.287  2.5642 -0.2069  0.2662
  695MPD2    N110285   2.757   4.586  14.264 -0.2220 -0.1956  0.4559
  695MPD2    H710286   2.749   4.603  14.363  1.8706 -0.0173  0.6058
  696TMC3    C110287   2.070   0.024  14.208  0.1150 -0.0942  0.3320
  696TMC3    C210288   2.104   0.060  14.341  0.7607  0.2987  0.9470
  696TMC3    C310289   2.021   0.149  14.390  0.4468  0.6468  0.2856
  696TMC3    C410290   1.968   0.079  14.131  0.2030  0.5379  0.5684
  696TMC3    C510291   1.899   0.184  14.185  0.7124  0.4096  0.7413
  696TMC3    C610292   1.922   0.216  14.320  0.1034  0.8329 -0.4311
  696TMC3     C10293   2.168   4.661  14.132 -0.2099  0.6635 -0.0053
  696TMC3     O10294   2.128   4.631  14.021  0.5000  0.3983 -0.0776
  696TMC3     H10295   2.168   0.006  14.410  2.4922 -0.1508 -1.0024
  696TMC3    H110296   1.960   0.058  14.025 -2.4234  2.4667  0.4001
  696TMC3    H210297   1.852   0.273  14.380 -1.4162 -0.3732 -1.0896
  696TMC3    C710298   1.884   0.299  14.104  0.5226  0.3169 -0.7022
  696TMC3    C810299   2.094   0.233  14.484 -0.3933 -0.2350 -0.2596
  696TMC3    O110300   1.873   0.285  13.983 -1.1918 -0.0514 -0.2546
  696TMC3    O210301   2.096   0.201  14.601  0.2963  0.4061  0.4292
  697MPD2     C10302   1.761   2.525  15.704 -0.2287 -0.3800 -0.1065
  697MPD2    C110303   1.824   2.433  15.621 -0.1136 -0.5770  0.2333
  697MPD2    C210304   1.897   2.484  15.514  0.1764 -0.5221 -0.2744
  697MPD2    C310305   1.916   2.617  15.496 -0.2117  0.3424 -0.0582
  697MPD2    C410306   1.858   2.706  15.583  0.6894 -0.7492 -0.3124
  697MPD2    C510307   1.778   2.658  15.680  0.3404 -1.0929  0.5481
  697MPD2     H10308   1.941   2.403  15.456 -0.9319 -2.0858  1.0403
  697MPD2    H110309   1.867   2.814  15.576 -0.4655 -0.5779  1.0880
  697MPD2    H210310   1.707   2.500  15.794 -1.3818  0.3123 -0.6052
  697MPD2    H310311   1.724   2.726  15.745 -0.9072 -2.3667  0.8551
  697MPD2     N10312   2.003   2.656  15.394  0.2339 -0.0037 -0.3368
  697MPD2    H510313   2.021   2.585  15.324  2.3121  2.3695 -2.2079
  697MPD2    N110314   1.816   2.285  15.631 -0.1192  0.2689  0.2631
  697MPD2    H710315   1.863   2.227  15.563 -0.7629 -0.0267  0.0753
  698TMC3    C110316   2.177   2.778  15.288  0.6221 -0.0745  0.0217
  698TMC3    C210317   2.246   2.896  15.277 -0.5201 -0.0935  0.6412
  698TMC3    C310318   2.374   2.898  15.216  0.2888  0.1455 -0.2176
  698TMC3    C410319   2.235   2.660  15.256 -1.2257  0.0672 -0.2357
  698TMC3    C510320   2.357   2.662  15.190  0.0490 -0.6662 -0.1538
  698TMC3    C610321   2.422   2.780  15.173 -0.5925 -0.0743  0.8610
  698TMC3     C10322   2.076   2.772  15.392  0.6746  0.2297  0.3988
  698TMC3     O10323   2.075   2.870  15.467  0.3666  0.1769 -0.1305
  698TMC3     H10324   2.198   2.985  15.314 -1.8942 -0.7192  0.3530
  698TMC3    H110325   2.188   2.562  15.259  1.6007 -1.1835  3.4778
  698TMC3    H210326   2.511   2.776  15.112 -0.9227 -1.0219  0.4480
  698TMC3    C710327   2.377   2.566  15.083 -0.5329 -0.2017  0.1900
  698TMC3    C810328   2.427   3.020  15.179 -0.2905  0.4215  0.3663
  698TMC3    O110329   2.281   2.529  15.014  0.6478  0.5251  0.4809
  698TMC3    O210330   2.353   3.119  15.181  0.1669 -0.3109  0.1110
  699TMC3    C110331   2.467   0.258  13.142  0.2981 -0.0272  0.6233
  699TMC3    C210332   2.437   0.125  13.175  0.2737  0.2595  0.5596
  699TMC3    C310333   2.399   0.094  13.302  0.2028 -0.1525 -0.3202
  699TMC3    C410334   2.457   0.361  13.232  0.6289 -0.0574  0.7707
  699TMC3    C510335   2.416   0.322  13.357 -0.6718 -0.3320 -0.3333
  699TMC3    C610336   2.376   0.193  13.390  0.1754 -0.4327 -0.4387
  699TMC3     C10337   2.457   0.284  12.995 -0.6527 -0.1263 -0.4080
  699TMC3     O10338   2.544   0.360  12.956  0.3075 -0.0546  0.1461
  699TMC3     H10339   2.451   0.051  13.096  2.0607  0.5912  0.5892
  699TMC3    H110340   2.448   0.466  13.207  0.4035 -0.1267  0.5648
  699TMC3    H210341   2.316   0.174  13.478 -0.6709 -0.9789 -1.1456
  699TMC3    C710342   2.357   0.420  13.445  0.7535  0.3577  0.2706
  699TMC3    C810343   2.345   4.685  13.314  0.2347  0.4767 -0.0042
  699TMC3    O110344   2.254   0.398  13.505  0.1344  0.2073  0.3561
  699TMC3    O210345   2.314   4.626  13.212  0.0258  0.3518  0.5453
  700TMC3    C110346   0.972   2.584  17.132 -0.0132  0.2327 -0.1041
  700TMC3    C210347   0.968   2.452  17.170 -0.3271 -0.1795  0.4457
  700TMC3    C310348   0.971   2.422  17.305  0.3797  0.0467  0.4547
  700TMC3    C410349   0.950   2.684  17.228 -0.3401 -0.1163 -0.2574
  700TMC3    C510350   0.930   2.648  17.359  0.1049 -0.0032 -0.7643
  700TMC3    C610351   0.949   2.517  17.401 -0.7436 -0.6685  0.1424
  700TMC3     C10352   1.010   2.615  16.996 -0.1530  0.2105  0.7750
  700TMC3     O10353   0.994   2.534  16.908 -0.1076 -0.1445 -0.0274
  700TMC3     H10354   0.999   2.379  17.095 -3.8561 -0.8477 -0.3247
  700TMC3    H110355   0.926   2.785  17.196  3.0099  0.3231 -1.4812
  700TMC3    H210356   0.905   2.484  17.495 -0.9409  1.9046  0.9584
  700TMC3    C710357   0.949   2.752  17.455 -0.1347 -0.1200 -0.1956
  700TMC3    C810358   0.965   2.282  17.342 -0.0112 -0.4789 -0.2110
  700TMC3    O110359   0.979   2.857  17.400 -0.1803 -0.3663 -0.5084
  700TMC3    O210360   0.864   2.245  17.400  0.0764 -0.0443  0.1855
  701TMC3    C110361   1.206   1.313  15.629  0.3709 -0.8583  0.1169
  701TMC3    C210362   1.195   1.273  15.495 -0.4394 -0.4644 -0.1564
  701TMC3    C310363   1.232   1.368  15.404 -0.1151 -0.2473 -0.3159
  701TMC3    C410364   1.254   1.435  15.675  0.0259 -0.2033  0.4085
  701TMC3    C510365   1.307   1.510  15.577  0.7765  0.2952 -0.4409
  701TMC3    C610366   1.297   1.481  15.444  0.3719  0.1619 -0.7942
  701TMC3     C10367   1.128   1.238  15.724  0.2839 -0.7045 -0.3360
  701TMC3     O10368   1.092   1.295  15.826  0.2670 -0.8737 -0.3116
  701TMC3     H10369   1.117   1.199  15.480 -0.5991 -0.0836 -1.1678
  701TMC3    H110370   1.261   1.458  15.781  1.8620  1.4181 -0.0608
  701TMC3    H210371   1.356   1.537  15.372  0.7844  1.3646  0.4834
  701TMC3    C710372   1.334   1.658  15.598 -0.6203  0.0721 -0.3568
  701TMC3    C810373   1.195   1.366  15.267 -0.1280  0.0259  0.2952
  701TMC3    O110374   1.377   1.718  15.501  0.5296  0.2977 -0.7995
  701TMC3    O210375   1.202   1.469  15.194  0.5343 -0.2054 -0.6859
  702MPD2     C10376   1.419   3.157  10.660  0.3772  0.9915  0.2608
  702MPD2    C110377   1.364   3.279  10.691 -0.3511 -0.7472 -0.0109
  702MPD2    C210378   1.390   3.382  10.597 -1.1229  0.8586 -0.6357
  702MPD2    C310379   1.470   3.369  10.487  0.1202  0.6405 -1.1299
  702MPD2    C410380   1.526   3.246  10.468  0.8466  1.2900 -0.7246
  702MPD2    C510381   1.503   3.141  10.555 -0.2944  0.4013  0.4307
  702MPD2     H10382   1.331   3.472  10.606  0.6659  2.0750 -0.9025
  702MPD2    H110383   1.592   3.230  10.384 -1.3725  1.0093 -2.4028
  702MPD2    H210384   1.411   3.079  10.734 -0.1983  0.2011 -0.6347
  702MPD2    H310385   1.567   3.055  10.544  1.3513  1.7834 -0.6407
  702MPD2     N10386   1.480   3.469  10.389 -0.1136  0.2999 -0.4302
  702MPD2    H510387   1.531   3.446  10.304  0.8410  0.9272 -0.0393
  702MPD2    N110388   1.280   3.301  10.806 -0.2053  0.3494 -0.0952
  702MPD2    H710389   1.242   3.394  10.816 -3.0310 -0.5724 -2.3732
  703TMC3    C110390   1.421   3.657  10.256 -0.1392 -0.6073 -0.3494
  703TMC3    C210391   1.332   3.760  10.249  0.7444 -0.0109  0.1973
  703TMC3    C310392   1.343   3.839  10.134  0.1990 -0.0296  0.6153
  703TMC3    C410393   1.519   3.625  10.170  0.1450  0.1617  0.3993
  703TMC3    C510394   1.538   3.722  10.078 -0.0539 -0.4906  0.6196
  703TMC3    C610395   1.443   3.817  10.045 -0.2522 -0.1642 -0.5863
  703TMC3     C10396   1.420   3.591  10.392  0.0529  0.5099  0.1202
  703TMC3     O10397   1.370   3.654  10.482  0.3230 -0.1154  0.4121
  703TMC3     H10398   1.263   3.782  10.331 -0.2002 -1.8939 -0.0992
  703TMC3    H110399   1.593   3.547  10.183  0.1432  0.2739  1.0843
  703TMC3    H210400   1.455   3.890   9.965 -1.9170 -0.4166 -1.0526
  703TMC3    C710401   1.666   3.735  10.001  0.6648 -0.4954  0.4104
  703TMC3    C810402   1.273   3.964  10.117  0.0689  0.2399  0.6220
  703TMC3    O110403   1.690   3.843   9.945  0.0694 -0.1513 -0.3481
  703TMC3    O210404   1.296   4.033  10.021  0.4397  0.0638  0.2743
  704TMC3    C110405   3.759   1.834  12.111  0.3590  0.1801 -0.1699
  704TMC3    C210406   3.889   1.854  12.063 -0.3045  0.0431 -0.0830
  704TMC3    C310407   3.990   1.832  12.154 -0.0004 -0.6262 -0.7593
  704TMC3    C410408   3.725   1.811  12.244 -0.1439  0.4563  0.8601
  704TMC3    C510409   3.829   1.792  12.325  0.3536  0.1998 -0.0800
  704TMC3    C610410   3.958   1.796  12.280  0.0448  1.0297  0.3120
  704TMC3     C10411   3.670   1.772  12.017 -0.4118 -0.0754  0.0595
  704TMC3     O10412   3.553   1.767  12.054  0.6807 -0.4366  0.5645
  704TMC3     H10413   3.912   1.880  11.960  1.6518  0.2399  0.3892
  704TMC3    H110414   3.618   1.799  12.260 -0.1723  0.3305  0.5790
  704TMC3    H210415   4.038   1.774  12.349  0.1598  1.9642  0.4855
  704TMC3    C710416   3.806   1.686  12.421 -0.0080  0.6669 -0.4195
  704TMC3    C810417   4.111   1.770  12.103  0.1118 -0.0654  0.1549
  704TMC3    O110418   3.900   1.614  12.441  0.1374 -0.0640  0.5939
  704TMC3    O210419   4.108   1.764  11.978 -0.1223 -0.3981 -0.0708
  705MPD2     C10420   2.386   4.588  17.084 -0.1559 -0.3288 -0.1765
  705MPD2    C110421   2.434   4.719  17.062 -0.7614  0.4973  0.2891
  705MPD2    C210422   2.366   0.100  17.131  0.0978 -0.8163 -0.8929
  705MPD2    C310423   2.260   0.072  17.212 -0.2503  0.3130 -0.1233
  705MPD2    C410424   2.215   4.664  17.226 -0.1722  0.1383  0.4608
  705MPD2    C510425   2.282   4.560  17.173 -0.4125  0.0990  0.1577
  705MPD2     H10426   2.388   0.204  17.108 -1.0807 -0.7597 -1.7978
  705MPD2    H110427   2.125   4.645  17.284 -1.0537 -3.5035 -2.0570
  705MPD2    H210428   2.422   4.501  17.029  2.4045 -1.3640  3.1294
  705MPD2    H310429   2.247   4.458  17.177  0.5707 -0.1471  2.5238
  705MPD2     N10430   2.183   0.174  17.274  0.1819 -1.0424  0.1098
  705MPD2    H510431   2.096   0.154  17.322 -1.7797  1.3824 -2.4650
  705MPD2    N110432   2.543   0.035  16.975 -0.5562  0.1901 -0.2838
  705MPD2    H710433   2.561   0.135  16.971  1.9076 -0.2016  0.8631
  706TMC3    C110434   2.914   0.004  16.688 -0.0894  0.4907  0.1927
  706TMC3    C210435   2.883   0.113  16.610 -1.0619  0.1862 -0.2575
  706TMC3    C310436   2.775   0.183  16.655  0.1238 -0.3156  0.0175
  706TMC3    C410437   2.836   4.672  16.788  0.0438 -0.0634  0.1130
  706TMC3    C510438   2.728   0.023  16.826 -0.0611 -0.8444  0.0417
  706TMC3    C610439   2.692   0.143  16.766 -0.1220  0.4092 -0.5775
  706TMC3     C10440   3.048   4.676  16.672  0.0991 -0.7057  0.0883
  706TMC3     O10441   3.121   4.649  16.768  0.2277  0.0133  0.3650
  706TMC3     H10442   2.953   0.152  16.537 -2.3456 -1.1924 -2.2100
  706TMC3    H110443   2.850   4.573  16.830 -0.9566  0.1624  0.9813
  706TMC3    H210444   2.597   0.191  16.788 -2.2506 -3.3384 -1.4608
  706TMC3    C710445   2.625   4.674  16.909  0.8701  0.5070 -0.0990
  706TMC3    C810446   2.760   0.318  16.601  0.3860 -0.0830  0.3723
  706TMC3    O110447   2.628   4.553  16.922 -0.0792  0.0652  0.3610
  706TMC3    O210448   2.832   0.352  16.507 -0.6556  0.4800  0.4129
  707TMC3    C110449   4.007   3.817   0.874  0.8536  0.4253  0.0375
  707TMC3    C210450   3.942   3.701   0.834 -0.7853 -0.3765 -0.8221
  707TMC3    C310451   3.833   3.714   0.750  0.2924  0.3120  0.4931
  707TMC3    C410452   3.976   3.942   0.820 -0.1794  0.0424  0.3302
  707TMC3    C510453   3.858   3.947   0.743  0.7288 -0.6938 -0.1778
  707TMC3    C610454   3.784   3.838   0.707  0.0629  0.4793  0.2079
  707TMC3     C10455   4.125   3.798   0.957  0.4301 -0.3473 -0.7477
  707TMC3     O10456   4.150   3.682   0.992 -0.3939 -0.6008 -0.3261
  707TMC3     H10457   3.965   3.601   0.869  1.6918 -0.1004 -1.6399
  707TMC3    H110458   4.023   4.030   0.862  2.1877 -1.1723  0.2020
  707TMC3    H210459   3.700   3.842   0.639 -0.6239  0.2566  1.0482
  707TMC3    C710460   3.788   4.075   0.722  0.0969 -0.0691  0.8594
  707TMC3    C810461   3.728   3.615   0.770  0.1956  1.1599 -0.4776
  707TMC3    O110462   3.680   4.066   0.667  0.1667  0.0340  0.0841
  707TMC3    O210463   3.616   3.665   0.784 -0.4861 -0.2009  0.6979
  708MPD2     C10464   1.603   4.197  13.428  0.1800  0.9170 -0.4539
  708MPD2    C110465   1.638   4.104  13.522  0.1418 -0.3709  0.5526
  708MPD2    C210466   1.736   4.133  13.617  0.2292 -1.1001 -0.3552
  708MPD2    C310467   1.807   4.247  13.613  0.0833 -0.5952  0.0818
  708MPD2    C410468   1.764   4.340  13.528  0.6669 -0.6617  0.1605
  708MPD2    C510469   1.662   4.321  13.444  0.1666 -0.7325  0.1148
  708MPD2     H10470   1.762   4.053  13.685  0.4222  0.6499  1.6183
  708MPD2    H110471   1.814   4.436  13.528 -2.3774  0.9023 -0.9453
  708MPD2    H210472   1.517   4.190  13.363  0.7739  2.0104 -1.3709
  708MPD2    H310473   1.633   4.409  13.387  2.2801 -0.7471 -0.9759
  708MPD2     N10474   1.907   4.276  13.709 -0.2141 -0.1492  0.5565
  708MPD2    H510475   1.939   4.372  13.717  1.0836 -0.6740  1.7017
  708MPD2    N110476   1.581   3.978  13.527  0.7666  0.2715 -0.6246
  708MPD2    H710477   1.604   3.912  13.601  1.1270  1.2561  0.1310
  709TMC3    C110478   1.443   3.805  13.486 -0.0593  0.2548  0.1449
  709TMC3    C210479   1.488   3.710  13.399 -0.2399  0.4492  0.1843
  709TMC3    C310480   1.554   3.610  13.461 -0.0620 -0.1463 -0.0048
  709TMC3    C410481   1.449   3.793  13.625 -0.9019  0.0593  0.3994
  709TMC3    C510482   1.510   3.683  13.677 -0.4562 -0.1540 -0.0680
  709TMC3    C610483   1.560   3.587  13.592 -0.2104 -0.0660 -0.2674
  709TMC3     C10484   1.479   3.935  13.439  0.3408 -0.0293 -0.5384
  709TMC3     O10485   1.453   3.966  13.322 -0.0164  0.3437 -0.8926
  709TMC3     H10486   1.499   3.737  13.295  0.6711 -0.1644  0.1195
  709TMC3    H110487   1.406   3.866  13.693 -2.6446  0.7894 -1.5030
  709TMC3    H210488   1.611   3.498  13.626 -1.1860 -0.4918  0.0770
  709TMC3    C710489   1.605   3.723  13.772  0.1223  0.0857 -0.6936
  709TMC3    C810490   1.576   3.498  13.373 -0.1760 -0.3119  0.5259
  709TMC3    O110491   1.641   3.838  13.766  0.4477 -0.5657 -0.3998
  709TMC3    O210492   1.631   3.401  13.425  0.2035  0.1909  0.2336
  710TMC3    C110493   1.913   0.188   0.795 -0.1702 -1.0427 -0.4868
  710TMC3    C210494   1.922   0.169   0.661 -0.2584 -0.3842  0.0688
  710TMC3    C310495   1.926   0.042   0.618  0.2931  0.4826 -0.2125
  710TMC3    C410496   1.889   0.096   0.895 -0.2381  0.0006  0.0432
  710TMC3    C510497   1.879   4.693   0.842  0.2098 -0.0130  0.0820
  710TMC3    C610498   1.908   4.670   0.709  0.0344 -0.0937 -0.1598
  710TMC3     C10499   1.942   0.324   0.830  0.1384  0.1617 -0.7049
  710TMC3     O10500   1.991   0.398   0.744 -0.3517 -0.7349 -0.1924
  710TMC3     H10501   1.936   0.253   0.594 -1.1518 -1.1017 -1.0379
  710TMC3    H110502   1.903   0.115   1.001 -0.1629 -1.8268  0.3554
  710TMC3    H210503   1.898   4.568   0.673  1.2482 -1.1739  2.5532
  710TMC3    C710504   1.851   4.580   0.924  0.1805 -0.0377 -0.4414
  710TMC3    C810505   1.940   0.021   0.470  0.7311 -0.0018 -0.3216
  710TMC3    O110506   1.846   4.472   0.866  0.7261 -0.2352 -0.5109
  710TMC3    O210507   1.989   0.108   0.396 -0.2388  0.5877 -0.1001
  711TMC3    C110508   1.703   1.105  15.471 -0.3906 -0.4663 -0.3642
  711TMC3    C210509   1.750   1.204  15.554  0.8208 -0.2595  0.5354
  711TMC3    C310510   1.843   1.171  15.649  0.2074  0.0949  0.4194
  711TMC3    C410511   1.736   0.972  15.491 -0.1654 -0.6199  0.0632
  711TMC3    C510512   1.806   0.944  15.605  0.5134  0.1142 -0.0674
  711TMC3    C610513   1.866   1.042  15.677  0.5859  0.2839 -0.1955
  711TMC3     C10514   1.603   1.141  15.370  0.8658 -0.1723 -0.4945
  711TMC3     O10515   1.561   1.255  15.380  0.6660 -0.3994 -0.2267
  711TMC3     H10516   1.739   1.305  15.517  1.3806 -0.8396 -1.1924
  711TMC3    H110517   1.690   0.886  15.444 -1.4413  0.6515 -0.9996
  711TMC3    H210518   1.929   1.010  15.760 -0.0738 -1.1666 -0.2466
  711TMC3    C710519   1.871   0.812  15.616  0.5172  0.5976 -0.0590
  711TMC3    C810520   1.914   1.280  15.710 -0.0519  0.3710 -0.2955
  711TMC3    O110521   1.989   0.823  15.640 -0.1772 -0.6628 -0.2578
  711TMC3    O210522   1.884   1.397  15.690 -0.5470  0.6204 -0.6224
  712MPD2     C10523   3.890   1.739  13.275 -0.0149  0.5401 -0.1914
  712MPD2    C110524   3.787   1.829  13.258 -0.3422  0.1666 -0.4869
  712MPD2    C210525   3.801   1.944  13.178  0.0333 -0.5226 -0.3099
  712MPD2    C310526   3.921   1.962  13.106 -0.1753 -0.0756 -1.1186
  712MPD2    C410527   4.014   1.864  13.112  0.6603 -0.3534 -0.0803
  712MPD2    C510528   4.001   1.751  13.188  0.1723  0.3262 -0.3895
  712MPD2     H10529   3.714   2.008  13.167 -2.3134 -3.6904 -0.1195
  712MPD2    H110530   4.104   1.872  13.052  0.9828 -1.8639  0.1895
  712MPD2    H210531   3.886   1.654  13.343  0.6118  3.0145  2.9550
  712MPD2    H310532   4.088   1.686  13.198 -1.0009 -0.8247  2.5866
  712MPD2     N10533   3.950   2.087  13.043 -0.0737  0.2521 -0.2402
  712MPD2    H510534   4.041   2.098  12.999 -0.3223  0.9036 -0.5927
  712MPD2    N110535   3.671   1.831  13.336  0.2561 -0.6172 -0.4386
  712MPD2    H710536   3.598   1.899  13.316  1.7749  1.2761  0.4684
  713TMC3    C110537   3.942   2.305  12.967  0.1999  0.2285 -0.4242
  713TMC3    C210538   4.068   2.322  13.009  0.0612  0.4492  0.3587
  713TMC3    C310539   4.130   2.437  12.965 -0.8916  0.3896  0.3492
  713TMC3    C410540   3.871   2.400  12.901  0.0322 -0.7899  0.1001
  713TMC3    C510541   3.941   2.506  12.840 -0.1202 -0.3307 -0.6366
  713TMC3    C610542   4.072   2.518  12.870  0.4871  0.4248  0.7919
  713TMC3     C10543   3.869   2.194  13.028 -0.2570 -0.0331  0.2120
  713TMC3     O10544   3.747   2.210  13.052 -1.0378  0.1036 -0.0447
  713TMC3     H10545   4.119   2.259  13.081 -0.1636 -1.2889 -1.0045
  713TMC3    H110546   3.765   2.391  12.885  0.2126  0.4102 -1.8902
  713TMC3    H210547   4.124   2.596  12.816 -0.0755  2.0960  2.6677
  713TMC3    C710548   3.879   2.620  12.785  0.1204 -0.1875  0.0872
  713TMC3    C810549   4.258   2.483  13.014  0.4627 -0.3345  0.3980
  713TMC3    O110550   3.934   2.731  12.785 -0.0271 -0.3606  0.7487
  713TMC3    O210551   4.287   2.594  12.980 -0.1056  0.1974 -0.0842
  714MPD2     C10552   0.270   0.894   1.987  0.8316  0.5211  0.1037
  714MPD2    C110553   0.264   0.815   1.874  0.6432 -0.1352 -0.5132
  714MPD2    C210554   0.246   0.875   1.748 -0.0916 -0.4095 -0.3888
  714MPD2    C310555   0.225   1.007   1.735 -0.3301 -0.0943  0.0349
  714MPD2    C410556   0.222   1.079   1.851  0.5317 -0.1688  0.8920
  714MPD2    C510557   0.244   1.025   1.975  0.2978  0.3143  0.3972
  714MPD2     H10558   0.253   0.812   1.660 -2.1481 -1.4056  0.1682
  714MPD2    H110559   0.205   1.186   1.859  0.5826  0.0370 -1.7360
  714MPD2    H210560   0.270   0.849   2.085 -2.7345  1.0329  0.3444
  714MPD2    H310561   0.244   1.089   2.062  0.2177 -1.2625  1.5522
  714MPD2     N10562   0.221   1.070   1.609  0.1520 -0.1206  0.3541
  714MPD2    H510563   0.231   1.003   1.533 -1.6861  0.6015 -0.5131
  714MPD2    N110564   0.278   0.674   1.893  0.1560 -0.4064  0.0203
  714MPD2    H710565   0.305   0.646   1.987 -0.5476  2.1963  1.0231
  715TMC3    C110566   0.313   0.447   1.863 -0.1549  0.5634 -0.2376
  715TMC3    C210567   0.338   0.351   1.769  0.3897  0.1177 -0.2944
  715TMC3    C310568   0.438   0.257   1.785  0.2074 -0.1593 -0.4876
  715TMC3    C410569   0.380   0.451   1.985 -0.2181  0.8211  0.0882
  715TMC3    C510570   0.485   0.359   2.003  0.5343 -0.7889 -0.1302
  715TMC3    C610571   0.515   0.275   1.898 -0.6462  0.4074  0.6284
  715TMC3     C10572   0.260   0.570   1.806 -0.2542  0.4927  0.0286
  715TMC3     O10573   0.228   0.573   1.687  0.6888  0.3392 -0.3206
  715TMC3     H10574   0.287   0.339   1.674 -1.5469 -1.3572  0.9239
  715TMC3    H110575   0.346   0.500   2.075 -3.0567 -0.0152 -0.5407
  715TMC3    H210576   0.607   0.219   1.899 -0.8791  0.0056 -2.0570
  715TMC3    C710577   0.582   0.386   2.104 -0.1479 -0.1041  0.4086
  715TMC3    C810578   0.482   0.176   1.679 -1.0908  0.2199 -0.2638
  715TMC3    O110579   0.579   0.501   2.144  0.4399  0.0155 -0.2755
  715TMC3    O210580   0.415   0.081   1.645  0.1254 -1.0601 -0.3307
  716MPD2     C10581   1.127   3.061  10.308  0.4468 -0.8159 -0.2999
  716MPD2    C110582   1.064   2.985  10.214  0.1068 -0.9456  0.1993
  716MPD2    C210583   1.129   2.868  10.173 -0.0462  0.3251 -0.3522
  716MPD2    C310584   1.248   2.835  10.225 -0.2271 -0.2100  0.2795
  716MPD2    C410585   1.299   2.905  10.327 -0.5965  0.4562 -0.3067
  716MPD2    C510586   1.235   3.013  10.378  1.2529  0.3703 -0.1763
  716MPD2     H10587   1.082   2.802  10.101 -0.1696  0.3630 -0.3072
  716MPD2    H110588   1.401   2.894  10.364 -0.2426  0.7042 -1.2135
  716MPD2    H210589   1.073   3.150  10.338  0.3319 -0.9603 -0.0717
  716MPD2    H310590   1.276   3.067  10.462 -0.1413  1.0536  0.0604
  716MPD2     N10591   1.311   2.727  10.175 -0.0054  0.7050  0.8011
  716MPD2    H510592   1.274   2.685  10.090  2.9568  0.2712 -0.2792
  716MPD2    N110593   0.938   3.028  10.166  0.0294  0.2796  0.2341
  716MPD2    H710594   0.902   3.114  10.206 -0.4594  0.1066  0.1757
  717TMC3    C110595   1.463   2.572  10.134  0.1239  0.0144 -0.1306
  717TMC3    C210596   1.372   2.511  10.046 -0.0215  0.1813  0.4724
  717TMC3    C310597   1.424   2.401   9.973 -0.5949  0.2785  0.0710
  717TMC3    C410598   1.597   2.539  10.143 -0.1318 -0.8691  0.2716
  717TMC3    C510599   1.638   2.434  10.068 -0.5116 -0.0347  0.3603
  717TMC3    C610600   1.559   2.373   9.978 -0.3142 -0.4833  0.2708
  717TMC3     C10601   1.416   2.665  10.225  0.0737 -0.5106 -0.0443
  717TMC3     O10602   1.480   2.676  10.328  0.1115 -0.4178  0.6372
  717TMC3     H10603   1.265   2.524  10.059 -0.3640  0.7672 -3.0707
  717TMC3    H110604   1.664   2.584  10.216  1.7092  0.4656 -2.2611
  717TMC3    H210605   1.596   2.286   9.924  0.7093  0.7107 -0.9490
  717TMC3    C710606   1.781   2.411  10.071  0.4967  0.9387  0.2553
  717TMC3    C810607   1.328   2.333   9.884 -0.8266  0.9778  0.1462
  717TMC3    O110608   1.846   2.484  10.144  0.2248  0.3121 -0.0813
  717TMC3    O210609   1.210   2.362   9.891 -0.4286 -0.0812 -0.1002
  718MPD2     C10610   0.847   1.572  13.365  0.3165 -0.2906  0.3933
  718MPD2    C110611   0.856   1.589  13.231  0.3161 -0.1252 -0.1399
  718MPD2    C210612   0.754   1.554  13.150 -0.5039  0.4019  0.5490
  718MPD2    C310613   0.636   1.505  13.206 -0.0906 -0.3103  0.1042
  718MPD2    C410614   0.628   1.481  13.337 -0.0837  0.4432  0.1293
  718MPD2    C510615   0.732   1.513  13.415  0.7300  0.6047 -0.3258
  718MPD2     H10616   0.761   1.586  13.046  1.3353 -0.4729  0.3964
  718MPD2    H110617   0.539   1.435  13.378  1.1516 -1.2455  0.9340
  718MPD2    H210618   0.928   1.598  13.433  1.0684  1.1660 -1.0365
  718MPD2    H310619   0.728   1.486  13.519  1.1360 -0.2176 -0.5232
  718MPD2     N10620   0.523   1.495  13.114  0.7950 -0.4888  0.3799
  718MPD2    H510621   0.534   1.530  13.019  1.5714 -4.1689 -0.8683
  718MPD2    N110622   0.961   1.670  13.178 -0.2313  0.5140 -0.1346
  718MPD2    H710623   1.015   1.721  13.248  0.1826 -0.1347  0.0117
  719TMC3    C110624   1.067   1.812  13.013  0.1315  0.0979 -0.7636
  719TMC3    C210625   1.012   1.914  13.083  0.4696 -0.0800 -0.1301
  719TMC3    C310626   0.998   2.037  13.019 -0.5123 -0.2189  0.5330
  719TMC3    C410627   1.095   1.827  12.880 -0.4602  0.0787  0.8900
  719TMC3    C510628   1.081   1.953  12.821 -0.1190  0.8285  0.0348
  719TMC3    C610629   1.041   2.053  12.890  0.9328 -0.9184 -0.6488
  719TMC3     C10630   0.988   1.689  13.041 -0.2179 -0.5426  0.2682
  719TMC3     O10631   0.956   1.613  12.945 -0.3360  0.1402  0.1886
  719TMC3     H10632   0.987   1.913  13.188  0.9802 -0.7687 -0.0131
  719TMC3    H110633   1.132   1.743  12.822  0.4900  0.1444  1.3970
  719TMC3    H210634   1.034   2.150  12.843  1.1905  0.2283  1.6591
  719TMC3    C710635   1.070   1.948  12.675  0.1608 -0.3666 -0.0692
  719TMC3    C810636   0.868   2.097  13.053  0.3469  0.4990  0.2885
  719TMC3    O110637   1.122   1.853  12.617 -0.4934  0.4162  0.4235
  719TMC3    O210638   0.808   2.050  13.146  0.2777  0.3493 -0.6249
  720MPD2     C10639   3.218   3.925  14.070  0.1742 -0.4066 -0.5122
  720MPD2    C110640   3.322   3.917  13.980 -0.1684  0.5010  0.0255
  720MPD2    C210641   3.440   3.843  14.009 -0.9272 -0.8772 -0.8091
  720MPD2    C310642   3.453   3.799  14.145  0.4127  0.4059 -0.5438
  720MPD2    C410643   3.344   3.811  14.234  0.1619 -0.1893 -0.1112
  720MPD2    C510644   3.233   3.879  14.198  0.8831 -0.1993 -0.2390
  720MPD2     H10645   3.519   3.822  13.938  2.0395  0.7598  2.0669
  720MPD2    H110646   3.335   3.766  14.333  0.8392 -2.4255 -1.0462
  720MPD2    H210647   3.129   3.983  14.046  0.9555 -0.0698 -2.5796
  720MPD2    H310648   3.143   3.889  14.258  1.6630 -2.3009  1.2617
  720MPD2     N10649   3.574   3.738  14.184 -0.2197  0.5433  0.1760
  720MPD2    H510650   3.644   3.718  14.114 -2.3671 -0.9604 -1.5421
  720MPD2    N110651   3.316   3.978  13.853  0.2804  0.5299  0.6937
  720MPD2    H710652   3.390   3.947  13.792  1.1446  2.5793  0.7048
  721TMC3    C110653   3.722   3.636  14.345 -0.0087 -0.6593 -0.7123
  721TMC3    C210654   3.726   3.579  14.468 -0.1446 -0.0539  0.5103
  721TMC3    C310655   3.846   3.541  14.518 -0.6265  0.0043  0.0288
  721TMC3    C410656   3.841   3.664  14.274  1.1757 -0.0008  0.7493
  721TMC3    C510657   3.959   3.620  14.327  0.1833 -0.2018 -0.2577
  721TMC3    C610658   3.966   3.556  14.447  0.2962 -0.9540 -0.4017
  721TMC3     C10659   3.597   3.707  14.319  0.9341  0.5254  0.1272
  721TMC3     O10660   3.540   3.748  14.420 -0.8499 -0.5045 -0.6667
  721TMC3     H10661   3.634   3.556  14.521 -0.0337 -0.7239  0.4103
  721TMC3    H110662   3.847   3.705  14.174 -1.1626 -1.3902  0.0523
  721TMC3    H210663   4.063   3.537  14.493  0.1590 -0.0147  0.2880
  721TMC3    C710664   4.085   3.665  14.262 -0.4433  1.5390 -0.4096
  721TMC3    C810665   3.871   3.503  14.660 -0.8490  0.4067 -0.9124
  721TMC3    O110666   4.087   3.767  14.198 -0.3939  0.9224 -0.5138
  721TMC3    O210667   3.977   3.456  14.697  0.3311 -0.0231 -0.2750
  722MPD2     C10668   2.730   2.299  12.866 -0.3504  0.2804 -0.1434
  722MPD2    C110669   2.684   2.402  12.785  0.3435 -1.1721 -0.9014
  722MPD2    C210670   2.553   2.431  12.799  0.0201  0.2317  0.7675
  722MPD2    C310671   2.476   2.383  12.898 -0.1216 -0.4378 -0.2733
  722MPD2    C410672   2.525   2.288  12.987 -0.1195 -0.7265 -0.8549
  722MPD2    C510673   2.654   2.243  12.964  0.1421  0.0932 -0.4179
  722MPD2     H10674   2.498   2.501  12.737  0.1942 -1.9503 -1.8461
  722MPD2    H110675   2.463   2.249  13.066 -1.0987 -0.4186 -1.4704
  722MPD2    H210676   2.825   2.249  12.853  1.4132  3.5094  0.3913
  722MPD2    H310677   2.684   2.155  13.020  2.5935  2.5100  2.0631
  722MPD2     N10678   2.353   2.441  12.912  0.5248 -0.0687  0.0950
  722MPD2    H510679   2.333   2.513  12.843  0.9160 -1.6556 -1.6593
  722MPD2    N110680   2.757   2.458  12.673  0.1924 -0.4743 -0.3289
  722MPD2    H710681   2.712   2.538  12.630 -1.2874 -1.1796 -0.0771
  723TMC3    C110682   2.121   2.446  12.986  0.0099  0.1681  0.3023
  723TMC3    C210683   2.023   2.378  13.061 -0.1060 -0.3180 -0.2463
  723TMC3    C310684   1.895   2.395  13.020  0.9055 -0.7610 -0.4043
  723TMC3    C410685   2.091   2.512  12.873 -0.5033  0.0752  0.0281
  723TMC3    C510686   1.956   2.516  12.839  0.4158  0.3700  0.3727
  723TMC3    C610687   1.850   2.456  12.907  0.4728 -0.2810  0.0572
  723TMC3     C10688   2.260   2.412  13.013  0.5896 -0.0347  0.5434
  723TMC3     O10689   2.279   2.362  13.123  1.0166  0.6696  0.0622
  723TMC3     H10690   2.047   2.322  13.150 -2.3013 -1.1555 -0.1736
  723TMC3    H110691   2.171   2.556  12.815  0.9402 -0.2574  1.7458
  723TMC3    H210692   1.746   2.454  12.878  0.4310  1.8250  0.1036
  723TMC3    C710693   1.930   2.576  12.712  0.1478  0.4298 -0.1727
  723TMC3    C810694   1.796   2.295  13.072 -0.0916 -0.0344  0.6606
  723TMC3    O110695   2.018   2.648  12.669 -0.0516 -0.1144 -0.0530
  723TMC3    O210696   1.678   2.311  13.054 -0.2884  0.1230  0.4116
  724TMC3    C110697   2.291   4.578  10.072 -0.0280  0.9289  0.1127
  724TMC3    C210698   2.397   4.535  10.142  0.4009  0.5631 -0.3088
  724TMC3    C310699   2.517   4.531  10.078 -0.4918 -0.2148  0.4739
  724TMC3    C410700   2.299   4.617   9.941  0.3457 -0.2396  0.0665
  724TMC3    C510701   2.417   4.588   9.878 -0.0167 -0.2130  0.3829
  724TMC3    C610702   2.534   4.552   9.940  0.7523  0.1917  0.5754
  724TMC3     C10703   2.153   4.586  10.128  0.0848  0.0912  0.7951
  724TMC3     O10704   2.071   4.652  10.065 -0.5067  0.2683 -0.9919
  724TMC3     H10705   2.396   4.553  10.249  0.3637 -1.5611  0.0532
  724TMC3    H110706   2.216   4.657   9.884  0.1500 -0.2114  0.3733
  724TMC3    H210707   2.629   4.534   9.892  0.0110 -0.8742 -0.5177
  724TMC3    C710708   2.435   4.636   9.745 -0.3702  0.5020  0.1116
  724TMC3    C810709   2.627   4.549  10.167 -0.6890  0.8065 -0.3031
  724TMC3    O110710   2.549   4.675   9.715  0.2343  0.1962  0.0818
  724TMC3    O210711   2.607   4.486  10.273  0.1457  0.4264 -0.0549
  725TMC3    C110712   3.604   3.982  12.853  0.0658  0.0493 -0.2647
  725TMC3    C210713   3.519   4.051  12.773  0.0144  0.5126  0.7234
  725TMC3    C310714   3.455   3.987  12.669 -0.2053  0.5590  0.8979
  725TMC3    C410715   3.626   3.850  12.837  0.2772 -0.0369 -0.6648
  725TMC3    C510716   3.551   3.784  12.740  0.1619 -0.9564 -0.6765
  725TMC3    C610717   3.463   3.849  12.661 -0.5153 -0.2036  0.4644
  725TMC3     C10718   3.700   4.062  12.930 -0.2330 -0.1137  0.0509
  725TMC3     O10719   3.679   4.172  12.977  0.5899 -0.5700 -0.1711
  725TMC3     H10720   3.519   4.159  12.769  0.9497  0.4724 -0.3350
  725TMC3    H110721   3.685   3.786  12.902  0.8683  0.6030 -0.5768
  725TMC3    H210722   3.400   3.795  12.592  0.9040 -1.9218  0.5154
  725TMC3    C710723   3.618   3.674  12.673  0.6666 -0.0419 -0.1503
  725TMC3    C810724   3.446   4.042  12.539 -0.6552  0.7982  0.0886
  725TMC3    O110725   3.728   3.650  12.716 -0.0660  0.1418 -0.0307
  725TMC3    O210726   3.360   4.003  12.460  0.5889  0.0863 -0.0315
  726MPD2     C10727   2.694   0.612   9.521  0.6593  0.6068 -0.0037
  726MPD2    C110728   2.572   0.679   9.504 -0.5908  0.4449  0.1296
  726MPD2    C210729   2.452   0.608   9.528 -0.5849 -0.5964  0.0981
  726MPD2    C310730   2.450   0.474   9.565  0.0401  0.1332  0.3923
  726MPD2    C410731   2.570   0.402   9.564  0.0969 -0.6498 -0.6497
  726MPD2    C510732   2.685   0.475   9.550  0.0946 -0.3581 -0.3280
  726MPD2     H10733   2.358   0.656   9.505 -0.1347  0.0656 -0.3354
  726MPD2    H110734   2.588   0.297   9.584  0.9647 -0.3017  0.4171
  726MPD2    H210735   2.788   0.664   9.512  0.0565  1.8488  0.9764
  726MPD2    H310736   2.777   0.419   9.540  0.1141 -0.5359  0.9036
  726MPD2     N10737   2.339   0.413   9.614  0.0278  0.4326  0.0959
  726MPD2    H510738   2.353   0.317   9.646 -1.3246 -0.0969 -0.9012
  726MPD2    N110739   2.565   0.813   9.465  0.5993 -0.6458 -0.6013
  726MPD2    H710740   2.474   0.843   9.431 -0.7238  1.6445  4.8525
  727TMC3    C110741   2.640   1.030   9.409  0.5036 -0.4639  0.3376
  727TMC3    C210742   2.674   1.134   9.480 -0.3386 -0.3325  0.1264
  727TMC3    C310743   2.628   1.255   9.438  0.8017  0.5318  0.1679
  727TMC3    C410744   2.566   1.047   9.291  0.3927  0.6877  0.2197
  727TMC3    C510745   2.527   1.170   9.250  0.2087  0.4721  0.2892
  727TMC3    C610746   2.564   1.280   9.318  0.0624  0.8157  0.1251
  727TMC3     C10747   2.662   0.902   9.480  0.0167 -0.4642 -0.1545
  727TMC3     O10748   2.749   0.901   9.569  0.4132  0.1622  0.1121
  727TMC3     H10749   2.763   1.126   9.542 -0.6535 -0.1855  0.5976
  727TMC3    H110750   2.542   0.952   9.246 -1.1559 -0.1822  2.8665
  727TMC3    H210751   2.525   1.375   9.286 -1.8845  0.0829  0.3503
  727TMC3    C710752   2.449   1.191   9.131 -0.2649 -0.1215  0.1532
  727TMC3    C810753   2.653   1.372   9.519  0.3028  0.3747  0.2691
  727TMC3    O110754   2.441   1.307   9.085 -0.3345 -0.8612  0.0136
  727TMC3    O210755   2.653   1.476   9.457 -0.2264 -0.1625 -0.3251
  728TMC3    C110756   1.293   4.424  15.530 -0.9306 -0.0271 -0.5092
  728TMC3    C210757   1.425   4.450  15.508  0.0766 -0.3972 -0.3349
  728TMC3    C310758   1.454   4.535  15.401 -0.6263  0.6633  0.2252
  728TMC3    C410759   1.192   4.489  15.467 -0.3286  0.2913  0.0264
  728TMC3    C510760   1.227   4.565  15.355 -0.5505 -0.1608  0.0378
  728TMC3    C610761   1.357   4.588  15.319 -0.0361 -0.1458  0.3166
  728TMC3     C10762   1.269   4.366  15.656 -0.5348  0.0313  0.0141
  728TMC3     O10763   1.371   4.340  15.718 -0.1962 -0.1627  0.5300
  728TMC3     H10764   1.510   4.427  15.571  0.5113  0.9211 -0.4420
  728TMC3    H110765   1.088   4.470  15.489 -0.4508 -0.4521 -1.1816
  728TMC3    H210766   1.374   4.617  15.216 -0.3119 -1.6069 -0.1404
  728TMC3    C710767   1.113   4.627  15.279  0.2154 -0.1264  0.6823
  728TMC3    C810768   1.589   4.567  15.371  0.6643 -0.7131  0.8807
  728TMC3    O110769   1.001   4.580  15.297 -0.5716  0.4613 -0.0354
  728TMC3    O210770   1.667   4.478  15.392 -0.2860  0.3450 -0.4097
  729MPD2     C10771   3.322   0.560  16.699  0.6430  0.2214 -0.0786
  729MPD2    C110772   3.411   0.620  16.792 -0.3110 -0.2712 -1.0872
  729MPD2    C210773   3.367   0.635  16.921 -0.5350 -0.1846 -0.1788
  729MPD2    C310774   3.238   0.601  16.961 -0.0912 -0.1839  0.1783
  729MPD2    C410775   3.156   0.545  16.866 -0.6061 -0.3969 -0.5392
  729MPD2    C510776   3.202   0.526  16.741 -0.4405  0.7697  0.4894
  729MPD2     H10777   3.422   0.695  16.993 -0.8252  0.5418 -0.5550
  729MPD2    H110778   3.050   0.529  16.885 -0.4062  0.0058  0.8729
  729MPD2    H210779   3.342   0.549  16.593 -1.5835 -0.3805 -0.4248
  729MPD2    H310780   3.129   0.479  16.676  1.7196  2.0884 -2.8954
  729MPD2     N10781   3.181   0.645  17.081  0.3615 -0.1328 -0.3511
  729MPD2    H510782   3.081   0.634  17.096  0.4430  2.5697  2.2981
  729MPD2    N110783   3.522   0.693  16.748 -0.4316 -0.0618  0.7359
  729MPD2    H710784   3.514   0.723  16.652 -1.5801 -1.5524  0.3709
  730TMC3    C110785   3.179   0.715  17.308 -0.2636  0.2379 -0.6089
  730TMC3    C210786   3.239   0.696  17.430 -0.1841 -0.2035  0.5020
  730TMC3    C310787   3.229   0.795  17.522 -0.0462 -0.1244  0.1604
  730TMC3    C410788   3.109   0.829  17.277 -0.6302 -0.4708  0.0020
  730TMC3    C510789   3.106   0.927  17.376 -0.0715  1.0417  0.0116
  730TMC3    C610790   3.162   0.909  17.501  0.6441 -0.3378  0.8986
  730TMC3     C10791   3.251   0.666  17.193  0.1533 -0.8164  0.1856
  730TMC3     O10792   3.367   0.632  17.214  0.4359  0.1108 -0.3374
  730TMC3     H10793   3.302   0.610  17.445 -0.1339 -0.1364  0.6834
  730TMC3    H110794   3.068   0.853  17.180  0.6582  0.4224 -0.3300
  730TMC3    H210795   3.169   0.991  17.572 -1.4038  0.7088 -0.0833
  730TMC3    C710796   3.071   1.059  17.326 -0.5290  0.5657 -0.5968
  730TMC3    C810797   3.309   0.780  17.637 -0.3658 -0.4525  0.1176
  730TMC3    O110798   3.058   1.082  17.208  0.0318 -0.7470 -0.2781
  730TMC3    O210799   3.322   0.669   0.003 -0.3081 -0.7203  0.1343
  731MPD2     C10800   3.111   3.117  12.300  0.2703 -0.6840  0.1542
  731MPD2    C110801   3.241   3.091  12.266 -0.3973  0.0997  0.3102
  731MPD2    C210802   3.348   3.129  12.353 -0.3350 -0.3042 -0.0713
  731MPD2    C310803   3.323   3.194  12.475 -0.0382 -0.3631 -0.1094
  731MPD2    C410804   3.190   3.232  12.497  0.1761 -0.4260  0.0910
  731MPD2    C510805   3.084   3.195  12.415 -0.1961 -0.3693 -0.2303
  731MPD2     H10806   3.448   3.091  12.338 -0.1619  0.4855 -0.9882
  731MPD2    H110807   3.166   3.290  12.585 -1.5307 -0.3445 -0.4203
  731MPD2    H210808   3.027   3.076  12.247  0.2806 -0.4421 -0.0490
  731MPD2    H310809   2.982   3.218  12.443  1.0413  2.3232  2.0287
  731MPD2     N10810   3.434   3.221  12.564  0.5708  0.0605  0.1925
  731MPD2    H510811   3.522   3.181  12.536  0.6719  0.0073  0.5800
  731MPD2    N110812   3.277   3.012  12.153 -0.3205  0.2870  0.1625
  731MPD2    H710813   3.201   2.955  12.117  0.1720 -1.4466  1.9212
  732TMC3    C110814   3.403   2.927  11.975  0.3860 -0.6572  0.1127
  732TMC3    C210815   3.303   2.947  11.887 -0.3835  0.2273 -0.3392
  732TMC3    C310816   3.318   2.914  11.751 -0.1741  0.4974  0.3228
  732TMC3    C410817   3.527   2.896  11.924  0.0368  0.0898  0.3684
  732TMC3    C510818   3.546   2.879  11.786 -0.4669 -0.4189  0.2162
  732TMC3    C610819   3.441   2.874  11.699 -0.0586 -0.1164  0.3134
  732TMC3     C10820   3.405   2.991  12.101 -0.1453 -0.4682  0.5331
  732TMC3     O10821   3.515   3.033  12.134  0.0084 -0.2008  0.1370
  732TMC3     H10822   3.214   3.002  11.915 -0.7304 -0.3029 -0.4030
  732TMC3    H110823   3.606   2.881  11.997  0.0452 -1.4959  0.0283
  732TMC3    H210824   3.450   2.842  11.596  0.5080  1.3479 -0.0828
  732TMC3    C710825   3.680   2.857  11.734  0.3035 -0.3226 -0.0986
  732TMC3    C810826   3.196   2.924  11.670  0.9396 -0.2527  0.1153
  732TMC3    O110827   3.695   2.786  11.639 -0.2627  0.1417  0.3123
  732TMC3    O210828   3.208   2.955  11.552  0.0410 -0.5227 -0.6290
  733TMC3    C110829   0.094   1.611  12.991 -0.5104  0.3701  0.5342
  733TMC3    C210830   0.169   1.515  13.048  0.6394 -0.0229  0.4456
  733TMC3    C310831   0.303   1.541  13.042  0.8838  0.3591  0.4708
  733TMC3    C410832   0.133   1.706  12.907  1.2101  0.6846 -0.1827
  733TMC3    C510833   0.270   1.717  12.897  0.1435 -0.3965 -0.5882
  733TMC3    C610834   0.359   1.638  12.962  0.3203 -0.2539 -0.2105
  733TMC3     C10835   4.669   1.588  12.977 -0.1819  0.0487 -1.0893
  733TMC3     O10836   4.602   1.675  12.917  0.2315  0.1346  0.0591
  733TMC3     H10837   0.135   1.440  13.118 -0.5862  0.3344  0.2325
  733TMC3    H110838   0.068   1.761  12.840  0.7488  0.2519 -0.0879
  733TMC3    H210839   0.464   1.651  12.940  0.4567 -3.1471 -1.3120
  733TMC3    C710840   0.313   1.847  12.842  0.0161 -0.6126 -0.6191
  733TMC3    C810841   0.390   1.491  13.156  0.3722 -0.6533  0.4971
  733TMC3    O110842   0.244   1.892  12.754 -0.3828  0.5355  0.5854
  733TMC3    O210843   0.341   1.445  13.254 -0.1518  0.3653  0.0623
  734MPD2     C10844   1.682   4.306  12.254  0.1714  0.4737  0.3827
  734MPD2    C110845   1.644   4.227  12.152 -0.7791  0.1830  0.2398
  734MPD2    C210846   1.635   4.283  12.028  0.4088 -0.4183 -0.1026
  734MPD2    C310847   1.658   4.415  12.008  0.8052  0.2416  0.0358
  734MPD2    C410848   1.689   4.496  12.112 -0.1796 -0.2688 -0.4156
  734MPD2    C510849   1.701   4.443  12.235 -0.4163 -0.2263  0.1626
  734MPD2     H10850   1.618   4.235  11.932  0.8587 -1.3942  0.2997
  734MPD2    H110851   1.704   4.603  12.103  0.7075 -0.2546  1.2672
  734MPD2    H210852   1.697   4.265  12.353  1.9474  3.0892  1.1950
  734MPD2    H310853   1.728   4.507  12.318  2.2855  0.2451 -1.0590
  734MPD2     N10854   1.649   4.461  11.873  0.5555  0.6060  1.0325
  734MPD2    H510855   1.623   4.383  11.814 -0.1682  1.7727 -0.1918
  734MPD2    N110856   1.616   4.088  12.162 -0.5334  0.7684 -0.2414
  734MPD2    H710857   1.636   4.038  12.248  0.1946  1.8754  0.2299
  735TMC3    C110858   1.504   3.888  12.092  0.5912  1.4464 -0.2153
  735TMC3    C210859   1.388   3.863  12.028 -0.3602  0.4417 -0.6604
  735TMC3    C310860   1.389   3.756  11.945  0.1377 -0.0692 -0.7229
  735TMC3    C410861   1.620   3.824  12.082  0.2831 -0.0847 -0.1514
  735TMC3    C510862   1.609   3.705  12.018 -0.4308  0.3921 -0.3129
  735TMC3    C610863   1.501   3.673  11.943  0.1836 -0.6518 -0.0560
  735TMC3     C10864   1.517   4.036  12.078  0.3678  0.1079  0.4727
  735TMC3     O10865   1.439   4.078  11.997 -0.5798  0.6040 -0.4384
  735TMC3     H10866   1.299   3.921  12.049  1.5535  2.9215  0.4896
  735TMC3    H110867   1.704   3.865  12.136 -1.2371 -1.1619  3.0436
  735TMC3    H210868   1.505   3.596  11.867 -0.3363 -1.5308  0.8028
  735TMC3    C710869   1.735   3.640  11.996  0.4655 -0.5200 -0.2823
  735TMC3    C810870   1.325   3.772  11.818  0.1017  0.7634 -0.0713
  735TMC3    O110871   1.830   3.698  12.040  0.2953  0.0970  0.6591
  735TMC3    O210872   1.305   3.679  11.740 -0.6778 -0.3379 -0.2853
  736MPD2     C10873   1.799   3.306  11.879 -0.2466 -0.3156 -0.2885
  736MPD2    C110874   1.824   3.440  11.892 -0.3336  0.6902 -0.8262
  736MPD2    C210875   1.951   3.486  11.864  0.2837 -0.1395  0.2917
  736MPD2    C310876   2.052   3.398  11.828 -0.0091  1.0626 -0.4156
  736MPD2    C410877   2.020   3.261  11.817  0.3260 -0.3006 -0.5222
  736MPD2    C510878   1.893   3.214  11.837 -0.5685 -0.1243  0.7135
  736MPD2     H10879   1.965   3.593  11.872 -1.1040 -0.1967  3.6025
  736MPD2    H110880   2.100   3.189  11.804  0.1340 -0.7472  0.7642
  736MPD2    H210881   1.706   3.257  11.904 -0.4282 -0.3231 -0.9681
  736MPD2    H310882   1.866   3.109  11.828 -1.2773  0.1725 -0.7396
  736MPD2     N10883   2.185   3.443  11.797  0.2545  0.5133 -0.6313
  736MPD2    H510884   2.245   3.363  11.780  0.1646  0.0234  1.3976
  736MPD2    N110885   1.720   3.519  11.934  0.7875 -0.5884  0.3061
  736MPD2    H710886   1.631   3.471  11.948 -0.0211  0.7760 -0.2235
  737TMC3    C110887   2.375   3.579  11.752  0.2936 -0.2168  0.3052
  737TMC3    C210888   2.425   3.697  11.707  0.0291  0.1514  0.3446
  737TMC3    C310889   2.553   3.706  11.659 -0.5333  0.3373 -0.3123
  737TMC3    C410890   2.464   3.483  11.800  0.3310 -0.5741 -0.3873
  737TMC3    C510891   2.595   3.501  11.770 -0.2217 -0.3985 -0.4669
  737TMC3    C610892   2.645   3.612  11.692  0.3220 -0.3074  0.2147
  737TMC3     C10893   2.231   3.570  11.779 -0.3664 -0.0121 -0.1951
  737TMC3     O10894   2.175   3.675  11.782 -0.3808 -0.0689 -0.4002
  737TMC3     H10895   2.358   3.774  11.670  1.9986  2.1256  0.9218
  737TMC3    H110896   2.429   3.397  11.856  0.0277  0.1168  0.4820
  737TMC3    H210897   2.749   3.640  11.686  0.6730 -2.2339 -2.4419
  737TMC3    C710898   2.697   3.422  11.838 -0.0091  0.0141 -0.2429
  737TMC3    C810899   2.582   3.828  11.600  0.1023 -0.6792 -0.1404
  737TMC3    O110900   2.669   3.377  11.948 -0.2744  0.1178  0.3790
  737TMC3    O210901   2.537   3.931  11.646  0.6338  0.2083 -0.0406
  738MPD2     C10902   2.597   3.250  15.042 -0.0843 -0.3290 -0.6465
  738MPD2    C110903   2.635   3.118  15.072 -0.6207  0.3533  0.3082
  738MPD2    C210904   2.770   3.096  15.040 -0.3025  0.6282 -0.2082
  738MPD2    C310905   2.859   3.189  14.988  0.1590 -0.4825  0.0821
  738MPD2    C410906   2.817   3.314  14.956 -0.1682 -0.4045  0.0066
  738MPD2    C510907   2.685   3.336  14.980  0.2946 -0.3685 -0.0119
  738MPD2     H10908   2.813   3.000  15.066  0.7338  0.8908 -0.9584
  738MPD2    H110909   2.876   3.383  14.896 -1.0754  2.1276  2.0560
  738MPD2    H210910   2.498   3.293  15.039 -0.9913 -2.4437 -0.7316
  738MPD2    H310911   2.646   3.431  14.945  1.0518  0.8974  2.5871
  738MPD2     N10912   3.003   3.159  14.967 -0.1429  0.6273 -0.3447
  738MPD2    H510913   3.067   3.232  14.938  1.8180 -0.9541 -0.0838
  738MPD2    N110914   2.563   3.015  15.137 -0.0046  0.5878  0.1903
  738MPD2    H710915   2.612   2.927  15.149 -0.1849  0.6989  1.6901
  739TMC3    C110916   3.197   3.019  14.957 -0.1077  0.7189 -0.2138
  739TMC3    C210917   3.226   3.023  14.824  0.8302  0.4808  0.9459
  739TMC3    C310918   3.319   2.929  14.772 -0.1705  0.0481  0.3631
  739TMC3    C410919   3.264   2.926  15.036  0.4637  0.7894 -0.1207
  739TMC3    C510920   3.363   2.846  14.979  0.2615  0.5290 -0.6255
  739TMC3    C610921   3.397   2.846  14.849 -0.7334  0.1240  0.5694
  739TMC3     C10922   3.060   3.037  14.991 -0.1654  0.0976  0.2142
  739TMC3     O10923   3.009   2.933  15.028 -0.5759 -0.0927 -0.2367
  739TMC3     H10924   3.167   3.082  14.755 -1.1636 -1.5967  0.8510
  739TMC3    H110925   3.236   2.916  15.140  1.6916  0.4069  0.1787
  739TMC3    H210926   3.478   2.784  14.812 -1.9429 -0.8898 -0.3859
  739TMC3    C710927   3.447   2.759  15.061 -0.1021 -1.5827  0.0435
  739TMC3    C810928   3.324   2.931  14.627  0.7798  0.0508  0.4259
  739TMC3    O110929   3.541   2.700  15.006 -0.3630 -0.2023 -0.4893
  739TMC3    O210930   3.227   2.979  14.568 -0.1134  0.3399  0.2048
  740TMC3    C110931   3.413   4.175  14.401 -0.5385 -0.2088  0.2546
  740TMC3    C210932   3.488   4.136  14.510 -0.5178 -0.0856 -0.1998
  740TMC3    C310933   3.616   4.085  14.503 -0.0023  0.0698 -0.2384
  740TMC3    C410934   3.449   4.139  14.274 -0.1836  0.1972 -0.7017
  740TMC3    C510935   3.579   4.098  14.269  0.0176 -0.5030 -0.1543
  740TMC3    C610936   3.661   4.063  14.377 -0.1757 -0.0804 -0.4533
  740TMC3     C10937   3.275   4.220  14.405  0.8374  0.5541  0.1994
  740TMC3     O10938   3.208   4.223  14.303  0.4868  0.7594 -0.8331
  740TMC3     H10939   3.446   4.140  14.610  1.2847  0.0672  0.5544
  740TMC3    H110940   3.381   4.140  14.190 -0.2319 -1.0699 -0.6812
  740TMC3    H210941   3.765   4.039  14.359 -0.8739 -3.0532 -0.5078
  740TMC3    C710942   3.640   4.068  14.137  0.6491  0.1550 -0.0877
  740TMC3    C810943   3.691   4.060  14.626  0.0994 -0.3095 -0.6589
  740TMC3    O110944   3.748   4.016  14.138  0.8773  0.2756 -0.3945
  740TMC3    O210945   3.641   4.110  14.726  0.6362  0.2843  0.6911
  741TMC3    C110946   3.356   3.411  14.190 -0.4693 -0.0015 -0.5304
  741TMC3    C210947   3.223   3.384  14.227  0.3668 -0.1091  0.1947
  741TMC3    C310948   3.202   3.320  14.345  0.4405  0.0731  0.0790
  741TMC3    C410949   3.464   3.366  14.261  0.4635 -0.2244  0.0513
  741TMC3    C510950   3.434   3.322  14.392 -0.0133  0.2601 -0.1282
  741TMC3    C610951   3.306   3.291  14.430  0.0544 -0.5612 -0.0021
  741TMC3     C10952   3.376   3.449  14.052 -0.2122  0.2512 -0.0414
  741TMC3     O10953   3.479   3.402  14.009 -0.1285 -0.7279  0.0617
  741TMC3     H10954   3.140   3.403  14.160 -1.3798 -0.9518  2.1482
  741TMC3    H110955   3.568   3.380  14.233  0.3091  1.2991  0.2578
  741TMC3    H210956   3.287   3.226  14.515  1.7182 -1.1267 -0.0641
  741TMC3    C710957   3.547   3.289  14.475  0.0012 -0.1264 -0.1476
  741TMC3    C810958   3.062   3.303  14.387 -0.5351 -0.1371 -0.3515
  741TMC3    O110959   3.658   3.270  14.418 -0.0431 -0.0213 -0.4515
  741TMC3    O210960   2.977   3.370  14.330 -0.3118 -0.3023  0.1681
  742TMC3    C110961   2.691   2.433  15.437  0.5919 -0.0775 -0.2025
  742TMC3    C210962   2.697   2.381  15.310  0.6225 -0.1351  0.3686
  742TMC3    C310963   2.742   2.250  15.297 -0.0787 -0.4037  0.6067
  742TMC3    C410964   2.789   2.398  15.529  0.4142 -0.4929 -0.0398
  742TMC3    C510965   2.856   2.283  15.498  1.1554 -0.6393  0.0489
  742TMC3    C610966   2.831   2.202  15.389 -0.6393  0.5956  0.5977
  742TMC3     C10967   2.620   2.555  15.449  0.2329 -0.5898 -0.4727
  742TMC3     O10968   2.615   2.634  15.356 -0.4885 -0.1815 -0.0881
  742TMC3     H10969   2.617   2.417  15.246 -1.6988 -1.1355  2.7539
  742TMC3    H110970   2.807   2.451  15.622  0.7671 -1.6731  0.5738
  742TMC3    H210971   2.868   2.103  15.367  1.9696  1.3572  1.5860
  742TMC3    C710972   2.929   2.220  15.607 -0.0041 -0.8704  0.1832
  742TMC3    C810973   2.724   2.177  15.175 -0.7993  0.3518  0.3539
  742TMC3    O110974   2.932   2.284  15.713 -0.3532 -0.2624 -0.3555
  742TMC3    O210975   2.821   2.113  15.138  0.1225 -0.0569  0.0300
  743MPD2     C10976   3.897   2.804   1.441  0.4853 -0.8734 -0.5952
  743MPD2    C110977   3.979   2.734   1.366  0.1973  0.5899  0.9579
  743MPD2    C210978   4.078   2.666   1.431 -0.2179 -0.0303  0.9058
  743MPD2    C310979   4.097   2.680   1.565  0.1979  0.0936 -0.0811
  743MPD2    C410980   4.016   2.759   1.640  0.2057  0.5788  0.6270
  743MPD2    C510981   3.909   2.814   1.578 -0.8335  0.7852 -0.4261
  743MPD2     H10982   4.137   2.601   1.367  2.0253  2.6028  0.2928
  743MPD2    H110983   4.031   2.774   1.746 -0.9097  1.8249  0.6113
  743MPD2    H210984   3.813   2.848   1.388 -1.5455 -1.5986  1.9971
  743MPD2    H310985   3.833   2.865   1.637  0.4393  1.5898  0.5127
  743MPD2     N10986   4.218   2.615   1.612  0.4526 -0.0641  0.7859
  743MPD2    H510987   4.283   2.578   1.543 -0.5549 -2.2092  1.0066
  743MPD2    N110988   3.960   2.740   1.223 -0.1204 -0.0516 -0.0006
  743MPD2    H710989   3.876   2.786   1.191 -0.7658 -0.2764  1.3811
  744TMC3    C110990   4.003   2.726   0.993  0.3311 -1.0383 -0.3825
  744TMC3    C210991   3.921   2.834   0.965 -0.3038  0.3100  0.0582
  744TMC3    C310992   3.892   2.848   0.832 -0.1714  0.1783 -0.1820
  744TMC3    C410993   4.066   2.647   0.900  0.4452 -0.7153  0.0772
  744TMC3    C510994   4.026   2.671   0.776 -0.0841 -0.4087 -0.6570
  744TMC3    C610995   3.950   2.772   0.733  0.5953  0.1338  0.1270
  744TMC3     C10996   4.039   2.683   1.131  0.7141 -0.1056  0.2358
  744TMC3     O10997   4.142   2.622   1.149 -0.0339 -0.2406 -0.2035
  744TMC3     H10998   3.884   2.903   1.040 -0.3479  0.4275 -0.0699
  744TMC3    H110999   4.127   2.561   0.926  0.1208 -0.6222  1.1533
  744TMC3    H211000   3.934   2.792   0.628 -1.0683 -1.7214  0.0165
  744TMC3    C711001   4.073   2.593   0.665  0.5189 -0.5314  0.7246
  744TMC3    C811002   3.840   2.976   0.797  0.1353 -0.0053 -0.4045
  744TMC3    O111003   3.998   2.563   0.572 -0.9916 -0.0243 -0.5682
  744TMC3    O211004   3.859   3.016   0.682  0.1543  0.7098  0.2797
  745TMC3    C111005   3.514   1.761  13.497 -0.0520 -0.3086  0.1469
  745TMC3    C211006   3.497   1.712  13.627 -0.0505  0.1171 -0.5408
  745TMC3    C311007   3.375   1.711  13.680 -0.1397  0.4916  0.6423
  745TMC3    C411008   3.405   1.793  13.425  0.2130 -0.1631  0.8084
  745TMC3    C511009   3.285   1.750  13.469 -0.3349 -0.0589  0.5715
  745TMC3    C611010   3.258   1.724  13.602 -0.3812  0.5640  0.3691
  745TMC3     C11011   3.646   1.743  13.437 -0.7089 -0.6740 -0.0337
  745TMC3     O11012   3.707   1.661  13.503  0.3311 -0.2334  0.4167
  745TMC3     H11013   3.582   1.689  13.690 -0.0093 -0.8743 -0.9511
  745TMC3    H111014   3.409   1.840  13.328 -3.4918  1.5124  1.4589
  745TMC3    H211015   3.163   1.700  13.648 -0.9163  0.2741 -0.8884
  745TMC3    C711016   3.228   1.638  13.396  0.1276 -0.7641  0.4259
  745TMC3    C811017   3.367   1.722  13.827  0.6228  0.5054 -0.1157
  745TMC3    O111018   3.165   1.553  13.459  0.6033  0.0881 -0.0217
  745TMC3    O211019   3.265   1.703  13.874 -0.3429 -0.0206  0.9649
  746TMC3    C111020   1.026   3.499  11.024 -0.7593  0.6079  0.4338
  746TMC3    C211021   1.128   3.424  10.970  0.1823 -0.4147  0.2260
  746TMC3    C311022   1.119   3.285  10.969  0.3107  0.5688 -0.1647
  746TMC3    C411023   0.901   3.444  11.053 -0.1950 -0.6411  0.4971
  746TMC3    C511024   0.889   3.309  11.035  0.3207 -0.3749 -0.1558
  746TMC3    C611025   0.995   3.229  10.991  0.5503 -0.1692  0.6132
  746TMC3     C11026   1.033   3.642  11.015  0.5011 -0.1364 -0.6547
  746TMC3     O11027   0.927   3.701  11.024 -0.5505  0.4310  0.2776
  746TMC3     H11028   1.227   3.467  10.973 -0.4973  1.1814 -0.3216
  746TMC3    H111029   0.815   3.504  11.083 -1.0179 -0.0119 -3.0584
  746TMC3    H211030   0.986   3.122  10.977 -1.0647  0.5120 -3.3123
  746TMC3    C711031   0.757   3.269  10.995  0.3356 -0.1626  0.9898
  746TMC3    C811032   1.219   3.212  10.886 -0.2493 -0.4694 -0.6536
  746TMC3    O111033   0.746   3.184  10.909  0.4370 -0.4986  0.0669
  746TMC3    O211034   1.202   3.092  10.860  0.6288 -0.1623  0.4459
  747TMC3    C111035   3.723   3.293  11.546  0.3454  0.4334  0.7832
  747TMC3    C211036   3.608   3.225  11.593  0.0507  0.7567 -0.4412
  747TMC3    C311037   3.486   3.289  11.580 -0.3682 -0.5675 -0.1681
  747TMC3    C411038   3.720   3.419  11.495 -0.8158 -0.5029 -0.1470
  747TMC3    C511039   3.597   3.483  11.500 -0.0596 -0.8450  0.2203
  747TMC3    C611040   3.480   3.420  11.541  0.5493 -0.3007 -0.1171
  747TMC3     C11041   3.852   3.222  11.536  0.5460  0.4133 -0.7945
  747TMC3     O11042   3.948   3.294  11.548 -0.0495  0.4463 -0.5226
  747TMC3     H11043   3.610   3.120  11.620 -1.3742  0.8437  0.0300
  747TMC3    H111044   3.819   3.458  11.472 -0.4728 -1.4662 -0.3093
  747TMC3    H211045   3.388   3.477  11.539 -0.0543 -1.2009  1.7525
  747TMC3    C711046   3.608   3.623  11.512  0.8804 -0.5004  0.2305
  747TMC3    C811047   3.402   3.264  11.689 -0.6547  0.3005  0.2066
  747TMC3    O111048   3.531   3.674  11.593 -0.2479  0.0867  0.8883
  747TMC3    O211049   3.447   3.201  11.780  0.3085 -0.1464 -0.8004
  748MPD2     C11050   3.627   4.011   1.058 -0.5317  0.4245  0.0903
  748MPD2    C111051   3.663   3.890   1.121  0.7692  0.3752  0.0466
  748MPD2    C211052   3.784   3.885   1.185 -0.0217 -0.0148 -0.5183
  748MPD2    C311053   3.875   3.990   1.178  0.0990  0.6341  0.5211
  748MPD2    C411054   3.835   4.109   1.118 -0.1906  0.0958  0.0010
  748MPD2    C511055   3.714   4.116   1.052  0.1395 -0.8312  0.0005
  748MPD2     H11056   3.811   3.797   1.242 -1.2573 -0.7259 -1.0437
  748MPD2    H111057   3.893   4.199   1.103  0.8175 -1.0143 -2.7202
  748MPD2    H211058   3.532   4.031   1.010 -0.8175  1.4402  1.0863
  748MPD2    H311059   3.688   4.209   1.003  1.1573 -1.1450 -1.1349
  748MPD2     N11060   3.999   3.979   1.252  1.0018 -0.0221 -0.2854
  748MPD2    H511061   4.010   3.888   1.296  0.4376 -0.0442 -0.1932
  748MPD2    N111062   3.571   3.787   1.130 -0.1669 -0.8732  0.6688
  748MPD2    H711063   3.480   3.816   1.094  0.1817 -0.7072 -0.0747
  749TMC3    C111064   4.211   4.030   1.348 -0.5887 -0.2115 -0.0288
  749TMC3    C211065   4.222   3.899   1.393  0.0588 -0.1351 -0.1668
  749TMC3    C311066   4.342   3.867   1.445 -0.1673 -0.7766  0.2286
  749TMC3    C411067   4.320   4.113   1.337  0.2373 -0.0168  0.2712
  749TMC3    C511068   4.431   4.071   1.395  0.6984  0.7755 -0.4035
  749TMC3    C611069   4.438   3.954   1.451  0.2247 -0.2782 -0.5487
  749TMC3     C11070   4.091   4.071   1.268  0.2336  0.7792 -0.0359
  749TMC3     O11071   4.085   4.186   1.231 -0.1635  0.1403 -0.0562
  749TMC3     H11072   4.149   3.821   1.372 -0.5928  0.2887  0.5169
  749TMC3    H111073   4.309   4.211   1.291  0.3139 -0.0351  0.2141
  749TMC3    H211074   4.528   3.933   1.509 -0.8334 -0.4248  1.0409
  749TMC3    C711075   4.552   4.162   1.391  0.8625 -0.5842  0.0585
  749TMC3    C811076   4.346   3.748   1.528  0.0136 -0.8578 -0.5709
  749TMC3    O111077   4.522   4.276   1.369  0.0204  0.4699 -0.1712
  749TMC3    O211078   4.242   3.695   1.566 -0.0157 -0.1278  0.1084
  750MPD2     C11079   1.567   0.479  10.400  0.4291  0.3136 -0.3853
  750MPD2    C111080   1.448   0.483  10.475  0.3389 -0.0988  0.3719
  750MPD2    C211081   1.346   0.390  10.451  0.2822 -0.0223 -0.5710
  750MPD2    C311082   1.364   0.290  10.354 -0.0046 -0.3360  0.2613
  750MPD2    C411083   1.487   0.280  10.291  0.8287 -0.1294  0.3771
  750MPD2    C511084   1.587   0.374  10.318  0.5485  0.2868  0.5095
  750MPD2     H11085   1.250   0.395  10.500  0.8940  0.3868  0.6011
  750MPD2    H111086   1.503   0.198  10.222 -0.5291 -0.6223  0.6472
  750MPD2    H211087   1.642   0.554  10.420  0.9863 -0.1984 -0.5707
  750MPD2    H311088   1.682   0.368  10.265 -1.0548  0.2336 -2.3243
  750MPD2     N11089   1.268   0.198  10.312  0.6153  0.5092  0.0032
  750MPD2    H511090   1.290   0.148  10.226 -2.5402  0.1641 -0.6014
  750MPD2    N111091   1.428   0.588  10.568  0.7945 -0.2189  0.2281
  750MPD2    H711092   1.498   0.662  10.559  1.8048 -0.8278  2.8545
  751TMC3    C111093   1.090   0.046  10.315  0.0951  0.0834  0.0457
  751TMC3    C211094   0.968   0.026  10.366  0.7364  0.2323 -0.2766
  751TMC3    C311095   0.946   4.625  10.416 -0.3906 -0.3974 -0.2551
  751TMC3    C411096   1.176   4.664  10.289  0.3658 -0.0271  0.4215
  751TMC3    C511097   1.141   4.535  10.334  0.9030  0.0027  0.1084
  751TMC3    C611098   1.030   4.522  10.406  0.1856  0.2449  1.0539
  751TMC3     C11099   1.151   0.164  10.372 -0.0365 -0.8275  0.2092
  751TMC3     O11100   1.114   0.205  10.482 -0.4750 -0.1149 -0.9234
  751TMC3     H11101   0.889   0.099  10.361  1.3916  0.8582 -1.5092
  751TMC3    H111102   1.276   4.672  10.249 -0.2569 -1.4181 -1.4402
  751TMC3    H211103   0.994   4.431  10.453 -0.4736 -0.2463 -0.3987
  751TMC3    C711104   1.236   4.423  10.312 -0.0933  0.3585  0.0874
  751TMC3    C811105   0.819   4.593  10.475 -0.8519 -0.1029  0.4887
  751TMC3    O111106   1.328   4.439  10.236  0.2803 -0.0504  0.2187
  751TMC3    O211107   0.776   4.481  10.451  0.3163  0.1189  0.3618
  752TMC3    C111108   4.202   0.888  17.640  0.2326 -0.0288 -0.2342
  752TMC3    C211109   4.128   0.772  17.643  0.0168  0.4611 -0.1365
  752TMC3    C311110   4.117   0.717   0.079 -0.4070  0.1101  0.5607
  752TMC3    C411111   4.265   0.941   0.060  0.4002  0.0670 -0.2228
  752TMC3    C511112   4.251   0.882   0.187  0.2418  0.5164 -0.0591
  752TMC3    C611113   4.168   0.777   0.192  0.8152  0.0930  0.8016
  752TMC3     C11114   4.241   0.946  17.514 -0.2813 -0.1702  0.6116
  752TMC3     O11115   4.324   1.039  17.522 -0.4187  0.1873  0.6509
  752TMC3     H11116   4.082   0.727  17.556  1.9184 -0.4308 -0.6905
  752TMC3    H111117   4.312   1.038   0.063 -0.0825  0.2408  2.0279
  752TMC3    H211118   4.162   0.732   0.291  0.0734 -2.0518 -0.2337
  752TMC3    C711119   4.245   0.970   0.304 -0.8420  0.3640 -0.2247
  752TMC3    C811120   4.039   0.600   0.088  0.2962  0.0001 -0.2175
  752TMC3    O111121   4.166   0.929   0.384  0.6900 -0.5674 -0.6024
  752TMC3    O211122   4.046   0.531  17.677  0.1990  0.2382  0.3131
  753TMC3    C111123   1.984   1.657  13.692  0.1627  0.2332  0.1496
  753TMC3    C211124   2.075   1.584  13.757 -0.0084 -0.1321  0.1656
  753TMC3    C311125   2.031   1.488  13.837  0.2633 -0.3387  0.1357
  753TMC3    C411126   1.853   1.636  13.705 -0.2939 -0.2875 -0.2562
  753TMC3    C511127   1.814   1.518  13.776 -1.0824 -0.2695 -0.5786
  753TMC3    C611128   1.906   1.447  13.842  0.1930 -0.4411  0.4680
  753TMC3     C11129   2.034   1.742  13.588 -0.0145  0.6499 -0.2337
  753TMC3     O11130   2.146   1.717  13.545 -0.1735 -0.0510  0.3729
  753TMC3     H11131   2.179   1.613  13.744  0.1935 -0.1226  1.7417
  753TMC3    H111132   1.791   1.680  13.628 -1.1314 -0.1116  0.5318
  753TMC3    H211133   1.876   1.352  13.884  0.7963 -1.2752 -0.9812
  753TMC3    C711134   1.708   1.442  13.709 -0.3441  0.2004  0.6181
  753TMC3    C811135   2.103   1.472  13.958 -0.1344 -0.0169 -0.5116
  753TMC3    O111136   1.705   1.429  13.584  0.7292  0.3977 -0.3431
  753TMC3    O211137   2.104   1.362  14.015 -0.2915  0.1488 -0.3627
  754MPD2     C11138   0.126   4.620  12.760 -0.2171 -0.2725 -0.2795
  754MPD2    C111139   0.107   4.643  12.896 -0.3437 -0.2697  0.1507
  754MPD2    C211140   4.704   4.667  12.948  0.1072 -0.6071 -0.3288
  754MPD2    C311141   4.606   4.690  12.855 -0.1775  0.3694  0.2294
  754MPD2    C411142   4.625   4.660  12.715  0.4183  0.7390 -0.6925
  754MPD2    C511143   0.026   4.633  12.669  0.6297 -0.5095  0.2160
  754MPD2     H11144   4.676   4.680  13.052  0.9090 -1.0530 -0.0571
  754MPD2    H111145   4.547   4.668  12.641  2.0485  2.3316 -2.2364
  754MPD2    H211146   0.224   4.590  12.724 -0.4438 -0.3869 -0.7922
  754MPD2    H311147   0.048   4.618  12.564  0.7729  0.8818  0.0359
  754MPD2     N11148   4.465   4.692  12.891  0.7040 -0.3820  0.3658
  754MPD2    H511149   4.400   4.658  12.821 -0.6383  1.5700  0.6738
  754MPD2    N111150   0.213   4.612  12.981  0.2845 -0.3547  0.4051
  754MPD2    H711151   0.289   4.560  12.939 -1.6553 -0.6411 -2.7423
  755MPD2     C11152   3.601   0.426  13.426 -0.5874 -0.6033  0.4930
  755MPD2    C111153   3.737   0.457  13.441 -0.6869 -0.3106 -0.2595
  755MPD2    C211154   3.836   0.388  13.365 -0.1805 -0.5222 -0.3233
  755MPD2    C311155   3.792   0.297  13.271 -0.0957  0.4036 -1.1570
  755MPD2    C411156   3.661   0.268  13.257  0.1290  0.3651  0.5987
  755MPD2    C511157   3.564   0.336  13.334 -0.1942  0.1844 -0.0574
  755MPD2     H11158   3.942   0.401  13.384 -1.0610  1.0830  3.5026
  755MPD2    H111159   3.616   0.192  13.194  2.0762  2.1068 -2.8659
  755MPD2    H211160   3.514   0.473  13.472  0.1895  0.7759  0.5663
  755MPD2    H311161   3.458   0.313  13.324 -0.5140  1.8119 -0.4489
  755MPD2     N11162   3.876   0.219  13.194 -0.5630  0.0031 -0.1657
  755MPD2    H511163   3.827   0.147  13.142  0.1142 -0.5366 -0.0575
  755MPD2    N111164   3.783   0.547  13.535  0.0198  0.1250 -0.0533
  755MPD2    H711165   3.883   0.567  13.534 -0.5583  2.9442  0.0116
  756MPD2     C11166   1.212   0.674   8.869 -0.7527  0.7828 -0.5737
  756MPD2    C111167   1.182   0.645   8.993  0.1407 -0.2937 -0.1098
  756MPD2    C211168   1.083   0.550   9.020 -0.0529 -0.0998  0.1536
  756MPD2    C311169   1.001   0.506   8.919 -0.0347  0.7505 -0.4330
  756MPD2    C411170   1.034   0.542   8.788  0.4168 -1.3712  0.0568
  756MPD2    C511171   1.134   0.629   8.762  0.0988  0.0817  0.1243
  756MPD2     H11172   1.055   0.529   9.122  2.0904 -3.1743  0.1149
  756MPD2    H111173   0.973   0.514   8.703 -0.7121  0.3805  0.2786
  756MPD2    H211174   1.278   0.754   8.836  0.8200 -0.2283  0.0851
  756MPD2    H311175   1.158   0.658   8.660  0.3503  0.7524  0.3695
  756MPD2     N11176   0.899   0.413   8.948  0.0656  0.0085  0.2375
  756MPD2    H511177   0.871   0.387   9.042  0.8890  0.4714  0.6067
  756MPD2    N111178   1.233   0.720   9.106 -1.0698 -0.1414 -0.4902
  756MPD2    H711179   1.208   0.701   9.203  0.5165  1.8634  0.3158
  757MPD2     C11180   0.248   4.281   8.691  0.0794 -0.3111  0.5132
  757MPD2    C111181   0.251   4.301   8.819  0.1740 -0.3805  0.2232
  757MPD2    C211182   0.324   4.403   8.882 -0.5576  0.5483 -0.5531
  757MPD2    C311183   0.406   4.486   8.811  0.3128 -0.3859 -0.3139
  757MPD2    C411184   0.402   4.465   8.676 -0.2904 -0.0724  0.2727
  757MPD2    C511185   0.319   4.370   8.619 -0.1737 -0.3431  0.6014
  757MPD2     H11186   0.318   4.426   8.987  0.1813  0.9303 -0.5972
  757MPD2    H111187   0.471   4.522   8.614  0.3399 -1.1545 -0.0129
  757MPD2    H211188   0.197   4.202   8.637  0.7323  0.9782 -2.0176
  757MPD2    H311189   0.313   4.350   8.513 -3.5515  1.6580  0.4194
  757MPD2     N11190   0.485   4.589   8.877  0.2187  0.2344 -0.4668
  757MPD2    H511191   0.469   4.591   8.977 -0.4231 -0.4754 -0.5555
  757MPD2    N111192   0.165   4.210   8.891 -0.5944  0.1079 -0.3305
  757MPD2    H711193   0.110   4.140   8.842 -2.1777  0.5693  0.7948
  758MPD2     C11194   0.398   4.232  16.478 -0.1130  0.3817  0.2694
  758MPD2    C111195   0.481   4.244  16.590 -0.6125 -0.1744  0.2738
  758MPD2    C211196   0.436   4.325  16.695  0.1901  0.0892 -0.2218
  758MPD2    C311197   0.321   4.402  16.679  0.5411  0.4713 -0.8977
  758MPD2    C411198   0.247   4.386  16.565 -0.6603  0.2123 -1.3875
  758MPD2    C511199   0.277   4.300  16.467 -0.2650  0.3059  0.3558
  758MPD2     H11200   0.499   4.338  16.782 -1.0877  0.2316  0.6885
  758MPD2    H111201   0.155   4.442  16.548 -0.7603 -0.0990 -1.8683
  758MPD2    H211202   0.428   4.171  16.394  1.3885  2.6344 -0.8297
  758MPD2    H311203   0.222   4.298  16.374 -1.0953 -1.7959  0.8865
  758MPD2     N11204   0.285   4.500  16.772  0.6673 -0.1658  0.1988
  758MPD2    H511205   0.212   4.568  16.751  0.7282 -0.0870  0.2449
  758MPD2    N111206   0.592   4.162  16.589 -0.0969  0.4802  0.0408
  758MPD2    H711207   0.619   4.139  16.494  2.3274 -1.5112  1.2338
  759MPD2     C11208   4.248   2.274  10.513 -0.1440 -0.0818 -0.0661
  759MPD2    C111209   4.260   2.172  10.426 -0.0374  0.2060  0.5799
  759MPD2    C211210   4.261   2.182  10.288 -0.0302 -0.1760 -0.0253
  759MPD2    C311211   4.239   2.307  10.239  0.0536  0.1760 -0.8077
  759MPD2    C411212   4.237   2.416  10.321  0.2307  0.3031  0.6332
  759MPD2    C511213   4.239   2.400  10.458  0.3951  0.5368  1.0332
  759MPD2     H11214   4.279   2.094  10.227 -0.0652 -1.1338  1.3433
  759MPD2    H111215   4.235   2.515  10.277  1.7944 -0.1030 -0.3297
  759MPD2    H211216   4.252   2.272  10.622 -2.3283  0.0981  0.0352
  759MPD2    H311217   4.229   2.477  10.533  2.3950 -1.6195  3.5120
  759MPD2     N11218   4.258   2.321  10.099  0.3116  0.1002  0.2610
  759MPD2    H511219   4.276   2.236  10.045 -1.2395  1.2514 -2.0769
  759MPD2    N111220   4.285   2.039  10.471  0.4166 -0.3603 -0.1624
  759MPD2    H711221   4.284   1.967  10.399  0.1666  0.2966 -0.8154
  760MPD2     C11222   3.725   0.440  12.014  0.5848  0.1946 -0.5720
  760MPD2    C111223   3.863   0.466  12.040  0.7808 -0.0698 -0.0778
  760MPD2    C211224   3.937   0.365  12.100  0.1144  0.5497  0.0980
  760MPD2    C311225   3.884   0.243  12.133 -0.2564  0.0560  0.0866
  760MPD2    C411226   3.749   0.217  12.114 -0.0959  0.0798 -0.8988
  760MPD2    C511227   3.674   0.315  12.050 -0.0309  0.6088  0.3496
  760MPD2     H11228   4.044   0.370  12.110  0.0644  0.2531  0.7926
  760MPD2    H111229   3.699   0.122  12.130  0.7753 -0.0130  1.2823
  760MPD2    H211230   3.668   0.506  11.950 -0.6181  0.6550  0.9998
  760MPD2    H311231   3.573   0.287  12.024 -0.0912  0.2680  0.9391
  760MPD2     N11232   3.963   0.143  12.187 -0.0285 -0.3669 -0.5604
  760MPD2    H511233   3.905   0.064  12.215  1.5998 -0.8761  1.4295
  760MPD2    N111234   3.922   0.586  12.004 -0.2546  0.2907  0.3815
  760MPD2    H711235   3.876   0.641  11.933  0.0092  0.0392  0.0118
  761MPD2     C11236   0.413   4.664  10.779  0.3749  0.5943 -0.1703
  761MPD2    C111237   0.449   4.562  10.698  0.4930 -0.2597  0.3898
  761MPD2    C211238   0.567   4.568  10.627  0.5726  0.7457 -0.6589
  761MPD2    C311239   0.637   4.680  10.620 -0.2561 -0.3748  0.3931
  761MPD2    C411240   0.587   0.074  10.672 -0.8201 -0.2239 -0.0854
  761MPD2    C511241   0.474   0.067  10.749 -0.3689 -0.2369  0.2615
  761MPD2     H11242   0.610   4.476  10.589 -0.9527 -0.5183  0.6617
  761MPD2    H111243   0.638   0.168  10.658 -0.4800 -0.3855  0.0542
  761MPD2    H211244   0.329   4.669  10.847 -1.1592  0.1781 -2.0161
  761MPD2    H311245   0.453   0.152  10.814 -0.1240 -0.8962  1.2027
  761MPD2     N11246   0.764   4.692  10.555  0.3326  0.0623  0.4550
  761MPD2    H511247   0.807   0.062  10.557 -2.2336  1.3575 -2.0628
  761MPD2    N111248   0.380   4.446  10.705  0.1764 -0.5639 -1.1444
  761MPD2    H711249   0.327   4.442  10.792  0.8004  0.9746 -0.6939
  762MPD2     C11250   0.866   4.278  10.227  0.3310 -0.6858  0.4693
  762MPD2    C111251   0.895   4.196  10.337  0.2971  0.0100  0.4428
  762MPD2    C211252   0.995   4.102  10.323  0.3719 -0.9719 -0.3471
  762MPD2    C311253   1.076   4.089  10.211  0.2554  0.1157  0.1640
  762MPD2    C411254   1.046   4.179  10.105  0.6740 -0.2193 -0.2690
  762MPD2    C511255   0.948   4.265  10.119 -0.4898 -0.0784  0.4687
  762MPD2     H11256   1.006   4.024  10.398 -3.9153  1.0802  2.4605
  762MPD2    H111257   1.102   4.170  10.012  1.6272 -0.0416  0.2831
  762MPD2    H211258   0.780   4.343  10.225  0.0825 -1.1462 -2.8975
  762MPD2    H311259   0.932   4.338  10.040 -0.8573 -1.3463 -0.6360
  762MPD2     N11260   1.169   3.983  10.207 -0.1862 -0.1096 -0.2295
  762MPD2    H511261   1.164   3.911  10.278 -0.0813  1.3544  1.2738
  762MPD2    N111262   0.811   4.213  10.447 -0.1764  0.4041  0.5135
  762MPD2    H711263   0.753   4.296  10.453  0.0671  0.5239  1.1797
  763MPD2     C11264   1.597   0.167  16.058  0.2626  0.7382 -0.4967
  763MPD2    C111265   1.730   0.203  16.075  0.1048 -0.0373 -0.7627
  763MPD2    C211266   1.777   0.239  16.201 -0.0316 -0.3531  0.4894
  763MPD2    C311267   1.692   0.247  16.309  0.2424  0.4248  0.1035
  763MPD2    C411268   1.553   0.229  16.279  0.5534  0.1982  0.8629
  763MPD2    C511269   1.507   0.179  16.156  0.5495  0.7873  0.0844
  763MPD2     H11270   1.882   0.261  16.210  0.6084 -2.8852 -0.5997
  763MPD2    H111271   1.480   0.248  16.357  0.9616  4.9895  0.0869
  763MPD2    H211272   1.558   0.138  15.961  1.1305 -1.3658 -0.2074
  763MPD2    H311273   1.400   0.172  16.140  0.2644  1.2140  1.7407
  763MPD2     N11274   1.733   0.296  16.431  0.0594  0.0906 -0.3780
  763MPD2    H511275   1.661   0.301  16.502 -1.5417 -0.3701 -1.9640
  763MPD2    N111276   1.827   0.199  15.966  0.5288  0.4457 -0.5330
  763MPD2    H711277   1.918   0.234  15.993  1.3498 -3.1700  1.4724
  764MPD2     C11278   0.117   2.319  17.534  0.5018 -0.3361  0.6243
  764MPD2    C111279   0.041   2.206  17.510 -0.0632  0.0807 -0.7640
  764MPD2    C211280   0.050   2.101  17.600  0.6960 -0.6798 -0.0033
  764MPD2    C311281   0.136   2.103   0.022 -0.7324  0.4692  0.0158
  764MPD2    C411282   0.202   2.222   0.050 -0.4592  0.3044 -0.5931
  764MPD2    C511283   0.192   2.329  17.649  0.3629 -0.3335 -0.5073
  764MPD2     H11284   0.011   2.003  17.576 -1.0734 -0.4050  1.6664
  764MPD2    H111285   0.277   2.219   0.128 -0.8609  0.6697 -0.1952
  764MPD2    H211286   0.113   2.406  17.469 -3.7516 -0.4597  0.7205
  764MPD2    H311287   0.250   2.420  17.661 -2.6814  1.4770  0.4196
  764MPD2     N11288   0.137   1.988   0.106  0.0205 -0.0589 -0.4518
  764MPD2    H511289   0.079   1.913   0.070 -0.9143  0.0721  0.7698
  764MPD2    N111290   4.675   2.192  17.398  0.7630  0.1575 -0.5377
  764MPD2    H711291   4.628   2.102  17.394  2.1661 -0.4003 -4.6649
  765MPD2     C11292   4.704   3.804  16.304 -0.4223 -0.1322  0.0268
  765MPD2    C111293   0.030   3.915  16.232 -0.2455  0.1868  0.8783
  765MPD2    C211294   0.137   3.888  16.151 -0.3930  0.1816  0.4322
  765MPD2    C311295   0.200   3.767  16.139  0.7893  0.0264  1.4555
  765MPD2    C411296   0.160   3.666  16.221 -0.6719 -0.1858 -0.2088
  765MPD2    C511297   0.048   3.678  16.306  0.2597  0.0575  0.2937
  765MPD2     H11298   0.178   3.968  16.091 -0.3734 -0.7622 -0.8122
  765MPD2    H111299   0.212   3.571  16.225 -0.3662  0.0632  1.8000
  765MPD2    H211300   4.620   3.828  16.369  0.3089  3.2306 -0.2638
  765MPD2    H311301   0.017   3.605  16.379  0.1406 -1.2436 -1.0615
  765MPD2     N11302   0.309   3.760  16.052 -0.1591  0.5891  0.0954
  765MPD2    H511303   0.336   3.837  15.992  0.3817 -1.3678 -2.1636
  765MPD2    N111304   4.692   4.043  16.244 -0.0106  1.0443 -0.2454
  765MPD2    H711305   4.613   4.053  16.306  1.3680  1.7293  1.4035
  766MPD2     C11306   4.163   4.193  15.750 -0.1319  0.2193 -0.0238
  766MPD2    C111307   4.301   4.222  15.747  0.3512  1.0250 -0.3559
  766MPD2    C211308   4.363   4.218  15.624  0.0055  0.3667 -0.0897
  766MPD2    C311309   4.292   4.184  15.513  0.0843  0.3240 -0.3475
  766MPD2    C411310   4.157   4.155  15.516 -0.8146  0.4096  0.4722
  766MPD2    C511311   4.093   4.169  15.633  0.0028  0.0222  0.8260
  766MPD2     H11312   4.462   4.260  15.613  0.5623 -1.1404 -0.7895
  766MPD2    H111313   4.092   4.127  15.434 -0.0816 -0.5514  0.2115
  766MPD2    H211314   4.102   4.196  15.839 -0.1897 -1.2101 -0.0147
  766MPD2    H311315   3.986   4.149  15.632 -0.1194  0.6707  0.8509
  766MPD2     N11316   4.356   4.162  15.391 -0.1037  0.3436 -0.2479
  766MPD2    H511317   4.297   4.154  15.308 -1.7815 -1.0719  1.0763
  766MPD2    N111318   4.379   4.259  15.860  0.3850  0.3518  0.4311
  766MPD2    H711319   4.467   4.307  15.842 -0.2434  1.7236  1.0437
  767MPD2     C11320   4.023   4.486  15.360  0.1548  0.7125 -0.1180
  767MPD2    C111321   4.149   4.472  15.302 -0.5924  0.2238 -0.0217
  767MPD2    C211322   4.159   4.422  15.171 -0.2893  0.6116 -0.6269
  767MPD2    C311323   4.047   4.379  15.107  0.5821 -0.3321  0.2811
  767MPD2    C411324   3.922   4.404  15.162  0.5528  0.1327  0.4329
  767MPD2    C511325   3.913   4.452  15.294 -0.2582 -0.4696  0.0730
  767MPD2     H11326   4.254   4.402  15.123 -1.2045 -3.2853 -0.8660
  767MPD2    H111327   3.831   4.378  15.108  0.5209  0.4600  0.3312
  767MPD2    H211328   4.021   4.541  15.454 -2.3603  0.2032  0.1220
  767MPD2    H311329   3.817   4.457  15.344  0.4305  2.3699  1.1215
  767MPD2     N11330   4.058   4.346  14.964 -0.3702 -0.1076 -0.2793
  767MPD2    H511331   4.148   4.314  14.929 -0.6827 -0.9223 -0.3242
  767MPD2    N111332   4.260   4.515  15.377 -0.3334  0.1830  0.4014
  767MPD2    H711333   4.246   4.523  15.477  0.4412 -0.4961  0.5637
  768MPD2     C11334   0.480   2.501  10.532 -0.9261 -0.1261  0.6686
  768MPD2    C111335   0.489   2.604  10.622  0.5069  0.1935 -0.7281
  768MPD2    C211336   0.599   2.625  10.699  0.0375  0.1365 -0.1307
  768MPD2    C311337   0.706   2.530  10.692 -0.1624  0.1715 -0.0026
  768MPD2    C411338   0.703   2.424  10.603  0.3427 -0.3060  0.2259
  768MPD2    C511339   0.587   2.413  10.530  0.8268 -0.6470 -0.0649
  768MPD2     H11340   0.596   2.713  10.763  1.4441  0.5940 -0.6929
  768MPD2    H111341   0.780   2.351  10.581  0.5970 -0.5578  1.9548
  768MPD2    H211342   0.392   2.481  10.472  0.1679 -1.2685 -0.5620
  768MPD2    H311343   0.574   2.329  10.463  2.6656 -1.3550  0.4653
  768MPD2     N11344   0.819   2.545  10.777  0.0418 -0.1409  0.3613
  768MPD2    H511345   0.892   2.474  10.778 -0.3132 -0.5331 -1.8162
  768MPD2    N111346   0.388   2.695  10.653 -0.4331  0.4616 -0.0288
  768MPD2    H711347   0.401   2.767  10.724  3.4097 -1.7827  1.5517
  769MPD2     C11348   0.956   1.131  14.873  0.0608 -0.0624  0.4498
  769MPD2    C111349   1.005   1.029  14.954 -0.2580 -0.2059  1.2796
  769MPD2    C211350   1.070   1.066  15.076  0.2075 -0.5868 -0.0912
  769MPD2    C311351   1.087   1.200  15.109  0.7554  0.1495 -0.7878
  769MPD2    C411352   1.038   1.297  15.025  0.5280  0.1139  0.2759
  769MPD2    C511353   0.971   1.260  14.916 -0.3088 -0.2420 -0.3618
  769MPD2     H11354   1.102   0.981  15.135  1.9325 -0.0254 -0.2371
  769MPD2    H111355   1.034   1.401  15.055 -1.3379 -0.1919  1.0692
  769MPD2    H211356   0.885   1.115  14.792 -0.5940 -1.8977  1.3856
  769MPD2    H311357   0.926   1.335  14.852 -0.0946  0.0417 -0.1842
  769MPD2     N11358   1.160   1.234  15.224 -0.0535  0.1619 -0.2493
  769MPD2    H511359   1.177   1.159  15.290 -1.1777 -1.2325 -1.5670
  769MPD2    N111360   0.985   0.898  14.903  0.4057 -0.0597 -0.2874
  769MPD2    H711361   0.924   0.895  14.822  0.5909 -1.3672 -0.3747
  770MPD2     C11362   0.543   0.231  15.400 -0.9524  0.2364 -0.0963
  770MPD2    C111363   0.673   0.195  15.411  0.9705 -0.1772 -0.1995
  770MPD2    C211364   0.763   0.244  15.318 -0.4157 -0.1338 -0.4352
  770MPD2    C311365   0.721   0.316  15.209 -0.8739  0.3902  0.3004
  770MPD2    C411366   0.585   0.342  15.191  0.2391  0.6057 -0.8653
  770MPD2    C511367   0.495   0.290  15.285  0.2937  0.7779  0.1356
  770MPD2     H11368   0.870   0.231  15.312 -0.6046 -1.8097 -0.0065
  770MPD2    H111369   0.544   0.406  15.114 -0.7910  1.9154  0.7842
  770MPD2    H211370   0.475   0.200  15.478 -0.8069  1.4888  0.5279
  770MPD2    H311371   0.392   0.325  15.287 -1.6798 -4.9715  0.0015
  770MPD2     N11372   0.812   0.358  15.113  0.3455  0.2965  0.2832
  770MPD2    H511373   0.911   0.361  15.138  0.4050  0.5945  0.0254
  770MPD2    N111374   0.710   0.111  15.516 -0.0822 -0.6138  0.2041
  770MPD2    H711375   0.635   0.085  15.578 -0.4804 -0.0555 -0.0437
  771MPD2     C11376   1.850   3.463  13.117 -0.7183 -0.2065  0.1049
  771MPD2    C111377   1.815   3.564  13.030 -0.0343 -0.4507 -0.7680
  771MPD2    C211378   1.796   3.553  12.893  0.4664  0.5374 -0.6130
  771MPD2    C311379   1.821   3.430  12.835 -0.0268  0.2769 -0.3842
  771MPD2    C411380   1.832   3.322  12.919  0.1557  0.2356 -0.3207
  771MPD2    C511381   1.855   3.339  13.055 -0.7551 -0.4208 -0.0430
  771MPD2     H11382   1.768   3.636  12.829 -0.3387  0.6488 -0.1140
  771MPD2    H111383   1.819   3.219  12.889  1.1373 -0.5085  1.8096
  771MPD2    H211384   1.855   3.458  13.225  0.7093 -1.9639 -0.0285
  771MPD2    H311385   1.869   3.251  13.117 -0.5107  1.2119  2.2376
  771MPD2     N11386   1.816   3.415  12.694  0.7583  0.2864  0.3841
  771MPD2    H511387   1.841   3.501  12.647  0.4486 -0.7948 -1.7482
  771MPD2    N111388   1.784   3.691  13.072 -0.2727 -0.9603 -0.6790
  771MPD2    H711389   1.749   3.751  12.997 -0.9730 -1.1798 -0.5259
  772MPD2     C11390   1.391   4.297  12.965  0.3054  0.1805 -0.2619
  772MPD2    C111391   1.409   4.186  13.041 -0.2662 -0.8285  0.1815
  772MPD2    C211392   1.296   4.117  13.089  0.1551  0.0702 -0.4236
  772MPD2    C311393   1.173   4.183  13.095 -0.4144  0.0848  0.2805
  772MPD2    C411394   1.163   4.298  13.026 -0.4317 -1.2182  0.3073
  772MPD2    C511395   1.274   4.349  12.962 -0.2406 -0.3381 -0.4505
  772MPD2     H11396   1.308   4.026  13.147  2.0392  1.5452  1.5339
  772MPD2    H111397   1.070   4.353  13.019  0.1550 -0.1020  1.2237
  772MPD2    H211398   1.473   4.352  12.921 -0.1157  1.0313  0.0116
  772MPD2    H311399   1.259   4.443  12.910 -0.7119 -0.7012 -0.9712
  772MPD2     N11400   1.060   4.145  13.166  0.3074  0.2112  0.3164
  772MPD2    H511401   0.979   4.206  13.172  0.8758  0.9374  0.5720
  772MPD2    N111402   1.538   4.131  13.067  0.2482  0.3769  0.2338
  772MPD2    H711403   1.543   4.043  13.118 -1.6432 -0.3314 -0.8007
  773MPD2     C11404   0.280   0.424   0.727 -0.5672 -0.2889 -0.4272
  773MPD2    C111405   0.338   0.352   0.623  0.3915 -0.3719  0.4054
  773MPD2    C211406   0.409   0.235   0.645 -0.3948 -0.1486  0.5861
  773MPD2    C311407   0.433   0.202   0.775 -0.4397 -0.0640  0.1217
  773MPD2    C411408   0.376   0.277   0.879  0.3770 -1.1869 -0.2175
  773MPD2    C511409   0.299   0.382   0.852 -0.1450  0.1002 -0.7614
  773MPD2     H11410   0.448   0.176   0.563  0.3645  0.7786  0.2812
  773MPD2    H111411   0.388   0.246   0.983  1.2173  3.0844  0.9388
  773MPD2    H211412   0.216   0.507   0.697  0.1319 -0.8358 -3.3685
  773MPD2    H311413   0.246   0.434   0.931 -1.3636 -1.5485 -0.4820
  773MPD2     N11414   0.521   0.094   0.789 -0.2850  0.4870 -0.0441
  773MPD2    H511415   0.542   0.050   0.700 -1.4112  1.0957 -0.6128
  773MPD2    N111416   0.315   0.389   0.486  0.6469 -0.2675 -0.9680
  773MPD2    H711417   0.344   0.330   0.409 -2.8847 -0.7852 -1.9103
  774MPD2     C11418   4.662   3.996  13.525  0.1324 -0.0943  0.4405
  774MPD2    C111419   4.701   4.092  13.607  0.0427 -0.7965 -0.5255
  774MPD2    C211420   0.087   4.169  13.557 -0.4369 -0.3637 -0.2636
  774MPD2    C311421   0.144   4.159  13.430 -0.9698  0.1601  0.3027
  774MPD2    C411422   0.090   4.065  13.344 -0.1332  0.1697 -0.2733
  774MPD2    C511423   4.708   3.981  13.396 -0.6369 -0.1180  0.2379
  774MPD2     H11424   0.141   4.235  13.624 -0.5048  0.9729 -1.5467
  774MPD2    H111425   0.113   4.058  13.238  0.9552  0.9652 -0.0894
  774MPD2    H211426   4.596   3.917  13.562  2.6893 -1.0352  3.0101
  774MPD2    H311427   4.665   3.898  13.340 -1.2181 -1.7751  3.1120
  774MPD2     N11428   0.244   4.254  13.392 -0.1698 -0.3096 -0.1228
  774MPD2    H511429   0.281   4.309  13.468 -0.8156  1.5377 -1.1380
  774MPD2    N111430   4.663   4.093  13.743  0.3548 -0.3651 -0.2005
  774MPD2    H711431   4.606   4.013  13.770  0.6501 -0.8733 -1.0710
  775MPD2     C11432   1.390   1.343  15.997 -0.1948  0.4200 -0.0183
  775MPD2    C111433   1.364   1.469  16.057  0.5209 -0.2420 -0.0291
  775MPD2    C211434   1.444   1.578  16.018  0.0819  0.8416  0.2476
  775MPD2    C311435   1.542   1.562  15.916  0.1880 -0.1091  0.4057
  775MPD2    C411436   1.552   1.444  15.848  0.4347 -0.3550  0.2560
  775MPD2    C511437   1.479   1.337  15.889  0.2166 -0.2660  0.4901
  775MPD2     H11438   1.435   1.672  16.072 -0.2711  2.1880 -2.1209
  775MPD2    H111439   1.618   1.443  15.763  0.5285 -0.4996  0.3304
  775MPD2    H211440   1.331   1.254  16.015 -1.0287  0.6026 -1.7856
  775MPD2    H311441   1.491   1.242  15.839 -1.0925  1.1860 -2.5662
  775MPD2     N11442   1.624   1.669  15.864 -0.2277  0.1409  0.5836
  775MPD2    H511443   1.668   1.649  15.774 -1.0177 -1.3813  0.5319
  775MPD2    N111444   1.258   1.478  16.148 -0.3335 -0.4917  0.2009
  775MPD2    H711445   1.202   1.394  16.161  1.9140 -2.3442 -2.2289
  776MPD2     C11446   1.879   0.971  10.692  0.5889 -0.0549 -0.6900
  776MPD2    C111447   1.790   1.005  10.792  0.2017  0.4560  0.4490
  776MPD2    C211448   1.835   1.086  10.895 -0.4523 -0.1192 -1.1091
  776MPD2    C311449   1.972   1.114  10.913 -0.9622  0.2854  0.4975
  776MPD2    C411450   2.059   1.066  10.819  0.5142 -0.4489 -0.2183
  776MPD2    C511451   2.018   1.007  10.708 -0.0911 -0.1778 -0.2782
  776MPD2     H11452   1.754   1.126  10.953 -0.9535 -0.9766 -1.2127
  776MPD2    H111453   2.166   1.079  10.824  0.4986 -0.3049 -0.2415
  776MPD2    H211454   1.844   0.919  10.604  0.3624 -2.7611  0.9930
  776MPD2    H311455   2.094   0.977  10.637  3.5016 -0.8236  3.8751
  776MPD2     N11456   2.024   1.202  11.011 -0.0215  0.3571 -0.4305
  776MPD2    H511457   2.125   1.211  11.008 -0.0622  0.5458 -1.1178
  776MPD2    N111458   1.657   0.957  10.781  0.4749 -0.0218 -0.2097
  776MPD2    H711459   1.633   0.913  10.693  1.3739  1.5146 -1.2149
  777MPD2     C11460   0.632   3.177   0.972 -0.2569 -0.0750  0.3494
  777MPD2    C111461   0.520   3.122   1.030  1.4659 -0.4580  0.9332
  777MPD2    C211462   0.432   3.056   0.943  0.2950  0.2092  0.1962
  777MPD2    C311463   0.456   3.039   0.807  0.2401 -0.6096  0.6600
  777MPD2    C411464   0.580   3.072   0.765  0.0202 -0.5263  0.2599
  777MPD2    C511465   0.666   3.141   0.844  0.3410  0.7327  0.0808
  777MPD2     H11466   0.339   3.017   0.983 -0.1737  1.2867  0.1552
  777MPD2    H111467   0.609   3.053   0.662 -0.9961  2.1244 -0.5190
  777MPD2    H211468   0.703   3.236   1.030 -0.3406  0.4426 -0.0748
  777MPD2    H311469   0.770   3.157   0.817 -0.2077  0.5044 -2.2114
  777MPD2     N11470   0.364   2.977   0.718 -0.2659  1.1422 -0.2911
  777MPD2    H511471   0.281   2.939   0.763  1.8875 -0.4839  2.3516
  777MPD2    N111472   0.490   3.150   1.163 -0.1443  0.2731 -0.2801
  777MPD2    H711473   0.571   3.195   1.203  1.3727 -2.9718  0.3236
  778MPD2     C11474   2.172   4.060  15.031  0.3159  0.3154  0.1376
  778MPD2    C111475   2.165   3.987  14.913 -0.3470  0.4043  0.3098
  778MPD2    C211476   2.268   3.998  14.824  0.0683  0.1260  0.1990
  778MPD2    C311477   2.369   4.086  14.845  0.1424 -0.3527 -0.2053
  778MPD2    C411478   2.376   4.166  14.962 -0.3642 -0.2674 -0.6209
  778MPD2    C511479   2.271   4.147  15.051 -0.7330  0.1355 -0.7874
  778MPD2     H11480   2.285   3.929  14.742 -1.5365  1.1395 -1.0101
  778MPD2    H111481   2.455   4.235  14.990  0.2824 -0.8970 -0.8697
  778MPD2    H211482   2.106   4.031  15.112 -1.2737 -0.7414 -1.5176
  778MPD2    H311483   2.274   4.199  15.146  2.6462  0.6458 -1.1845
  778MPD2     N11484   2.483   4.077  14.760 -0.6115  0.1297 -0.7754
  778MPD2    H511485   2.459   4.024  14.676 -0.4186 -1.5700  0.2482
  778MPD2    N111486   2.059   3.903  14.881  0.1019 -0.2603 -0.6627
  778MPD2    H711487   2.050   3.876  14.784 -0.6643  4.0364 -1.7776
  779MPD2     C11488   1.992   2.765  14.280  0.4939  0.3812 -0.2162
  779MPD2    C111489   2.133   2.761  14.278 -0.1132  0.2237  0.3450
  779MPD2    C211490   2.201   2.879  14.288  0.0297 -0.2263  0.5519
  779MPD2    C311491   2.139   3.002  14.294  0.5317  0.4818  0.0724
  779MPD2    C411492   2.002   3.005  14.294 -0.2902 -0.0010  0.0457
  779MPD2    C511493   1.934   2.889  14.299 -0.1187 -0.1531  0.0260
  779MPD2     H11494   2.309   2.871  14.293  0.0707 -0.4021 -0.6335
  779MPD2    H111495   1.948   3.098  14.308 -0.0571 -0.2247  2.3504
  779MPD2    H211496   1.928   2.678  14.284  0.3198  0.5114 -0.1713
  779MPD2    H311497   1.827   2.893  14.314 -0.2818 -0.9887 -0.9017
  779MPD2     N11498   2.217   3.122  14.317 -0.3830 -0.5081  0.1718
  779MPD2    H511499   2.317   3.109  14.315  0.0468  2.6375  1.4830
  779MPD2    N111500   2.219   2.647  14.272  0.3862  0.2954 -0.5472
  779MPD2    H711501   2.319   2.656  14.287  0.2999  1.6458 -0.7634
  780MPD2     C11502   0.687   2.238   1.107  0.3086 -0.1204  0.2831
  780MPD2    C111503   0.680   2.197   0.977  0.6554  0.9347 -0.4553
  780MPD2    C211504   0.715   2.274   0.874  0.4159 -0.3726 -0.1107
  780MPD2    C311505   0.773   2.400   0.898  0.0542 -0.4186  0.6464
  780MPD2    C411506   0.773   2.439   1.033 -0.7686  0.1028 -0.5511
  780MPD2    C511507   0.726   2.361   1.137  0.1596 -0.0302 -0.4289
  780MPD2     H11508   0.707   2.243   0.771  4.1612  0.7165 -0.7271
  780MPD2    H111509   0.791   2.541   1.066 -1.8195 -0.5561  2.0687
  780MPD2    H211510   0.648   2.180   1.190  0.4257 -1.3642 -0.5188
  780MPD2    H311511   0.719   2.408   1.234  0.1464 -2.3799  0.6982
  780MPD2     N11512   0.830   2.474   0.790  0.0915 -0.4326 -0.1766
  780MPD2    H511513   0.819   2.433   0.698 -3.4449 -1.2020  0.5637
  780MPD2    N111514   0.642   2.064   0.965 -0.2420  0.1419  0.4056
  780MPD2    H711515   0.618   2.015   1.051  0.5265  0.2986  0.7062
  781MPD2     C11516   3.037   4.044  12.014 -0.6565 -0.5468 -0.5441
  781MPD2    C111517   3.105   4.119  12.106 -0.2091 -0.7660  0.1156
  781MPD2    C211518   3.222   4.178  12.064 -0.5978  0.2528  0.3651
  781MPD2    C311519   3.264   4.177  11.936  1.0448  0.2839 -0.6508
  781MPD2    C411520   3.191   4.102  11.845  0.3243  0.0142 -0.7074
  781MPD2    C511521   3.075   4.043  11.884 -0.1873 -0.1785  0.3596
  781MPD2     H11522   3.287   4.227  12.134 -0.4569  1.6629 -0.7611
  781MPD2    H111523   3.212   4.091  11.739  0.9091  1.6098 -0.7572
  781MPD2    H211524   2.945   3.995  12.044 -0.7183  0.5676  1.0697
  781MPD2    H311525   3.013   3.997  11.808  0.0817 -1.1797  0.7463
  781MPD2     N11526   3.386   4.238  11.888  0.0356 -0.0056  0.6604
  781MPD2    H511527   3.423   4.204  11.800  1.4816 -0.3725  1.4028
  781MPD2    N111528   3.081   4.104  12.244  0.0257  0.5087 -0.4994
  781MPD2    H711529   3.149   4.150  12.303 -0.9461  1.4528 -0.1099
  782MPD2     C11530   1.679   4.404   9.790 -0.1414 -0.1581  0.3115
  782MPD2    C111531   1.784   4.378   9.875  0.9015  0.3127 -0.2909
  782MPD2    C211532   1.878   4.471   9.886 -0.3231 -0.4901  0.4451
  782MPD2    C311533   1.873   4.588   9.801  0.3400  0.0958  0.3720
  782MPD2    C411534   1.768   4.608   9.713 -0.3824  0.6338  0.1728
  782MPD2    C511535   1.670   4.510   9.704  0.2780  0.2321  0.8610
  782MPD2     H11536   1.959   4.457   9.956  1.5216  2.9242 -1.0116
  782MPD2    H111537   1.754   4.697   9.653 -2.9412 -0.5763 -1.0190
  782MPD2    H211538   1.599   4.331   9.787 -0.0968 -0.2161  0.6153
  782MPD2    H311539   1.582   4.518   9.640  1.9016  1.1326 -1.2653
  782MPD2     N11540   1.966   4.688   9.824  0.0937  0.7200  0.1411
  782MPD2    H511541   2.005   4.689   9.917  0.3339 -1.0571  0.0592
  782MPD2    N111542   1.796   4.256   9.952  0.4805  0.9448 -0.2256
  782MPD2    H711543   1.708   4.213   9.977  0.6617 -0.5825 -2.2010
  783MPD2     C11544   1.250   4.123  10.528  0.0640 -0.1614  0.0035
  783MPD2    C111545   1.302   4.217  10.443  0.0019  0.0126 -0.5847
  783MPD2    C211546   1.429   4.190  10.377  0.2079 -0.0078 -0.3836
  783MPD2    C311547   1.491   4.072  10.405  0.6138  0.5747 -0.1432
  783MPD2    C411548   1.438   3.978  10.492 -0.1007  0.0882  0.2036
  783MPD2    C511549   1.312   4.004  10.548  0.0139 -0.1886 -0.1084
  783MPD2     H11550   1.473   4.251  10.299 -1.7511  0.8356 -0.8318
  783MPD2    H111551   1.484   3.880  10.497  2.4405  1.2560 -0.4566
  783MPD2    H211552   1.156   4.124  10.580 -0.1438  2.0694 -0.3879
  783MPD2    H311553   1.268   3.929  10.613 -3.4760  1.8570 -0.0628
  783MPD2     N11554   1.599   4.043  10.324  0.7621  0.1973  0.8413
  783MPD2    H511555   1.631   4.118  10.264 -0.6827  0.8788  0.9258
  783MPD2    N111556   1.218   4.326  10.419  0.3885 -0.7606  0.2416
  783MPD2    H711557   1.137   4.337  10.479  0.0906 -2.8200  0.2263
  784MPD2     C11558   2.838   0.811   1.685  0.4779  0.1211 -0.2730
  784MPD2    C111559   2.850   0.843   1.553 -0.4010  0.0057 -0.2156
  784MPD2    C211560   2.763   0.928   1.491 -0.0345  0.2861  0.1282
  784MPD2    C311561   2.656   0.974   1.559  0.3426  0.5434  0.2576
  784MPD2    C411562   2.632   0.932   1.692 -0.3193  0.0970  0.6003
  784MPD2    C511563   2.721   0.846   1.747  0.4095  0.0213 -0.3423
  784MPD2     H11564   2.781   0.959   1.388  3.2159 -1.7375  0.0707
  784MPD2    H111565   2.552   0.963   1.759  0.1488 -0.0912  1.2492
  784MPD2    H211566   2.915   0.755   1.736  0.6306 -0.2030 -0.8484
  784MPD2    H311567   2.716   0.817   1.851  0.3391 -0.8110 -0.5806
  784MPD2     N11568   2.593   1.078   1.497  0.4313  0.8492 -0.0441
  784MPD2    H511569   2.638   1.109   1.412  0.6373  0.5781 -0.0341
  784MPD2    N111570   2.968   0.802   1.478 -0.2409 -0.4613  0.2809
  784MPD2    H711571   2.987   0.855   1.393  0.2127 -0.6451  0.2658
  785MPD2     C11572   4.303   3.630  10.470 -0.0379  0.7534  0.1371
  785MPD2    C111573   4.205   3.719  10.521 -0.3452  1.1279 -0.0594
  785MPD2    C211574   4.087   3.660  10.570  0.4789  0.3793 -1.1806
  785MPD2    C311575   4.067   3.523  10.562  0.1611  0.0026  0.4702
  785MPD2    C411576   4.165   3.439  10.510  0.0598  0.3720  0.2123
  785MPD2    C511577   4.288   3.488  10.465 -0.4142 -0.1572 -0.7013
  785MPD2     H11578   4.016   3.727  10.616 -1.1194 -2.9041  1.1467
  785MPD2    H111579   4.151   3.331  10.502  0.4704  0.1931  1.9407
  785MPD2    H211580   4.398   3.678  10.452  0.1241  1.2928  2.4016
  785MPD2    H311581   4.377   3.434  10.437  0.1069  0.4007 -0.1092
  785MPD2     N11582   3.938   3.474  10.597  0.7050 -0.4716 -0.0151
  785MPD2    H511583   3.885   3.548  10.641  0.6561  0.1057 -1.0520
  785MPD2    N111584   4.212   3.861  10.525 -0.4712 -0.2970 -0.0886
  785MPD2    H711585   4.134   3.913  10.565 -1.4514 -0.4518 -1.8277
  786MPD2     C11586   2.429   2.059  14.753  0.0258 -0.5185  0.0404
  786MPD2    C111587   2.557   2.015  14.786  0.3175 -0.5657  0.5697
  786MPD2    C211588   2.614   2.054  14.915  0.2472  0.0109 -0.3865
  786MPD2    C311589   2.545   2.146  14.999 -0.8594 -0.1335  0.7774
  786MPD2    C411590   2.419   2.190  14.953 -0.2503  0.4334  0.0862
  786MPD2    C511591   2.358   2.140  14.838  0.2335  0.5066 -0.7545
  786MPD2     H11592   2.712   2.013  14.938  1.2308  1.7863 -1.3960
  786MPD2    H111593   2.354   2.257  15.009 -2.1540  0.1664 -1.7926
  786MPD2    H211594   2.382   2.018  14.664  1.6419  2.4123 -2.1398
  786MPD2    H311595   2.254   2.159  14.813  0.8550  1.7401 -2.4574
  786MPD2     N11596   2.600   2.196  15.123  0.3909 -0.1083  0.9794
  786MPD2    H511597   2.547   2.261  15.180  0.8863 -0.0961  1.4241
  786MPD2    N111598   2.622   1.915  14.703 -0.3559 -0.4903  0.0048
  786MPD2    H711599   2.705   1.875  14.745 -0.5571  0.6862  1.4992
  787MPD2     C11600   2.744   1.285  14.778 -0.5330  0.9535  0.2098
  787MPD2    C111601   2.858   1.350  14.734 -0.1071 -0.5361 -0.1785
  787MPD2    C211602   2.982   1.307  14.768  0.8809  1.0289  0.6708
  787MPD2    C311603   2.993   1.197  14.846 -0.6483 -0.1460  0.0221
  787MPD2    C411604   2.882   1.133  14.885 -0.3236 -0.7726  0.1180
  787MPD2    C511605   2.755   1.177  14.859 -0.1629 -0.1145 -0.2976
  787MPD2     H11606   3.072   1.364  14.748  0.5924  1.5131  0.7604
  787MPD2    H111607   2.894   1.036  14.933 -0.2580 -1.1577 -0.6847
  787MPD2    H211608   2.641   1.315  14.763 -0.8511  0.4523  1.3569
  787MPD2    H311609   2.674   1.132  14.915 -0.5755 -2.4543 -2.7544
  787MPD2     N11610   3.124   1.149  14.888 -0.1646 -1.2904 -0.2680
  787MPD2    H511611   3.207   1.186  14.844 -0.4885 -1.6644 -1.1794
  787MPD2    N111612   2.835   1.471  14.659  0.2247 -0.6148 -0.5342
  787MPD2    H711613   2.739   1.503  14.655  0.9443  1.6395 -0.0703
  788MPD2     C11614   4.664   0.488   0.721  0.2703  0.1656 -0.2589
  788MPD2    C111615   4.645   0.356   0.680 -0.2740  0.2541 -0.5989
  788MPD2    C211616   4.660   0.325   0.545 -0.0439  0.3371  0.3844
  788MPD2    C311617   4.648   0.431   0.451  0.1047  0.0834  0.0304
  788MPD2    C411618   4.669   0.561   0.492  0.0897 -0.0507  0.6282
  788MPD2    C511619   4.678   0.589   0.630 -0.3004  0.4116 -0.0564
  788MPD2     H11620   4.641   0.222   0.517 -2.9556  1.0121 -0.0782
  788MPD2    H111621   4.677   0.647   0.428  4.0356  0.1494  1.4373
  788MPD2    H211622   4.658   0.520   0.825  3.1770  1.8901 -0.6406
  788MPD2    H311623   4.684   0.691   0.669 -0.7039 -0.3842  2.1226
  788MPD2     N11624   4.635   0.397   0.314 -0.4738  0.1295  0.3034
  788MPD2    H511625   4.591   0.474   0.265 -0.8415 -0.3482 -0.1119
  788MPD2    N111626   4.617   0.256   0.774  0.1466  0.1385 -0.0118
  788MPD2    H711627   4.593   0.165   0.734 -2.6042  0.4943  0.8303
  789MPD2     C11628   4.685   4.713  17.184 -0.2238  0.1110 -0.4914
  789MPD2    C111629   4.606   4.696  17.070  0.5650  0.9334 -0.5982
  789MPD2    C211630   4.496   0.054  17.048  0.7066  0.4671 -0.0311
  789MPD2    C311631   4.484   0.175  17.121  0.0365 -0.1682 -0.0739
  789MPD2    C411632   4.571   0.199  17.219 -0.5087  0.9462  0.6687
  789MPD2    C511633   4.661   0.105  17.256  0.1515 -0.5546  0.3459
  789MPD2     H11634   4.436   0.030  16.961 -0.5562  1.0169  0.6954
  789MPD2    H111635   4.584   0.296  17.267  0.1886  0.9952  0.3783
  789MPD2    H211636   0.041   4.647  17.222 -0.8248 -0.0943  0.3638
  789MPD2    H311637   0.005   0.134  17.337  2.6968  0.0735 -1.9335
  789MPD2     N11638   4.373   0.263  17.101  0.3961 -0.6501 -0.0548
  789MPD2    H511639   4.363   0.332  17.175 -0.6373  2.1396 -2.7639
  789MPD2    N111640   4.617   4.576  16.987 -0.2630  0.4122  0.4151
  789MPD2    H711641   4.552   4.571  16.910  1.1689  0.0214 -0.7642
  790MPD2     C11642   0.945   1.001  13.969  0.3890  0.5186  0.3524
  790MPD2    C111643   0.994   1.125  13.930  0.9817  0.0229  0.4293
  790MPD2    C211644   0.991   1.161  13.797 -0.2529  0.3047 -0.3655
  790MPD2    C311645   0.943   1.083  13.695 -0.3757  0.2315  0.5646
  790MPD2    C411646   0.887   0.965  13.739  0.2128  0.4567 -0.4299
  790MPD2    C511647   0.901   0.925  13.869 -0.7616  0.5484 -0.6912
  790MPD2     H11648   1.018   1.259  13.760 -0.4172  0.2330 -0.6779
  790MPD2    H111649   0.842   0.896  13.669 -1.0172  0.2823  0.5447
  790MPD2    H211650   0.955   0.962  14.069 -2.4421 -0.4844  0.2448
  790MPD2    H311651   0.855   0.830  13.893  2.1161 -0.9717 -1.1937
  790MPD2     N11652   0.939   1.132  13.564 -0.4667 -0.5375  0.5905
  790MPD2    H511653   0.977   1.225  13.548 -1.7610 -0.3986 -1.8148
  790MPD2    N111654   1.057   1.205  14.031  0.2394  0.4041 -0.4652
  790MPD2    H711655   1.042   1.180  14.129 -0.1801 -2.7654 -1.3257
  791MPD2     C11656   0.577   1.185  12.707 -0.6750  0.3180  0.7085
  791MPD2    C111657   0.566   1.134  12.835  0.5171 -0.0091 -0.0649
  791MPD2    C211658   0.469   1.035  12.857 -0.3987  0.0680  0.5881
  791MPD2    C311659   0.399   0.986  12.747  0.6060  0.1372  0.1118
  791MPD2    C411660   0.416   1.045  12.622  0.7545  0.9657  0.6745
  791MPD2    C511661   0.512   1.138  12.598  0.9504  0.4430  1.5073
  791MPD2     H11662   0.440   0.986  12.949  0.1161 -1.4536 -0.0662
  791MPD2    H111663   0.367   1.010  12.532 -0.2584 -1.1388  2.0470
  791MPD2    H211664   0.635   1.273  12.682  1.2922 -1.4222 -0.8393
  791MPD2    H311665   0.528   1.186  12.502 -2.3502  1.7443  1.6213
  791MPD2     N11666   0.312   0.878  12.776  0.0911 -0.6628 -0.1855
  791MPD2    H511667   0.319   0.835  12.867  0.7978  0.4578  0.2909
  791MPD2    N111668   0.639   1.195  12.941  0.0818 -0.7655 -0.0010
  791MPD2    H711669   0.704   1.269  12.916  0.7852 -1.4738 -0.2560
  792MPD2     C11670   2.171   1.101  10.217 -0.8642  0.4902  0.0863
  792MPD2    C111671   2.045   1.094  10.278  0.1047  0.8841 -0.2303
  792MPD2    C211672   1.956   0.990  10.233  0.7710  1.0517 -0.2767
  792MPD2    C311673   1.986   0.900  10.137  0.1904 -0.3823  0.2993
  792MPD2    C411674   2.116   0.907  10.088  0.1883 -0.5145 -0.3346
  792MPD2    C511675   2.207   1.003  10.126  0.5025  0.0441  0.0106
  792MPD2     H11676   1.858   0.982  10.281  1.4036  1.8990  1.1560
  792MPD2    H111677   2.141   0.829  10.017  0.1173 -2.7100  2.0583
  792MPD2    H211678   2.240   1.179  10.245 -0.9268  0.9319 -1.0067
  792MPD2    H311679   2.304   1.009  10.077 -1.3472  1.8179 -3.4133
  792MPD2     N11680   1.909   0.795  10.087 -0.2961  0.0355  0.0175
  792MPD2    H511681   1.944   0.760   9.998  1.6056 -0.1687  0.8576
  792MPD2    N111682   2.012   1.198  10.373 -0.0419 -0.4298 -0.3409
  792MPD2    H711683   2.093   1.251  10.402  1.2550 -2.1456 -0.8596
  793MPD2     C11684   1.069   0.876   9.803 -0.2986  0.0721 -0.2567
  793MPD2    C111685   1.199   0.843   9.765  0.0374  0.0194 -0.1846
  793MPD2    C211686   1.283   0.769   9.845 -0.2028 -0.1563  0.6123
  793MPD2    C311687   1.235   0.723   9.972 -0.4960  0.4612  0.1707
  793MPD2    C411688   1.110   0.756  10.016  0.1573 -0.3934 -0.4597
  793MPD2    C511689   1.034   0.830   9.931  0.0151 -0.3513  0.1389
  793MPD2     H11690   1.374   0.730   9.803  0.4926  1.6370  0.4450
  793MPD2    H111691   1.072   0.718  10.111 -0.1315 -1.2111 -0.9053
  793MPD2    H211692   0.995   0.931   9.748 -0.3014 -1.5276 -1.8593
  793MPD2    H311693   0.939   0.859   9.973 -0.4012 -0.6818 -0.5856
  793MPD2     N11694   1.315   0.626  10.048  0.6729  0.1482 -0.7098
  793MPD2    H511695   1.309   0.636  10.148 -1.9969 -0.1000 -0.8538
  793MPD2    N111696   1.252   0.881   9.640  0.4558 -0.0025  0.2009
  793MPD2    H711697   1.351   0.873   9.622  0.6501  1.2729  0.6575
  794MPD2     C11698   0.283   1.091  17.603  0.3630  0.2664 -0.4278
  794MPD2    C111699   0.236   0.968  17.556  0.3036  0.0940  0.0573
  794MPD2    C211700   0.199   0.972  17.420 -0.2261 -0.0260  0.5480
  794MPD2    C311701   0.199   1.091  17.340  0.2368  0.0023  0.0776
  794MPD2    C411702   0.261   1.202  17.393  0.1688 -0.1889  0.5521
  794MPD2    C511703   0.290   1.204  17.526 -0.1415 -0.8136  0.1466
  794MPD2     H11704   0.155   0.883  17.377  1.4449 -0.2739 -0.6731
  794MPD2    H111705   0.261   1.292  17.334  1.1349  0.9615  2.3295
  794MPD2    H211706   0.306   1.110   0.020 -0.7487 -0.5614 -0.0326
  794MPD2    H311707   0.314   1.294  17.580 -0.0294 -0.5575 -0.3254
  794MPD2     N11708   0.149   1.098  17.212  0.1317 -0.2153 -0.1374
  794MPD2    H511709   0.151   1.190  17.170  1.6674  0.2482  0.9589
  794MPD2    N111710   0.223   0.849  17.628  0.2858 -0.0282  0.5204
  794MPD2    H711711   0.200   0.765  17.576  0.5723 -0.5831  1.2834
  795MPD2     C11712   3.468   2.856  12.601 -0.6565 -0.3255 -0.4168
  795MPD2    C111713   3.437   2.718  12.600 -0.7428 -0.9401  0.6180
  795MPD2    C211714   3.532   2.634  12.650  0.8122  0.4148 -0.1955
  795MPD2    C311715   3.651   2.686  12.699  0.2283 -0.4308 -0.4235
  795MPD2    C411716   3.673   2.823  12.709 -0.4547 -0.3263  0.1651
  795MPD2    C511717   3.582   2.905  12.655  0.4828 -0.1089  0.5174
  795MPD2     H11718   3.513   2.528  12.655 -0.5135  0.6693  0.0568
  795MPD2    H111719   3.765   2.868  12.746 -0.9316 -0.1894  1.1920
  795MPD2    H211720   3.397   2.932  12.570 -0.5574  0.1406  0.4980
  795MPD2    H311721   3.593   3.013  12.665 -2.2064  0.1272  0.7835
  795MPD2     N11722   3.750   2.592  12.743  0.3823  0.3354  0.4678
  795MPD2    H511723   3.723   2.494  12.745  0.0937  0.3798 -1.2384
  795MPD2    N111724   3.312   2.663  12.543  0.2422  0.4826  0.3671
  795MPD2    H711725   3.292   2.563  12.539 -0.1218  0.5597  0.3001
  796MPD2     C11726   2.173   4.468  16.147  0.2252 -0.5393 -0.2534
  796MPD2    C111727   2.276   4.515  16.225  0.3322  0.3421 -0.2199
  796MPD2    C211728   2.299   4.649  16.231 -0.1312  0.1262 -0.7142
  796MPD2    C311729   2.217   0.020  16.174 -1.4511 -0.4993  0.1163
  796MPD2    C411730   2.112   4.700  16.094  0.4416 -0.1668 -0.6094
  796MPD2    C511731   2.089   4.561  16.082 -0.1925 -0.1629  0.0029
  796MPD2     H11732   2.380   4.688  16.292 -0.5170 -1.5800  0.8941
  796MPD2    H111733   2.044   0.043  16.041  0.2173 -0.2876 -0.4690
  796MPD2    H211734   2.152   4.363  16.131  0.4916 -0.6922  0.4089
  796MPD2    H311735   1.994   4.531  16.038 -0.2368 -0.5905  0.3941
  796MPD2     N11736   2.235   0.152  16.210  0.1790  0.3442 -0.2371
  796MPD2    H511737   2.317   0.166  16.268  0.3483  0.2767 -0.4599
  796MPD2    N111738   2.369   4.423  16.280  0.2851  0.2295 -0.1522
  796MPD2    H711739   2.342   4.325  16.277 -1.4998  0.6683  1.0169
  797MPD2     C11740   3.512   3.746  17.338  0.9852  0.0171  0.5324
  797MPD2    C111741   3.569   3.852  17.401 -0.2341  0.5768  0.5637
  797MPD2    C211742   3.525   3.972  17.354 -0.7164 -0.3967  0.4416
  797MPD2    C311743   3.415   3.991  17.284 -0.0900  0.2136  0.2416
  797MPD2    C411744   3.345   3.881  17.235  0.3663  0.2644 -0.1621
  797MPD2    C511745   3.401   3.756  17.259  0.0648  0.2236  0.0562
  797MPD2     H11746   3.585   4.057  17.384 -2.6764  1.4324 -0.8721
  797MPD2    H111747   3.246   3.886  17.190  1.0235 -1.4410 -1.8047
  797MPD2    H211748   3.551   3.647  17.358  0.5402 -0.0158  1.2334
  797MPD2    H311749   3.356   3.662  17.228  1.7713 -0.8367  0.8466
  797MPD2     N11750   3.369   4.115  17.245 -0.2931  0.3908  0.1316
  797MPD2    H511751   3.325   4.121  17.154 -3.2863 -0.0341  1.5561
  797MPD2    N111752   3.686   3.860  17.475  0.3282  0.1122  0.2967
  797MPD2    H711753   3.700   3.953  17.513  1.0080  0.9338 -1.9462
  798MPD2     C11754   3.830   4.525  17.569  0.1699  0.0302 -0.3651
  798MPD2    C111755   3.840   4.453  17.452  0.4114 -0.2591 -0.0686
  798MPD2    C211756   3.909   4.331  17.441 -0.5227  0.0648 -0.3283
  798MPD2    C311757   3.967   4.285  17.558  0.1516 -0.3339  0.3186
  798MPD2    C411758   3.955   4.354  17.675  0.5522 -0.0859  0.4974
  798MPD2    C511759   3.888   4.476  17.680  0.2711  0.2127 -0.1422
  798MPD2     H11760   3.910   4.267  17.354 -1.0721 -0.5373  0.1112
  798MPD2    H111761   3.982   4.308   0.082  0.5234 -1.0761  0.0328
  798MPD2    H211762   3.780   4.621  17.568 -1.1930 -0.6780 -2.6475
  798MPD2    H311763   3.881   4.533   0.084 -0.6169  3.2741 -2.1229
  798MPD2     N11764   4.021   4.152  17.554 -0.2091  0.5060  0.6816
  798MPD2    H511765   4.040   4.117  17.461 -0.7539 -1.5917  1.3564
  798MPD2    N111766   3.760   4.507  17.346 -0.6041  0.2916 -0.0738
  798MPD2    H711767   3.716   4.595  17.369 -1.0254 -0.5395  2.2515
  799MPD2     C11768   2.506   1.061  15.269 -0.0396  0.0293 -0.6954
  799MPD2    C111769   2.511   0.954  15.182 -0.2151 -0.0013 -0.5062
  799MPD2    C211770   2.436   0.945  15.066  0.2934  0.1316  0.5007
  799MPD2    C311771   2.362   1.057  15.038  0.1120 -0.7806  0.4203
  799MPD2    C411772   2.365   1.176  15.113 -0.9084 -0.1561  0.3516
  799MPD2    C511773   2.431   1.170  15.232 -0.1138  0.7928  0.4558
  799MPD2     H11774   2.428   0.857  15.002 -1.7179  0.3297  0.4744
  799MPD2    H111775   2.320   1.271  15.086  0.2515  0.0136 -0.9771
  799MPD2    H211776   2.547   1.063  15.369  0.2339 -0.3198 -0.8010
  799MPD2    H311777   2.426   1.257  15.296  2.6410  1.9600 -0.8990
  799MPD2     N11778   2.288   1.083  14.924 -0.2130 -0.4558  0.2353
  799MPD2    H511779   2.263   1.181  14.920  2.3877  0.1765 -0.2218
  799MPD2    N111780   2.577   0.831  15.211  0.5367 -0.1222 -0.1369
  799MPD2    H711781   2.577   0.768  15.131 -2.7615  1.4925 -1.4509
  800MPD2     C11782   3.490   1.951  14.270 -0.7958  0.2992 -0.2921
  800MPD2    C111783   3.603   1.971  14.194  0.0851  0.2203 -0.0595
  800MPD2    C211784   3.601   1.900  14.071 -0.8244  0.7492 -0.8598
  800MPD2    C311785   3.485   1.826  14.034  0.1155 -0.5171 -0.2070
  800MPD2    C411786   3.376   1.808  14.115 -0.2529 -0.2068 -0.3353
  800MPD2    C511787   3.389   1.862  14.239  0.2545 -0.1391  0.5754
  800MPD2     H11788   3.682   1.901  14.000 -0.1506 -2.4577 -0.1076
  800MPD2    H111789   3.290   1.747  14.089  0.4433 -0.9288 -0.9762
  800MPD2    H211790   3.481   1.994  14.370  0.7561  0.0402 -0.0451
  800MPD2    H311791   3.305   1.864  14.308 -1.1545 -0.6618 -1.1497
  800MPD2     N11792   3.477   1.784  13.895  1.2480  0.1612  0.4169
  800MPD2    H511793   3.562   1.801  13.842 -0.0348  1.4687 -1.1958
  800MPD2    N111794   3.709   2.044  14.251 -0.8527 -0.0323 -0.7701
  800MPD2    H711795   3.695   2.098  14.336  2.2886 -1.0756  0.3948
  801MPD2     C11796   3.627   2.640  14.015 -1.2132  0.0324  0.1189
  801MPD2    C111797   3.604   2.587  14.141  0.0956  0.5987 -0.3418
  801MPD2    C211798   3.471   2.596  14.189 -0.4342 -0.1217 -0.0093
  801MPD2    C311799   3.367   2.643  14.107 -0.0344 -0.2905 -0.2835
  801MPD2    C411800   3.397   2.699  13.984  0.0434 -0.1313 -0.1102
  801MPD2    C511801   3.528   2.698  13.932  0.1787  0.4372  0.2847
  801MPD2     H11802   3.449   2.565  14.290  1.6172  1.6626  0.9879
  801MPD2    H111803   3.325   2.747  13.919  0.7040 -0.4277 -1.0579
  801MPD2    H211804   3.726   2.654  13.971 -1.8199  0.4946 -1.1056
  801MPD2    H311805   3.547   2.744  13.836 -2.4930  0.6533 -0.1423
  801MPD2     N11806   3.234   2.642  14.151 -0.2298 -0.2393  0.5030
  801MPD2    H511807   3.176   2.690  14.084  2.2812 -0.4913 -1.8643
  801MPD2    N111808   3.711   2.530  14.221 -0.1617 -0.1541  0.5741
  801MPD2    H711809   3.678   2.499  14.311 -3.3380 -2.9189 -1.5374
  802MPD2     C11810   2.228   2.311   0.222 -0.1954  0.9029 -0.7481
  802MPD2    C111811   2.162   2.415   0.164 -0.6807  0.3080  1.2600
  802MPD2    C211812   2.151   2.413   0.030  0.5183 -0.3484 -0.3186
  802MPD2    C311813   2.181   2.296  17.653  0.6760 -0.1863 -0.1893
  802MPD2    C411814   2.261   2.194   0.025  0.2070  0.7552  0.1489
  802MPD2    C511815   2.286   2.206   0.158  0.0236  0.3008  0.0599
  802MPD2     H11816   2.105   2.494  17.661  0.8601  0.6813  0.8673
  802MPD2    H111817   2.307   2.114  17.657  0.8859  1.9868 -1.0863
  802MPD2    H211818   2.247   2.318   0.328 -1.9957  0.2016 -0.3865
  802MPD2    H311819   2.352   2.139   0.212 -0.0983  0.2999  0.2092
  802MPD2     N11820   2.163   2.293  17.517  0.2879 -0.2867  0.9170
  802MPD2    H511821   2.134   2.380  17.473 -1.0577 -1.1357  0.0933
  802MPD2    N111822   2.124   2.539   0.225 -0.3824 -0.4493  0.0897
  802MPD2    H711823   2.066   2.607   0.177  0.3851 -1.1239 -1.8043
  803MPD2     C11824   3.960   1.150  11.633 -0.5644 -0.4705 -0.5074
  803MPD2    C111825   4.058   1.152  11.729 -0.2814 -0.7744  0.3714
  803MPD2    C211826   4.024   1.112  11.856 -0.0842 -0.2564  0.0881
  803MPD2    C311827   3.901   1.055  11.884  1.0106 -0.6117  0.7192
  803MPD2    C411828   3.803   1.050  11.785  0.1045  0.7484  0.4436
  803MPD2    C511829   3.839   1.087  11.655 -0.1025 -0.1387  0.9556
  803MPD2     H11830   4.101   1.134  11.929  0.1772 -0.5002 -0.1146
  803MPD2    H111831   3.704   1.011  11.808  1.1357 -0.2030  3.2645
  803MPD2    H211832   3.984   1.186  11.534  1.9251  2.0349  0.9900
  803MPD2    H311833   3.766   1.091  11.576  0.6672  0.3862  0.2732
  803MPD2     N11834   3.873   1.003  12.016  0.5140  0.3446 -0.3949
  803MPD2    H511835   3.780   0.964  12.030  0.1696  0.7839 -1.4708
  803MPD2    N111836   4.191   1.184  11.704 -0.5481 -0.0695 -0.6261
  803MPD2    H711837   4.254   1.192  11.783 -2.1884 -2.0132  0.8733
  804MPD2     C11838   2.774   2.435  16.967 -0.0380 -0.8666  0.5913
  804MPD2    C111839   2.803   2.414  17.099 -0.0921 -0.6649 -0.1970
  804MPD2    C211840   2.884   2.509  17.161 -0.5257  0.0117 -0.0606
  804MPD2    C311841   2.949   2.603  17.086 -0.7486 -1.0547 -0.1208
  804MPD2    C411842   2.927   2.621  16.950 -0.5845 -0.2652  0.2008
  804MPD2    C511843   2.843   2.527  16.894 -0.1040 -0.3101  0.6359
  804MPD2     H11844   2.891   2.523  17.269  0.0010 -1.3180  0.0748
  804MPD2    H111845   2.978   2.695  16.890  0.3399 -0.0474  1.2578
  804MPD2    H211846   2.706   2.376  16.906  1.8909 -1.5033 -0.9503
  804MPD2    H311847   2.829   2.550  16.789  1.2627 -0.0024  0.5226
  804MPD2     N11848   3.037   2.696  17.145  0.6167 -0.3854 -0.3160
  804MPD2    H511849   3.045   2.699  17.246 -0.2558 -1.7028 -0.2126
  804MPD2    N111850   2.756   2.299  17.172 -0.3714 -0.0322  0.0774
  804MPD2    H711851   2.790   2.292  17.267 -0.9401 -0.9822  0.2127
  805MPD2     C11852   2.077   1.425  15.912  1.1005 -0.5307 -0.2670
  805MPD2    C111853   2.109   1.300  15.860 -0.5969  0.0651  0.2470
  805MPD2    C211854   2.226   1.246  15.891 -0.6774  0.6240  0.0789
  805MPD2    C311855   2.304   1.302  15.988  0.0831  0.1104  1.0004
  805MPD2    C411856   2.272   1.417  16.051 -0.9004  0.2081  0.1368
  805MPD2    C511857   2.156   1.482  16.012 -0.4088 -0.3873 -0.2319
  805MPD2     H11858   2.253   1.152  15.844  2.7952  0.8617  1.6080
  805MPD2    H111859   2.342   1.462  16.121  0.8041 -0.6745 -1.0316
  805MPD2    H211860   1.991   1.484  15.884  0.1316 -1.8245 -0.0499
  805MPD2    H311861   2.139   1.582  16.050  0.1633 -0.3589 -0.0510
  805MPD2     N11862   2.422   1.226  16.014  0.1112  0.3572  0.0153
  805MPD2    H511863   2.435   1.138  15.965 -0.3709  0.5526 -0.4560
  805MPD2    N111864   2.028   1.231  15.769  0.3278 -0.4399 -0.4534
  805MPD2    H711865   2.053   1.138  15.738 -0.1669 -0.7292  0.0096
  806MPD2     C11866   2.484   0.511   0.357 -0.2895  0.1956  0.7739
  806MPD2    C111867   2.534   0.562   0.476  1.2098 -0.1153  0.0238
  806MPD2    C211868   2.661   0.617   0.473 -0.6026  0.6264  0.4302
  806MPD2    C311869   2.735   0.612   0.358 -0.2296  0.0008  0.1823
  806MPD2    C411870   2.684   0.548   0.247 -0.2224  1.1089  0.5689
  806MPD2    C511871   2.559   0.504   0.243  0.0788 -0.1688  0.3530
  806MPD2     H11872   2.713   0.651   0.562 -0.3500  1.1871  0.0720
  806MPD2    H111873   2.747   0.534   0.160 -1.5661  3.3320 -0.7430
  806MPD2    H211874   2.381   0.477   0.353  0.0085 -0.7171  0.7511
  806MPD2    H311875   2.527   0.466   0.147  0.2651 -1.3587  0.7635
  806MPD2     N11876   2.863   0.678   0.352 -0.1867 -0.5272 -0.3490
  806MPD2    H511877   2.890   0.717   0.442  0.2255 -0.4395 -0.5098
  806MPD2    N111878   2.463   0.549   0.602 -0.2564  0.2155 -0.0240
  806MPD2    H711879   2.372   0.503   0.599 -0.9316  1.4769  1.4640
  807MPD2     C11880   2.205   4.669   1.008 -0.5593 -0.0387 -0.0834
  807MPD2    C111881   2.199   0.048   1.101  1.0871  0.4061 -1.1134
  807MPD2    C211882   2.144   0.031   1.226  0.2110  0.6970 -0.2238
  807MPD2    C311883   2.111   4.627   1.266  0.2093 -0.2834 -0.3103
  807MPD2    C411884   2.123   4.518   1.176  0.3665  0.8982  0.0184
  807MPD2    C511885   2.181   4.540   1.053 -0.3496 -0.7161 -0.0867
  807MPD2     H11886   2.119   0.120   1.283 -2.0516  0.4387 -0.7815
  807MPD2    H111887   2.085   4.422   1.209  0.1664  0.8245 -0.4267
  807MPD2    H211888   2.242   4.687   0.907 -0.7436  2.0561  0.2230
  807MPD2    H311889   2.195   4.452   0.991  0.5864 -0.6842  0.0859
  807MPD2     N11890   2.041   4.613   1.387  0.1283  0.0577  0.0855
  807MPD2    H511891   2.012   4.696   1.438 -0.0203  0.4815 -0.6851
  807MPD2    N111892   2.232   0.180   1.064 -0.4216  0.1420 -0.1808
  807MPD2    H711893   2.237   0.243   1.144  1.4995  0.7297 -0.7699
  808MPD2     C11894   3.376   0.718   9.500  1.4853  0.1783 -0.2760
  808MPD2    C111895   3.452   0.707   9.612 -0.0631  0.4242 -0.6060
  808MPD2    C211896   3.556   0.803   9.636 -0.1559 -0.3905 -0.5207
  808MPD2    C311897   3.583   0.906   9.545  0.7911 -0.5808 -0.1991
  808MPD2    C411898   3.509   0.907   9.430 -0.3701  0.3802  0.1285
  808MPD2    C511899   3.408   0.812   9.409  0.3533  1.2548  0.2236
  808MPD2     H11900   3.602   0.795   9.733  0.3238  1.7603 -0.5804
  808MPD2    H111901   3.534   0.982   9.357  0.1128  2.2047  2.1751
  808MPD2    H211902   3.300   0.652   9.459  0.6236  0.5610  0.7121
  808MPD2    H311903   3.347   0.825   9.320  2.4348 -1.3491 -1.6126
  808MPD2     N11904   3.668   1.015   9.569 -0.1635  0.6950  0.2488
  808MPD2    H511905   3.682   1.094   9.507 -0.8136  0.4385 -0.2233
  808MPD2    N111906   3.442   0.596   9.699 -0.3299  0.1040  0.1523
  808MPD2    H711907   3.517   0.593   9.767 -1.0569  0.1472  0.9542
  809MPD2     C11908   4.017   1.437   9.026  0.2214  0.0415 -0.2610
  809MPD2    C111909   4.090   1.488   9.128  0.4256 -0.0760  0.0523
  809MPD2    C211910   4.035   1.484   9.261  0.0754 -0.0351  0.6701
  809MPD2    C311911   3.902   1.445   9.275 -0.0236  0.1437 -0.3676
  809MPD2    C411912   3.833   1.402   9.166  0.3424  0.0333 -0.1889
  809MPD2    C511913   3.888   1.387   9.045  0.5428  0.6710 -0.2234
  809MPD2     H11914   4.087   1.530   9.344  2.0412 -2.2720  0.6967
  809MPD2    H111915   3.730   1.368   9.173  0.2127  0.3351 -0.6117
  809MPD2    H211916   4.064   1.415   8.930  0.3023 -0.8039 -0.0233
  809MPD2    H311917   3.835   1.333   8.968 -0.0742 -2.1313  2.2018
  809MPD2     N11918   3.841   1.428   9.401  0.5002 -0.1549 -0.5825
  809MPD2    H511919   3.749   1.384   9.398  0.1408  0.7053 -1.9270
  809MPD2    N111920   4.227   1.521   9.115 -0.0090 -0.2012  0.8407
  809MPD2    H711921   4.270   1.529   9.207  2.3856 -0.3185 -0.2784
  810MPD2     C11922   3.128   0.705  10.696  0.5716 -0.4952  0.6276
  810MPD2    C111923   3.150   0.732  10.563 -0.3348  0.2710  0.0771
  810MPD2    C211924   3.131   0.861  10.513  0.4008  0.7852  0.4044
  810MPD2    C311925   3.092   0.960  10.599 -0.4741 -0.8186 -0.3533
  810MPD2    C411926   3.072   0.941  10.732  0.4256 -0.0991  0.6253
  810MPD2    C511927   3.091   0.810  10.777  0.5295 -0.2521 -0.3450
  810MPD2     H11928   3.146   0.889  10.409  1.1182 -0.7977  0.0837
  810MPD2    H111929   3.037   1.011  10.807  1.0115  1.5030 -0.6034
  810MPD2    H211930   3.125   0.604  10.734  4.3049 -0.3660  1.3185
  810MPD2    H311931   3.080   0.782  10.881  0.2652  1.0346 -0.0295
  810MPD2     N11932   3.065   1.092  10.555  0.2549  0.0174  0.1765
  810MPD2    H511933   3.032   1.152  10.631 -0.1758 -1.0859  0.8640
  810MPD2    N111934   3.166   0.628  10.473 -0.2856 -0.1038 -0.5745
  810MPD2    H711935   3.181   0.655  10.377 -0.1818  0.3973 -0.4210
  811MPD2     C11936   3.004   0.722   9.772  0.3371 -0.2995  0.6476
  811MPD2    C111937   3.062   0.727   9.900  0.0854  0.1123 -0.2607
  811MPD2    C211938   3.113   0.850   9.947  0.1219 -0.2968 -0.0721
  811MPD2    C311939   3.098   0.964   9.867  0.2381  0.8321 -0.4919
  811MPD2    C411940   3.048   0.954   9.741  0.2567 -0.4161 -0.0825
  811MPD2    C511941   3.002   0.831   9.691  0.3294  0.3280 -0.0198
  811MPD2     H11942   3.151   0.860  10.048 -1.2375  0.0607  0.4015
  811MPD2    H111943   3.045   1.029   9.662 -0.9349 -0.1792  0.1842
  811MPD2    H211944   2.964   0.628   9.736 -0.7708  0.4225  0.0065
  811MPD2    H311945   2.965   0.812   9.591  0.8965  1.2175 -0.3987
  811MPD2     N11946   3.136   1.086   9.929 -0.2084 -0.2196  0.0298
  811MPD2    H511947   3.186   1.079  10.017  0.6512  1.3672 -0.3179
  811MPD2    N111948   3.070   0.600   9.973 -0.3789  0.2329  0.4691
  811MPD2    H711949   3.043   0.515   9.924 -0.9019  1.4556 -1.3486
  812MPD2     C11950   2.175   1.137  12.402  0.5089  0.5449  0.1291
  812MPD2    C111951   2.103   1.220  12.486  0.0112 -0.0853  0.3074
  812MPD2    C211952   2.040   1.171  12.598  0.0364 -0.0022 -0.1732
  812MPD2    C311953   2.051   1.039  12.642  0.5539  0.1051  0.4483
  812MPD2    C411954   2.136   0.960  12.567  0.0198 -0.4163  0.6077
  812MPD2    C511955   2.185   1.007  12.448 -0.6731  0.5133  0.3869
  812MPD2     H11956   1.982   1.234  12.664  0.8851  0.3005  0.2895
  812MPD2    H111957   2.166   0.864  12.607 -0.1679 -1.5430 -1.9392
  812MPD2    H211958   2.218   1.154  12.304  0.6768 -0.6475 -0.0049
  812MPD2    H311959   2.237   0.930  12.393 -1.4013  0.0731  0.3162
  812MPD2     N11960   1.986   0.989  12.762  0.6220 -0.6639  0.0437
  812MPD2    H511961   1.933   1.058  12.815  2.1821  1.9170 -1.7812
  812MPD2    N111962   2.089   1.352  12.445 -0.0052 -0.1135 -0.5846
  812MPD2    H711963   2.150   1.384  12.370  1.6482  0.1575  0.8819
  813MPD2     C11964   1.255   3.022  12.792  0.4912  0.0517  0.2090
  813MPD2    C111965   1.151   3.104  12.753  0.0188  0.1732  0.3289
  813MPD2    C211966   1.044   3.111  12.841  0.3136 -0.3909 -0.3013
  813MPD2    C311967   1.035   3.033  12.952  0.3475 -0.2665  0.5650
  813MPD2    C411968   1.129   2.938  12.982  1.0389  0.1296  0.5150
  813MPD2    C511969   1.239   2.944  12.907  0.4254  0.4311 -0.2570
  813MPD2     H11970   0.958   3.167  12.807 -0.2734 -1.4366 -0.5575
  813MPD2    H111971   1.128   2.863  13.060 -2.1125 -1.3152 -0.9162
  813MPD2    H211972   1.351   3.007  12.744  0.0555  0.6503 -0.8524
  813MPD2    H311973   1.314   2.877  12.946  0.4486  0.7176  0.1887
  813MPD2     N11974   0.920   3.036  13.028  0.3733  0.1556  0.2330
  813MPD2    H511975   0.852   3.098  12.986  0.2818 -1.3022 -1.7579
  813MPD2    N111976   1.163   3.186  12.646  0.2574  0.0799 -0.1062
  813MPD2    H711977   1.246   3.174  12.589 -0.4625  2.1705 -1.5983
  814MPD2     C11978   1.315   0.164  12.615 -0.0286  0.2228 -0.4234
  814MPD2    C111979   1.399   0.140  12.505  0.4614  0.5761 -0.1554
  814MPD2    C211980   1.535   0.179  12.501 -0.3596  0.7564 -0.0321
  814MPD2    C311981   1.594   0.238  12.605 -0.6531  0.6801 -0.5847
  814MPD2    C411982   1.513   0.256  12.716 -0.0195  0.2310  0.4101
  814MPD2    C511983   1.377   0.217  12.719  0.2581  0.4151  0.5159
  814MPD2     H11984   1.595   0.139  12.420 -0.3250 -0.4088  0.5573
  814MPD2    H111985   1.559   0.297  12.806 -0.9438 -0.7363  1.3258
  814MPD2    H211986   1.210   0.138  12.623 -0.1217 -0.0925 -2.5636
  814MPD2    H311987   1.326   0.244  12.811 -0.2775  0.1429  0.2992
  814MPD2     N11988   1.730   0.273  12.612  0.3275  0.1400  0.0206
  814MPD2    H511989   1.741   0.336  12.691  0.1107 -0.9189  0.9004
  814MPD2    N111990   1.356   0.075  12.394 -0.5838 -0.0098  0.3385
  814MPD2    H711991   1.419   0.059  12.317 -1.4666  0.6081 -0.5182
  815MPD2     C11992   1.891   2.124  11.999  0.6731 -0.1634 -0.3937
  815MPD2    C111993   1.851   2.168  11.878 -0.3316  0.3599 -0.1340
  815MPD2    C211994   1.715   2.151  11.847  0.0509 -0.7387  0.3622
  815MPD2    C311995   1.626   2.086  11.934  0.7899 -0.6919  0.5638
  815MPD2    C411996   1.677   2.036  12.051 -0.1812  0.7433  0.7020
  815MPD2    C511997   1.806   2.056  12.083 -0.9497  0.2931 -0.1033
  815MPD2     H11998   1.675   2.174  11.750 -2.6099  1.8964  2.0870
  815MPD2    H111999   1.625   1.971  12.120 -3.9022  1.2698 -1.6087
  815MPD2    H212000   1.991   2.155  12.025  0.2178 -1.1244  2.5342
  815MPD2    H312001   1.843   2.006  12.172 -1.0054 -1.4370 -1.0437
  815MPD2     N12002   1.484   2.075  11.903  0.1159  0.1369 -0.0455
  815MPD2    H512003   1.452   2.098  11.810  0.7508 -1.8467 -0.7702
  815MPD2    N112004   1.946   2.233  11.797 -0.5985  0.0445  0.0727
  815MPD2    H712005   2.040   2.242  11.834 -0.2168 -3.2658 -0.1267
  816MPD2     C12006   1.013   1.995  17.337  0.1252 -0.3435 -0.4531
  816MPD2    C112007   1.109   2.082  17.298  0.2510  0.7476 -0.3217
  816MPD2    C212008   1.231   2.044  17.247  0.6106 -0.0936  0.5464
  816MPD2    C312009   1.258   1.910  17.233  0.3328  0.4441 -0.4152
  816MPD2    C412010   1.167   1.819  17.288  0.7954  0.5297  0.1818
  816MPD2    C512011   1.051   1.865  17.339  0.5305 -0.2119 -0.4743
  816MPD2     H12012   1.296   2.121  17.207  0.4645 -0.0935  0.3150
  816MPD2    H112013   1.168   1.710  17.283 -0.0068  0.6001 -1.4194
  816MPD2    H212014   0.924   2.025  17.392  0.1628 -0.7865 -0.1536
  816MPD2    H312015   0.989   1.795  17.394  0.6814  0.5063  0.6058
  816MPD2     N12016   1.383   1.868  17.176  0.2403 -0.2449 -0.2090
  816MPD2    H512017   1.449   1.939  17.148 -0.1576 -0.1984 -1.0429
  816MPD2    N112018   1.081   2.220  17.298  0.4489  0.5065 -0.0439
  816MPD2    H712019   1.150   2.286  17.264  1.4355  0.2089  1.3501
  817MPD2     C12020   1.629   2.939  10.038 -0.2460  0.0142  0.9879
  817MPD2    C112021   1.595   2.880   9.922 -0.7930 -0.0329  0.3085
  817MPD2    C212022   1.469   2.912   9.869  0.3446 -0.4040 -0.4561
  817MPD2    C312023   1.385   3.003   9.931 -0.5059  0.2107  0.6439
  817MPD2    C412024   1.435   3.065  10.046  0.2700  0.5572 -0.2415
  817MPD2    C512025   1.550   3.020  10.108  0.8099 -0.4073  0.0497
  817MPD2     H12026   1.430   2.882   9.773 -0.3305  0.9887 -0.6270
  817MPD2    H112027   1.384   3.132  10.114 -1.9668 -0.4641 -0.8961
  817MPD2    H212028   1.723   2.910  10.084  0.7377  1.0559 -0.3518
  817MPD2    H312029   1.576   3.057  10.207  0.6159  1.3396 -0.5525
  817MPD2     N12030   1.257   3.042   9.876  0.9756 -0.3240  0.7125
  817MPD2    H512031   1.226   2.996   9.791  1.9693  2.4468 -1.1230
  817MPD2    N112032   1.670   2.787   9.847 -0.2361 -0.4876  0.4518
  817MPD2    H712033   1.622   2.736   9.774  0.1472  1.7863 -1.3546
  818MPD2     C12034   0.917   3.461  10.564  0.1213 -0.7883  0.5096
  818MPD2    C112035   0.811   3.408  10.488  1.0266  0.4371  0.4977
  818MPD2    C212036   0.794   3.270  10.483  0.3985 -0.3332 -0.4199
  818MPD2    C312037   0.881   3.177  10.540  0.7675  0.3550  0.3925
  818MPD2    C412038   0.989   3.234  10.608 -0.2588 -0.0894 -0.1237
  818MPD2    C512039   1.000   3.371  10.618 -0.1411 -0.3562  0.6586
  818MPD2     H12040   0.703   3.238  10.433  1.1232 -1.4769 -1.0248
  818MPD2    H112041   1.071   3.178  10.651  0.0764  0.6284  0.1811
  818MPD2    H212042   0.938   3.567  10.576 -1.3123 -0.2747 -1.5446
  818MPD2    H312043   1.082   3.410  10.678 -0.4051  2.2525 -0.6587
  818MPD2     N12044   0.859   3.036  10.534  0.0022 -0.7793  0.1086
  818MPD2    H512045   0.922   2.973  10.582  1.3724 -0.0935 -0.8020
  818MPD2    N112046   0.705   3.484  10.438 -0.2817 -0.1279  0.4836
  818MPD2    H712047   0.621   3.432  10.412 -0.9505  0.0795  2.2181
  819MPD2     C12048   2.765   0.769  15.847  0.8675  0.2948  0.2564
  819MPD2    C112049   2.794   0.637  15.803 -0.3472  1.1444 -0.0016
  819MPD2    C212050   2.902   0.567  15.847  0.0164  0.1463 -0.7307
  819MPD2    C312051   2.971   0.616  15.958  0.2824 -0.4316  0.1620
  819MPD2    C412052   2.940   0.737  16.012  0.7190 -0.0441  0.2090
  819MPD2    C512053   2.838   0.814  15.959  0.4676 -0.8252 -0.2218
  819MPD2     H12054   2.935   0.473  15.803 -0.5174 -0.7993  0.8881
  819MPD2    H112055   2.983   0.781  16.101 -0.0300  0.7554  0.1773
  819MPD2    H212056   2.697   0.840  15.803  0.1057  0.4654  1.7246
  819MPD2    H312057   2.828   0.914  16.001  0.0378 -0.9482 -0.0324
  819MPD2     N12058   3.080   0.534  16.000 -0.4487 -0.3942  0.0821
  819MPD2    H512059   3.067   0.435  15.981 -1.9401 -0.2880  0.5824
  819MPD2    N112060   2.711   0.585  15.702 -0.4617  0.1995 -0.0371
  819MPD2    H712061   2.632   0.639  15.668  0.1295  0.1135 -1.5515
  820MPD2     C12062   1.742   0.472  15.526 -0.1690  0.7882 -0.4112
  820MPD2    C112063   1.832   0.578  15.532 -0.1538  0.6038  0.0842
  820MPD2    C212064   1.965   0.549  15.517  0.1335 -0.7855 -0.3199
  820MPD2    C312065   2.017   0.425  15.490  0.0417 -0.0828 -0.1185
  820MPD2    C412066   1.925   0.328  15.479 -0.3193  0.0333 -0.2961
  820MPD2    C512067   1.795   0.348  15.494  0.2634 -0.2536  0.3239
  820MPD2     H12068   2.026   0.638  15.516 -1.9112  0.6330  0.9223
  820MPD2    H112069   1.958   0.225  15.463  0.0162 -0.1291  1.4108
  820MPD2    H212070   1.635   0.485  15.533 -0.1675  0.0163  0.9375
  820MPD2    H312071   1.729   0.262  15.496  0.7198 -0.6696 -1.8181
  820MPD2     N12072   2.155   0.397  15.484  0.0484  0.1920  0.3341
  820MPD2    H512073   2.179   0.303  15.452 -0.9684  0.5168 -1.3920
  820MPD2    N112074   1.794   0.711  15.570  0.2789 -0.5758 -0.7621
  820MPD2    H712075   1.694   0.725  15.579  0.8898  4.1552 -1.7313
  821MPD2     C12076   3.360   1.412  13.254  0.0294 -0.1694 -1.0389
  821MPD2    C112077   3.360   1.549  13.220 -0.5374 -0.2389 -0.1478
  821MPD2    C212078   3.451   1.593  13.121  1.0082 -0.5555  0.2259
  821MPD2    C312079   3.540   1.507  13.059  0.1183 -0.0363 -0.5838
  821MPD2    C412080   3.540   1.371  13.097 -0.3094  0.1393 -0.3347
  821MPD2    C512081   3.444   1.327  13.187  0.0137  0.0577  0.2359
  821MPD2     H12082   3.457   1.699  13.098 -0.2698 -0.1584  1.7383
  821MPD2    H112083   3.610   1.305  13.046 -0.5228  0.2382 -0.7599
  821MPD2    H212084   3.282   1.373  13.318 -1.0950 -0.5540 -2.6383
  821MPD2    H312085   3.439   1.220  13.203  0.9816  0.0724  0.6276
  821MPD2     N12086   3.638   1.553  12.974 -0.2507  0.3198 -0.2005
  821MPD2    H512087   3.718   1.491  12.964 -0.8834 -0.7021  1.1789
  821MPD2    N112088   3.267   1.645  13.265  0.0488 -0.7506 -0.7974
  821MPD2    H712089   3.265   1.738  13.225 -2.1863 -1.0422 -1.3487
  822MPD2     C12090   3.727   1.717  15.683  0.1011  0.1455  0.1525
  822MPD2    C112091   3.716   1.699  15.826 -0.0717 -0.4713  0.4067
  822MPD2    C212092   3.629   1.780  15.894  0.3428 -0.0503 -0.0408
  822MPD2    C312093   3.568   1.890  15.836  0.6668 -0.3624  0.3688
  822MPD2    C412094   3.576   1.903  15.696 -0.5373  0.1969  0.1516
  822MPD2    C512095   3.651   1.815  15.622 -0.3593 -0.1987  0.0320
  822MPD2     H12096   3.613   1.773  16.001 -1.4909  2.6197 -0.1394
  822MPD2    H112097   3.518   1.973  15.637 -1.2060  0.1430  0.7352
  822MPD2    H212098   3.784   1.657  15.612  0.4659  1.2265 -0.4805
  822MPD2    H312099   3.646   1.813  15.513  1.3003  0.5661 -0.0617
  822MPD2     N12100   3.498   1.970  15.921 -0.2524 -0.6878  0.3570
  822MPD2    H512101   3.489   1.942  16.018  2.9499 -1.9184  0.2693
  822MPD2    N112102   3.788   1.611  15.902  0.1071  0.0840 -0.3025
  822MPD2    H712103   3.768   1.624  16.001  2.2105 -0.4957  0.1982
  823MPD2     C12104   2.928   2.308  16.499 -0.4634 -0.4268  0.2945
  823MPD2    C112105   3.027   2.219  16.455  0.4121  0.0593  0.0525
  823MPD2    C212106   3.080   2.117  16.545 -0.2432 -0.8371  0.3763
  823MPD2    C312107   3.037   2.113  16.679 -0.3409  0.1528  0.5126
  823MPD2    C412108   2.944   2.201  16.723 -0.0527 -0.1806 -1.1393
  823MPD2    C512109   2.889   2.293  16.634 -0.1531  0.4317 -0.6087
  823MPD2     H12110   3.129   2.029  16.504 -0.3565 -0.4715 -0.5276
  823MPD2    H112111   2.926   2.203  16.830  0.3121 -1.4006 -1.0617
  823MPD2    H212112   2.879   2.376  16.430 -1.7092  0.7032  2.3162
  823MPD2    H312113   2.819   2.366  16.671  0.3418  0.8708 -0.5267
  823MPD2     N12114   3.091   2.013  16.767  0.3110 -0.0928 -0.6917
  823MPD2    H512115   3.053   2.007  16.862 -2.2759 -3.5793 -1.9155
  823MPD2    N112116   3.073   2.237  16.319 -0.0298 -0.3046  0.3511
  823MPD2    H712117   3.037   2.321  16.275 -1.5737 -1.6388 -0.9841
  824MPD2     C12118   4.390   0.968  16.178  0.4377  0.0964  0.3996
  824MPD2    C112119   4.348   1.022  16.061  0.1393  0.3740  0.0385
  824MPD2    C212120   4.391   0.960  15.943 -0.1852  0.1312  0.2471
  824MPD2    C312121   4.465   0.844  15.943 -0.3678 -0.0855  0.7690
  824MPD2    C412122   4.497   0.786  16.060 -0.1312  1.1909  0.9338
  824MPD2    C512123   4.467   0.852  16.176 -0.7904 -0.0092  0.0411
  824MPD2     H12124   4.365   0.995  15.844  1.1797  1.0428  0.2125
  824MPD2    H112125   4.557   0.698  16.080  1.1452  1.6378 -0.9161
  824MPD2    H212126   4.341   1.013  16.264  1.7684 -0.4211  1.4217
  824MPD2    H312127   4.499   0.811  16.271 -0.6962  1.6127  0.7148
  824MPD2     N12128   4.516   0.792  15.827 -0.2971  0.4384  0.3199
  824MPD2    H512129   4.515   0.843  15.739  0.5136 -0.9342 -0.4742
  824MPD2    N112130   4.264   1.134  16.066 -0.7189  0.3521 -0.7921
  824MPD2    H712131   4.235   1.161  16.160  3.2300  1.2574  0.1343
  825MPD2     C12132   4.552   0.799  15.204  0.0786  0.3959 -1.0611
  825MPD2    C112133   4.675   0.820  15.253  0.6328  0.0329 -0.1460
  825MPD2    C212134   0.026   0.921  15.198 -0.2590  0.6930 -0.4003
  825MPD2    C312135   4.691   1.011  15.103 -0.2958  0.6980 -0.2884
  825MPD2    C412136   4.566   0.994  15.059  0.4825 -0.1306  0.1255
  825MPD2    C512137   4.502   0.880  15.108  0.3587  0.5262  0.9487
  825MPD2     H12138   0.130   0.938  15.225 -0.3350  1.9475 -0.8707
  825MPD2    H112139   4.515   1.050  14.981  1.3231  1.3326  0.6229
  825MPD2    H212140   4.486   0.728  15.253  1.3099 -0.5829 -0.8459
  825MPD2    H312141   4.401   0.856  15.078  0.9367  1.8073 -1.9862
  825MPD2     N12142   0.034   1.128  15.060  0.2649  0.3735  0.3842
  825MPD2    H512143   4.715   1.183  14.984  1.6474 -1.1598 -1.4556
  825MPD2    N112144   4.720   0.742  15.367  0.2244 -0.0725 -0.2085
  825MPD2    H712145   4.644   0.692  15.412  0.7048 -1.1151 -0.5442
  826MPD2     C12146   0.076   0.958  13.555 -0.2579  0.5307 -0.0570
  826MPD2    C112147   4.662   0.946  13.534 -0.5092 -0.2451 -0.4191
  826MPD2    C212148   4.589   1.059  13.494  0.3328  0.3545  0.2253
  826MPD2    C312149   4.652   1.179  13.464  0.2070  0.0095 -0.1671
  826MPD2    C412150   0.076   1.176  13.469 -0.1180  0.0575  0.0746
  826MPD2    C512151   0.144   1.070  13.516 -0.2264 -1.0715  0.6707
  826MPD2     H12152   4.481   1.063  13.482  0.2879 -0.4275  0.4186
  826MPD2    H112153   0.134   1.263  13.441  2.6147 -1.6719  0.4382
  826MPD2    H212154   0.136   0.876  13.590 -0.6274  0.5933  0.7127
  826MPD2    H312155   0.253   1.068  13.517 -0.2404 -2.5978 -0.5130
  826MPD2     N12156   4.580   1.297  13.425 -0.1377  0.3522 -0.2262
  826MPD2    H512157   4.479   1.293  13.417  0.0354 -0.8679 -1.8703
  826MPD2    N112158   4.593   0.820  13.563  0.1110  0.3114  0.2021
  826MPD2    H712159   4.657   0.749  13.596  4.7738  2.7776 -3.5077
  827MPD2     C12160   1.361   1.313   9.802 -0.5114  0.3689 -0.3027
  827MPD2    C112161   1.246   1.334   9.876 -0.1667 -0.4251 -0.2420
  827MPD2    C212162   1.126   1.329   9.804 -0.3022 -0.5208 -0.1755
  827MPD2    C312163   1.125   1.303   9.673 -0.1866  0.1077  0.3491
  827MPD2    C412164   1.242   1.284   9.606 -0.2048 -0.3638 -0.5908
  827MPD2    C512165   1.359   1.292   9.669 -0.3402 -0.3499  0.0309
  827MPD2     H12166   1.034   1.365   9.847 -0.7056  0.5244 -1.9121
  827MPD2    H112167   1.240   1.251   9.502 -2.2171  2.1487 -1.3677
  827MPD2    H212168   1.458   1.309   9.852 -0.1904  0.0389 -0.9476
  827MPD2    H312169   1.447   1.273   9.608  1.8129  1.1698  2.6593
  827MPD2     N12170   1.000   1.316   9.610 -0.1095  0.0223 -0.5021
  827MPD2    H512171   0.925   1.334   9.676 -1.0223 -0.2338 -1.4785
  827MPD2    N112172   1.253   1.381  10.006 -0.5581 -0.1572  0.3655
  827MPD2    H712173   1.343   1.418  10.035 -0.9898 -0.5675  2.2789
  828MPD2     C12174   4.482   2.046  12.371 -0.0067 -0.7605  0.4885
  828MPD2    C112175   4.446   2.053  12.234 -0.1433  0.0757  0.3721
  828MPD2    C212176   4.530   2.005  12.130 -0.7363 -0.0925 -0.2952
  828MPD2    C312177   4.638   1.930  12.165  0.5753 -0.0093  0.2239
  828MPD2    C412178   4.666   1.911  12.297  0.1439  0.1029  0.4036
  828MPD2    C512179   4.597   1.977  12.393 -0.3964 -0.4861 -0.3311
  828MPD2     H12180   4.502   2.022  12.027  2.7586  1.7723 -0.9061
  828MPD2    H112181   0.031   1.856  12.334  0.0834 -0.4057 -0.2209
  828MPD2    H212182   4.435   2.089  12.459  0.1614  0.0337  0.1926
  828MPD2    H312183   4.618   1.962  12.498  1.0093  1.2682 -0.3636
  828MPD2     N12184   4.720   1.858  12.076 -0.1424  0.6494 -0.0688
  828MPD2    H512185   0.071   1.796  12.112 -0.0462  0.8163  0.0293
  828MPD2    N112186   4.330   2.119  12.195 -0.3317  0.3225  0.0868
  828MPD2    H712187   4.329   2.133  12.095 -0.2319  2.5161  0.3983
  829MPD2     C12188   3.834   1.893  11.602  0.3997 -0.5871  1.0704
  829MPD2    C112189   3.757   2.002  11.646  0.6621  0.4375  0.2104
  829MPD2    C212190   3.820   2.104  11.712 -0.1121 -0.4136 -0.6249
  829MPD2    C312191   3.954   2.101  11.746 -0.0792 -0.6815  0.2672
  829MPD2    C412192   4.030   1.992  11.702  0.4372 -0.7224  0.6133
  829MPD2    C512193   3.967   1.896  11.629  0.4699  0.2584  0.3430
  829MPD2     H12194   3.758   2.183  11.755  1.0852 -0.1850  0.6635
  829MPD2    H112195   4.135   1.974  11.722  1.1821  1.9109 -0.9745
  829MPD2    H212196   3.791   1.814  11.540 -0.3342  2.6742 -2.5854
  829MPD2    H312197   4.034   1.826  11.581  1.8997  0.4610  2.0334
  829MPD2     N12198   4.019   2.181  11.840  0.1555 -0.1565 -0.6529
  829MPD2    H512199   4.113   2.148  11.860  0.1790  0.3698  0.0959
  829MPD2    N112200   3.620   1.998  11.620 -0.1521  0.4193 -0.4526
  829MPD2    H712201   3.573   1.915  11.584  0.4534 -0.4634  0.8076
  830MPD2     C12202   3.695   0.090  15.952 -0.0862 -0.4740  0.2500
  830MPD2    C112203   3.665   0.218  15.997  0.3754 -0.4017  0.4096
  830MPD2    C212204   3.763   0.312  15.982 -0.4671  0.8636 -0.7333
  830MPD2    C312205   3.893   0.289  15.940  0.4926  0.4071 -0.5221
  830MPD2    C412206   3.920   0.158  15.909  0.0765  0.3272 -0.3825
  830MPD2    C512207   3.816   0.070  15.907 -0.5572 -0.3307 -0.5710
  830MPD2     H12208   3.742   0.414  16.015 -0.7587  0.2265  1.0528
  830MPD2    H112209   4.012   0.117  15.870  1.0416  0.4153  1.7948
  830MPD2    H212210   3.617   0.015  15.946 -0.1963 -0.2824 -0.6827
  830MPD2    H312211   3.842   4.690  15.877 -0.9637 -0.4731 -0.4509
  830MPD2     N12212   3.981   0.396  15.925  0.0592  0.3610 -0.0789
  830MPD2    H512213   3.956   0.482  15.974 -0.4255  0.3932 -0.3953
  830MPD2    N112214   3.537   0.258  16.047 -0.4353  0.2932 -0.0253
  830MPD2    H712215   3.522   0.354  16.077  0.1571  0.4105 -0.1080
  831MPD2     C12216   3.664   2.157  16.276  0.3354  0.1438 -0.6051
  831MPD2    C112217   3.687   2.038  16.218  0.4406  0.5143 -0.8658
  831MPD2    C212218   3.593   1.933  16.240  0.1485 -0.4091  0.6715
  831MPD2    C312219   3.479   1.961  16.311 -0.0099 -0.0430 -0.6852
  831MPD2    C412220   3.461   2.080  16.376 -0.0264 -0.4757  0.3172
  831MPD2    C512221   3.547   2.185  16.354  0.1745 -0.1521  0.4595
  831MPD2     H12222   3.606   1.837  16.191  0.1236 -0.0325 -0.0801
  831MPD2    H112223   3.372   2.094  16.437  0.0915 -1.6361  0.7472
  831MPD2    H212224   3.730   2.242  16.258  0.5285 -0.1983 -1.5020
  831MPD2    H312225   3.534   2.281  16.402  1.2158  0.5295 -0.6268
  831MPD2     N12226   3.383   1.853  16.329 -0.2125 -0.6129  0.3559
  831MPD2    H512227   3.311   1.861  16.399  0.5661 -1.0822  1.2208
  831MPD2    N112228   3.804   2.030  16.131 -0.1574  0.2488 -0.2267
  831MPD2    H712229   3.852   2.116  16.109 -0.5719 -0.3980 -3.6840
  832MPD2     C12230   2.229   3.012  17.144  0.2818  0.6654  0.2673
  832MPD2    C112231   2.198   3.145  17.167 -0.0618 -0.5354 -0.1559
  832MPD2    C212232   2.088   3.205  17.106  0.4512 -0.1392 -0.4722
  832MPD2    C312233   2.000   3.128  17.036  0.5794 -0.1180  0.5726
  832MPD2    C412234   2.018   2.998  17.022  0.5999  0.0947  0.0979
  832MPD2    C512235   2.133   2.940  17.079  0.3766 -0.0554  0.1137
  832MPD2     H12236   2.047   3.303  17.131 -4.9731 -2.4452 -0.2656
  832MPD2    H112237   1.948   2.930  16.975  0.1443  0.8180 -0.2761
  832MPD2    H212238   2.324   2.966  17.170  0.0772 -0.1865 -0.5075
  832MPD2    H312239   2.150   2.835  17.062  1.0207 -0.2232  1.8211
  832MPD2     N12240   1.885   3.184  16.979 -0.4908  0.6752 -0.0658
  832MPD2    H512241   1.818   3.122  16.935 -0.5154 -0.2507  1.2802
  832MPD2    N112242   2.294   3.215  17.249  0.5687 -0.1584 -0.4870
  832MPD2    H712243   2.353   3.151  17.302  0.7829  0.1213 -0.3932
  833MPD2     C12244   4.012   4.297  12.626  0.3767 -0.2726  0.2828
  833MPD2    C112245   4.110   4.389  12.628 -0.2881 -0.4972  0.4754
  833MPD2    C212246   4.232   4.356  12.576 -0.3003 -0.1365  0.9356
  833MPD2    C312247   4.257   4.223  12.534  0.9565  0.2879 -0.3261
  833MPD2    C412248   4.154   4.128  12.548 -0.6381 -0.3571  0.4861
  833MPD2    C512249   4.036   4.166  12.598 -0.4178  0.3895  0.1285
  833MPD2     H12250   4.313   4.427  12.568 -0.0616 -0.6842 -1.5982
  833MPD2    H112251   4.175   4.024  12.528  2.0607  0.5321 -1.3982
  833MPD2    H212252   3.912   4.335  12.645  0.7725  0.5854  0.6613
  833MPD2    H312253   3.957   4.092  12.604 -1.0696  1.0373 -0.5146
  833MPD2     N12254   4.383   4.187  12.475  0.2798 -0.0502 -0.2976
  833MPD2    H512255   4.397   4.089  12.452  0.1457  0.4923 -2.7661
  833MPD2    N112256   4.070   4.520  12.661 -0.2400  0.1948 -0.1300
  833MPD2    H712257   3.970   4.533  12.661 -0.1857  0.6263  1.9521
  834MPD2     C12258   4.697   3.850  11.591  0.1159  0.4800 -0.3798
  834MPD2    C112259   0.094   3.912  11.629 -0.5967 -0.4063 -0.2695
  834MPD2    C212260   0.096   3.985  11.748 -0.1091  0.0341  0.0145
  834MPD2    C312261   4.706   3.986  11.832  0.2832 -0.3664  0.4721
  834MPD2    C412262   4.590   3.933  11.787 -0.1561  0.0047 -0.2061
  834MPD2    C512263   4.583   3.869  11.665  0.5550  0.1543  0.1384
  834MPD2     H12264   0.194   4.015  11.784 -0.2785  1.8542 -1.0424
  834MPD2    H112265   4.496   3.930  11.840 -0.4470 -0.1770 -0.7299
  834MPD2    H212266   4.686   3.810  11.491 -3.0008 -0.9345  0.5327
  834MPD2    H312267   4.489   3.842  11.618  0.9260  2.2422 -1.7845
  834MPD2     N12268   0.001   4.040  11.965  0.0694 -0.5998 -0.7642
  834MPD2    H512269   0.089   4.085  11.987 -1.9717  3.2140 -0.3811
  834MPD2    N112270   0.203   3.899  11.540  0.6630  0.3775  0.1856
  834MPD2    H712271   0.188   3.836  11.462 -2.0332  0.8125  0.3592
  835MPD2     C12272   0.234   1.867  11.445  0.1035  0.0553 -0.0613
  835MPD2    C112273   0.128   1.920  11.512 -0.2168 -0.1011  0.7418
  835MPD2    C212274   0.138   1.980  11.637  0.5814 -0.1257 -0.0123
  835MPD2    C312275   0.257   1.979  11.705 -0.4090  0.8066 -0.4827
  835MPD2    C412276   0.361   1.911  11.633  0.0917 -0.4220  0.5162
  835MPD2    C512277   0.357   1.858  11.510  0.4046  0.1325 -0.0991
  835MPD2     H12278   0.055   2.030  11.686 -2.6539 -2.0750 -3.5467
  835MPD2    H112279   0.462   1.908  11.673  0.7344 -0.2471 -1.1196
  835MPD2    H212280   0.233   1.843  11.339  0.8312 -1.2754  0.2326
  835MPD2    H312281   0.449   1.832  11.458  1.0077 -0.3022  1.1887
  835MPD2     N12282   0.283   2.048  11.830  0.5970  0.3381 -0.1181
  835MPD2    H512283   0.382   2.060  11.850  0.6329 -0.9051  0.4145
  835MPD2    N112284   4.720   1.922  11.458 -0.0673  0.8929  0.6410
  835MPD2    H712285   4.657   1.972  11.520 -1.5361  0.4570 -0.5189
  836MPD2     C12286   4.699   2.406  12.645 -0.0195  0.9024 -0.1385
  836MPD2    C112287   4.700   2.429  12.508  0.0563 -0.4761  0.3890
  836MPD2    C212288   4.620   2.540  12.462  0.1682  0.1279  0.8247
  836MPD2    C312289   4.553   2.621  12.553 -0.5238  0.0784 -0.7072
  836MPD2    C412290   4.564   2.598  12.684  0.3352  0.0309  0.0377
  836MPD2    C512291   4.633   2.494  12.728  0.3099 -0.2493  0.1777
  836MPD2     H12292   4.631   2.569  12.358  1.1009  2.5410  1.5876
  836MPD2    H112293   4.511   2.672  12.744  1.1889  1.2913 -0.7687
  836MPD2    H212294   0.041   2.328  12.687 -2.7970 -0.7319  0.9874
  836MPD2    H312295   4.641   2.484  12.835 -1.3903 -2.1371  0.1424
  836MPD2     N12296   4.459   2.717  12.517 -0.0164 -0.6888 -0.0114
  836MPD2    H512297   4.420   2.787  12.579 -0.9942 -1.3039  0.0638
  836MPD2    N112298   0.042   2.336  12.426  0.2303  0.1971  0.0233
  836MPD2    H712299   0.111   2.270  12.463 -0.5550  1.2691  3.3383
  837MPD2     C12300   3.429   1.526  10.552 -0.3255  0.1033 -1.2575
  837MPD2    C112301   3.377   1.599  10.450  0.7005  0.5588  0.0232
  837MPD2    C212302   3.396   1.734  10.451 -0.2790  0.0736 -0.5180
  837MPD2    C312303   3.463   1.800  10.548 -0.2115 -0.2964  0.9100
  837MPD2    C412304   3.522   1.725  10.649  0.1831  0.3696  0.2033
  837MPD2    C512305   3.509   1.589  10.645 -0.3431 -0.0665  0.2432
  837MPD2     H12306   3.361   1.786  10.362  0.6894 -0.1221 -1.0072
  837MPD2    H112307   3.589   1.763  10.726  0.3684 -1.1680  0.7831
  837MPD2    H212308   3.418   1.420  10.573 -2.7520  0.7689  0.9324
  837MPD2    H312309   3.544   1.527  10.727  0.8410  0.8685  0.4424
  837MPD2     N12310   3.473   1.940  10.540  0.4403  0.3614 -0.5645
  837MPD2    H512311   3.437   1.984  10.456  0.5271  0.3348 -0.6158
  837MPD2    N112312   3.303   1.555  10.339 -0.4066  0.4348 -0.4814
  837MPD2    H712313   3.269   1.632  10.282 -1.2669  2.2851  2.5132
  838MPD2     C12314   1.255   4.524  10.709  0.0751 -0.5041  0.7031
  838MPD2    C112315   1.212   4.656  10.692  0.1458  0.1708 -0.3713
  838MPD2    C212316   1.085   4.690  10.731  0.3829  0.7901 -0.3311
  838MPD2    C312317   1.005   4.601  10.797 -0.6169  0.0823  0.6587
  838MPD2    C412318   1.045   4.467  10.796 -0.0383  0.6119 -0.8942
  838MPD2    C512319   1.168   4.429  10.750 -0.3907 -0.3383 -0.2099
  838MPD2     H12320   1.050   0.071  10.733 -0.9328  0.3157  0.6879
  838MPD2    H112321   0.998   4.391  10.858  0.7814  0.8450  0.0244
  838MPD2    H212322   1.350   4.491  10.671 -1.3874 -1.5813 -2.0198
  838MPD2    H312323   1.207   4.330  10.771 -0.6510 -0.6545 -1.2519
  838MPD2     N12324   0.885   4.646  10.856 -0.4248 -0.0819 -0.8443
  838MPD2    H512325   0.862   0.024  10.856 -1.0178 -0.2277  0.3779
  838MPD2    N112326   1.294   0.041  10.645  0.0406  0.2089  0.3961
  838MPD2    H712327   1.248   0.131  10.641 -1.4786 -0.5585  0.5489
  839MPD2     C12328   1.116   0.246  11.246  0.9494 -0.1165 -0.2114
  839MPD2    C112329   1.135   0.135  11.165 -0.2729 -0.7807 -0.1434
  839MPD2    C212330   1.237   0.142  11.073  0.1842 -0.1198  0.1434
  839MPD2    C312331   1.298   0.264  11.044  0.0974 -0.5744  0.8348
  839MPD2    C412332   1.265   0.378  11.120 -0.4274 -0.4440 -0.0404
  839MPD2    C512333   1.174   0.370  11.221  0.1550 -0.2622 -1.0450
  839MPD2     H12334   1.260   0.058  11.009 -0.7144  0.5349 -1.0438
  839MPD2    H112335   1.306   0.476  11.096  0.6558 -1.0755 -0.8059
  839MPD2    H212336   1.043   0.237  11.325 -0.6495  1.1940 -1.5417
  839MPD2    H312337   1.142   0.460  11.273 -0.8673 -0.4805 -1.2933
  839MPD2     N12338   1.386   0.260  10.936  0.1539 -0.3524 -0.0182
  839MPD2    H512339   1.395   0.166  10.900 -2.8569  0.4593 -2.9643
  839MPD2    N112340   1.085   0.010  11.189 -0.7384  0.0198 -0.1022
  839MPD2    H712341   1.133   4.653  11.146  1.5729  1.5802 -0.3482
  840MPD2     C12342   1.712   1.763  10.126  0.5222 -0.3356 -0.3245
  840MPD2    C112343   1.614   1.814  10.210  0.4300  0.0615 -0.5971
  840MPD2    C212344   1.643   1.934  10.279  0.1653  0.4750 -0.5979
  840MPD2    C312345   1.765   2.000  10.265  0.1010 -0.1460  0.8985
  840MPD2    C412346   1.861   1.936  10.190 -0.6493  0.8871  0.3111
  840MPD2    C512347   1.833   1.820  10.123 -0.9517  0.4974  0.4172
  840MPD2     H12348   1.558   1.972  10.336  0.0989  1.1907 -1.1737
  840MPD2    H112349   1.957   1.985  10.178  0.6491 -1.6923  0.1866
  840MPD2    H212350   1.694   1.684  10.053 -0.0829 -1.0446  0.6023
  840MPD2    H312351   1.919   1.788  10.065 -2.1336  1.3655 -1.8364
  840MPD2     N12352   1.796   2.121  10.330 -0.3736  0.7987 -0.5825
  840MPD2    H512353   1.888   2.163  10.319 -0.1516  0.7434  1.0859
  840MPD2    N112354   1.493   1.736  10.224  0.0370  0.4415  0.4646
  840MPD2    H712355   1.493   1.639  10.195  2.8262 -0.0251  1.9839
  841MPD2     C12356   0.865   2.633  14.730 -0.3375  0.6875  0.2402
  841MPD2    C112357   0.971   2.562  14.674  0.3739  0.1033  0.2908
  841MPD2    C212358   1.022   2.610  14.550  0.7185  0.3576 -0.2506
  841MPD2    C312359   0.964   2.726  14.490 -0.2515  0.2108 -0.2303
  841MPD2    C412360   0.871   2.796  14.559  0.0561  0.4086  0.5551
  841MPD2    C512361   0.818   2.748  14.674 -0.7528  0.1835 -0.6652
  841MPD2     H12362   1.106   2.560  14.504 -0.2566 -0.5402 -1.0424
  841MPD2    H112363   0.829   2.890  14.526 -1.3251 -0.6943 -0.8023
  841MPD2    H212364   0.820   2.612  14.827  0.0587 -1.2129  0.0122
  841MPD2    H312365   0.745   2.799  14.736 -0.8327  1.1575 -1.5691
  841MPD2     N12366   1.023   2.777  14.370  0.2740  0.2709  0.7000
  841MPD2    H512367   1.094   2.716  14.332 -1.7403 -0.9891 -1.0858
  841MPD2    N112368   1.018   2.439  14.725  0.1643 -0.2189 -0.0431
  841MPD2    H712369   1.071   2.378  14.663  4.2711  0.9840  2.2753
  842MPD2     C12370   1.305   3.626  16.913  0.1773  0.4588 -0.5325
  842MPD2    C112371   1.186   3.597  16.845  0.4099  0.2531  0.0458
  842MPD2    C212372   1.086   3.523  16.910  0.2082  0.0020  0.8808
  842MPD2    C312373   1.109   3.473  17.039 -0.7323 -0.0809  0.6377
  842MPD2    C412374   1.232   3.490  17.098 -0.3495  0.0829  0.2401
  842MPD2    C512375   1.326   3.566  17.036  0.2153 -0.7344 -0.5023
  842MPD2     H12376   0.985   3.506  16.875 -0.1028  0.2406  1.6410
  842MPD2    H112377   1.264   3.456  17.196 -0.1324 -0.1778  0.0794
  842MPD2    H212378   1.373   3.699  16.870 -0.4574  1.7847  0.7308
  842MPD2    H312379   1.416   3.583  17.094  0.5459 -0.2656 -1.1457
  842MPD2     N12380   1.019   3.403  17.124  0.4974 -0.0851  0.0583
  842MPD2    H512381   1.054   3.380  17.216  2.7622 -0.9832 -1.0206
  842MPD2    N112382   1.163   3.661  16.720  0.7493  0.3828 -0.0276
  842MPD2    H712383   1.233   3.725  16.686  0.7283 -0.6686 -2.0376
  843MPD2     C12384   3.259   3.752   0.499  0.8527  0.1890  0.1609
  843MPD2    C112385   3.369   3.676   0.493 -0.3024 -0.4902  0.4570
  843MPD2    C212386   3.489   3.732   0.475  0.1729  0.2184  0.4497
  843MPD2    C312387   3.498   3.863   0.432 -0.2444 -0.0332 -0.1468
  843MPD2    C412388   3.386   3.940   0.429  0.7801  0.5887 -0.0661
  843MPD2    C512389   3.261   3.886   0.464  0.2103  0.4265  0.1732
  843MPD2     H12390   3.582   3.676   0.484  0.2404  0.3964  0.8579
  843MPD2    H112391   3.385   4.044   0.399 -0.8237  0.7455  0.5084
  843MPD2    H212392   3.161   3.711   0.518  1.0650  0.5953  2.2009
  843MPD2    H312393   3.166   3.938   0.460  0.4309  0.7703 -0.6022
  843MPD2     N12394   3.622   3.934   0.406 -0.3306 -0.2985 -0.1449
  843MPD2    H512395   3.622   4.034   0.421 -0.5118 -0.7202  2.6678
  843MPD2    N112396   3.356   3.541   0.522  0.0696 -0.1111  0.0499
  843MPD2    H712397   3.267   3.518   0.566 -0.4707 -2.1597 -2.1339
  844MPD2     C12398   1.714   3.026  16.530 -0.3034 -0.1130  0.0769
  844MPD2    C112399   1.804   2.928  16.552 -0.0843  0.4749  0.6972
  844MPD2    C212400   1.920   2.964  16.621  0.5645  0.3825  0.5978
  844MPD2    C312401   1.950   3.088  16.657 -0.0434  0.0711  0.1934
  844MPD2    C412402   1.858   3.190  16.635  0.0651 -0.4194  0.3174
  844MPD2    C512403   1.746   3.151  16.565 -0.3018 -0.5381 -1.0279
  844MPD2     H12404   1.998   2.889  16.634  1.7067  1.5649  0.4979
  844MPD2    H112405   1.874   3.297  16.640 -1.8414 -0.1678  0.8696
  844MPD2    H212406   1.627   3.011  16.468  0.1964 -1.2217 -0.3458
  844MPD2    H312407   1.677   3.228  16.532 -1.6391 -1.4459 -0.3767
  844MPD2     N12408   2.082   3.106  16.703 -0.1533 -0.1456 -0.0277
  844MPD2    H512409   2.146   3.027  16.694 -0.6466 -0.6535  1.0350
  844MPD2    N112410   1.794   2.791  16.508  0.5430  0.0386 -0.2768
  844MPD2    H712411   1.868   2.726  16.531 -1.1089 -1.2021  1.5732
  845MPD2     C12412   2.624   3.885  17.110  0.2334 -0.4909  0.5266
  845MPD2    C112413   2.490   3.849  17.137  0.4456  0.1615  0.3795
  845MPD2    C212414   2.439   3.731  17.095  0.5774  0.3667 -0.6424
  845MPD2    C312415   2.519   3.640  17.029 -0.5812 -0.4060 -0.0243
  845MPD2    C412416   2.649   3.671  17.000 -0.6882  0.7362  0.2566
  845MPD2    C512417   2.700   3.794  17.039  0.3910 -0.0485 -0.0919
  845MPD2     H12418   2.335   3.703  17.106  0.7567  0.8907  2.2718
  845MPD2    H112419   2.711   3.603  16.944 -1.0829  0.1600  0.5155
  845MPD2    H212420   2.665   3.983  17.129  0.5906 -0.3088 -1.2228
  845MPD2    H312421   2.802   3.828  17.021  1.2190 -1.5210  1.9149
  845MPD2     N12422   2.457   3.517  16.992 -0.2050 -0.1687  0.3550
  845MPD2    H512423   2.356   3.513  16.995 -0.3258  1.8114 -1.0419
  845MPD2    N112424   2.409   3.936  17.211 -0.2023 -0.2101  0.3402
  845MPD2    H712425   2.448   4.027  17.233 -1.6109  1.2533 -3.1299
  846MPD2     C12426   3.660   4.112  13.637 -0.1305 -0.3882  0.5520
  846MPD2    C112427   3.591   4.221  13.678 -0.3663 -1.1316  0.3803
  846MPD2    C212428   3.561   4.230  13.810 -0.7842 -0.1187 -0.0377
  846MPD2    C312429   3.611   4.132  13.900  0.9350  0.2392  0.1160
  846MPD2    C412430   3.679   4.021  13.852  0.3684  0.5365 -0.5670
  846MPD2    C512431   3.706   4.019  13.722 -0.0297  0.0555  0.0431
  846MPD2     H12432   3.501   4.313  13.846 -0.6360  1.1610 -2.7564
  846MPD2    H112433   3.716   3.937  13.910 -0.6044  1.9713  2.1416
  846MPD2    H212434   3.688   4.092  13.534  0.6174  1.7486  0.3331
  846MPD2    H312435   3.774   3.939  13.694  0.5981  0.7591 -0.4581
  846MPD2     N12436   3.581   4.141  14.039 -0.3624  0.0827 -0.0427
  846MPD2    H512437   3.507   4.202  14.071  1.6168  2.0596  0.7628
  846MPD2    N112438   3.547   4.333  13.603 -0.0682  0.0746 -0.0842
  846MPD2    H712439   3.513   4.412  13.656  2.6300  1.0128  0.2726
  847MPD2     C12440   3.917   0.231  14.414  0.2586 -0.1284 -0.0722
  847MPD2    C112441   4.040   0.278  14.423  0.0893 -0.2480  0.1032
  847MPD2    C212442   4.125   0.212  14.516 -0.4948  0.3069 -0.7887
  847MPD2    C312443   4.082   0.112  14.594  0.2010  0.2602  0.1472
  847MPD2    C412444   3.956   0.061  14.576 -0.0476  0.7449 -0.3373
  847MPD2    C512445   3.873   0.124  14.488 -0.2813 -0.3469  0.1243
  847MPD2     H12446   4.226   0.248  14.531 -1.2476  1.9454  0.2705
  847MPD2    H112447   3.922   4.691  14.625  0.3198  0.9192  0.2500
  847MPD2    H212448   3.842   0.284  14.356 -0.6475 -2.2222 -0.8214
  847MPD2    H312449   3.773   0.084  14.477  0.3612 -1.4355 -1.7657
  847MPD2     N12450   4.164   0.070  14.701 -0.0257 -0.1668 -0.2768
  847MPD2    H512451   4.259   0.105  14.705  0.4005 -1.4576  0.7786
  847MPD2    N112452   4.082   0.402  14.369 -0.2734  0.3643 -0.0723
  847MPD2    H712453   4.181   0.422  14.374 -0.2860  0.1984  0.9165
  848MPD2     C12454   1.561   3.619  16.370  0.0514  0.1736  0.3459
  848MPD2    C112455   1.636   3.647  16.482 -0.4914 -0.3456  0.5810
  848MPD2    C212456   1.720   3.755  16.482 -0.3383  0.8280 -0.0583
  848MPD2    C312457   1.739   3.827  16.371 -0.4593  0.3810 -0.5029
  848MPD2    C412458   1.671   3.793  16.262 -0.2363 -0.0381 -0.4073
  848MPD2    C512459   1.583   3.690  16.256 -0.3737  0.0820  0.5341
  848MPD2     H12460   1.773   3.788  16.571 -0.0638 -0.3980  0.2309
  848MPD2    H112461   1.672   3.857  16.174 -0.2834  0.8169  0.2167
  848MPD2    H212462   1.486   3.540  16.375  2.3861 -1.9507  1.6493
  848MPD2    H312463   1.520   3.679  16.168  0.4871  1.6408 -0.2780
  848MPD2     N12464   1.827   3.935  16.359 -0.3221  0.5141  0.1097
  848MPD2    H512465   1.816   3.984  16.270  1.4530  1.0278  0.1670
  848MPD2    N112466   1.628   3.579  16.601  0.1382  0.1425  0.1171
  848MPD2    H712467   1.687   3.614  16.676  0.4563 -2.0966  0.9224
  849MPD2     C12468   1.770   3.565  14.057 -0.1769 -0.2607 -0.5524
  849MPD2    C112469   1.769   3.645  13.951  0.2720  0.1638  0.5774
  849MPD2    C212470   1.838   3.763  13.955 -0.2833  0.1124 -0.1103
  849MPD2    C312471   1.918   3.798  14.060 -0.2646  0.1969 -0.1674
  849MPD2    C412472   1.919   3.712  14.159 -0.2911  0.2022  0.6284
  849MPD2    C512473   1.854   3.593  14.158 -0.2773 -0.2678 -1.3527
  849MPD2     H12474   1.836   3.831  13.871 -0.0832 -1.5266 -1.4285
  849MPD2    H112475   1.988   3.726  14.242  1.4836  1.7252 -1.0919
  849MPD2    H212476   1.702   3.483  14.073 -0.4147 -0.3635 -2.1591
  849MPD2    H312477   1.857   3.532  14.247  1.8110  0.7072 -0.7474
  849MPD2     N12478   1.991   3.921  14.042 -0.7266 -0.0102  0.1096
  849MPD2    H512479   1.979   3.976  13.957 -1.3992 -0.5857 -0.1686
  849MPD2    N112480   1.658   3.622  13.856 -0.3525  0.0263 -0.2481
  849MPD2    H712481   1.624   3.527  13.865  3.9402 -1.5583 -1.1333
  850MPD2     C12482   3.774   1.684  15.051  0.2336  0.0293 -0.2936
  850MPD2    C112483   3.815   1.592  15.145  0.2239  0.3006 -0.3857
  850MPD2    C212484   3.936   1.538  15.127  0.0612 -0.3616 -0.2784
  850MPD2    C312485   4.014   1.567  15.018 -0.2203  0.4158  0.4840
  850MPD2    C412486   3.973   1.659  14.927 -0.7447  0.4247  0.3537
  850MPD2    C512487   3.847   1.719  14.945 -0.4879  0.6463 -0.0228
  850MPD2     H12488   3.971   1.468  15.202  1.2444 -0.7102 -1.1552
  850MPD2    H112489   4.032   1.694  14.843  0.9171  1.6811  2.0347
  850MPD2    H212490   3.675   1.726  15.065  0.6107  1.0281 -0.5921
  850MPD2    H312491   3.822   1.788  14.865 -0.4015 -2.5250 -2.8135
  850MPD2     N12492   4.140   1.507  15.001 -0.2240  0.3091  0.4693
  850MPD2    H512493   4.198   1.529  14.921  0.9410 -1.1774  0.8980
  850MPD2    N112494   3.735   1.544  15.250 -0.7017  0.6145 -0.3483
  850MPD2    H712495   3.787   1.496  15.323  0.5593  0.1751 -1.5344
  851MPD2     C12496   3.687   1.205  16.018  0.9992 -0.2027 -0.2149
  851MPD2    C112497   3.724   1.182  15.886  0.2300  0.3615  0.4054
  851MPD2    C212498   3.827   1.095  15.855 -0.4670  0.1842 -0.1115
  851MPD2    C312499   3.884   1.021  15.956  0.6451 -0.7810 -0.6775
  851MPD2    C412500   3.848   1.048  16.092  0.0887  0.7986 -0.3240
  851MPD2    C512501   3.740   1.131  16.116  0.9111 -0.2080  0.3417
  851MPD2     H12502   3.869   1.081  15.756  1.8556 -0.9396  1.0396
  851MPD2    H112503   3.882   0.983  16.172  1.9493  1.8370 -0.2633
  851MPD2    H212504   3.606   1.275  16.036  0.3256 -1.0665  0.0813
  851MPD2    H312505   3.703   1.149  16.216  0.2110 -0.2677  0.0935
  851MPD2     N12506   3.973   0.927  15.913 -0.2569 -0.7900  0.1254
  851MPD2    H512507   3.986   0.921  15.812 -1.7571 -1.1390 -0.0499
  851MPD2    N112508   3.650   1.256  15.790 -0.0011  0.1242  0.5857
  851MPD2    H712509   3.579   1.321  15.824 -2.6307 -0.9373 -2.9512
  852MPD2     C12510   3.422   3.342  10.041 -0.2351  0.5609  0.6212
  852MPD2    C112511   3.492   3.453  10.087  0.2832 -0.2661  0.1289
  852MPD2    C212512   3.534   3.550  10.003 -0.3942 -0.1157  0.0972
  852MPD2    C312513   3.521   3.533   9.866 -0.0281 -0.1830 -0.3763
  852MPD2    C412514   3.453   3.420   9.819 -1.0341 -0.0030 -0.0985
  852MPD2    C512515   3.411   3.324   9.905 -0.7900 -0.2705 -1.1288
  852MPD2     H12516   3.574   3.641  10.047  1.4644 -0.9174  0.0540
  852MPD2    H112517   3.440   3.400   9.714 -0.3759  0.8511 -0.3436
  852MPD2    H212518   3.389   3.262  10.106  0.7651  1.0253  1.6889
  852MPD2    H312519   3.351   3.240   9.875  1.4965 -2.3689  0.1568
  852MPD2     N12520   3.577   3.632   9.773  0.9453 -0.2692  0.0603
  852MPD2    H512521   3.623   3.709   9.821  4.1145 -0.8515 -2.0052
  852MPD2    N112522   3.518   3.460  10.221 -0.1478 -0.5986  0.2183
  852MPD2    H712523   3.562   3.546  10.252 -1.4129  0.6337 -1.3907
  853MPD2     C12524   0.859   3.314  12.279  0.0720 -0.4149 -0.3484
  853MPD2    C112525   0.807   3.435  12.239  0.0376 -0.6416  1.0048
  853MPD2    C212526   0.870   3.496  12.127 -0.5462  0.4315  0.4122
  853MPD2    C312527   0.961   3.427  12.053  0.1596  0.2628 -0.4489
  853MPD2    C412528   1.017   3.312  12.099 -0.3708  0.3568 -0.7272
  853MPD2    C512529   0.961   3.257  12.210  0.1742  0.2987 -0.5317
  853MPD2     H12530   0.822   3.586  12.091  0.0367  0.3902 -0.4590
  853MPD2    H112531   1.092   3.252  12.048 -0.9929 -1.0615  0.0202
  853MPD2    H212532   0.823   3.273  12.372  1.9698 -0.6339  0.2966
  853MPD2    H312533   1.014   3.175  12.256 -0.5943 -0.4385 -0.9724
  853MPD2     N12534   0.999   3.469  11.925  0.6927  0.6115 -0.3924
  853MPD2    H512535   1.051   3.403  11.868 -1.3765 -1.5990  0.3068
  853MPD2    N112536   0.721   3.496  12.325  0.9438 -0.2176 -0.3893
  853MPD2    H712537   0.699   3.435  12.403  1.3309  0.9537  0.6358
  854MPD2     C12538   2.073   4.133  12.912 -0.4792  0.2338  0.0783
  854MPD2    C112539   2.192   4.127  12.982 -0.4631 -0.1892  0.2809
  854MPD2    C212540   2.219   3.997  13.034 -0.0028 -0.0046 -0.1240
  854MPD2    C312541   2.140   3.884  12.994  0.4216 -0.3787  0.1207
  854MPD2    C412542   2.026   3.906  12.916  0.0713 -0.2947  0.5205
  854MPD2    C512543   1.994   4.031  12.878 -0.1441  0.2110 -0.3583
  854MPD2     H12544   2.312   3.974  13.086  0.9406 -0.8059 -2.1628
  854MPD2    H112545   1.960   3.827  12.882  2.2236 -1.4183 -1.0291
  854MPD2    H212546   2.040   4.231  12.880 -1.8148 -0.2845 -0.1335
  854MPD2    H312547   1.902   4.047  12.823 -0.7786  1.0054  0.9470
  854MPD2     N12548   2.161   3.755  13.043 -0.3961 -0.6387 -0.2637
  854MPD2    H512549   2.087   3.688  13.026 -0.9457 -0.0920 -0.0333
  854MPD2    N112550   2.280   4.232  12.999  0.2873 -0.0594 -0.3657
  854MPD2    H712551   2.251   4.323  12.967 -1.3889  0.3525  2.3205
  855MPD2     C12552   2.688   3.513  13.879 -0.1064  0.4932  0.4289
  855MPD2    C112553   2.707   3.416  13.785 -0.3906  0.2799  0.1096
  855MPD2    C212554   2.626   3.403  13.672 -0.2677  0.6328 -0.5056
  855MPD2    C312555   2.513   3.486  13.663 -1.1322 -0.7899  0.2728
  855MPD2    C412556   2.496   3.588  13.747  0.2182 -0.6165 -0.7118
  855MPD2    C512557   2.577   3.591  13.861  0.6307 -0.5339 -0.4176
  855MPD2     H12558   2.636   3.324  13.598  0.9692 -1.5089  1.9675
  855MPD2    H112559   2.425   3.667  13.727 -1.8676 -2.7284 -1.7021
  855MPD2    H212560   2.757   3.545  13.955 -0.0651 -0.2159  0.6942
  855MPD2    H312561   2.559   3.666  13.937 -1.1367 -1.5583  0.1991
  855MPD2     N12562   2.428   3.482  13.550 -0.5417 -0.4037 -0.4106
  855MPD2    H512563   2.361   3.557  13.534  0.3140 -0.1053 -2.6074
  855MPD2    N112564   2.823   3.328  13.785  0.8281  0.0564  0.5914
  855MPD2    H712565   2.831   3.265  13.705  1.2273  1.0527 -0.1643
  856MPD2     C12566   4.258   4.470  14.131 -0.1781  0.8192  0.0328
  856MPD2    C112567   4.362   4.557  14.156 -0.3688 -0.0651 -0.8437
  856MPD2    C212568   4.352   4.689  14.115 -1.0227 -0.0227 -0.4096
  856MPD2    C312569   4.229   0.013  14.068  0.3718  0.0513 -0.0647
  856MPD2    C412570   4.122   4.650  14.054  0.0413  0.1503 -0.1073
  856MPD2    C512571   4.139   4.516  14.087  0.3131  0.1045 -0.3340
  856MPD2     H12572   4.436   0.033  14.131 -0.6304  0.0410 -2.6689
  856MPD2    H112573   4.028   4.686  14.014 -1.8558 -1.3027  3.0157
  856MPD2    H212574   4.272   4.363  14.146 -3.1750  0.4406  0.0983
  856MPD2    H312575   4.061   4.442  14.078  0.0636  0.2893  0.3253
  856MPD2     N12576   4.204   0.148  14.029 -0.4371  0.0572 -0.4655
  856MPD2    H512577   4.120   0.164  13.974 -0.6558 -2.5229 -0.8818
  856MPD2    N112578   4.485   4.514  14.214  0.7388 -0.0630  0.4038
  856MPD2    H712579   4.547   4.592  14.232  2.4452 -1.6590  1.4666
  857MPD2     C12580   1.698   1.847  13.302 -0.3162 -0.0132 -0.0510
  857MPD2    C112581   1.815   1.835  13.224  0.1021  0.5252  0.9524
  857MPD2    C212582   1.865   1.945  13.155  0.4821  0.4170  0.0133
  857MPD2    C312583   1.800   2.066  13.165 -0.3489  0.1832  0.5664
  857MPD2    C412584   1.695   2.086  13.250  0.1768  0.1322 -0.0007
  857MPD2    C512585   1.651   1.976  13.320 -0.3606 -0.5868  0.3874
  857MPD2     H12586   1.940   1.938  13.077 -0.4000  0.5527 -0.8466
  857MPD2    H112587   1.643   2.179  13.263  0.4916  0.2422  0.4742
  857MPD2    H212588   1.646   1.770  13.358  0.7686 -0.1117  0.8113
  857MPD2    H312589   1.559   1.998  13.373  0.3863  0.3468  1.3069
  857MPD2     N12590   1.860   2.176  13.091  0.1805  0.5143  0.1359
  857MPD2    H512591   1.948   2.171  13.042  0.2594 -0.1599  0.3355
  857MPD2    N112592   1.867   1.708  13.220  0.5772  0.1656 -0.4551
  857MPD2    H712593   1.814   1.632  13.261 -0.4364 -0.4009 -2.8835
  858MPD2     C12594   1.611   0.814  16.829 -0.1561  0.2049  0.3115
  858MPD2    C112595   1.718   0.754  16.890  0.4192  0.1231 -0.2370
  858MPD2    C212596   1.797   0.828  16.979 -0.2036  0.7113 -0.5337
  858MPD2    C312597   1.760   0.956  17.018  0.4844  0.3087 -0.1809
  858MPD2    C412598   1.644   1.003  16.965  0.0751  0.5606 -0.3546
  858MPD2    C512599   1.572   0.938  16.876  0.1301 -0.1696  0.4825
  858MPD2     H12600   1.892   0.791  17.016 -1.5350 -1.0451  1.1525
  858MPD2    H112601   1.599   1.093  17.005  0.5578  0.1610  1.1128
  858MPD2    H212602   1.543   0.759  16.765  0.8250 -1.9894  1.1497
  858MPD2    H312603   1.486   0.996  16.847  1.0599  2.0482  2.1214
  858MPD2     N12604   1.832   1.039  17.113  0.3628 -0.3245  0.1221
  858MPD2    H512605   1.792   1.132  17.122  0.6189 -0.2623  0.6087
  858MPD2    N112606   1.742   0.624  16.842  0.1279 -0.4361 -0.2522
  858MPD2    H712607   1.668   0.587  16.783 -0.5646  0.5046  0.0194
  859MPD2     C12608   0.981   2.869  15.363  0.5581  0.7928 -0.2580
  859MPD2    C112609   1.061   2.896  15.256 -0.2157 -0.0884 -0.4356
  859MPD2    C212610   1.139   2.795  15.197  0.0616 -0.3186  0.9135
  859MPD2    C312611   1.141   2.670  15.257  0.0473 -0.2145 -0.1303
  859MPD2    C412612   1.053   2.637  15.359 -0.0668  0.1937  0.0307
  859MPD2    C512613   0.979   2.738  15.414 -0.1104  0.4992 -0.4372
  859MPD2     H12614   1.214   2.817  15.122 -1.0616 -1.5375 -0.5514
  859MPD2    H112615   1.031   2.540  15.403  0.6166  0.6032  1.2759
  859MPD2    H212616   0.908   2.934  15.412  1.0743 -0.2605  1.9235
  859MPD2    H312617   0.907   2.699  15.484 -1.0744 -0.2157 -1.8238
  859MPD2     N12618   1.215   2.560  15.213 -0.1775  0.2907  0.2513
  859MPD2    H512619   1.202   2.471  15.260  0.7264  0.2376  0.4113
  859MPD2    N112620   1.062   3.032  15.212 -0.1917 -0.0840 -0.8693
  859MPD2    H712621   1.001   3.101  15.256  1.2976  1.2950 -0.9475
  860MPD2     C12622   2.903   2.995  11.611 -0.6391 -0.0230  0.0249
  860MPD2    C112623   2.948   2.957  11.731  0.5729  0.1110  0.1313
  860MPD2    C212624   2.866   2.960  11.847  0.0885  0.5711 -0.0607
  860MPD2    C312625   2.738   3.013  11.839  0.0038  0.0095 -0.1811
  860MPD2    C412626   2.694   3.051  11.712 -0.3424  0.4760  0.3228
  860MPD2    C512627   2.775   3.044  11.607  0.2274 -0.7014  0.2245
  860MPD2     H12628   2.903   2.953  11.948  1.6527  1.6077 -0.5575
  860MPD2    H112629   2.596   3.097  11.701 -0.1308  0.4030 -1.9192
  860MPD2    H212630   2.965   2.996  11.522 -0.7279  2.5275 -0.0067
  860MPD2    H312631   2.740   3.085  11.513  0.8518 -0.0570  0.2665
  860MPD2     N12632   2.668   3.027  11.963 -0.2216 -0.1351 -0.2289
  860MPD2    H512633   2.724   3.018  12.048 -1.6333 -1.9659  0.5222
  860MPD2    N112634   3.088   2.916  11.760 -0.2170  0.0262  0.2536
  860MPD2    H712635   3.097   2.876  11.853 -1.3907 -2.3682 -0.6546
  861MPD2     C12636   2.973   1.639  11.053  0.1654 -0.0310 -0.4612
  861MPD2    C112637   2.854   1.572  11.043  0.9316 -0.2237 -0.0767
  861MPD2    C212638   2.779   1.593  10.937 -0.2612  0.3250  0.0719
  861MPD2    C312639   2.822   1.675  10.832  0.3539 -0.1341 -0.2132
  861MPD2    C412640   2.939   1.744  10.850  0.0658 -0.5512 -0.1124
  861MPD2    C512641   3.019   1.717  10.953 -0.4380 -0.6573 -0.1736
  861MPD2     H12642   2.688   1.536  10.926 -0.1986  0.4325 -0.9904
  861MPD2    H112643   2.973   1.815  10.775 -1.9699  0.6581  0.0974
  861MPD2    H212644   3.040   1.636  11.139  1.3411 -2.1141 -1.4376
  861MPD2    H312645   3.111   1.772  10.968 -0.0016 -1.1830 -0.9590
  861MPD2     N12646   2.741   1.704  10.722  0.4616  0.4520  0.1750
  861MPD2    H512647   2.774   1.776  10.660  0.0742  0.2400 -0.2795
  861MPD2    N112648   2.811   1.488  11.146 -0.3137 -0.1056 -0.2956
  861MPD2    H712649   2.711   1.485  11.159 -0.0287 -1.2632  1.6395
  862MPD2     C12650   2.046   1.562  10.238 -0.3572 -0.1746 -0.9979
  862MPD2    C112651   2.180   1.542  10.254  0.0764  0.3552  1.6086
  862MPD2    C212652   2.240   1.475  10.147 -0.1436  0.2229  0.5610
  862MPD2    C312653   2.165   1.401  10.052 -0.1156 -0.0577 -0.0513
  862MPD2    C412654   2.032   1.418  10.051  0.0594 -0.2157 -0.1941
  862MPD2    C512655   1.973   1.500  10.141 -0.1439 -0.3454  0.5861
  862MPD2     H12656   2.348   1.464  10.152 -0.2765 -0.9144  0.8631
  862MPD2    H112657   1.968   1.373   9.976 -0.8716  1.1009 -0.1925
  862MPD2    H212658   1.981   1.615  10.306  1.1803  0.1010  0.2413
  862MPD2    H312659   1.866   1.515  10.132  0.0737 -0.1592 -1.6626
  862MPD2     N12660   2.219   1.330   9.947 -0.3186  0.0736 -0.0576
  862MPD2    H512661   2.148   1.285   9.891 -2.3125  1.0513  1.6600
  862MPD2    N112662   2.262   1.597  10.354 -0.1259  0.6666  0.3403
  862MPD2    H712663   2.363   1.592  10.351 -0.3579 -0.6011 -4.6373
  863MPD2     C12664   0.670   0.474  17.263  0.0554  0.7259  0.5809
  863MPD2    C112665   0.650   0.336  17.264 -0.1222 -0.7347 -0.4612
  863MPD2    C212666   0.733   0.259  17.350  0.3999 -0.2125 -0.5397
  863MPD2    C312667   0.846   0.321  17.410  0.3834 -0.7887  0.1575
  863MPD2    C412668   0.858   0.453  17.408 -0.5506  0.7765  0.3688
  863MPD2    C512669   0.766   0.530  17.346  0.7850 -0.3536  0.7760
  863MPD2     H12670   0.724   0.152  17.344 -0.3756 -0.1830  0.0525
  863MPD2    H112671   0.941   0.501  17.458  1.2313 -0.1932 -1.6705
  863MPD2    H212672   0.606   0.541  17.207  0.4209  0.7545  0.1978
  863MPD2    H312673   0.773   0.637  17.361  1.2848 -0.4654  1.3276
  863MPD2     N12674   0.946   0.242  17.479  0.2980 -0.5133  0.3666
  863MPD2    H512675   1.020   0.295  17.525  0.8499 -0.6390 -0.3877
  863MPD2    N112676   0.544   0.290  17.180 -0.0047  0.0746  0.4019
  863MPD2    H712677   0.501   0.351  17.111  2.1657  1.7370  0.5107
  864MPD2     C12678   0.610   1.598  17.492  0.5882  0.3198  0.0085
  864MPD2    C112679   0.637   1.533  17.375  0.4616  0.2610  0.3164
  864MPD2    C212680   0.686   1.609  17.266 -0.3044 -0.0032 -0.0510
  864MPD2    C312681   0.708   1.743  17.279  0.1339  0.2538  0.1001
  864MPD2    C412682   0.665   1.804  17.392 -0.2614  0.5593  0.2022
  864MPD2    C512683   0.621   1.730  17.498  0.7083  0.4665  0.1468
  864MPD2     H12684   0.726   1.562  17.176 -0.8439  0.5885 -0.5975
  864MPD2    H112685   0.667   1.912  17.402 -0.8357  0.3573  2.4282
  864MPD2    H212686   0.561   1.544  17.573  0.5569 -1.0103 -0.8907
  864MPD2    H312687   0.577   1.764  17.591  0.0295  1.9262 -0.7092
  864MPD2     N12688   0.757   1.833  17.174  0.4518  0.0658  0.2322
  864MPD2    H512689   0.754   1.934  17.186 -1.5388  0.0338 -0.0175
  864MPD2    N112690   0.613   1.395  17.366  0.5700 -0.0843 -0.2344
  864MPD2    H712691   0.589   1.340  17.448 -0.7641  1.9650  0.7656
  865MPD2     C12692   0.865   2.062  16.376  0.2743 -1.2147  0.4823
  865MPD2    C112693   0.881   1.993  16.487  0.5475 -0.0240  0.4425
  865MPD2    C212694   0.863   2.052  16.612 -0.0800 -0.8419 -0.1282
  865MPD2    C312695   0.846   2.189  16.620 -1.1528 -0.0211 -0.2628
  865MPD2    C412696   0.836   2.261  16.503  0.4006 -0.0268  0.0370
  865MPD2    C512697   0.836   2.192  16.383  0.2226  0.3299  0.5935
  865MPD2     H12698   0.861   1.991  16.701 -0.9890  1.8703  1.6950
  865MPD2    H112699   0.803   2.364  16.499 -1.7453 -0.6425  1.9187
  865MPD2    H212700   0.868   2.005  16.284  0.4345 -0.9780  0.3433
  865MPD2    H312701   0.827   2.248  16.290 -0.5841 -1.0575 -0.1645
  865MPD2     N12702   0.835   2.266  16.734 -0.5263 -0.6344  0.3520
  865MPD2    H512703   0.810   2.361  16.708 -1.3171 -1.7887 -3.1005
  865MPD2    N112704   0.897   1.855  16.470  0.0455 -0.2145 -0.2349
  865MPD2    H712705   0.900   1.825  16.373  1.7722 -0.1114 -0.2067
  866MPD2     C12706   3.050   1.487  11.644  0.0901  0.4806 -0.0422
  866MPD2    C112707   3.104   1.531  11.519  0.3980 -0.1229  0.7212
  866MPD2    C212708   3.057   1.646  11.459  0.0481 -0.2560  0.0803
  866MPD2    C312709   2.968   1.726  11.522  0.3373 -0.1296 -0.7174
  866MPD2    C412710   2.922   1.690  11.645  0.5566 -0.1130 -0.4818
  866MPD2    C512711   2.967   1.573  11.712 -0.0540  0.2002 -0.0399
  866MPD2     H12712   3.100   1.690  11.370  0.3152 -0.4983  0.0913
  866MPD2    H112713   2.855   1.750  11.705 -0.6926 -1.7833 -0.2120
  866MPD2    H212714   3.088   1.399  11.695  0.7214  0.6044 -0.2986
  866MPD2    H312715   2.958   1.551  11.818  3.6228  1.1647  0.4833
  866MPD2     N12716   2.898   1.835  11.466  0.2174 -0.2293 -0.2420
  866MPD2    H512717   2.819   1.870  11.519 -1.0570 -3.0585 -0.2853
  866MPD2    N112718   3.202   1.450  11.468  0.3421  0.4028 -0.7264
  866MPD2    H712719   3.221   1.354  11.497 -1.3189  0.5825  0.8932
  867MPD2     C12720   4.430   1.571  16.642 -1.0711  0.1889 -0.8441
  867MPD2    C112721   4.497   1.555  16.760  0.0658  0.1180  0.3546
  867MPD2    C212722   4.503   1.663  16.849 -0.3367  0.2049  0.1897
  867MPD2    C312723   4.468   1.797  16.809 -0.0417 -0.8552  0.0809
  867MPD2    C412724   4.413   1.805  16.679 -0.4409  0.6241 -0.1830
  867MPD2    C512725   4.400   1.696  16.602 -0.4017 -0.0632  0.2172
  867MPD2     H12726   4.550   1.650  16.946 -1.3205 -1.0402  0.5127
  867MPD2    H112727   4.373   1.902  16.650  1.7085  1.6737  0.3928
  867MPD2    H212728   4.421   1.488  16.572 -0.2577  1.7400 -2.7737
  867MPD2    H312729   4.348   1.707  16.507 -0.6047 -0.5577  0.2688
  867MPD2     N12730   4.464   1.906  16.896  0.1676 -0.6884 -0.4615
  867MPD2    H512731   4.425   1.990  16.854  2.0482  0.3041 -0.2050
  867MPD2    N112732   4.536   1.423  16.790  0.0001 -0.0786  0.1762
  867MPD2    H712733   4.515   1.357  16.716 -0.6950  0.3796 -0.0352
  868MPD2     C12734   2.478   0.771  13.431 -0.0083  1.1092 -0.1908
  868MPD2    C112735   2.394   0.669  13.468 -0.8634  0.4470 -0.2561
  868MPD2    C212736   2.277   0.701  13.527  0.2564  0.6551  0.5924
  868MPD2    C312737   2.250   0.828  13.572 -0.5713  0.1092  0.2697
  868MPD2    C412738   2.341   0.928  13.546  0.0060 -0.1141 -0.5991
  868MPD2    C512739   2.453   0.899  13.475 -0.0760  0.2230 -0.2928
  868MPD2     H12740   2.200   0.630  13.556 -0.9919  0.6272 -2.7498
  868MPD2    H112741   2.316   1.031  13.568 -1.4602 -1.0561  2.0917
  868MPD2    H212742   2.579   0.754  13.396 -0.0403 -0.4563  0.5032
  868MPD2    H312743   2.516   0.984  13.450  1.8566 -0.8274  1.0994
  868MPD2     N12744   2.118   0.853  13.617  0.0626  0.4412 -0.3076
  868MPD2    H512745   2.047   0.781  13.615 -0.6752  1.1197  1.9924
  868MPD2    N112746   2.431   0.535  13.434 -0.6976 -0.2360 -0.1019
  868MPD2    H712747   2.523   0.524  13.392  0.2254  1.3205  1.4912
  869MPD2     C12748   2.587   3.045   2.138 -0.1743  0.8970  0.4244
  869MPD2    C112749   2.614   2.943   2.045 -0.0638  0.0551  0.8835
  869MPD2    C212750   2.642   2.978   1.913  0.0340  0.0062  0.4116
  869MPD2    C312751   2.665   3.113   1.878  0.2323  0.4373 -0.0723
  869MPD2    C412752   2.645   3.205   1.979  0.5080 -0.0353 -0.1637
  869MPD2    C512753   2.606   3.166   2.104 -0.1070 -0.9999  0.1069
  869MPD2     H12754   2.655   2.896   1.843  0.2373  3.7847 -3.9480
  869MPD2    H112755   2.652   3.313   1.967  1.2824 -0.1331 -0.6340
  869MPD2    H212756   2.555   3.018   2.238  3.2455  2.4780  1.9458
  869MPD2    H312757   2.577   3.245   2.173 -1.2348 -1.3400  0.0248
  869MPD2     N12758   2.696   3.168   1.754 -0.1292 -0.5797 -0.0458
  869MPD2    H512759   2.714   3.267   1.749  0.7154 -0.8184 -1.7062
  869MPD2    N112760   2.604   2.809   2.086 -0.6423 -0.1024  0.7233
  869MPD2    H712761   2.570   2.787   2.179  0.7939 -0.6343  1.1317
  870MPD2     C12762   2.397   2.215   1.894  0.1645 -0.1471 -0.5296
  870MPD2    C112763   2.518   2.226   1.827  0.5970 -0.1187  0.8161
  870MPD2    C212764   2.557   2.340   1.775  0.8675 -0.2366 -0.0076
  870MPD2    C312765   2.483   2.454   1.776 -0.0165 -0.0025  0.0663
  870MPD2    C412766   2.367   2.447   1.848  0.5413  0.7656 -0.3079
  870MPD2    C512767   2.322   2.329   1.900  0.2141 -0.0794 -0.2598
  870MPD2     H12768   2.645   2.340   1.712  1.0611  0.5057  0.2685
  870MPD2    H112769   2.308   2.537   1.859 -1.2242 -0.6997  2.1868
  870MPD2    H212770   2.352   2.125   1.934  0.5731 -0.7443 -1.4274
  870MPD2    H312771   2.230   2.326   1.957  0.1647  0.9332 -0.2917
  870MPD2     N12772   2.522   2.564   1.692  0.3096  0.4861 -0.3969
  870MPD2    H512773   2.603   2.547   1.633  1.0593  0.0275  0.7597
  870MPD2    N112774   2.598   2.107   1.826 -0.2067 -0.1873 -0.9420
  870MPD2    H712775   2.558   2.024   1.870  2.7449 -1.0311  0.1404
  871MPD2     C12776   3.637   1.562  16.494 -0.2762  0.6167 -0.4243
  871MPD2    C112777   3.571   1.493  16.594 -0.5120 -0.0625  0.5795
  871MPD2    C212778   3.599   1.358  16.617 -0.2510 -0.6853 -0.1022
  871MPD2    C312779   3.682   1.289  16.539  0.2856  0.2190 -0.5031
  871MPD2    C412780   3.737   1.353  16.428 -0.4218 -0.2369  0.7752
  871MPD2    C512781   3.718   1.488  16.414  0.1263  0.1479  0.0368
  871MPD2     H12782   3.566   1.304  16.705 -1.0309 -0.3478 -0.1884
  871MPD2    H112783   3.798   1.297  16.358 -1.4205  0.7322 -0.8789
  871MPD2    H212784   3.627   1.663  16.455 -2.1961  1.1700  1.5377
  871MPD2    H312785   3.770   1.525  16.326  0.0163 -0.0466 -0.1111
  871MPD2     N12786   3.689   1.146  16.556 -0.2020 -0.5077  0.2655
  871MPD2    H512787   3.617   1.109  16.618 -1.8268  2.8957  0.3885
  871MPD2    N112788   3.494   1.571  16.679 -0.3888  0.0740  0.0361
  871MPD2    H712789   3.487   1.670  16.655 -0.1310  0.0828 -0.0021
  872MPD2     C12790   4.595   3.612  14.213  0.2533 -0.7620 -1.4893
  872MPD2    C112791   4.515   3.716  14.181  0.4912 -0.3244 -0.5443
  872MPD2    C212792   4.380   3.700  14.208 -0.3065  0.7270 -0.2370
  872MPD2    C312793   4.326   3.583  14.261 -0.0181  0.0233 -0.2805
  872MPD2    C412794   4.409   3.475  14.287  0.0027  0.2353 -0.7206
  872MPD2    C512795   4.546   3.498  14.266 -0.3235 -0.3200  0.5797
  872MPD2     H12796   4.318   3.787  14.189 -0.9738  0.2003 -0.4900
  872MPD2    H112797   4.381   3.377  14.323  2.8497 -1.7699 -3.9696
  872MPD2    H212798   4.700   3.615  14.186  1.1901 -0.9153  2.1059
  872MPD2    H312799   4.612   3.414  14.283  1.3221  0.5238 -1.6759
  872MPD2     N12800   4.189   3.574  14.297 -0.1894  0.2284  0.6463
  872MPD2    H512801   4.160   3.496  14.355  0.9425 -1.1385 -0.6345
  872MPD2    N112802   4.570   3.842  14.132  0.4397  0.3106  0.5242
  872MPD2    H712803   4.496   3.909  14.112  2.2039  1.8422 -0.8290
  873MPD2     C12804   1.087   3.093   1.232  0.1535  0.9903 -0.9141
  873MPD2    C112805   0.961   3.134   1.237  0.3212 -0.0883 -0.3342
  873MPD2    C212806   0.856   3.051   1.190  0.1992 -0.4299  0.2105
  873MPD2    C312807   0.897   2.931   1.133 -0.8034 -0.0525 -0.7918
  873MPD2    C412808   1.026   2.890   1.121  0.1445 -0.9932  0.0710
  873MPD2    C512809   1.123   2.977   1.169  0.3157 -0.3913 -0.2220
  873MPD2     H12810   0.752   3.081   1.194  0.0509 -0.8384 -0.6703
  873MPD2    H112811   1.058   2.798   1.072  1.2035 -1.0132  0.7888
  873MPD2    H212812   1.161   3.160   1.276 -1.9159  2.2813  0.6393
  873MPD2    H312813   1.228   2.951   1.172  0.4167  0.2669  1.7008
  873MPD2     N12814   0.806   2.847   1.073  0.1914  0.5760  0.1183
  873MPD2    H512815   0.841   2.776   1.009 -0.5592  0.2111  0.1090
  873MPD2    N112816   0.940   3.257   1.300  0.0631 -0.9053  0.0456
  873MPD2    H712817   1.020   3.299   1.347 -0.5525  1.0895 -0.7020
  874MPD2     C12818   1.387   4.006  15.964  0.2776 -0.3469  0.3341
  874MPD2    C112819   1.398   3.995  16.103  0.2545  0.2006 -0.5706
  874MPD2    C212820   1.490   4.065  16.174  1.0538  0.6397 -0.8868
  874MPD2    C312821   1.586   4.147  16.109  0.6171 -0.6325 -0.1996
  874MPD2    C412822   1.577   4.152  15.966 -0.0212  0.1083  0.6764
  874MPD2    C512823   1.479   4.083  15.898  0.8089  0.6151  0.4348
  874MPD2     H12824   1.514   4.046  16.278  5.9179  0.2590 -2.0946
  874MPD2    H112825   1.645   4.207  15.901  1.5593 -1.5227  0.9421
  874MPD2    H212826   1.305   3.950  15.920  1.3280 -0.0850 -1.9202
  874MPD2    H312827   1.472   4.088  15.790  1.2097  0.5416  0.4065
  874MPD2     N12828   1.686   4.209  16.188  0.1084  0.6969  0.2274
  874MPD2    H512829   1.672   4.219  16.288  0.9562  2.0778  0.2089
  874MPD2    N112830   1.307   3.909  16.166  0.4675 -0.7389  0.2319
  874MPD2    H712831   1.249   3.859  16.099 -0.3503  1.5095 -0.7209
  875MPD2     C12832   2.712   2.416  14.704 -0.2200  0.8032 -0.7305
  875MPD2    C112833   2.573   2.417  14.696  0.2498  0.2745  0.4199
  875MPD2    C212834   2.504   2.468  14.811  0.6644  0.2598  0.2442
  875MPD2    C312835   2.573   2.496  14.928 -0.6298 -0.5078 -0.6016
  875MPD2    C412836   2.713   2.489  14.932  0.2078  0.4068  0.2335
  875MPD2    C512837   2.780   2.467  14.814 -0.0216  0.3530 -0.5105
  875MPD2     H12838   2.397   2.479  14.811  0.7289  0.8877 -2.3304
  875MPD2    H112839   2.767   2.515  15.022  0.6701 -2.1094  0.6838
  875MPD2    H212840   2.774   2.367  14.630 -0.8572  2.3979 -2.2958
  875MPD2    H312841   2.885   2.440  14.818  0.1458  0.8822 -1.4476
  875MPD2     N12842   2.514   2.547  15.054  0.1749  0.0841 -0.0212
  875MPD2    H512843   2.573   2.578  15.131  1.7944  0.4055 -1.3778
  875MPD2    N112844   2.490   2.380  14.589  0.3685 -0.0008 -0.5706
  875MPD2    H712845   2.390   2.396  14.589 -0.4588 -5.0668  2.5251
  876MPD2     C12846   1.214   3.920  15.584 -0.2550  0.3933  0.2234
  876MPD2    C112847   1.355   3.887  15.591  0.1136 -0.4386  0.8363
  876MPD2    C212848   1.385   3.791  15.681  0.0767 -0.1714  0.9749
  876MPD2    C312849   1.295   3.727  15.767  0.1030  0.3601 -0.1872
  876MPD2    C412850   1.165   3.759  15.750  0.2534 -0.2545  0.2866
  876MPD2    C512851   1.122   3.851  15.652 -0.7763 -0.3796 -0.4579
  876MPD2     H12852   1.489   3.763  15.689 -0.2117 -1.6616 -0.4252
  876MPD2    H112853   1.085   3.719  15.811  0.9585 -1.8342  0.1904
  876MPD2    H212854   1.168   4.001  15.528  0.2995 -0.1338 -0.9867
  876MPD2    H312855   1.017   3.876  15.643 -0.2613  1.4471 -1.4358
  876MPD2     N12856   1.340   3.637  15.862 -0.0611 -0.3516  0.2815
  876MPD2    H512857   1.421   3.584  15.832 -0.9290 -1.0861 -0.7541
  876MPD2    N112858   1.446   3.966  15.511 -0.2429  0.0110  0.1753
  876MPD2    H712859   1.406   4.041  15.453 -1.8702 -0.8773  0.1407
  877MPD2     C12860   1.182   4.299  15.132  1.0281  0.1691  0.4442
  877MPD2    C112861   1.303   4.336  15.073  0.1698 -0.3350 -0.0258
  877MPD2    C212862   1.296   4.409  14.954 -0.6108  0.4480 -0.2441
  877MPD2    C312863   1.178   4.454  14.898  0.0718  0.5705  0.1299
  877MPD2    C412864   1.062   4.407  14.957  0.1655  0.3466 -0.5164
  877MPD2    C512865   1.063   4.340  15.075  0.0387  0.2694  0.4574
  877MPD2     H12866   1.391   4.431  14.907 -0.4019 -0.5134 -0.2752
  877MPD2    H112867   0.970   4.444  14.913 -0.9592 -2.2216 -0.3212
  877MPD2    H212868   1.171   4.252  15.229  1.7129  0.7608  0.8062
  877MPD2    H312869   0.967   4.324  15.124 -0.6376  0.1949 -0.8989
  877MPD2     N12870   1.164   4.533  14.780  0.3634  0.4956  0.0335
  877MPD2    H512871   1.069   4.546  14.747  0.2380 -0.7131 -0.0735
  877MPD2    N112872   1.427   4.314  15.127 -0.0670 -0.3502  0.0476
  877MPD2    H712873   1.513   4.344  15.083  1.1488 -0.4264  2.3875
  878MPD2     C12874   1.500   3.239  12.929 -0.4633 -0.0590 -0.3818
  878MPD2    C112875   1.465   3.375  12.909 -0.0776 -0.8356  0.6218
  878MPD2    C212876   1.467   3.455  13.022 -0.8454  0.2098  0.3533
  878MPD2    C312877   1.507   3.416  13.148 -0.3459  0.0934  0.3261
  878MPD2    C412878   1.552   3.278  13.166 -0.2326  0.3207  0.2117
  878MPD2    C512879   1.531   3.194  13.056  0.4705  0.6318  0.2799
  878MPD2     H12880   1.450   3.562  13.015  1.2062  0.6228  1.5339
  878MPD2    H112881   1.582   3.242  13.264  1.7948  0.4925 -0.3471
  878MPD2    H212882   1.485   3.170  12.847 -1.4630  0.3847 -0.5689
  878MPD2    H312883   1.552   3.088  13.064 -1.3816  0.3630  1.5840
  878MPD2     N12884   1.524   3.513  13.249  0.1540 -0.1947  0.4640
  878MPD2    H512885   1.469   3.598  13.241  2.1573  1.3388  2.8424
  878MPD2    N112886   1.422   3.421  12.782  0.0498  0.2409  0.1615
  878MPD2    H712887   1.425   3.346  12.714  1.6668  1.1951 -0.8130
  879MPD2     C12888   1.549   0.025   0.166  1.0936 -0.4829  0.5313
  879MPD2    C112889   1.501   4.648   0.253  0.4833 -0.3568  0.0716
  879MPD2    C212890   1.450   4.526   0.204 -0.0549  0.4187  0.2102
  879MPD2    C312891   1.465   4.488   0.073 -0.2128 -0.2826 -0.6860
  879MPD2    C412892   1.522   4.580  17.677 -0.2424 -0.0267  0.5235
  879MPD2    C512893   1.554   4.705   0.035  1.1566 -0.3682  1.0161
  879MPD2     H12894   1.407   4.452   0.270  1.8785 -2.3345 -1.5931
  879MPD2    H112895   1.554   4.562  17.575  1.2054 -0.0672  0.9866
  879MPD2    H212896   1.591   0.119   0.202  1.5712  1.1090 -4.1842
  879MPD2    H312897   1.598   0.042  17.643 -0.0981  0.1760  0.7275
  879MPD2     N12898   1.439   4.354   0.029 -0.3258 -0.0152 -0.6904
  879MPD2    H512899   1.475   4.325  17.627  1.0022 -0.4117 -0.0368
  879MPD2    N112900   1.501   4.675   0.386 -0.5137  0.0057  0.2626
  879MPD2    H712901   1.533   0.048   0.406  1.7326 -0.2851 -1.9089
  880MPD2     C12902   2.985   1.610   0.885 -0.0071 -0.1457 -0.6297
  880MPD2    C112903   2.894   1.708   0.929 -0.2794 -0.5582 -0.0632
  880MPD2    C212904   2.800   1.673   1.031 -0.6140 -0.0107  0.0704
  880MPD2    C312905   2.779   1.533   1.061  0.0578 -0.1496 -0.0532
  880MPD2    C412906   2.871   1.441   1.013  0.5786  0.8282 -0.1536
  880MPD2    C512907   2.974   1.480   0.927 -0.2992 -0.1891 -0.0840
  880MPD2     H12908   2.742   1.756   1.069 -0.8803  0.4431 -1.2999
  880MPD2    H112909   2.869   1.339   1.049  1.1978  1.0088  0.3875
  880MPD2    H212910   3.052   1.635   0.804 -1.2904  2.0646 -1.0237
  880MPD2    H312911   3.054   1.412   0.903 -0.7942 -1.3320  1.5338
  880MPD2     N12912   2.676   1.508   1.153  0.3994 -0.4357  1.1888
  880MPD2    H512913   2.649   1.580   1.219 -0.2931  0.3218  0.0730
  880MPD2    N112914   2.902   1.836   0.868  0.1603  0.3971  0.0719
  880MPD2    H712915   2.964   1.845   0.788  0.0488 -0.3888 -0.0991
  881MPD2     C12916   2.474   1.745   0.094  0.4886 -0.4263 -0.2457
  881MPD2    C112917   2.531   1.870   0.072 -0.7469 -0.0471  0.1530
  881MPD2    C212918   2.588   1.937   0.185  0.1007 -0.0841 -1.4545
  881MPD2    C312919   2.576   1.879   0.311  0.4598 -0.3145 -0.6010
  881MPD2    C412920   2.499   1.766   0.328  0.0540  0.6630  0.5535
  881MPD2    C512921   2.456   1.703   0.217 -0.0954 -0.2335 -0.0939
  881MPD2     H12922   2.638   2.032   0.170 -0.7813  0.5606 -0.2947
  881MPD2    H112923   2.472   1.720   0.422 -0.1711 -0.6145 -0.1435
  881MPD2    H212924   2.444   1.680   0.012  1.6144 -1.1759 -0.0725
  881MPD2    H312925   2.404   1.609   0.229  0.5027 -0.3899  1.1919
  881MPD2     N12926   2.615   1.937   0.430 -0.0684  0.7802 -0.1893
  881MPD2    H512927   2.555   1.913   0.508  1.4449 -0.2595  0.6590
  881MPD2    N112928   2.563   1.896  17.625 -0.4484 -0.3853  0.3833
  881MPD2    H712929   2.528   1.822  17.564 -0.7719 -0.3870  0.5706
  882MPD2     C12930   1.035   4.375  13.956  0.1447 -0.3764  0.8782
  882MPD2    C112931   0.983   4.399  14.085 -0.2580  0.0903 -0.6356
  882MPD2    C212932   0.864   4.331  14.119 -0.1402  0.2071  0.4846
  882MPD2    C312933   0.812   4.237  14.034 -0.1822 -0.1219 -0.2682
  882MPD2    C412934   0.872   4.221  13.911 -0.0375  0.1548 -0.2301
  882MPD2    C512935   0.982   4.282  13.874 -1.1129 -0.4100  0.4736
  882MPD2     H12936   0.825   4.335  14.220 -0.1801  2.0917  0.4030
  882MPD2    H112937   0.841   4.155  13.831 -0.4787 -0.6273  0.5885
  882MPD2    H212938   1.127   4.411  13.911  1.1581 -1.1803  2.3069
  882MPD2    H312939   1.027   4.264  13.777 -1.4383 -0.3682  0.3133
  882MPD2     N12940   0.699   4.160  14.059  0.1228  0.2835  0.1329
  882MPD2    H512941   0.678   4.092  13.987 -1.9937 -0.6340  1.6139
  882MPD2    N112942   1.061   4.475  14.176  0.6342  0.5614  0.7589
  882MPD2    H712943   1.145   4.516  14.137  0.3918 -0.2232 -0.6033
  883MPD2     C12944   2.949   3.913  16.661 -0.8920  0.2341  0.3279
  883MPD2    C112945   3.030   3.946  16.553 -0.0188  0.6650  1.2819
  883MPD2    C212946   3.167   3.962  16.588  0.2702  0.7952 -0.2003
  883MPD2    C312947   3.213   3.952  16.717  0.9081  0.4725 -0.0471
  883MPD2    C412948   3.132   3.912  16.818  0.6334  0.1410  0.2696
  883MPD2    C512949   3.003   3.889  16.784  0.6288  0.5332  0.0881
  883MPD2     H12950   3.232   4.007  16.513 -0.1242  1.7890  0.0516
  883MPD2    H112951   3.164   3.891  16.919  0.5363 -0.8706  0.0883
  883MPD2    H212952   2.846   3.884  16.642 -0.3368 -0.3154 -1.8602
  883MPD2    H312953   2.941   3.853  16.865  0.7993  0.8391  0.3576
  883MPD2     N12954   3.351   3.987  16.736 -0.0461  0.2939  0.6359
  883MPD2    H512955   3.408   3.995  16.653  0.1296 -0.4364  0.6850
  883MPD2    N112956   2.982   3.965  16.419  0.1405  0.6374 -0.0543
  883MPD2    H712957   3.062   3.979  16.358 -0.1669  2.0097 -0.1564
  884MPD2     C12958   0.373   4.305  15.831 -0.3157 -0.6056  0.8106
  884MPD2    C112959   0.389   4.419  15.758  0.6757  0.1394 -0.2983
  884MPD2    C212960   0.288   4.487  15.711  1.6485 -0.1633 -0.3178
  884MPD2    C312961   0.163   4.449  15.742 -0.8037  0.1880  0.4965
  884MPD2    C412962   0.142   4.332  15.808 -0.1517 -0.2722 -0.4518
  884MPD2    C512963   0.244   4.256  15.857  0.8154 -0.0030  0.4950
  884MPD2     H12964   0.304   4.578  15.655  1.5462  0.2844  0.3878
  884MPD2    H112965   0.044   4.303  15.845  0.2834 -1.2376 -0.0529
  884MPD2    H212966   0.453   4.246  15.874 -1.3103 -2.1741  0.4866
  884MPD2    H312967   0.219   4.171  15.918  1.1769  0.4112  1.2252
  884MPD2     N12968   0.063   4.537  15.691  0.0162  0.2674 -0.1599
  884MPD2    H512969   0.088   4.618  15.634 -1.9365  0.2302 -1.0612
  884MPD2    N112970   0.517   4.486  15.744 -0.4622 -0.2110  0.6450
  884MPD2    H712971   0.521   4.583  15.712  0.5722 -1.0741 -1.8862
  885MPD2     C12972   2.959   0.283   0.576 -0.4051 -0.3103 -0.2660
  885MPD2    C112973   3.087   0.306   0.545 -0.1949 -0.2749 -1.0457
  885MPD2    C212974   3.125   0.327   0.411 -0.0849  0.4790  0.3136
  885MPD2    C312975   3.031   0.311   0.320 -0.4235  0.0727  0.7212
  885MPD2    C412976   2.892   0.293   0.354 -0.3134  0.7035  0.8985
  885MPD2    C512977   2.862   0.296   0.482 -0.4243  0.7082 -0.3570
  885MPD2     H12978   3.229   0.341   0.384  0.4426 -0.3729  1.9643
  885MPD2    H112979   2.811   0.282   0.282 -0.6943  0.6175  1.3436
  885MPD2    H212980   2.926   0.273   0.678 -0.3538  0.6745 -0.1562
  885MPD2    H312981   2.759   0.294   0.517 -0.7056  2.0098 -1.0964
  885MPD2     N12982   3.071   0.335   0.180  0.8596 -0.3252 -0.1089
  885MPD2    H512983   3.169   0.361   0.176  0.5111  0.8792 -0.6249
  885MPD2    N112984   3.172   0.312   0.655 -0.0864  0.5102 -0.4973
  885MPD2    H712985   3.125   0.288   0.742 -0.1957  0.0097 -0.6940
  886MPD2     C12986   4.589   2.977  15.294  0.2679 -0.7461  0.4014
  886MPD2    C112987   4.698   3.030  15.362 -0.0979 -0.1853  0.3814
  886MPD2    C212988   0.009   3.167  15.361  0.3355 -0.9567 -0.0086
  886MPD2    C312989   4.644   3.261  15.298 -0.4137  0.0304  0.0616
  886MPD2    C412990   4.530   3.203  15.246  0.4241  0.5335  0.3114
  886MPD2    C512991   4.499   3.070  15.242 -0.4549 -0.4902  0.2865
  886MPD2     H12992   0.096   3.209  15.410 -2.1622  4.1265  0.0561
  886MPD2    H112993   4.456   3.271  15.206  1.5460  1.7535  0.3412
  886MPD2    H212994   4.558   2.874  15.305  0.5908 -1.1001 -1.9356
  886MPD2    H312995   4.405   3.046  15.193 -0.0675 -1.2593 -0.0944
  886MPD2     N12996   4.677   3.397  15.286  0.7786  0.2543  0.0827
  886MPD2    H512997   4.615   3.465  15.244 -0.7370  0.0582  2.0027
  886MPD2    N112998   0.074   2.952  15.427 -0.2471 -0.2161  0.9137
  886MPD2    H712999   0.142   3.003  15.482  1.6877  0.0539 -1.7424
  887MPD2     C13000   0.747   2.984  15.627 -0.1639  0.2732 -0.0322
  887MPD2    C113001   0.619   3.027  15.626  0.2421 -0.2939 -0.2170
  887MPD2    C213002   0.587   3.158  15.635 -0.4408 -0.3939 -0.3741
  887MPD2    C313003   0.689   3.253  15.656  0.1470  0.3519  0.4560
  887MPD2    C413004   0.816   3.210  15.655  0.0952  0.3829 -0.7206
  887MPD2    C513005   0.853   3.076  15.634  0.3318  0.2760 -0.6620
  887MPD2     H13006   0.483   3.188  15.637 -0.7959 -1.6053 -0.9253
  887MPD2    H113007   0.902   3.273  15.675 -0.3404  0.3881  1.1758
  887MPD2    H213008   0.783   2.882  15.628 -1.0506 -0.0399  0.0729
  887MPD2    H313009   0.958   3.047  15.636  0.7440  1.8041  0.2247
  887MPD2     N13010   0.646   3.394  15.671 -0.0392 -0.4382 -0.3832
  887MPD2    H513011   0.548   3.418  15.669 -0.8315 -3.6608 -0.3033
  887MPD2    N113012   0.511   2.938  15.608 -0.4840  0.6386 -0.1244
  887MPD2    H713013   0.416   2.972  15.598  0.0540  2.3580  0.6337
  888MPD2     C13014   2.832   3.582  15.478  0.4153  0.2534  0.5588
  888MPD2    C113015   2.732   3.631  15.392  0.1057  0.0144 -0.0106
  888MPD2    C213016   2.761   3.760  15.352 -0.0087 -0.7764  0.7956
  888MPD2    C313017   2.859   3.842  15.404  0.1479  0.0894  0.0084
  888MPD2    C413018   2.939   3.794  15.503 -0.4573  0.4396 -0.1581
  888MPD2    C513019   2.917   3.665  15.545  0.1280 -0.6755 -0.1230
  888MPD2     H13020   2.698   3.807  15.278  3.3682  1.3265 -0.7379
  888MPD2    H113021   3.007   3.849  15.567 -0.4238  1.0238 -0.7037
  888MPD2    H213022   2.826   3.485  15.526 -0.7077  0.1544  0.2091
  888MPD2    H313023   2.967   3.615  15.628 -1.1016 -2.5867 -0.5349
  888MPD2     N13024   2.863   3.978  15.360  0.5300  0.5472  0.5015
  888MPD2    H513025   2.784   4.012  15.306  0.1444  0.7083  1.1723
  888MPD2    N113026   2.612   3.580  15.354 -0.3664  0.0233  0.3576
  888MPD2    H713027   2.552   3.633  15.292 -3.3097 -2.1158  1.3276
  889MPD2     C13028   1.651   2.540  12.474  0.0090 -0.1582 -0.4733
  889MPD2    C113029   1.761   2.599  12.530 -0.4164  0.2809  0.4129
  889MPD2    C213030   1.776   2.732  12.515 -0.8569  0.5046 -1.2526
  889MPD2    C313031   1.711   2.807  12.414 -0.3217 -0.2825  0.7836
  889MPD2    C413032   1.615   2.737  12.343 -0.0171 -0.9098 -0.1953
  889MPD2    C513033   1.589   2.605  12.368 -0.1213 -0.3873 -0.7577
  889MPD2     H13034   1.850   2.788  12.570 -0.2528  0.5266 -2.0775
  889MPD2    H113035   1.570   2.786  12.258 -1.5863  1.5890  2.0627
  889MPD2    H213036   1.624   2.435  12.480  1.0949 -0.4629 -0.8771
  889MPD2    H313037   1.514   2.551  12.313 -1.3296  1.0544 -0.5027
  889MPD2     N13038   1.736   2.944  12.401 -0.5764 -0.1227 -0.1799
  889MPD2    H513039   1.812   2.975  12.462 -1.5698  0.1556  0.9066
  889MPD2    N113040   1.815   2.532  12.644  0.3276 -0.4820 -0.3463
  889MPD2    H713041   1.766   2.447  12.672 -0.0161 -0.5784 -1.2302
  890MPD2     C13042   0.967   0.114  14.833  0.1437 -0.2291 -0.0172
  890MPD2    C113043   1.092   0.162  14.866  0.8123 -0.0998  0.8815
  890MPD2    C213044   1.142   0.123  14.986 -0.3743 -0.3236 -0.0989
  890MPD2    C313045   1.071   0.043  15.074 -0.2864 -0.5243  0.2371
  890MPD2    C413046   0.939   0.015  15.049  0.0771  0.0897 -0.1531
  890MPD2    C513047   0.888   0.048  14.926  0.2078 -0.0100 -0.0407
  890MPD2     H13048   1.243   0.154  15.010 -0.2886 -1.3496  0.8445
  890MPD2    H113049   0.875   4.672  15.108 -1.0682  0.7600 -0.6617
  890MPD2    H213050   0.916   0.154  14.747  1.7086  2.0137  0.1062
  890MPD2    H313051   0.789   0.010  14.904 -0.7370  2.8288 -0.7107
  890MPD2     N13052   1.149   0.001  15.185 -0.4517  0.0314  0.1849
  890MPD2    H513053   1.243   0.039  15.188  0.1861 -1.5440  0.1891
  890MPD2    N113054   1.150   0.262  14.787 -0.4329  0.2668 -0.0774
  890MPD2    H713055   1.114   0.277  14.693 -1.1597 -0.8467  0.0375
  891MPD2     C13056   4.121   2.805  16.426 -0.1069  0.3007 -0.6819
  891MPD2    C113057   4.059   2.889  16.518 -0.3174 -0.9578  0.4475
  891MPD2    C213058   4.097   2.876  16.655 -0.0713 -0.3557 -0.7519
  891MPD2    C313059   4.187   2.782  16.699  0.0798 -0.1997 -0.0236
  891MPD2    C413060   4.234   2.699  16.601  0.1284  0.1448  0.4815
  891MPD2    C513061   4.198   2.706  16.467 -0.4634  0.1676 -0.1433
  891MPD2     H13062   4.070   2.953  16.727  1.1626 -1.1928  0.6386
  891MPD2    H113063   4.305   2.619  16.619  2.0195  2.5425  3.7162
  891MPD2    H213064   4.092   2.807  16.321  1.7850 -0.7250 -1.2065
  891MPD2    H313065   4.259   2.645  16.400 -0.8830  0.6701 -0.9816
  891MPD2     N13066   4.214   2.779  16.838 -0.4756 -0.8277 -0.1636
  891MPD2    H513067   4.167   2.849  16.895 -1.1233 -1.1017 -0.3589
  891MPD2    N113068   3.965   2.990  16.481 -0.7553 -0.7345 -0.2243
  891MPD2    H713069   3.963   3.006  16.380 -0.3476  2.2298  0.2590
  892MPD2     C13070   0.404   4.012  14.979 -0.0119 -0.5611  0.1187
  892MPD2    C113071   0.303   4.039  14.897  0.0184  1.0152 -0.4573
  892MPD2    C213072   0.311   4.017  14.763  0.3075  0.4697 -0.2234
  892MPD2    C313073   0.432   3.995  14.715 -0.1505 -0.0061 -0.1243
  892MPD2    C413074   0.539   3.986  14.797 -0.1327  0.1718  0.5555
  892MPD2    C513075   0.522   3.985  14.928  0.7621 -0.4276 -0.2177
  892MPD2     H13076   0.229   4.037  14.695 -0.3719  1.9104  1.0072
  892MPD2    H113077   0.640   3.976  14.761 -0.1164  0.1927  0.5957
  892MPD2    H213078   0.389   4.017  15.087 -2.7992  1.6621 -0.3819
  892MPD2    H313079   0.612   3.987  14.989  0.3345 -0.6287  0.4145
  892MPD2     N13080   0.453   3.973  14.583 -0.7277 -0.1801  0.0052
  892MPD2    H513081   0.550   3.970  14.553 -0.6943  0.9714  0.0143
  892MPD2    N113082   0.178   4.078  14.947  0.7831  0.0753  0.7216
  892MPD2    H713083   0.108   4.101  14.877  1.0628 -1.0322  0.0744
  893MPD2     C13084   3.873   2.002   1.490  0.1089 -0.1042 -0.3217
  893MPD2    C113085   3.779   1.984   1.590  0.5907 -0.1725 -0.8883
  893MPD2    C213086   3.795   1.868   1.666  0.0968 -0.3294 -0.0770
  893MPD2    C313087   3.897   1.780   1.646 -0.0671 -0.3891 -0.3872
  893MPD2    C413088   3.990   1.798   1.542  0.0517  1.1970  0.2554
  893MPD2    C513089   3.979   1.916   1.477 -0.2362  0.4597 -0.0981
  893MPD2     H13090   3.727   1.841   1.746  0.9549  0.2954  0.8700
  893MPD2    H113091   4.065   1.724   1.516  0.1145  1.5412 -0.5277
  893MPD2    H213092   3.868   2.084   1.418 -0.2900  0.3226  0.1944
  893MPD2    H313093   4.055   1.931   1.401  0.2049 -1.3092 -0.0129
  893MPD2     N13094   3.916   1.655   1.710  0.5305  0.0430 -0.2266
  893MPD2    H513095   3.989   1.593   1.676  1.2902  1.3178 -0.9361
  893MPD2    N113096   3.674   2.072   1.613  0.0003 -0.2340  0.2033
  893MPD2    H713097   3.624   2.047   1.698  0.7237  0.4364  0.8343
  894MPD2     C13098   4.428   0.701   1.066 -0.1800 -0.6293 -0.4213
  894MPD2    C113099   4.483   0.694   1.195 -0.1013 -0.1736 -0.3425
  894MPD2    C213100   4.557   0.803   1.238 -0.9927  0.2555 -0.4651
  894MPD2    C313101   4.602   0.899   1.148 -0.1653  0.2631  0.4613
  894MPD2    C413102   4.554   0.897   1.018 -0.2068 -0.0652 -1.0746
  894MPD2    C513103   4.464   0.798   0.981 -0.3377  0.4244  0.5884
  894MPD2     H13104   4.601   0.814   1.336  0.8335 -0.7333 -1.1735
  894MPD2    H113105   4.579   0.969   0.941  1.5658  1.5384  0.9800
  894MPD2    H213106   4.357   0.629   1.024  0.6370  0.2132 -3.2112
  894MPD2    H313107   4.429   0.800   0.878 -0.7301  1.7024  0.7465
  894MPD2     N13108   4.681   1.001   1.204 -0.8536 -0.2154  0.0141
  894MPD2    H513109   4.680   0.999   1.305  1.8670  2.3541  0.0764
  894MPD2    N113110   4.447   0.590   1.287 -0.3640  0.1827  0.1835
  894MPD2    H713111   4.488   0.593   1.380  0.2929  0.2301 -0.1101
  895MPD2     C13112   4.394   3.427  13.829 -0.4923 -0.5366 -0.6643
  895MPD2    C113113   4.375   3.427  13.690 -0.1171 -0.5372 -0.5903
  895MPD2    C213114   4.473   3.371  13.607  0.4054 -0.3603 -0.1460
  895MPD2    C313115   4.578   3.300  13.657  0.3600  0.2683 -0.0086
  895MPD2    C413116   4.596   3.300  13.791  0.5389 -0.1148 -0.0158
  895MPD2    C513117   4.514   3.371  13.873  0.0229  0.1276  0.0940
  895MPD2     H13118   4.439   3.372  13.504 -0.1370 -0.0126  0.0294
  895MPD2    H113119   4.687   3.267  13.840  0.3254  0.2620  0.6457
  895MPD2    H213120   4.325   3.466  13.903  0.4504 -0.2952  0.0837
  895MPD2    H313121   4.533   3.376  13.979  4.3189 -1.2986 -0.5912
  895MPD2     N13122   4.648   3.229  13.565  0.2720 -0.0120 -1.0764
  895MPD2    H513123   4.631   3.246  13.466  1.1648  1.3049 -0.9986
  895MPD2    N113124   4.259   3.480  13.632  0.1048  0.5090 -0.0290
  895MPD2    H713125   4.244   3.493  13.532  0.6739  2.8400  0.1720
  896MPD2     C13126   1.434   1.454   1.841  0.0626 -0.5068 -1.0663
  896MPD2    C113127   1.485   1.358   1.753 -0.0942  0.0615  0.2747
  896MPD2    C213128   1.411   1.241   1.711 -0.4864 -0.4614  0.0753
  896MPD2    C313129   1.273   1.240   1.735 -0.8185 -0.0230 -0.5993
  896MPD2    C413130   1.227   1.342   1.819  0.2288 -0.1121 -0.3646
  896MPD2    C513131   1.300   1.453   1.865  0.1299  0.0801 -0.0788
  896MPD2     H13132   1.463   1.155   1.669  0.0064 -0.1573  0.0624
  896MPD2    H113133   1.124   1.344   1.854  0.2211 -0.9817 -0.3261
  896MPD2    H213134   1.495   1.537   1.875  2.5660 -3.1612  0.8921
  896MPD2    H313135   1.267   1.517   1.946 -0.9475 -1.1544  0.4485
  896MPD2     N13136   1.183   1.138   1.682 -0.1617  0.3678  0.4827
  896MPD2    H513137   1.213   1.060   1.625 -0.4152  1.5621 -1.2889
  896MPD2    N113138   1.624   1.378   1.730 -0.4426 -0.3912  0.5588
  896MPD2    H713139   1.665   1.446   1.793 -1.0495  1.7063 -1.2896
  897MPD2     C13140   3.465   2.710  10.769 -0.2257  0.1839  0.5147
  897MPD2    C113141   3.426   2.609  10.852  0.1222 -0.5222 -0.0960
  897MPD2    C213142   3.298   2.574  10.870 -0.7181  0.3721 -0.0772
  897MPD2    C313143   3.199   2.632  10.804  0.1581  0.3266  0.7723
  897MPD2    C413144   3.234   2.728  10.714  0.4620  0.3771 -0.0008
  897MPD2    C513145   3.363   2.771  10.704  0.6582 -0.5698  0.3300
  897MPD2     H13146   3.261   2.491  10.930 -1.0763  0.5613 -0.0359
  897MPD2    H113147   3.175   2.781  10.641 -2.6080 -0.2988  2.0041
  897MPD2    H213148   3.566   2.738  10.740 -0.3654  0.9591  0.7735
  897MPD2    H313149   3.382   2.856  10.639 -1.1523  0.2929  0.9508
  897MPD2     N13150   3.066   2.580  10.824 -0.0965 -0.2615 -0.0899
  897MPD2    H513151   3.054   2.501  10.887  1.4318  0.0659  0.6120
  897MPD2    N113152   3.531   2.530  10.905 -0.2160 -0.4326  0.6860
  897MPD2    H713153   3.512   2.434  10.930 -0.1980 -1.0924 -1.8321
  898MPD2     C13154   4.503   3.863   0.165 -0.4318  0.2665  0.2718
  898MPD2    C113155   4.554   3.831   0.043  0.0540  0.2613  0.8631
  898MPD2    C213156   4.532   3.912  17.612 -0.4090  0.4893  0.2775
  898MPD2    C313157   4.451   4.028  17.631  0.6746 -0.8047 -1.0381
  898MPD2    C413158   4.395   4.051   0.067  0.1295  0.0359  0.2260
  898MPD2    C513159   4.421   3.965   0.171 -0.3011 -0.0272 -0.4658
  898MPD2     H13160   4.575   3.882  17.517 -0.5214  1.4664 -0.0818
  898MPD2    H113161   4.325   4.133   0.080 -1.9037 -1.6130 -0.3931
  898MPD2    H213162   4.522   3.802   0.252 -0.2021  0.7531  0.5572
  898MPD2    H313163   4.361   3.979   0.260  1.1821  2.9701  0.0980
  898MPD2     N13164   4.432   4.103  17.517  1.1253 -0.1782  0.1842
  898MPD2    H513165   4.472   4.066  17.431 -1.6136 -1.2906 -0.6016
  898MPD2    N113166   4.621   3.707   0.019  0.2361 -0.0905 -0.4366
  898MPD2    H713167   4.670   3.702  17.618 -2.0406  0.9327 -1.7706
  899MPD2     C13168   1.012   4.134  17.583 -0.0749 -0.4445 -0.0657
  899MPD2    C113169   0.990   4.226  17.683 -0.1391 -0.9969 -0.0893
  899MPD2    C213170   0.890   4.212   0.089 -1.0485  0.3838 -0.1752
  899MPD2    C313171   0.812   4.104   0.082 -0.7791  0.0416  0.3805
  899MPD2    C413172   0.842   4.009  17.672  0.1480 -0.3109  0.4763
  899MPD2    C513173   0.938   4.024  17.576  0.4020  0.3158 -0.0510
  899MPD2     H13174   0.866   4.298   0.150 -0.2355  0.8326 -0.4815
  899MPD2    H113175   0.782   3.919  17.670 -1.3319  0.7011 -0.1923
  899MPD2    H213176   1.079   4.148  17.499  1.5686 -0.0082  1.3039
  899MPD2    H313177   0.951   3.944  17.504 -0.6706  0.2906 -0.2150
  899MPD2     N13178   0.700   4.081   0.164  0.1068  0.1385 -0.3035
  899MPD2    H513179   0.644   4.002   0.133  0.2611 -0.2464  0.3904
  899MPD2    N113180   1.046   4.359  17.659  0.5455 -0.1389 -0.1509
  899MPD2    H713181   1.080   4.383  17.566  0.5622 -1.6947 -0.5521
  900MPD2     C13182   1.045   1.184  12.409 -0.4788  0.4620 -0.4215
  900MPD2    C113183   1.003   1.120  12.294  0.5989 -0.0372 -0.5040
  900MPD2    C213184   0.883   1.161  12.250  0.1145 -0.6451  1.0936
  900MPD2    C313185   0.792   1.243  12.315  0.2860  0.6254 -0.2523
  900MPD2    C413186   0.834   1.302  12.431  0.0860 -0.2223 -0.4452
  900MPD2    C513187   0.958   1.266  12.473  0.8243 -0.5327 -0.1571
  900MPD2     H13188   0.829   1.115  12.168  1.9648  2.3666 -1.8206
  900MPD2    H113189   0.764   1.339  12.505 -0.9796 -0.2597 -1.4315
  900MPD2    H213190   1.140   1.155  12.451 -0.3332  0.8081 -0.5179
  900MPD2    H313191   0.996   1.303  12.568 -1.5014 -0.3004  0.6898
  900MPD2     N13192   0.668   1.274  12.249 -0.0291 -0.2813  0.2398
  900MPD2    H513193   0.643   1.215  12.170  1.0647 -0.2356 -0.1350
  900MPD2    N113194   1.088   1.029  12.228 -0.2704 -0.1619 -0.4420
  900MPD2    H713195   1.174   1.005  12.278 -0.0449 -1.2201 -1.3477
  901MPD2     C13196   1.025   0.103  11.703 -0.2534 -0.4146  0.8172
  901MPD2    C113197   1.016   0.090  11.844  0.6495 -0.0242  0.7236
  901MPD2    C213198   1.064   0.203  11.907 -0.2419 -0.1368  0.0909
  901MPD2    C313199   1.093   0.324  11.838 -0.6797 -0.4603 -0.2339
  901MPD2    C413200   1.088   0.334  11.704  0.5678 -0.5689 -0.5371
  901MPD2    C513201   1.049   0.223  11.638  0.2011 -0.4116  0.8754
  901MPD2     H13202   1.090   0.198  12.012  1.3507 -0.8435 -0.3482
  901MPD2    H113203   1.109   0.427  11.654 -0.1573 -0.0323  0.1579
  901MPD2    H213204   1.007   0.013  11.645  1.6748  0.7737 -1.5914
  901MPD2    H313205   1.033   0.235  11.531 -1.5188  1.9286  1.3882
  901MPD2     N13206   1.143   0.433  11.918 -0.1260 -0.0793  0.0131
  901MPD2    H513207   1.148   0.425  12.019 -1.3683 -0.3706  0.0541
  901MPD2    N113208   0.970   4.692  11.901 -0.3962  0.4986  0.0843
  901MPD2    H713209   0.958   4.606  11.850  0.7003  1.0745 -1.1407
  902MPD2     C13210   3.523   3.499  12.374  0.5949 -0.1337 -0.3681
  902MPD2    C113211   3.610   3.545  12.466 -0.3383  0.1042 -0.4634
  902MPD2    C213212   3.750   3.528  12.449 -0.2208 -0.2426 -0.2495
  902MPD2    C313213   3.799   3.452  12.339  0.1507  0.1483  0.2721
  902MPD2    C413214   3.705   3.395  12.253 -0.5090  0.4948 -0.0231
  902MPD2    C513215   3.578   3.423  12.270 -0.1183 -0.2034 -0.5017
  902MPD2     H13216   3.819   3.561  12.527 -0.1337 -1.4760  0.1863
  902MPD2    H113217   3.740   3.328  12.176 -0.2548  1.6778 -0.9390
  902MPD2    H213218   3.418   3.520  12.385  0.5242 -0.7921  0.2707
  902MPD2    H313219   3.507   3.369  12.208 -1.1236 -0.4980  0.9170
  902MPD2     N13220   3.933   3.419  12.321  0.1035  0.0950 -0.0585
  902MPD2    H513221   3.964   3.363  12.243 -0.6281 -0.9460  0.3947
  902MPD2    N113222   3.551   3.623  12.568  0.6529 -0.5386 -0.6130
  902MPD2    H713223   3.451   3.642  12.560  0.7842  1.0493  1.3792
  903MPD2     C13224   4.187   2.955  11.822  0.4911  0.0780 -0.4056
  903MPD2    C113225   4.121   3.047  11.897  0.1661  0.5253 -0.1299
  903MPD2    C213226   3.982   3.041  11.891  0.2778  0.0114  0.0339
  903MPD2    C313227   3.914   2.948  11.809  0.8543  0.0519  0.4819
  903MPD2    C413228   3.986   2.864  11.735 -0.5849  0.0440 -0.6189
  903MPD2    C513229   4.123   2.871  11.731  0.2077  0.2236  0.1741
  903MPD2     H13230   3.920   3.113  11.943 -1.1761 -1.7747  0.7760
  903MPD2    H113231   3.939   2.790  11.671 -1.5405  0.7874 -0.7864
  903MPD2    H213232   4.296   2.958  11.817  0.5236  1.4988  0.9991
  903MPD2    H313233   4.187   2.812  11.666 -1.1437 -0.9266 -0.1089
  903MPD2     N13234   3.766   2.939  11.804 -0.2593 -0.3197 -0.2361
  903MPD2    H513235   3.724   3.010  11.862  1.4696  1.4195 -1.1367
  903MPD2    N113236   4.191   3.140  11.973  0.2271  0.6312  0.1012
  903MPD2    H713237   4.290   3.127  11.988  0.1195  0.2372  0.4676
  904MPD2     C13238   3.959   2.605  13.454  0.0296  0.4235 -0.4100
  904MPD2    C113239   4.034   2.717  13.459 -0.1493  0.0882 -0.6145
  904MPD2    C213240   4.171   2.699  13.485 -0.0363 -0.2174 -0.6196
  904MPD2    C313241   4.224   2.565  13.497 -0.6177 -0.0764 -0.7833
  904MPD2    C413242   4.139   2.460  13.483 -0.8844  0.0901 -0.2655
  904MPD2    C513243   4.010   2.481  13.465 -0.0825  0.2436 -0.6454
  904MPD2     H13244   4.240   2.782  13.492 -1.9376  1.4625 -1.9741
  904MPD2    H113245   4.170   2.359  13.507  0.7459  0.7572  0.4785
  904MPD2    H213246   3.851   2.607  13.441 -0.0292 -1.2823 -0.2051
  904MPD2    H313247   3.945   2.394  13.457  0.8412 -0.4503 -0.6033
  904MPD2     N13248   4.362   2.558  13.538 -0.0764  0.5317  0.3907
  904MPD2    H513249   4.411   2.646  13.550 -1.1671  1.2795 -0.6202
  904MPD2    N113250   3.976   2.845  13.447  0.8034 -0.4040 -0.5502
  904MPD2    H713251   4.036   2.927  13.448 -0.6356  0.5897  2.3187
  905MPD2     C13252   4.144   3.154  12.952 -0.3044 -0.3613 -0.2613
  905MPD2    C113253   4.176   3.184  13.081  0.5417  0.1307 -0.4005
  905MPD2    C213254   4.307   3.188  13.129  0.0664 -0.6021  0.0934
  905MPD2    C313255   4.405   3.154  13.032 -0.5928 -0.1002 -0.6946
  905MPD2    C413256   4.374   3.116  12.900 -0.6720  0.4114  0.0163
  905MPD2    C513257   4.242   3.130  12.866  0.1050 -0.4175 -0.3083
  905MPD2     H13258   4.339   3.205  13.231 -2.2254  1.4612  0.4793
  905MPD2    H113259   4.451   3.090  12.829 -2.1766  0.7856 -1.7570
  905MPD2    H213260   4.045   3.142  12.909  1.0865 -3.1574 -2.6525
  905MPD2    H313261   4.207   3.113  12.765  1.0995  1.3555 -0.9385
  905MPD2     N13262   4.540   3.137  13.079 -0.8376 -0.2504 -0.6150
  905MPD2    H513263   4.609   3.106  13.012 -0.4400  0.3801 -0.4968
  905MPD2    N113264   4.072   3.193  13.175  0.1709  0.7702 -0.2885
  905MPD2    H713265   3.977   3.189  13.139  0.1190 -2.2215  0.2517
  906MPD2     C13266   1.736   2.500  11.074  0.5618 -0.6756  0.8377
  906MPD2    C113267   1.713   2.393  10.994 -0.3284 -0.0159 -0.8113
  906MPD2    C213268   1.679   2.273  11.042  0.0211 -0.7962  0.3215
  906MPD2    C313269   1.656   2.257  11.177  0.2680 -0.3047 -0.3923
  906MPD2    C413270   1.682   2.362  11.265 -0.5132  0.0926 -0.0325
  906MPD2    C513271   1.727   2.482  11.213 -0.0651  0.7647 -0.8592
  906MPD2     H13272   1.661   2.185  10.981 -1.5182 -1.4827  1.8047
  906MPD2    H113273   1.668   2.358  11.372 -3.1750 -0.8809 -0.4250
  906MPD2    H213274   1.758   2.597  11.032  0.8696 -0.8314  0.6393
  906MPD2    H313275   1.745   2.570  11.273 -0.2781  0.7839 -0.8232
  906MPD2     N13276   1.592   2.139  11.214 -0.1605  0.1083  0.0828
  906MPD2    H513277   1.611   2.064  11.149  0.0872 -0.6726  1.0464
  906MPD2    N113278   1.724   2.398  10.851  0.0304  0.0537 -0.5248
  906MPD2    H713279   1.715   2.312  10.797 -1.4878 -1.4749  2.1844
  907MPD2     C13280   0.270   1.845  15.402  0.6232  0.0146 -0.2278
  907MPD2    C113281   0.308   1.714  15.413  1.0091 -0.4279 -0.4300
  907MPD2    C213282   0.330   1.662  15.536 -0.5789  0.9175 -0.0860
  907MPD2    C313283   0.299   1.733  15.652 -0.5610 -0.3998 -0.0649
  907MPD2    C413284   0.246   1.863  15.638  0.2513  0.0875 -0.0098
  907MPD2    C513285   0.233   1.918  15.515 -0.5560 -0.4720 -0.8202
  907MPD2     H13286   0.366   1.560  15.544 -2.1249  0.5853  2.7575
  907MPD2    H113287   0.214   1.909  15.730 -0.5630 -1.7450  0.6275
  907MPD2    H213288   0.243   1.891  15.307 -2.4258  0.7578  0.9760
  907MPD2    H313289   0.183   2.014  15.508  0.5404 -0.0074 -2.3240
  907MPD2     N13290   0.332   1.672  15.775  0.1793  0.4475  0.1518
  907MPD2    H513291   0.365   1.576  15.762  0.0491  0.3353  0.6676
  907MPD2    N113292   0.324   1.624  15.303  0.0725 -0.4579  0.0129
  907MPD2    H713293   0.347   1.528  15.323  1.1421  0.0555  1.2006
  908MPD2     C13294   3.917   1.822  10.606 -0.9594  0.3505 -0.2965
  908MPD2    C113295   3.925   1.936  10.536  0.2242  0.3921  0.0934
  908MPD2    C213296   3.927   2.057  10.604 -0.6983 -0.1473 -0.9912
  908MPD2    C313297   3.940   2.060  10.742 -0.3738 -0.3841  0.2856
  908MPD2    C413298   3.947   1.943  10.814 -0.3281 -0.1407  0.1698
  908MPD2    C513299   3.941   1.834  10.744 -0.7478 -0.1656  0.0369
  908MPD2     H13300   3.917   2.154  10.556 -0.7451  0.9314  1.1885
  908MPD2    H113301   3.964   1.935  10.921 -1.7451 -2.7121  0.2058
  908MPD2    H213302   3.913   1.721  10.567  1.2081 -0.0296  0.4165
  908MPD2    H313303   3.950   1.738  10.793 -3.1779 -0.2612  0.3023
  908MPD2     N13304   3.923   2.189  10.805 -0.5302  0.5043 -0.3468
  908MPD2    H513305   3.899   2.271  10.751  0.2082 -0.7050 -2.4956
  908MPD2    N113306   3.914   1.926  10.396  0.6867 -0.3362  0.0567
  908MPD2    H713307   3.903   1.833  10.358 -1.5446  0.5528 -1.4947
  909MPD2     C13308   3.465   0.015  11.925 -0.0094  0.1990  0.5207
  909MPD2    C113309   3.456   0.133  11.859 -0.3530  0.1496  0.4203
  909MPD2    C213310   3.354   0.220  11.882  0.2480 -0.4575 -0.0977
  909MPD2    C313311   3.260   0.188  11.979 -0.6530  0.1027  0.3568
  909MPD2    C413312   3.262   0.067  12.045  0.0724  0.6027 -0.0919
  909MPD2    C513313   3.367   4.707  12.019 -0.5414  0.7591  0.2592
  909MPD2     H13314   3.340   0.309  11.822  0.4388  0.3452  1.0395
  909MPD2    H113315   3.186   0.038  12.116  1.1115 -0.4354  0.6065
  909MPD2    H213316   3.553   4.674  11.925  0.0288  0.2509  0.8518
  909MPD2    H313317   3.387   4.617  12.077 -1.6074  1.3863  1.5916
  909MPD2     N13318   3.160   0.281  12.003 -0.0720 -0.1962  0.2595
  909MPD2    H513319   3.169   0.375  11.966 -1.7986 -0.3737 -0.5779
  909MPD2    N113320   3.546   0.183  11.764  0.2910 -0.5386 -0.6313
  909MPD2    H713321   3.534   0.282  11.748 -1.9046 -0.3308  2.4089
  910MPD2     C13322   4.088   2.315  15.801  0.6808  0.8970  0.6109
  910MPD2    C113323   4.188   2.263  15.722 -0.6969 -0.3941  0.3292
  910MPD2    C213324   4.201   2.303  15.591  0.1853 -0.0775  0.1609
  910MPD2    C313325   4.111   2.383  15.526 -0.6150 -0.1802  0.1264
  910MPD2    C413326   4.007   2.425  15.603 -0.5576  0.0681 -0.7499
  910MPD2    C513327   4.001   2.395  15.736  0.2684  0.4437 -0.2849
  910MPD2     H13328   4.284   2.259  15.536  0.4378  2.4105 -1.4062
  910MPD2    H113329   3.923   2.477  15.558 -0.3148  0.9759 -0.1466
  910MPD2    H213330   4.076   2.300  15.908  2.0291  0.3976  0.6898
  910MPD2    H313331   3.922   2.438  15.796  0.2155  0.5777 -0.4507
  910MPD2     N13332   4.132   2.427  15.393 -0.4752 -0.2834 -0.5356
  910MPD2    H513333   4.051   2.467  15.347 -0.2350 -1.6671 -2.2124
  910MPD2    N113334   4.282   2.171  15.769  0.0995 -0.4881  0.3132
  910MPD2    H713335   4.359   2.156  15.704  1.1134  3.8408  0.4820
  911MPD2     C13336   2.212   2.953  16.322  0.1608 -0.4140  0.3773
  911MPD2    C113337   2.282   3.063  16.367 -1.1880  0.0249  0.3432
  911MPD2    C213338   2.215   3.183  16.380 -0.5603  0.0450  0.9284
  911MPD2    C313339   2.085   3.192  16.340  0.2268  0.2892 -0.8338
  911MPD2    C413340   2.024   3.081  16.293 -0.7735  0.1903 -0.1163
  911MPD2    C513341   2.089   2.969  16.274  0.2262  0.3436  0.3132
  911MPD2     H13342   2.262   3.273  16.420  1.4345 -0.2203 -0.8531
  911MPD2    H113343   1.922   3.091  16.257 -1.0214 -2.7338 -0.2867
  911MPD2    H213344   2.260   2.856  16.315 -2.2597 -1.6656  1.0424
  911MPD2    H313345   2.038   2.883  16.232 -0.2739  0.8058 -0.0382
  911MPD2     N13346   2.001   3.302  16.331  0.2725 -0.0335  0.8306
  911MPD2    H513347   1.912   3.282  16.287  2.2765 -2.3087 -2.1660
  911MPD2    N113348   2.418   3.038  16.404  0.2610 -0.0171 -0.4295
  911MPD2    H713349   2.455   2.946  16.380  1.3136  0.2481  0.1891
  912MPD2     C13350   1.962   3.136  15.846  0.1752  0.8214  0.0163
  912MPD2    C113351   1.867   3.149  15.939 -0.4941  0.1099 -0.7375
  912MPD2    C213352   1.808   3.042  16.002 -0.1674  0.4935 -0.4268
  912MPD2    C313353   1.855   2.914  15.980  0.4142  0.1757 -0.2239
  912MPD2    C413354   1.953   2.903  15.885 -0.2265  0.1737 -0.0060
  912MPD2    C513355   2.009   3.013  15.822 -0.2109  0.1532  0.1951
  912MPD2     H13356   1.729   3.052  16.074 -0.5479 -0.9919 -0.6347
  912MPD2    H113357   1.991   2.805  15.856 -0.8397 -0.7535  2.3121
  912MPD2    H213358   2.003   3.217  15.787  0.1001  1.9632  1.5152
  912MPD2    H313359   2.089   3.002  15.749 -1.9030  1.0476 -1.8147
  912MPD2     N13360   1.817   2.802  16.060  0.2206 -0.0838 -0.3327
  912MPD2    H513361   1.740   2.819  16.123 -1.2705 -2.5692 -1.4639
  912MPD2    N113362   1.843   3.279  15.977 -0.0459  0.2277  0.4830
  912MPD2    H713363   1.899   3.348  15.926 -1.7985 -0.0334 -1.8163
  913MPD2     C13364   3.193   3.322  10.502  0.1345  0.0527 -0.3321
  913MPD2    C113365   3.195   3.451  10.556  0.3368  0.5758  0.3673
  913MPD2    C213366   3.167   3.555  10.466 -0.4598 -0.0988 -0.4692
  913MPD2    C313367   3.142   3.531  10.331  0.0895  0.7520  0.3654
  913MPD2    C413368   3.145   3.399  10.284 -0.7921  0.4142  0.0102
  913MPD2    C513369   3.162   3.295  10.367  0.3966 -0.0587 -0.1847
  913MPD2     H13370   3.159   3.657  10.502 -1.0624 -1.1314  2.3182
  913MPD2    H113371   3.125   3.373  10.180  2.8078 -0.9899 -0.3356
  913MPD2    H213372   3.212   3.232  10.560 -0.9854 -0.4252 -0.7225
  913MPD2    H313373   3.153   3.191  10.338  0.8305  0.3345 -1.7805
  913MPD2     N13374   3.122   3.627  10.227  0.2691  0.7625  0.3919
  913MPD2    H513375   3.097   3.595  10.134 -2.1690  1.3770  0.8459
  913MPD2    N113376   3.221   3.467  10.689  0.6590  0.6410 -0.5546
  913MPD2    H713377   3.206   3.385  10.748 -0.4814  1.8198  0.7753
  914MPD2     C13378   0.356   4.428  11.490 -0.5883  0.5677  0.0913
  914MPD2    C113379   0.473   4.494  11.477  0.0429 -1.3783 -0.5944
  914MPD2    C213380   0.564   4.477  11.581 -0.7353  0.2057 -0.5190
  914MPD2    C313381   0.539   4.407  11.697 -0.5320 -0.0567 -0.0444
  914MPD2    C413382   0.417   4.346  11.715  0.3900 -0.1507  0.0090
  914MPD2    C513383   0.329   4.361  11.609  0.6372 -0.1095  0.0820
  914MPD2     H13384   0.666   4.513  11.575 -1.2311  1.5317 -1.0645
  914MPD2    H113385   0.389   4.289  11.803 -3.4358 -0.5816 -1.5031
  914MPD2    H213386   0.274   4.437  11.419 -0.1603 -2.3234 -0.7820
  914MPD2    H313387   0.230   4.317  11.614  0.3032  0.7698  1.0830
  914MPD2     N13388   0.649   4.383  11.787 -0.0538  0.0089  0.3663
  914MPD2    H513389   0.732   4.432  11.757  1.1633 -2.7169 -0.7915
  914MPD2    N113390   0.507   4.559  11.355  0.2412 -0.4052 -0.3633
  914MPD2    H713391   0.444   4.558  11.275  0.6298  0.0581 -0.6791
  915MPD2     C13392   3.414   4.591  16.327  0.1198 -0.0641  0.2644
  915MPD2    C113393   3.295   4.553  16.269 -0.2029 -0.1901 -0.2167
  915MPD2    C213394   3.182   4.591  16.344 -0.4098  0.1407 -0.1039
  915MPD2    C313395   3.192   4.639  16.475  0.0930 -0.1947 -0.1329
  915MPD2    C413396   3.313   4.661  16.539 -0.3284 -0.3198 -0.4182
  915MPD2    C513397   3.423   4.636  16.460 -0.1592  1.0256  0.2128
  915MPD2     H13398   3.089   4.575  16.290  0.5004  1.2112 -1.9998
  915MPD2    H113399   3.327   4.698  16.639 -0.2705  0.1681 -0.6060
  915MPD2    H213400   3.500   4.579  16.263  1.0591  1.0884  1.3037
  915MPD2    H313401   3.519   4.662  16.502  0.9662 -0.1014 -1.6249
  915MPD2     N13402   3.069   4.664  16.542 -0.1708 -0.0668  0.3445
  915MPD2    H513403   2.985   4.656  16.485 -0.9564 -3.8922  2.0188
  915MPD2    N113404   3.286   4.514  16.131 -0.3381  0.2955 -0.5458
  915MPD2    H713405   3.381   4.506  16.094 -0.9646  0.9802 -2.2842
  916MPD2     C13406   1.291   3.196  15.538 -0.2515 -0.0993  0.1854
  916MPD2    C113407   1.294   3.124  15.654 -0.7451  0.3887 -0.8935
  916MPD2    C213408   1.353   2.997  15.647  0.1208 -0.4688  0.3027
  916MPD2    C313409   1.398   2.937  15.529 -0.6705  0.2786 -0.0981
  916MPD2    C413410   1.392   3.011  15.411 -0.7720 -0.3605  0.5898
  916MPD2    C513411   1.342   3.139  15.425  0.3391 -0.0007 -0.6006
  916MPD2     H13412   1.361   2.936  15.736 -2.8995 -1.8224 -0.3638
  916MPD2    H113413   1.433   2.980  15.316 -1.5634  3.0901 -0.8567
  916MPD2    H213414   1.257   3.299  15.537  0.0103  0.0177  2.3708
  916MPD2    H313415   1.333   3.199  15.336 -1.9900  0.6991  0.0929
  916MPD2     N13416   1.444   2.804  15.534 -0.3792  0.5050 -0.1535
  916MPD2    H513417   1.457   2.768  15.628 -0.8746 -1.9678 -1.0349
  916MPD2    N113418   1.262   3.189  15.777 -0.6095  0.2851  0.9752
  916MPD2    H713419   1.232   3.286  15.782 -0.1476  0.3598  2.4844
  917MPD2     C13420   1.841   0.204  11.002 -0.1268 -0.1672  0.1836
  917MPD2    C113421   1.907   0.322  11.035  0.8877 -0.0697 -0.3524
  917MPD2    C213422   2.002   0.366  10.943  0.1354 -0.4826  0.3551
  917MPD2    C313423   2.043   0.290  10.829  0.5592 -0.1961 -0.4374
  917MPD2    C413424   1.979   0.170  10.819  0.0697 -0.9284  0.4657
  917MPD2    C513425   1.879   0.125  10.900 -0.3852 -0.1827  0.7993
  917MPD2     H13426   2.045   0.464  10.962 -1.5391  0.0257  1.4929
  917MPD2    H113427   2.019   0.102  10.745 -2.7073 -0.4917 -1.4167
  917MPD2    H213428   1.745   0.174  11.043 -0.2107 -0.3509 -0.1440
  917MPD2    H313429   1.842   0.024  10.887 -0.6165 -0.0709  0.5845
  917MPD2     N13430   2.144   0.318  10.740  0.3221  0.4333 -0.1975
  917MPD2    H513431   2.182   0.248  10.677 -1.1351  0.4016 -1.0204
  917MPD2    N113432   1.871   0.395  11.149  1.2308 -0.6227 -0.4677
  917MPD2    H713433   1.784   0.369  11.194  1.2680  0.5722  0.2980
  918MPD2     C13434   2.254   0.984  11.970  0.5620 -0.4350  0.1919
  918MPD2    C113435   2.261   0.846  11.986 -0.1069 -0.5369 -0.0196
  918MPD2    C213436   2.181   0.767  11.915 -0.3016 -0.7112 -0.4506
  918MPD2    C313437   2.099   0.815  11.820  0.2913 -0.2517 -0.5416
  918MPD2    C413438   2.085   0.945  11.801 -0.2112  0.2430 -0.4917
  918MPD2    C513439   2.159   1.034  11.880 -0.7393 -0.0427  0.1695
  918MPD2     H13440   2.171   0.660  11.930  1.0254 -0.4314  2.3050
  918MPD2    H113441   2.025   0.990  11.723  0.0230  0.4881 -0.5299
  918MPD2    H213442   2.316   1.050  12.030  0.1705 -1.0234  1.2368
  918MPD2    H313443   2.152   1.141  11.862 -0.5536 -0.3463 -1.6546
  918MPD2     N13444   2.034   0.722  11.738 -0.0013 -0.3173  0.3966
  918MPD2    H513445   2.016   0.625  11.762 -0.1523 -0.4572 -0.2714
  918MPD2    N113446   2.352   0.776  12.073  0.1172 -0.4145 -0.1831
  918MPD2    H713447   2.341   0.675  12.077 -1.0443 -0.2732  0.0833
  919MPD2     C13448   2.686   4.043  11.407  0.6147 -0.3905 -0.8014
  919MPD2    C113449   2.696   3.906  11.389 -0.0909 -0.2841  0.8243
  919MPD2    C213450   2.763   3.861  11.279  0.6911  0.3595  0.1502
  919MPD2    C313451   2.801   3.946  11.181 -0.5253 -0.9711  1.2005
  919MPD2    C413452   2.784   4.077  11.202 -0.3379  0.2028  0.0333
  919MPD2    C513453   2.743   4.135  11.317  0.1299  0.0567  1.2759
  919MPD2     H13454   2.779   3.753  11.278 -1.9474 -0.0228  0.0401
  919MPD2    H113455   2.823   4.142  11.124 -1.8509  1.5087  0.3513
  919MPD2    H213456   2.633   4.086  11.491 -0.0301 -0.3272 -1.2384
  919MPD2    H313457   2.732   4.242  11.327  3.5050  0.5057  0.4030
  919MPD2     N13458   2.839   3.910  11.050  0.1419 -0.1205  0.1663
  919MPD2    H513459   2.848   3.987  10.985 -0.6750  1.0207  1.4182
  919MPD2    N113460   2.648   3.808  11.480  0.1814 -0.0733  0.0550
  919MPD2    H713461   2.677   3.714  11.454  1.9680  0.5386 -0.1807
  920MPD2     C13462   2.777   4.219  10.121  0.0834 -0.2941  0.0543
  920MPD2    C113463   2.698   4.108  10.122 -0.3511  0.2967  0.4014
  920MPD2    C213464   2.707   4.013  10.223  0.8630  0.3920 -0.1131
  920MPD2    C313465   2.805   4.033  10.320  0.6559 -0.8455 -0.4461
  920MPD2    C413466   2.881   4.149  10.315 -0.2847  0.0667 -0.2349
  920MPD2    C513467   2.867   4.241  10.218  0.6110 -0.0621  0.7274
  920MPD2     H13468   2.637   3.931  10.229  0.5251  0.6241 -0.8633
  920MPD2    H113469   2.945   4.172  10.399 -1.6451  0.3364  0.7228
  920MPD2    H213470   2.778   4.291  10.040 -1.5793 -1.0132 -0.5880
  920MPD2    H313471   2.929   4.329  10.220  0.1903  0.2449  0.3053
  920MPD2     N13472   2.821   3.937  10.429 -0.4371 -0.2443  0.3788
  920MPD2    H513473   2.785   3.844  10.413 -1.6622  0.1241  0.9939
  920MPD2    N113474   2.586   4.093  10.032 -0.8989  0.2351  0.3778
  920MPD2    H713475   2.514   4.023  10.045 -0.7917 -0.4158 -2.4229
  921MPD2     C13476   3.361   3.363  16.872 -0.1503  0.5418  0.1150
  921MPD2    C113477   3.368   3.339  16.740 -0.4264 -0.4696 -0.2714
  921MPD2    C213478   3.251   3.302  16.671 -0.3133 -0.1599  0.2138
  921MPD2    C313479   3.139   3.253  16.737 -0.6995  0.2752  0.6035
  921MPD2    C413480   3.130   3.274  16.875  0.6867 -0.1636  0.2261
  921MPD2    C513481   3.244   3.329  16.936 -0.5888  0.6841 -0.0686
  921MPD2     H13482   3.264   3.291  16.564 -3.3604 -1.3596 -0.0450
  921MPD2    H113483   3.053   3.252  16.948  1.1206  0.7789  0.9539
  921MPD2    H213484   3.442   3.403  16.933  0.8482 -0.5971 -0.4771
  921MPD2    H313485   3.233   3.350  17.041 -0.8880 -1.5280  0.3534
  921MPD2     N13486   3.038   3.187  16.660  0.4291 -0.3860 -0.2115
  921MPD2    H513487   3.057   3.168  16.562  0.9944 -0.5301 -0.0730
  921MPD2    N113488   3.495   3.361  16.687  0.0006 -0.1612 -0.0517
  921MPD2    H713489   3.581   3.385  16.737  0.1367  0.0551 -0.3945
  922MPD2     C13490   3.742   0.927   0.180  0.3553  0.0182 -0.2384
  922MPD2    C113491   3.732   0.991   0.059 -0.1829  0.1003  0.2662
  922MPD2    C213492   3.619   0.960  17.669 -0.3398 -0.1288 -0.0331
  922MPD2    C313493   3.513   0.886   0.031 -0.3593  0.4057  0.1560
  922MPD2    C413494   3.533   0.817   0.143 -0.7800  0.0180  0.5452
  922MPD2    C513495   3.645   0.843   0.215  1.3805 -0.6597 -0.1339
  922MPD2     H13496   3.614   1.006  17.571  0.4637 -0.9268 -0.4470
  922MPD2    H113497   3.455   0.752   0.181  1.9807 -2.3502  2.1549
  922MPD2    H213498   3.835   0.937   0.235  0.5689 -1.9953 -0.2384
  922MPD2    H313499   3.648   0.800   0.314 -0.0011 -0.2508  0.0784
  922MPD2     N13500   3.398   0.881  17.638 -0.0799  0.0344  0.7237
  922MPD2    H513501   3.379   0.954  17.571 -1.8336  0.1002  1.2760
  922MPD2    N113502   3.824   1.082   0.009  0.3161 -0.4766  0.5752
  922MPD2    H713503   3.790   1.126  17.611  2.8377  0.7184  0.1989
  923MPD2     C13504   1.277   1.984   9.506 -0.9283  0.4712  0.2994
  923MPD2    C113505   1.177   2.060   9.568 -0.1968  0.5818 -0.2643
  923MPD2    C213506   1.214   2.142   9.668  0.3132  0.1379  0.3193
  923MPD2    C313507   1.344   2.175   9.691  0.4302 -0.1667 -0.4859
  923MPD2    C413508   1.442   2.107   9.614 -0.2071 -0.5258 -0.3073
  923MPD2    C513509   1.407   2.005   9.532  0.4224  0.3992  0.1626
  923MPD2     H13510   1.134   2.181   9.729 -0.5163 -0.3203 -0.4773
  923MPD2    H113511   1.548   2.119   9.631 -0.6010 -0.5632  2.2723
  923MPD2    H213512   1.253   1.928   9.416 -0.7187 -1.6936  1.6038
  923MPD2    H313513   1.485   1.948   9.482  0.5005  0.4599  0.2163
  923MPD2     N13514   1.399   2.255   9.790  0.6276 -0.0555  0.1888
  923MPD2    H513515   1.500   2.264   9.782  0.5815  1.1985  1.0372
  923MPD2    N113516   1.039   2.049   9.532  0.3571 -0.1463 -0.0973
  923MPD2    H713517   1.023   1.997   9.447 -2.8618  1.2041 -0.3430
  924MPD2     C13518   0.618   0.918  15.734 -0.4110  0.4606 -0.2367
  924MPD2    C113519   0.526   0.911  15.838  0.0215 -0.7215  0.4929
  924MPD2    C213520   0.497   1.034  15.897 -0.0301  0.3956  1.1520
  924MPD2    C313521   0.576   1.145  15.876 -0.3268  0.0231  0.3948
  924MPD2    C413522   0.671   1.142  15.778 -0.0699  0.0766 -1.1990
  924MPD2    C513523   0.700   1.028  15.709  0.0893 -0.4939  0.4745
  924MPD2     H13524   0.414   1.027  15.967 -0.4576 -0.8177  0.5371
  924MPD2    H113525   0.726   1.233  15.756 -0.5300  0.3461 -1.2168
  924MPD2    H213526   0.634   0.838  15.662 -0.9868 -0.0630  0.2120
  924MPD2    H313527   0.766   1.027  15.622 -0.6686 -1.4656 -0.0862
  924MPD2     N13528   0.540   1.268  15.935  0.4060 -0.0421  0.2603
  924MPD2    H513529   0.598   1.348  15.912 -1.0004  0.8596 -0.2112
  924MPD2    N113530   0.464   0.784  15.855 -0.3925  0.1726 -0.4849
  924MPD2    H713531   0.518   0.711  15.810  1.9307  1.2757  0.4984
  925MPD2     C13532   3.871   3.538  14.953  0.2079 -0.5650  0.0460
  925MPD2    C113533   3.756   3.530  14.879  0.0229  0.5590 -0.0767
  925MPD2    C213534   3.638   3.532  14.950  0.0178  0.7013  0.0615
  925MPD2    C313535   3.639   3.533  15.088  0.5056  0.7322  0.1494
  925MPD2    C413536   3.756   3.546  15.156 -0.3754  0.1888  0.1154
  925MPD2    C513537   3.873   3.542  15.090 -0.0796  0.3160  0.8578
  925MPD2     H13538   3.543   3.517  14.899  0.9429 -2.7342 -0.6494
  925MPD2    H113539   3.763   3.544  15.264 -1.4025 -2.1461  0.1523
  925MPD2    H213540   3.962   3.533  14.895 -0.7653  0.5052 -1.5614
  925MPD2    H313541   3.965   3.528  15.146 -0.1468 -3.6743 -0.0456
  925MPD2     N13542   3.530   3.526  15.171 -0.0882  0.2263 -0.2482
  925MPD2    H513543   3.538   3.557  15.268  2.0838  1.7943 -0.9481
  925MPD2    N113544   3.756   3.522  14.741  0.5634 -0.0901  0.0543
  925MPD2    H713545   3.665   3.535  14.697 -0.8646 -1.4716  2.5650
  926MPD2     C13546   3.377   2.137  12.906 -0.9274  0.6263 -0.0739
  926MPD2    C113547   3.287   2.219  12.848  0.3210  0.1355  0.3441
  926MPD2    C213548   3.316   2.274  12.722 -0.6044 -0.4156 -0.1305
  926MPD2    C313549   3.438   2.245  12.664 -0.0747  0.5635 -0.1984
  926MPD2    C413550   3.530   2.175  12.733  0.0344  0.6159 -0.1503
  926MPD2    C513551   3.498   2.112  12.846 -1.0509  0.1858 -0.3018
  926MPD2     H13552   3.240   2.338  12.678 -0.5814  0.3493  0.9396
  926MPD2    H113553   3.619   2.137  12.682 -0.1027 -0.8896  0.7546
  926MPD2    H213554   3.356   2.085  12.999  1.2780  0.8010  0.5148
  926MPD2    H313555   3.560   2.036  12.892 -0.8225  1.4536  1.4648
  926MPD2     N13556   3.470   2.297  12.533  0.0983  0.0282 -0.9532
  926MPD2    H513557   3.565   2.282  12.500  0.2064  1.8507 -1.4458
  926MPD2    N113558   3.170   2.260  12.914 -0.3557 -0.0778 -0.2266
  926MPD2    H713559   3.109   2.328  12.869 -0.4082  1.0785  1.5664
  927MPD2     C13560   1.798   4.468   0.278  0.0146  0.5139  0.0735
  927MPD2    C113561   1.889   4.567   0.302 -0.0294  0.2415 -0.2011
  927MPD2    C213562   1.986   4.597   0.210 -0.0802  0.4183 -0.8207
  927MPD2    C313563   1.988   4.529   0.089 -0.1037  0.3544  0.4922
  927MPD2    C413564   1.895   4.430   0.067  0.2802  0.2283 -0.6176
  927MPD2    C513565   1.794   4.407   0.159  0.4195 -0.0680  0.0796
  927MPD2     H13566   2.068   4.659   0.244  0.7058 -0.4972 -1.0596
  927MPD2    H113567   1.891   4.368  17.666 -0.3125 -0.6524  0.0139
  927MPD2    H213568   1.715   4.444   0.342 -0.4273  1.7451 -0.0456
  927MPD2    H313569   1.721   4.329   0.140  2.6226 -0.7652 -5.4381
  927MPD2     N13570   2.091   4.565   0.003 -0.0794 -0.0033  0.0486
  927MPD2    H513571   2.171   4.616   0.037  0.3600 -0.9498  0.4204
  927MPD2    N113572   1.885   4.620   0.433  0.1640  0.5351 -0.2674
  927MPD2    H713573   1.839   4.557   0.498  1.4875 -0.7492 -0.5646
  928MPD2     C13574   4.258   2.453   0.486 -0.8106  0.5026  0.0597
  928MPD2    C113575   4.309   2.532   0.593  0.0065 -0.2438 -0.2830
  928MPD2    C213576   4.445   2.566   0.606 -0.3474 -1.2201 -0.1339
  928MPD2    C313577   4.521   2.528   0.495  0.0545  0.0694 -0.2625
  928MPD2    C413578   4.479   2.439   0.397 -0.1391  0.1927  0.1653
  928MPD2    C513579   4.350   2.396   0.398 -0.1105 -0.4031  0.0919
  928MPD2     H13580   4.477   2.637   0.681  0.4178 -0.8101 -0.8480
  928MPD2    H113581   4.548   2.401   0.323  2.3780  3.2631  0.9819
  928MPD2    H213582   4.157   2.415   0.475 -0.8719  0.8717 -0.6752
  928MPD2    H313583   4.319   2.337   0.313 -0.0204 -0.4862  0.1161
  928MPD2     N13584   4.646   2.573   0.480  0.3994  0.3143  0.2768
  928MPD2    H513585   4.696   2.553   0.394  1.5626  1.6625  0.6470
  928MPD2    N113586   4.218   2.588   0.688  0.3273 -0.1271 -0.1353
  928MPD2    H713587   4.247   2.654   0.759  2.2771 -2.7630  1.5312
  929MPD2     C13588   1.361   2.232  10.288 -1.0405 -0.7772  0.4605
  929MPD2    C113589   1.249   2.213  10.212 -0.1232 -0.3280  0.1758
  929MPD2    C213590   1.163   2.320  10.220 -0.1675 -0.0289 -0.2365
  929MPD2    C313591   1.176   2.417  10.318 -0.3247 -0.0055  0.5548
  929MPD2    C413592   1.288   2.426  10.403 -0.0444 -0.0195  0.1682
  929MPD2    C513593   1.378   2.332  10.385  0.0932 -0.7375 -1.0914
  929MPD2     H13594   1.065   2.314  10.172 -0.6343  1.2230  0.5714
  929MPD2    H113595   1.302   2.505  10.476  0.3081  0.8340 -0.8250
  929MPD2    H213596   1.440   2.158  10.289 -1.2368 -0.9825  0.5816
  929MPD2    H313597   1.466   2.326  10.448 -1.7535  0.1980  1.5851
  929MPD2     N13598   1.068   2.503  10.324 -0.2639 -0.2399  0.1616
  929MPD2    H513599   0.991   2.488  10.260 -0.4455  3.9905 -0.6534
  929MPD2    N113600   1.228   2.090  10.149  0.1080 -0.0217 -0.1847
  929MPD2    H713601   1.312   2.034  10.144 -0.1532 -0.3084 -1.4301
  930MPD2     C13602   2.339   0.665  14.612 -0.4730 -0.0739  0.0214
  930MPD2    C113603   2.339   0.653  14.473 -0.7296  0.7885 -0.6202
  930MPD2    C213604   2.279   0.543  14.411 -0.1892 -0.0722 -0.4732
  930MPD2    C313605   2.213   0.447  14.489  0.0687 -0.1459 -0.1594
  930MPD2    C413606   2.200   0.472  14.620  0.0966  0.3647 -0.0286
  930MPD2    C513607   2.267   0.574  14.685  0.0694 -0.3870 -0.4160
  930MPD2     H13608   2.279   0.525  14.304  0.4799  0.2997 -0.5343
  930MPD2    H113609   2.128   0.418  14.681 -1.0219 -0.5496 -2.1737
  930MPD2    H213610   2.379   0.752  14.663 -0.1393 -1.4966  2.1446
  930MPD2    H313611   2.256   0.579  14.792 -0.2457 -2.1694 -0.3649
  930MPD2     N13612   2.149   0.338  14.424  0.2279 -0.0752 -0.0061
  930MPD2    H513613   2.146   0.334  14.322  1.5478  0.6291 -0.0746
  930MPD2    N113614   2.417   0.743  14.400 -0.4512 -0.1379  0.1377
  930MPD2    H713615   2.468   0.810  14.457 -1.4371  0.8681 -0.1765
  931MPD2     C13616   1.637   4.549   1.224  1.3033  0.6629  0.8226
  931MPD2    C113617   1.733   4.513   1.130  0.1412 -0.0810 -0.8081
  931MPD2    C213618   1.792   4.391   1.126 -0.1864  0.1985  0.7366
  931MPD2    C313619   1.764   4.304   1.228 -0.6595 -0.5140  0.6713
  931MPD2    C413620   1.661   4.325   1.315  0.3961 -0.1620 -0.3464
  931MPD2    C513621   1.599   4.452   1.316  0.1617 -0.0340 -0.7860
  931MPD2     H13622   1.872   4.369   1.056 -0.7661  0.5866 -0.0400
  931MPD2    H113623   1.629   4.252   1.388  1.2228  0.5364  0.7074
  931MPD2    H213624   1.588   4.646   1.229  1.1537  0.6641 -0.5693
  931MPD2    H313625   1.523   4.469   1.391  2.9709  0.7473  1.8680
  931MPD2     N13626   1.809   4.171   1.225  0.3683 -0.2904  0.0861
  931MPD2    H513627   1.778   4.113   1.303 -0.9474  0.5026  0.1445
  931MPD2    N113628   1.776   4.612   1.040  0.3079  0.3623  0.0449
  931MPD2    H713629   1.739   4.706   1.046  1.5323  0.9613 -1.5303
  932MPD2     C13630   0.730   3.297  11.473 -0.7419 -0.0581  0.7658
  932MPD2    C113631   0.666   3.386  11.559  0.4240 -1.1161 -0.1005
  932MPD2    C213632   0.638   3.341  11.690 -0.2655  0.6543  0.2359
  932MPD2    C313633   0.679   3.212  11.736 -0.3670  0.4867 -0.3798
  932MPD2    C413634   0.740   3.127  11.648  0.2563 -0.1507  0.0743
  932MPD2    C513635   0.763   3.169  11.519  0.2487  0.2923 -0.9668
  932MPD2     H13636   0.590   3.411  11.757  1.4450  0.6578  1.4522
  932MPD2    H113637   0.769   3.024  11.663 -0.5117 -0.1223  1.7184
  932MPD2    H213638   0.748   3.313  11.367 -1.9857  1.4109  0.7642
  932MPD2    H313639   0.808   3.102  11.447 -0.8104 -1.6366  0.1551
  932MPD2     N13640   0.642   3.178  11.866  0.0522  0.6132  0.3579
  932MPD2    H513641   0.597   3.245  11.927  0.8537  0.1772  1.4357
  932MPD2    N113642   0.614   3.516  11.534  0.0491  0.1900  0.2919
  932MPD2    H713643   0.548   3.556  11.599  0.2300  0.7455  0.1282
  933MPD2     C13644   3.585   3.163   0.972 -0.1773 -0.4706  0.3482
  933MPD2    C113645   3.698   3.148   0.896 -0.4008  0.0367  0.4834
  933MPD2    C213646   3.749   3.255   0.831 -0.6176 -0.2624  0.4602
  933MPD2    C313647   3.692   3.382   0.833 -0.5379  0.2147 -0.0402
  933MPD2    C413648   3.590   3.398   0.918  0.1356 -0.7906 -0.1098
  933MPD2    C513649   3.532   3.286   0.977  0.7630 -0.7399  0.4339
  933MPD2     H13650   3.830   3.237   0.761 -1.3289  0.0518 -0.4398
  933MPD2    H113651   3.542   3.494   0.932  0.8494 -0.5393  0.6592
  933MPD2    H213652   3.539   3.084   1.031 -1.2323 -1.9435 -2.4523
  933MPD2    H313653   3.439   3.295   1.032 -0.0134  0.9667 -1.1578
  933MPD2     N13654   3.772   3.487   0.786  0.1622 -0.2050  0.2806
  933MPD2    H513655   3.865   3.456   0.763  0.1945 -0.9451  1.4154
  933MPD2    N113656   3.749   3.019   0.880 -0.6847 -0.2354 -0.0906
  933MPD2    H713657   3.719   2.953   0.951 -2.0255  2.0054  1.4468
  934MPD2     C13658   0.949   0.209   2.435 -0.0527 -0.5450 -0.1349
  934MPD2    C113659   0.919   0.339   2.392  0.6470  0.1432  0.1675
  934MPD2    C213660   0.818   0.360   2.298 -0.6735 -0.1836 -0.4534
  934MPD2    C313661   0.758   0.255   2.233  0.5602 -0.3869 -0.0943
  934MPD2    C413662   0.788   0.128   2.264 -0.0057  0.4473  0.0641
  934MPD2    C513663   0.881   0.110   2.361  0.3177 -0.4087 -0.2104
  934MPD2     H13664   0.803   0.459   2.256 -0.9221  0.4982  1.2742
  934MPD2    H113665   0.735   0.049   2.212 -0.4771  0.3940  0.6291
  934MPD2    H213666   1.030   0.178   2.501 -1.6892 -0.0698  2.1000
  934MPD2    H313667   0.909   0.006   2.374 -0.7333 -0.4611  1.7105
  934MPD2     N13668   0.649   0.273   2.138  0.3032  0.0877 -0.7475
  934MPD2    H513669   0.611   0.186   2.101 -1.4480 -0.5389  2.4755
  934MPD2    N113670   0.986   0.449   2.442 -0.1852  0.2870 -0.5340
  934MPD2    H713671   0.984   0.535   2.387  0.0050  0.8436  0.3150
  935MPD2     C13672   0.888   4.641   1.495 -0.6347 -0.2422  0.1556
  935MPD2    C113673   0.759   4.603   1.508  0.2284  0.0120 -0.5286
  935MPD2    C213674   0.669   4.692   1.562 -0.4350  0.5986  0.2382
  935MPD2    C313675   0.706   0.094   1.602  0.1371 -0.5306  0.2209
  935MPD2    C413676   0.840   0.134   1.585 -0.1130  0.4081  0.0717
  935MPD2    C513677   0.934   0.043   1.534  0.8932  0.2078  0.2467
  935MPD2     H13678   0.568   4.656   1.577  0.1125 -0.9418  0.1482
  935MPD2    H113679   0.878   0.233   1.605 -0.0042  0.2363  0.7234
  935MPD2    H213680   0.967   4.582   1.451 -0.1287  0.8468 -0.4004
  935MPD2    H313681   1.039   0.063   1.516  1.4495 -0.7818  2.4721
  935MPD2     N13682   0.620   0.187   1.659 -0.1947 -0.7945 -0.1816
  935MPD2    H513683   0.657   0.271   1.704 -3.2990  0.7388 -0.4640
  935MPD2    N113684   0.715   4.476   1.460 -0.2051 -0.5504  0.6923
  935MPD2    H713685   0.614   4.465   1.453 -0.4389  1.3409  0.8549
  936MPD2     C13686   0.448   2.119  12.764 -0.0726 -0.0857  0.2991
  936MPD2    C113687   0.485   2.031  12.861 -0.3059 -0.2566  0.1172
  936MPD2    C213688   0.605   2.057  12.928  1.1263 -0.3294 -1.1446
  936MPD2    C313689   0.682   2.167  12.904 -0.0836  0.1292 -0.1771
  936MPD2    C413690   0.644   2.256  12.811 -0.2282 -0.0240 -0.1765
  936MPD2    C513691   0.526   2.234  12.747 -0.5759  0.4281 -0.7609
  936MPD2     H13692   0.628   1.984  13.005  1.5195  0.4637 -0.5122
  936MPD2    H113693   0.706   2.341  12.783  1.4303 -0.7652  1.2960
  936MPD2    H213694   0.361   2.103  12.701  0.2288 -0.0057 -0.1360
  936MPD2    H313695   0.498   2.307  12.671 -2.9519  1.4249  1.0737
  936MPD2     N13696   0.810   2.174  12.952  0.0492  0.4119 -0.6042
  936MPD2    H513697   0.869   2.232  12.893  1.1134  1.2341  1.2860
  936MPD2    N113698   0.427   1.899  12.896  0.3032  0.2038  0.7728
  936MPD2    H713699   0.464   1.857  12.980  0.3095 -0.0190  0.6588
  937MPD2     C13700   2.960   3.325  11.935  0.9468 -0.8030  0.3717
  937MPD2    C113701   2.932   3.349  11.805  0.6152  0.1338  1.2679
  937MPD2    C213702   3.044   3.359  11.726  0.3500  0.3461  0.3338
  937MPD2    C313703   3.168   3.311  11.767 -0.5063 -0.0486 -0.4169
  937MPD2    C413704   3.185   3.276  11.898 -0.5422 -0.1008 -0.5130
  937MPD2    C513705   3.085   3.292  11.989  0.7416 -0.2874  0.0359
  937MPD2     H13706   3.025   3.385  11.622 -1.4911  1.3044  0.9114
  937MPD2    H113707   3.272   3.234  11.946 -0.9917  0.9815  1.2593
  937MPD2    H213708   2.881   3.312  12.009  0.3534  1.8557  0.1902
  937MPD2    H313709   3.100   3.265  12.093  0.1904  0.3373  0.2684
  937MPD2     N13710   3.268   3.308  11.673 -0.2436  0.2504  0.3830
  937MPD2    H513711   3.240   3.343  11.582 -1.6759  1.5710  1.3248
  937MPD2    N113712   2.815   3.404  11.758 -0.1463  0.5650  0.1734
  937MPD2    H713713   2.807   3.439  11.663  0.4609  0.3876  0.0593
  938MPD2     C13714   0.321   4.310   1.477  0.1518 -0.4479 -0.1772
  938MPD2    C113715   0.218   4.379   1.427 -0.0188  0.8626 -0.4461
  938MPD2    C213716   0.094   4.316   1.411  0.6070 -0.2942 -0.2448
  938MPD2    C313717   0.078   4.180   1.434 -0.2358  0.2054 -0.6895
  938MPD2    C413718   0.192   4.113   1.465 -0.3204  0.3885  0.3656
  938MPD2    C513719   0.314   4.178   1.500 -0.0411  0.6248  0.7502
  938MPD2     H13720   0.010   4.379   1.383  1.7682  1.4689  0.2439
  938MPD2    H113721   0.181   4.006   1.462  2.2549  0.1241  0.1844
  938MPD2    H213722   0.415   4.362   1.495 -0.3396  0.4905 -0.3438
  938MPD2    H313723   0.397   4.115   1.531  0.1895 -0.6064 -2.3333
  938MPD2     N13724   4.677   4.104   1.409 -0.2627  0.2149 -0.2562
  938MPD2    H513725   4.681   4.003   1.409 -1.6504  0.1583 -0.5293
  938MPD2    N113726   0.224   4.512   1.384 -0.8181  0.4357 -0.3898
  938MPD2    H713727   0.139   4.554   1.348 -0.7088  0.2396 -0.8715
  939MPD2     C13728   1.732   1.241   1.214 -0.1884 -0.4283 -0.0510
  939MPD2    C113729   1.730   1.380   1.228 -0.2181  0.3740 -0.4672
  939MPD2    C213730   1.801   1.458   1.137  0.1192 -0.0557  0.1086
  939MPD2    C313731   1.879   1.395   1.042  0.3407 -0.1363  0.4705
  939MPD2    C413732   1.890   1.260   1.037 -0.0699 -0.1676  0.8746
  939MPD2    C513733   1.811   1.189   1.121  0.0433  1.0611 -0.4543
  939MPD2     H13734   1.795   1.566   1.130 -0.0426  0.0048  1.2267
  939MPD2    H113735   1.950   1.210   0.961 -2.4605 -1.2189 -0.3072
  939MPD2    H213736   1.690   1.170   1.283 -0.8442 -1.3669 -1.4075
  939MPD2    H313737   1.818   1.081   1.112 -1.6012  1.0278 -1.2029
  939MPD2     N13738   1.938   1.472   0.938  0.4872  0.1458  0.0333
  939MPD2    H513739   1.903   1.566   0.922  3.0136  1.0045 -0.4599
  939MPD2    N113740   1.644   1.430   1.331  0.5428  0.1043  0.1562
  939MPD2    H713741   1.585   1.355   1.367 -0.9055  1.0355 -0.2959
  940MPD2     C13742   1.103   2.303  13.238 -0.4617  0.4465  0.5989
  940MPD2    C113743   1.147   2.192  13.310  0.2175  0.4368  0.2373
  940MPD2    C213744   1.241   2.102  13.266 -0.3802 -0.6590  0.2944
  940MPD2    C313745   1.285   2.122  13.136  0.9199  0.2762 -0.5088
  940MPD2    C413746   1.252   2.241  13.072 -0.5248 -0.1085 -0.2299
  940MPD2    C513747   1.165   2.329  13.124 -0.0946 -0.3789  0.5880
  940MPD2     H13748   1.269   2.014  13.323  0.0245  1.1684  2.9138
  940MPD2    H113749   1.289   2.257  12.972  0.3858  1.7505  0.4149
  940MPD2    H213750   1.024   2.368  13.274  0.4299  0.3891  2.6691
  940MPD2    H313751   1.122   2.413  13.070 -0.3387 -1.4395 -0.8653
  940MPD2     N13752   1.378   2.035  13.071  0.3730  0.4793  0.0384
  940MPD2    H513753   1.410   2.060  12.978  1.8798 -0.8673  0.1945
  940MPD2    N113754   1.110   2.169  13.446  0.3900  0.1974  0.8057
  940MPD2    H713755   1.159   2.102  13.504 -0.6672  0.9417  2.5438
  941MPD2     C13756   0.402   0.323   8.830  0.0895 -0.3219 -0.0862
  941MPD2    C113757   0.404   0.318   8.968 -0.0336  0.5146  0.1117
  941MPD2    C213758   0.338   0.217   9.035  1.0338 -0.4713 -0.1700
  941MPD2    C313759   0.260   0.125   8.957  0.0277 -0.0665  0.5433
  941MPD2    C413760   0.246   0.144   8.819 -0.2596  0.0440  0.6672
  941MPD2    C513761   0.328   0.236   8.756 -0.1046 -0.0325 -0.2322
  941MPD2     H13762   0.345   0.215   9.143 -2.4506 -2.4295  0.0391
  941MPD2    H113763   0.193   0.068   8.762 -0.9177  0.5390  0.6203
  941MPD2    H213764   0.459   0.397   8.776 -0.7396  1.3449  1.2960
  941MPD2    H313765   0.342   0.237   8.648 -1.3124 -1.3436 -0.3954
  941MPD2     N13766   0.192   0.025   9.018  0.2510 -0.1205  0.1390
  941MPD2    H513767   0.110   4.707   8.973 -2.1538  1.1788  3.4145
  941MPD2    N113768   0.472   0.412   9.051  1.2382 -0.4189 -0.0233
  941MPD2    H713769   0.457   0.392   9.150  0.4716 -0.3396 -0.1209
  942MPD2     C13770   4.375   1.984   9.142  0.3277  0.0022  0.2643
  942MPD2    C113771   4.394   1.887   9.053  0.0084 -0.0631 -0.5820
  942MPD2    C213772   4.527   1.838   9.036 -0.4379 -0.1814 -0.5530
  942MPD2    C313773   4.630   1.886   9.114  0.3449  0.3440 -0.3765
  942MPD2    C413774   4.602   1.982   9.211  0.3062 -0.4645 -0.1561
  942MPD2    C513775   4.474   2.031   9.221  0.5303  0.4522  0.2397
  942MPD2     H13776   4.539   1.760   8.963  1.6407  0.6018 -1.0411
  942MPD2    H113777   4.683   2.012   9.277 -1.1781  0.7182  1.1357
  942MPD2    H213778   4.280   2.036   9.152  0.3585  0.3333 -1.1877
  942MPD2    H313779   4.436   2.108   9.288  0.8115 -0.0869  1.0137
  942MPD2     N13780   0.048   1.850   9.090  0.0642  0.0904 -0.2831
  942MPD2    H513781   0.119   1.892   9.148  0.2563 -1.4741  0.5977
  942MPD2    N113782   4.298   1.839   8.962  0.0221 -0.9571 -0.0650
  942MPD2    H713783   4.330   1.766   8.899 -0.8193 -1.1429 -0.2877
  943MPD2     C13784   3.458   0.473   9.236  0.4846  0.8327  0.8150
  943MPD2    C113785   3.385   0.376   9.295 -0.0033  0.1174 -0.3715
  943MPD2    C213786   3.253   0.364   9.281 -0.2594 -0.2639 -0.3575
  943MPD2    C313787   3.184   0.442   9.191  0.3767  0.2546 -0.2784
  943MPD2    C413788   3.253   0.533   9.121 -1.3664  0.3256  0.8019
  943MPD2    C513789   3.389   0.556   9.150 -0.1544  0.6325 -0.1068
  943MPD2     H13790   3.199   0.289   9.338 -0.3746 -0.6013 -0.9055
  943MPD2    H113791   3.205   0.603   9.054  0.7396  1.2301  0.2202
  943MPD2    H213792   3.563   0.484   9.260  0.7755  0.5696 -0.3047
  943MPD2    H313793   3.442   0.641   9.109  1.3347  1.1819  3.0193
  943MPD2     N13794   3.046   0.422   9.161 -0.8431 -0.2237 -0.2940
  943MPD2    H513795   3.014   0.472   9.078 -0.8537 -0.7230 -0.5920
  943MPD2    N113796   3.470   0.298   9.377  0.1174  0.7876 -0.3669
  943MPD2    H713797   3.566   0.330   9.385  0.2960  0.3036 -0.5716
  944MPD2     C13798   3.497   4.170  11.307 -0.1891 -0.7474 -0.0858
  944MPD2    C113799   3.539   4.272  11.238  0.3113 -0.1347 -0.2483
  944MPD2    C213800   3.519   4.407  11.279 -0.3326  0.4015  0.9948
  944MPD2    C313801   3.445   4.435  11.389 -0.1862 -0.1569  0.4983
  944MPD2    C413802   3.392   4.330  11.465 -0.4746  0.4812  0.1177
  944MPD2    C513803   3.423   4.198  11.429 -0.0802 -0.3171 -0.5482
  944MPD2     H13804   3.559   4.490  11.222  0.9360 -1.8246 -1.3133
  944MPD2    H113805   3.342   4.352  11.558 -0.6215 -2.5499  0.7678
  944MPD2    H213806   3.521   4.066  11.285 -0.1062 -0.8861  0.6416
  944MPD2    H313807   3.393   4.115  11.492  1.7175 -0.2579  0.3682
  944MPD2     N13808   3.411   4.566  11.421 -1.1995  0.4523 -0.0090
  944MPD2    H513809   3.462   4.632  11.363  0.4320 -1.3342 -0.5985
  944MPD2    N113810   3.611   4.246  11.114  0.2125 -0.1200  0.4856
  944MPD2    H713811   3.665   4.160  11.111  1.1966  0.5005  0.4719
    1TCq1    O113812   1.492   1.152  14.623  0.1657  0.1384 -0.0532
    1TCq1    C113813   1.571   1.050  14.571 -1.0435  0.5704 -0.1325
    1TCq1    O213814   1.529   0.948  14.513 -0.2168  0.0398  0.5978
    1TCq1    C213815   1.682   1.034  14.666  1.3042  0.3475  0.2390
    1TCq1    C313816   1.709   0.905  14.719  0.1966  0.2777  0.8528
    1TCq1    C413817   1.809   0.894  14.812  0.0241 -0.3331  1.1236
    1TCq1    C513818   1.874   1.010  14.859  0.3116 -0.3170  0.1425
    1TCq1    C613819   1.846   1.130  14.798  0.4002 -0.5439 -0.4360
    1TCq1    C713820   1.751   1.144  14.702 -0.3561 -0.6954 -0.3485
    1TCq1    C813821   1.913   1.248  14.854  0.0671  0.8045  0.3911
    1TCq1    O413822   2.010   1.237  14.929 -0.1465  1.1541 -0.1628
    1TCq1    C913823   1.847   0.766  14.870 -0.4898 -0.7269  0.5062
    1TCq1    O513824   1.786   0.666  14.840 -0.0603  0.8652  0.2002
    1TCq1    O613825   1.918   0.781  14.976  0.2142  0.3824 -0.2202
    1TCq1    H113826   1.537   1.222  14.674 -0.6436  1.0290 -0.5630
    1TCq1    H213827   1.652   0.815  14.698 -0.2972  0.7769  0.0634
    1TCq1    H313828   1.946   1.007  14.940 -1.3818 -3.7571  1.4888
    1TCq1    H413829   1.742   1.238  14.650  1.0097 -0.0899  0.5082
    2MPD2     C13830   1.877   1.744  15.024  0.5876 -0.3155  0.4633
    2MPD2    C113831   1.804   1.727  14.905 -0.4061  0.8106  0.5235
    2MPD2    C213832   1.792   1.593  14.852  0.0980 -0.4927  0.5260
    2MPD2    C313833   1.862   1.487  14.898 -0.3133 -0.1916  0.1754
    2MPD2    C413834   1.937   1.507  15.008  0.5257 -0.1734  0.1012
    2MPD2    C513835   1.944   1.630  15.071  0.5173  0.3716 -0.3470
    2MPD2     H13836   1.731   1.570  14.765  1.1534  1.0139 -0.6078
    2MPD2    H113837   1.997   1.428  15.052 -0.9646 -2.0652 -1.2233
    2MPD2    H213838   1.895   1.839  15.072 -0.6806 -0.1505  0.6021
    2MPD2    H313839   2.000   1.635  15.163  0.7561 -0.5885 -0.4375
    2MPD2     N13840   1.839   1.360  14.841 -0.0029 -0.0389 -0.3102
    2MPD2    H513841   1.759   1.354  14.779  0.4342 -2.3761 -0.6326
    2MPD2    N113842   1.752   1.849  14.838 -0.0493 -0.1371 -0.5090
    2MPD2    H713843   1.763   1.932  14.895  0.3948  0.4614 -1.4539
    3TMC2    C113844   1.659   1.982  14.657  0.5625  0.6211 -0.4292
    3TMC2    C213845   1.714   2.099  14.718  0.5316 -0.3460  0.6459
    3TMC2    C313846   1.710   2.210  14.638  0.2863  0.0845 -0.5509
    3TMC2    C413847   1.625   1.982  14.525 -0.0409 -0.7593  0.4104
    3TMC2    C513848   1.624   2.097  14.451  0.3101 -0.5784  0.0375
    3TMC2    C613849   1.660   2.213  14.512 -0.1877 -0.8731  0.2869
    3TMC2     C13850   1.707   1.850  14.712  0.0424 -0.9466  0.1981
    3TMC2     O13851   1.689   1.756  14.630  0.3546  0.3294 -0.0297
    3TMC2     H13852   1.736   2.100  14.824  0.2980  1.3479  0.6804
    3TMC2    H113853   1.601   1.887  14.479 -0.2368 -0.6513  0.2914
    3TMC2    H213854   1.640   2.314  14.477 -0.3248 -1.6095 -1.7537
    3TMC2    C713855   1.587   2.089  14.311  0.6848  0.1689  0.3128
    3TMC2    C813856   1.753   2.334  14.696  0.6855  0.1550  0.8534
    3TMC2    O113857   1.564   1.979  14.266  0.4429 -0.6468 -0.1907
    3TMC2    O213858   1.685   2.434  14.696  0.2168 -0.7923  0.6796
    3TMC2    O513859   1.861   2.313  14.767  0.1570  0.0188  0.2118
    3TMC2    H513860   1.902   2.224  14.754 -0.6344 -0.1825 -1.0145
    4MPD2     C13861   0.806   2.816  13.709 -0.0064 -0.0138  0.3887
    4MPD2    C113862   0.901   2.765  13.614 -0.5169 -0.1476  0.9106
    4MPD2    C213863   1.033   2.780  13.643  0.6462  0.9589  0.5711
    4MPD2    C313864   1.069   2.852  13.757  0.3162 -0.1464  0.5560
    4MPD2    C413865   0.977   2.897  13.851 -0.1756  0.4774  0.1453
    4MPD2    C513866   0.843   2.877  13.826 -0.0866 -0.0947  0.1434
    4MPD2     H13867   1.117   2.749  13.582 -1.2988 -1.9549 -0.6222
    4MPD2    H113868   1.015   2.941  13.942 -0.5093 -0.9404  0.9611
    4MPD2    H213869   0.706   2.776  13.697 -0.4202  2.3965 -4.0486
    4MPD2    H313870   0.762   2.899  13.893 -0.2859  0.8993 -0.4210
    4MPD2     N13871   1.205   2.872  13.773  0.4959  0.1588 -0.0103
    4MPD2    H513872   1.267   2.826  13.707 -0.1896  1.4692 -1.5713
    4MPD2    N113873   0.856   2.712  13.496 -0.0501 -0.2809  0.5084
    4MPD2    H713874   0.756   2.710  13.479 -0.1715 -1.8084  1.3765
    5TCq2    C113875   1.267   2.970  13.845 -0.4014  0.6547  0.0047
    5TCq2    O213876   1.218   3.066  13.902  0.1669  0.1463  0.3884
    5TCq2    C213877   1.411   2.941  13.859 -0.1226 -0.2053  0.7067
    5TCq2    C313878   1.495   3.045  13.902  0.1416  0.1526 -0.3434
    5TCq2    C413879   1.619   3.003  13.942 -0.3931  0.0338  0.2665
    5TCq2    C513880   1.664   2.871  13.944  0.0235 -0.3329  0.1407
    5TCq2    C613881   1.568   2.779  13.909 -0.0210  0.7517 -0.4017
    5TCq2    C713882   1.444   2.812  13.863 -0.7758 -0.1511  0.1154
    5TCq2    C813883   1.595   2.641  13.954 -0.1409  0.2477 -0.2323
    5TCq2    O413884   1.676   2.634  14.045 -0.5133  0.0390  0.7637
    5TCq2    C913885   1.720   3.101  13.974  0.9517 -0.5445 -0.2294
    5TCq2    O513886   1.676   3.221  13.979 -0.7475 -0.5012 -0.2882
    5TCq2    O613887   1.839   3.065  14.013  0.4712  0.0257  0.0572
    5TCq2    H213888   1.482   3.151  13.888 -0.4619 -0.2759 -3.0425
    5TCq2    H313889   1.763   2.852  13.984  0.3963 -0.2772 -0.7640
    5TCq2    H413890   1.365   2.738  13.875 -1.9664  0.9302 -1.1227
    6MPD1     C13891   0.149   4.016  12.588  0.7282  0.8211  0.5803
    6MPD1    C113892   0.102   3.944  12.694  0.1103  0.6558 -0.5706
    6MPD1    C213893   0.124   3.806  12.702 -0.4250 -0.0481 -0.2553
    6MPD1    C313894   0.181   3.733  12.599 -0.4085 -0.2114 -0.0603
    6MPD1    C413895   0.203   3.807  12.478 -0.3924  0.0454 -0.1837
    6MPD1    C513896   0.193   3.942  12.482  0.3412  0.4681 -0.4017
    6MPD1     H13897   0.108   3.757  12.798 -1.0428  1.7293  0.5424
    6MPD1    H113898   0.223   3.759  12.382  2.4515  2.1400 -0.6248
    6MPD1    H213899   0.134   4.120  12.563 -1.0156  0.7102  1.1732
    6MPD1    H313900   0.203   3.992  12.387 -2.2893  2.8702  0.5904
    6MPD1     N13901   0.200   3.594  12.603 -0.2094  0.3123 -0.4226
    6MPD1    H513902   0.238   3.550  12.520 -0.2711  0.9293 -0.7822
    6MPD1    N113903   0.061   4.010  12.807  0.0603 -0.2432 -0.0079
    6MPD1    H613904   0.029   4.105  12.787 -0.4904 -0.6089 -0.8738
    6MPD1    H713905   4.719   3.952  12.862 -1.4635  1.8908  0.4952
    7MPD2     C13906   0.095   2.788  12.939  0.3313  0.5832 -0.2094
    7MPD2    C113907   0.212   2.865  12.952 -0.3954  0.1049  0.1515
    7MPD2    C213908   0.321   2.812  13.012 -0.1057 -0.6258 -0.9234
    7MPD2    C313909   0.316   2.680  13.056 -0.2777 -1.7517  0.5798
    7MPD2    C413910   0.205   2.600  13.035 -0.3260 -0.4131 -0.1137
    7MPD2    C513911   0.098   2.654  12.980  0.4563 -0.7231  0.0830
    7MPD2     H13912   0.410   2.872  13.024 -1.5073  1.2456  0.0613
    7MPD2    H113913   0.195   2.494  13.057  0.0459 -0.5462 -0.5713
    7MPD2    H213914   0.002   2.829  12.899 -0.3741 -0.0061  0.8436
    7MPD2    H313915   0.014   2.588  12.959  0.1439  0.2111 -1.6681
    7MPD2     N13916   0.428   2.609  13.103  0.3286 -0.3508 -0.1451
    7MPD2    H513917   0.406   2.512  13.125  1.3928 -1.2597 -3.0607
    7MPD2    N113918   0.226   2.993  12.900  0.0391  0.2883 -0.3891
    7MPD2    H713919   0.313   3.045  12.905 -0.5855  1.4986 -2.0586
    8TMC3    C113920   0.643   2.556  13.165  0.2553  0.4118  0.2104
    8TMC3    C213921   0.707   2.593  13.283 -0.1846  0.1007  0.3630
    8TMC3    C313922   0.845   2.609  13.283  0.7676 -0.7743  0.0688
    8TMC3    C413923   0.708   2.529  13.051  0.2077 -0.7130 -0.0926
    8TMC3    C513924   0.841   2.551  13.051  0.5708 -0.1005  0.6596
    8TMC3    C613925   0.910   2.579  13.163  0.2503 -0.2796  0.2846
    8TMC3     C13926   0.549   2.660  13.132  0.4916  0.1221  0.3615
    8TMC3     O13927   0.597   2.769  13.108  0.2269 -0.1464 -0.8552
    8TMC3     H13928   0.644   2.647  13.353  0.2079  1.2157 -0.1437
    8TMC3    H113929   0.656   2.527  12.956  0.0323  1.1613 -0.0342
    8TMC3    H213930   1.016   2.601  13.159  0.2700 -0.4920 -0.3457
    8TMC3    C713931   0.870   2.638  12.939 -0.0980  1.2752 -0.1786
    8TMC3    C813932   0.925   2.654  13.389  0.4316 -0.0789 -0.7550
    8TMC3    O113933   0.985   2.626  12.892  0.2796 -0.1418  0.3200
    8TMC3    O213934   1.046   2.637  13.380  0.1712 -0.2704 -0.0039
    9TMC3    C113935   0.197   3.374  12.683 -0.1036  0.7394  0.3610
    9TMC3    C213936   0.320   3.353  12.629 -0.0024  0.1569 -0.2242
    9TMC3    C313937   0.371   3.226  12.644 -0.0091  0.4055 -0.0865
    9TMC3    C413938   0.125   3.280  12.750 -0.1044  0.6336  0.1103
    9TMC3    C513939   0.176   3.158  12.757 -0.5183  0.5472  0.2036
    9TMC3    C613940   0.298   3.126  12.706  0.5929  0.7442  0.1219
    9TMC3     C13941   0.157   3.514  12.703  0.4033 -0.7464 -0.0219
    9TMC3     O13942   0.069   3.533  12.787  0.2713 -0.6214  0.3430
    9TMC3     H13943   0.383   3.429  12.584 -0.1773 -1.0915 -2.5837
    9TMC3    H113944   0.035   3.320  12.798 -1.7771 -2.3345 -0.5737
    9TMC3    H213945   0.335   3.024  12.696  4.5793  2.4355 -2.4768
    9TMC3    C713946   0.127   3.070  12.853 -0.7921 -0.2302  0.0351
    9TMC3    C813947   0.515   3.195  12.615 -0.6169  0.5526  0.4474
    9TMC3    O113948   0.011   3.079  12.887  0.4714 -0.1324  0.6923
    9TMC3    O213949   0.580   3.257  12.533 -0.0118 -0.0331  0.1823
   10MPD2     C13950   0.878   2.844  12.717 -0.1163  0.8147  0.1246
   10MPD2    C113951   0.780   2.836  12.808  0.3359 -0.4117  0.3979
   10MPD2    C213952   0.669   2.920  12.811 -0.0509 -0.2357  0.5464
   10MPD2    C313953   0.669   3.019  12.710  0.2830 -0.0206 -0.3725
   10MPD2    C413954   0.774   3.041  12.619 -0.4266  0.0303 -0.1664
   10MPD2    C513955   0.873   2.942  12.619 -0.5618 -0.0179  0.2467
   10MPD2     H13956   0.594   2.920  12.890 -0.4138 -0.2498  0.2007
   10MPD2    H113957   0.777   3.119  12.544 -0.0511  0.6903  0.5366
   10MPD2    H213958   0.967   2.783  12.715  0.6243  1.8932 -0.0669
   10MPD2    H313959   0.953   2.958  12.547 -0.8455 -1.1135 -0.3050
   10MPD2     N13960   0.552   3.100  12.709  0.0856  0.3167  0.6366
   10MPD2    H513961   0.481   3.077  12.778  1.2079 -0.7588  1.4258
   10MPD2    N113962   0.771   2.731  12.904 -0.2088  0.1497  0.1500
   10MPD2    H713963   0.691   2.747  12.965 -1.6898 -0.0380 -1.7313
   11MPD2     C13964   1.486   2.146  14.031 -0.2910 -0.5103  0.3035
   11MPD2    C113965   1.545   2.241  14.114 -0.0872 -0.1432  0.6711
   11MPD2    C213966   1.554   2.372  14.066  0.5581 -0.0604 -0.1046
   11MPD2    C313967   1.508   2.409  13.937  0.0309  0.0756 -0.9310
   11MPD2    C413968   1.432   2.309  13.871 -0.3761  0.3222  0.2173
   11MPD2    C513969   1.421   2.183  13.917  0.1405 -0.8877  0.2463
   11MPD2     H13970   1.604   2.442  14.132 -1.6617  0.4164  1.0937
   11MPD2    H113971   1.372   2.339  13.786  2.8137 -2.0427 -2.8725
   11MPD2    H213972   1.477   2.043  14.065  0.9928 -1.3508 -1.8716
   11MPD2    H313973   1.364   2.114  13.856  0.3048 -0.8183  0.0176
   11MPD2     N13974   1.519   2.544  13.892 -0.4348  0.5127  0.2013
   11MPD2    H513975   1.472   2.567  13.805  0.2721  1.0696 -0.0367
   11MPD2    N113976   1.597   2.216  14.246 -0.5784  0.4286 -0.1122
   11MPD2    H713977   1.643   2.286  14.303 -0.8864 -0.5735  1.3532
    1MPD1     C13978   4.312   3.130  17.160 -0.1383  0.5366 -0.4263
    1MPD1    C113979   4.443   3.094  17.169 -0.0053  0.0194 -0.3692
    1MPD1    C213980   4.510   3.062  17.053 -0.6301 -0.4183  0.8059
    1MPD1    C313981   4.454   3.038  16.930  0.1901 -0.2271  0.2387
    1MPD1    C413982   4.320   3.080  16.928  0.2502  0.6966  0.0553
    1MPD1    C513983   4.252   3.108  17.040 -0.0753 -1.3770 -0.3823
    1MPD1     H13984   4.615   3.038  17.070 -0.4238 -0.5547 -0.6351
    1MPD1    H113985   4.273   3.070  16.831  0.0457  1.5676  0.0669
    1MPD1    H213986   4.244   3.151  17.241  1.0896 -1.2537  1.0730
    1MPD1    H313987   4.149   3.144  17.039  1.2485  2.4240  1.4889
    1MPD1     N13988   4.524   2.989  16.814  0.2612 -0.2734 -0.0271
    1MPD1    H513989   4.472   2.998  16.728 -2.5383  0.6808  1.7552
    1MPD1    N113990   4.516   3.115  17.283 -0.3175 -0.1376 -0.4517
    1MPD1    H613991   4.583   3.040  17.289 -1.4201 -1.0503  0.5192
    1MPD1    H713992   4.446   3.108  17.357 -0.7347 -0.5635 -0.8911
    2MPD1     C13993   0.657   3.197  16.352  0.5977  0.9874 -0.2786
    2MPD1    C113994   0.597   3.255  16.459  0.2017  0.0323  0.8854
    2MPD1    C213995   0.478   3.195  16.506  0.0349  0.4498  0.6916
    2MPD1    C313996   0.419   3.083  16.452 -0.3351  0.1939 -0.1348
    2MPD1    C413997   0.498   3.014  16.359  0.1606 -0.7167  0.2344
    2MPD1    C513998   0.613   3.075  16.317 -0.8570  0.5681 -0.2569
    2MPD1     H13999   0.414   3.256  16.570 -1.8094  1.0569 -1.7277
    2MPD1    H114000   0.476   2.916  16.317 -2.0859 -0.2382  0.2806
    2MPD1    H214001   0.751   3.231  16.310  0.4713  0.3664 -1.0818
    2MPD1    H314002   0.672   3.021  16.244 -0.6857 -0.5354  0.6855
    2MPD1     N14003   0.299   3.037  16.501  0.2730  0.1383 -0.1200
    2MPD1    H514004   0.255   3.073  16.585  0.6085 -1.9447  0.9306
    2MPD1    N114005   0.645   3.376  16.512  0.5859 -0.4219  0.1844
    2MPD1    H614006   0.616   3.404  16.605 -2.8342 -1.9123 -0.4280
    2MPD1    H714007   0.745   3.392  16.505  0.6190 -0.8527 -0.2734
    3TMC3    C114008   0.112   2.904  16.506 -0.0557  0.0257  0.0603
    3TMC3    C214009   0.045   2.804  16.449 -0.1803 -0.0442  0.1555
    3TMC3    C314010   4.662   2.759  16.520  0.2369 -0.0688 -0.0393
    3TMC3    C414011   0.092   2.958  16.628 -0.0854  0.3478  0.7381
    3TMC3    C514012   4.701   2.911  16.687 -0.1261  0.7216  0.1985
    3TMC3    C614013   4.624   2.810  16.638  0.7632 -0.4532  0.2981
    3TMC3     C14014   0.227   2.938  16.438 -1.1140  0.4453  0.7389
    3TMC3     O14015   0.244   2.887  16.333 -0.1860  0.1435  0.3330
    3TMC3     H14016   0.086   2.750  16.364 -0.3509  0.9909 -0.5882
    3TMC3    H114017   0.139   3.038  16.683 -0.8209  1.5923 -0.4418
    3TMC3    H214018   4.536   2.768  16.685  1.7963  0.6828  3.2713
    3TMC3    C714019   4.656   2.967  16.812  0.8823 -0.2649 -0.2137
    3TMC3    C814020   4.578   2.661  16.450 -0.4125  1.2388  0.2682
    3TMC3    O114021   0.026   3.012  16.880  0.4960 -0.0757 -0.5875
    3TMC3    O214022   4.553   2.554  16.508  0.1823 -0.7682 -0.2599
    4MPD1     C14023   4.306   2.541  16.021  0.0953 -1.1441  0.2162
    4MPD1    C114024   4.348   2.670  16.005  0.2615  0.5465 -0.6068
    4MPD1    C214025   4.418   2.730  16.115 -0.9538  0.2128  0.7286
    4MPD1    C314026   4.462   2.656  16.228 -0.8360 -0.3124  0.1444
    4MPD1    C414027   4.431   2.520  16.232 -0.4274  0.3568  0.0844
    4MPD1    C514028   4.359   2.466  16.125  0.1564  0.6782 -0.2607
    4MPD1     H14029   4.464   2.827  16.104  2.0840 -1.5330 -1.8765
    4MPD1    H114030   4.470   2.459  16.312 -1.2138 -1.0062 -0.5713
    4MPD1    H214031   4.247   2.497  15.942 -1.3693  1.4907 -0.1546
    4MPD1    H314032   4.347   2.358  16.128 -3.9868  1.1700 -0.1119
    4MPD1     N14033   4.544   2.720  16.328 -0.4014  0.4528  0.1179
    4MPD1    H514034   4.569   2.815  16.305  0.1246 -0.4838 -3.2446
    4MPD1    N114035   4.297   2.735  15.897 -0.2756  0.0615  0.8177
    4MPD1    H614036   4.347   2.821  15.873 -2.1934  0.6578 -1.0270
    4MPD1    H714037   4.319   2.673  15.819 -0.1371  1.2739 -0.1204
    1TCq1    O114038   0.986   2.821  12.154  0.1270  0.3006  0.1923
    1TCq1    C114039   1.118   2.825  12.187 -0.0609 -0.0785 -0.3009
    1TCq1    O214040   1.198   2.890  12.126  0.0559 -0.0867 -0.6731
    1TCq1    C214041   1.117   2.795  12.333  0.3696 -0.1169 -0.4033
    1TCq1    C314042   1.059   2.675  12.361  0.4507  0.1909 -0.2234
    1TCq1    C414043   1.112   2.595  12.463 -0.0312 -0.1339 -0.6490
    1TCq1    C514044   1.217   2.642  12.538 -0.2619 -0.2194  1.1211
    1TCq1    C614045   1.264   2.767  12.506 -0.1844  0.8676  0.8441
    1TCq1    C714046   1.219   2.838  12.400  0.2993  0.0331 -0.0006
    1TCq1    C814047   1.383   2.822  12.566  0.4453 -0.6860  0.3312
    1TCq1    O414048   1.424   2.926  12.523 -0.2908 -0.4125  0.3139
    1TCq1    C914049   1.029   2.486  12.508 -0.2270 -1.1164  0.6175
    1TCq1    O514050   1.084   2.405  12.584 -0.6413 -0.1880 -0.4340
    1TCq1    O614051   0.914   2.478  12.459  0.4954 -0.7273  0.2490
    1TCq1    H114052   0.932   2.786  12.228  0.7497 -1.9831 -0.4380
    1TCq1    H214053   0.980   2.636  12.297  1.1038 -2.2729  0.4605
    1TCq1    H314054   1.237   2.581  12.625  0.6790 -2.3121 -0.5717
    1TCq1    H414055   1.269   2.923  12.356 -0.9113  0.0202 -1.3991
    2MPD1     C14056   1.739   2.854  12.945  0.1373  0.2557 -0.6958
    2MPD1    C114057   1.646   2.763  12.976  0.1573 -0.4092 -0.0782
    2MPD1    C214058   1.542   2.730  12.890 -0.0673  0.2199 -0.0940
    2MPD1    C314059   1.529   2.794  12.765  0.3835 -0.2834 -0.5118
    2MPD1    C414060   1.623   2.897  12.743  0.6293  0.3065 -0.2298
    2MPD1    C514061   1.725   2.918  12.827 -0.0292  0.2430 -0.2216
    2MPD1     H14062   1.475   2.653  12.925 -0.9104  0.1991 -1.7788
    2MPD1    H114063   1.620   2.947  12.647 -1.0934 -1.0949 -0.9127
    2MPD1    H214064   1.821   2.890  13.006 -0.3517 -0.8714  0.6050
    2MPD1    H314065   1.791   3.003  12.815 -0.0310  0.1073 -1.2110
    2MPD1     N14066   1.426   2.757  12.674 -0.2811 -0.1018 -0.3345
    2MPD1    H514067   1.370   2.674  12.691 -0.3248  0.2559  1.2677
    2MPD1    N114068   1.652   2.707  13.107 -0.5862  0.2912  0.5001
    2MPD1    H614069   1.746   2.680  13.136 -0.3032  1.6058  0.7797
    2MPD1    H714070   1.592   2.627  13.126  0.6328 -0.3512  1.6431
    1TCq1    O114071   1.369   3.371   9.607 -0.5155 -0.0447 -0.8079
    1TCq1    C114072   1.496   3.398   9.649 -0.3503  0.1367  0.1029
    1TCq1    O214073   1.529   3.500   9.712 -0.0970  0.2409 -0.1414
    1TCq1    C214074   1.566   3.271   9.656 -0.2074  0.1176  0.3337
    1TCq1    C314075   1.566   3.194   9.544  1.1678  0.0079 -0.2075
    1TCq1    C414076   1.653   3.088   9.546 -0.6670  0.0767  0.2477
    1TCq1    C514077   1.763   3.087   9.629 -0.0990  0.1416  0.1888
    1TCq1    C614078   1.762   3.171   9.734  0.0559 -0.6881  0.0867
    1TCq1    C714079   1.653   3.250   9.757  0.4713 -0.3207  0.2647
    1TCq1    C814080   1.840   3.157   9.861  0.0259 -0.3410  0.6208
    1TCq1    O414081   1.803   3.226   9.955  0.0770 -0.2892  0.5842
    1TCq1    C914082   1.672   3.016   9.422  0.3552  0.0769 -0.6511
    1TCq1    O514083   1.782   2.955   9.404  0.0011  0.2781 -0.2168
    1TCq1    O614084   1.581   3.033   9.335  0.2532  0.3133  0.1100
    1TCq1    H114085   1.344   3.276   9.605 -3.1104  0.6499 -1.7375
    1TCq1    H214086   1.500   3.200   9.458 -0.4691 -0.6897  0.9958
    1TCq1    H314087   1.846   3.018   9.621  0.4984  1.1126 -1.9995
    1TCq1    H414088   1.636   3.311   9.845 -0.2690  1.6163 -1.2293
    2MPD1     C14089   2.260   3.054  10.125  0.0692  0.3746 -0.5601
    2MPD1    C114090   2.294   3.071   9.997  0.0221 -0.1302 -0.5349
    2MPD1    C214091   2.192   3.091   9.903 -0.0567  0.3497 -0.1940
    2MPD1    C314092   2.060   3.088   9.943  0.5510  0.4077  0.1253
    2MPD1    C414093   2.019   3.064  10.072 -0.3699  0.0144  0.3918
    2MPD1    C514094   2.126   3.045  10.155  0.9380 -0.5531 -0.4318
    2MPD1     H14095   2.232   3.114   9.804  1.1982 -2.2733 -0.3025
    2MPD1    H114096   1.918   3.065  10.110 -0.6246 -2.3384 -0.2279
    2MPD1    H214097   2.337   3.035  10.198 -2.1436 -1.4101  1.3011
    2MPD1    H314098   2.109   3.022  10.260 -1.8549  0.0950 -0.7627
    2MPD1     N14099   1.970   3.116   9.836 -0.6347  0.6587  0.3267
    2MPD1    H514100   2.009   3.118   9.742  0.6059 -0.6190  0.7982
    2MPD1    N114101   2.430   3.084   9.969 -0.7405 -0.6952  0.2962
    2MPD1    H614102   2.447   3.085   9.869  1.1516 -0.8963  0.6093
    2MPD1    H714103   2.487   3.017  10.021  0.4123 -0.0847 -0.1786
    1MPD1     C14104   1.671   4.329  10.727  0.1114 -0.2498  0.7617
    1MPD1    C114105   1.778   4.415  10.737  0.3133  0.5450 -0.9753
    1MPD1    C214106   1.865   4.381  10.842  0.0517  0.7468  0.2548
    1MPD1    C314107   1.856   4.264  10.910 -0.5366  0.3696  0.4437
    1MPD1    C414108   1.756   4.174  10.878 -0.2765  0.1632 -0.0032
    1MPD1    C514109   1.666   4.206  10.781  0.4160  0.4568  0.0925
    1MPD1     H14110   1.930   4.464  10.870  1.6474 -0.2305 -0.5373
    1MPD1    H114111   1.752   4.074  10.919 -1.0033 -0.7104 -2.2676
    1MPD1    H214112   1.592   4.362  10.661 -0.4125 -0.6751  1.1841
    1MPD1    H314113   1.586   4.136  10.757  0.8599 -0.0308  0.0358
    1MPD1     N14114   1.964   4.255  11.004  0.1307 -0.2871 -0.4685
    1MPD1    H514115   2.013   4.340  11.033  1.2541 -0.3702 -2.1298
    1MPD1    N114116   1.771   4.538  10.674 -0.2384 -0.0468 -0.6835
    1MPD1    H614117   1.859   4.565  10.631 -0.2358  0.3826 -0.4103
    1MPD1    H714118   1.706   4.532  10.596  0.3464  0.2350 -1.1873
    2MPD1     C14119   1.469   3.341  11.623 -0.1331  0.7021  0.3138
    2MPD1    C114120   1.440   3.413  11.512 -0.7431  0.6013 -0.7124
    2MPD1    C214121   1.478   3.352  11.392  0.5383  0.0384  0.2937
    2MPD1    C314122   1.497   3.219  11.382 -0.4024  0.3776 -0.0152
    2MPD1    C414123   1.506   3.145  11.496  0.4126 -0.5318 -0.1981
    2MPD1    C514124   1.508   3.211  11.618 -0.1104  0.8908  0.1304
    2MPD1     H14125   1.469   3.415  11.304  0.7695 -1.2690 -0.6748
    2MPD1    H114126   1.517   3.037  11.495 -0.9688 -0.6850  0.1387
    2MPD1    H214127   1.459   3.384  11.722  0.5385  0.3441  0.5360
    2MPD1    H314128   1.516   3.162  11.714  0.4672 -1.8587 -1.3318
    2MPD1     N14129   1.509   3.150  11.259 -0.4243  0.6660 -0.1055
    2MPD1    H514130   1.504   3.049  11.255 -0.5678  0.7275 -1.5797
    2MPD1    N114131   1.438   3.554  11.530 -0.2852 -0.4026 -0.8859
    2MPD1    H614132   1.390   3.579  11.616  0.7472 -0.6274 -0.2362
    2MPD1    H714133   1.377   3.599  11.462 -2.4912  0.4576  1.6766
    3MPD1     C14134   1.318   2.274  10.911 -0.1666  0.1826  0.4862
    3MPD1    C114135   1.321   2.335  10.786 -0.1940  0.6588  0.2314
    3MPD1    C214136   1.355   2.474  10.787 -0.4944 -0.0637  0.1374
    3MPD1    C314137   1.402   2.545  10.901 -0.2717  0.8181 -0.1577
    3MPD1    C414138   1.413   2.472  11.020  0.8248 -0.0096  0.7478
    3MPD1    C514139   1.360   2.343  11.021  0.3256  0.2994  0.0244
    3MPD1     H14140   1.349   2.539  10.700 -0.9155 -1.7584 -1.0950
    3MPD1    H114141   1.453   2.516  11.111 -1.3237  1.4347  1.0186
    3MPD1    H214142   1.289   2.170  10.924 -0.8518  0.6562  2.6291
    3MPD1    H314143   1.365   2.292  11.116 -0.8784 -0.8119 -0.5131
    3MPD1     N14144   1.435   2.678  10.891  0.4096  0.0711  0.5093
    3MPD1    H514145   1.442   2.717  10.798  0.1672 -0.7638  0.1409
    3MPD1    N114146   1.248   2.276  10.687 -0.2570  0.4835  0.1990
    3MPD1    H614147   1.274   2.313  10.596 -0.8627 -1.6890 -0.8664
    3MPD1    H714148   1.247   2.174  10.676  1.6888  0.5955 -1.2027
    4MPD2     C14149   2.517   4.095  10.835 -0.2755  0.0709 -0.6925
    4MPD2    C114150   2.494   4.029  10.953 -0.1127  0.0982 -0.4026
    4MPD2    C214151   2.498   3.895  10.942 -0.2122 -0.1713  0.2558
    4MPD2    C314152   2.527   3.819  10.830 -0.2196 -0.0458 -0.9790
    4MPD2    C414153   2.553   3.888  10.715 -0.0360 -0.3588 -0.4140
    4MPD2    C514154   2.541   4.028  10.722  0.0767 -0.6071  0.2652
    4MPD2     H14155   2.473   3.838  11.031  1.0228  0.2521  0.8795
    4MPD2    H114156   2.583   3.842  10.622  0.0735 -1.9787  0.4073
    4MPD2    H214157   2.517   4.204  10.829 -2.5818  0.1017 -0.4184
    4MPD2    H314158   2.549   4.087  10.631 -0.8607 -1.9474 -0.6712
    4MPD2     N14159   2.532   3.677  10.835  0.0515  0.8624  0.0201
    4MPD2    H514160   2.502   3.637  10.924  4.4664  0.9797  1.5175
    4MPD2    N114161   2.454   4.087  11.074  0.8223 -0.0063 -0.9424
    4MPD2    H714162   2.436   4.024  11.152 -1.3500 -1.2470 -2.4392
    5TMC3    C114163   2.327   4.224  11.203 -0.2905 -0.3496 -0.2074
    5TMC3    C214164   2.197   4.248  11.164  0.5491  0.3984  0.3329
    5TMC3    C314165   2.100   4.150  11.179  0.0202 -0.0831 -0.0780
    5TMC3    C414166   2.347   4.123  11.291  0.0071 -0.4121 -1.0756
    5TMC3    C514167   2.246   4.041  11.324 -0.2490  0.6743 -0.0163
    5TMC3    C614168   2.121   4.049  11.266 -0.0157 -0.0768  0.0631
    5TMC3     C14169   2.420   4.217  11.095 -0.2286 -0.5314 -0.2740
    5TMC3     O14170   2.399   4.302  11.008 -0.0485 -1.0596  0.7245
    5TMC3     H14171   2.185   4.326  11.090 -0.5517  0.7228  0.8515
    5TMC3    H114172   2.441   4.124  11.346  0.1260  1.4281 -1.3103
    5TMC3    H214173   2.044   3.973  11.263 -0.4310  0.4233 -1.9576
    5TMC3    C714174   2.302   3.903  11.343 -0.0009 -0.3842 -0.9648
    5TMC3    C814175   1.992   4.142  11.080 -0.4197  0.1122 -0.3630
    5TMC3    O114176   2.399   3.875  11.273 -0.3017  0.0845  0.1142
    5TMC3    O214177   1.931   4.034  11.078  0.2984  0.1713  0.5036
    6TMC3    C114178   1.511   3.126  11.020 -0.3090  0.1787  0.1302
    6TMC3    C214179   1.461   2.998  11.042 -0.4012  0.3039  0.0662
    6TMC3    C314180   1.495   2.898  10.960  0.0532 -0.0330  0.2191
    6TMC3    C414181   1.620   3.143  10.936  0.5759 -0.2364 -0.2590
    6TMC3    C514182   1.654   3.036  10.852  0.7080  0.1134  0.1003
    6TMC3    C614183   1.596   2.917  10.867 -0.3262 -0.3358  0.0883
    6TMC3     C14184   1.532   3.216  11.139 -0.0727  0.0737  0.2194
    6TMC3     O14185   1.540   3.334  11.103  0.2511  0.2303  0.0124
    6TMC3     H14186   1.387   2.975  11.117 -1.8430  1.6709 -0.9227
    6TMC3    H114187   1.665   3.241  10.926  2.3284 -0.9455  0.5327
    6TMC3    H214188   1.620   2.844  10.791  2.4765  1.4061 -0.6850
    6TMC3    C714189   1.790   3.028  10.799 -0.3944 -0.1510  0.0965
    6TMC3    C814190   1.447   2.762  10.998 -0.0998  0.0178  0.6179
    6TMC3    O114191   1.837   3.133  10.749 -0.2513  0.0734 -1.5586
    6TMC3    O214192   1.427   2.744  11.118  0.3301 -0.0747  0.4850
    7MPD2     C14193   2.213   3.403  11.368 -0.1394 -0.0243 -0.0370
    7MPD2    C114194   2.279   3.474  11.276 -0.2163 -0.0133 -0.2856
    7MPD2    C214195   2.294   3.611  11.306  0.1088  0.1787 -0.3407
    7MPD2    C314196   2.209   3.675  11.393 -0.7732 -0.0761  0.0944
    7MPD2    C414197   2.122   3.601  11.470 -0.0233  0.5042 -0.1436
    7MPD2    C514198   2.138   3.463  11.471  0.2891  0.0397 -0.0551
    7MPD2     H14199   2.355   3.672  11.241  1.5413  1.9183  2.6239
    7MPD2    H114200   2.063   3.652  11.545 -0.3785 -0.9280  0.5463
    7MPD2    H214201   2.211   3.295  11.357  3.4234 -0.0730 -0.1966
    7MPD2    H314202   2.089   3.397  11.542  1.7802 -0.3152  0.6356
    7MPD2     N14203   2.207   3.823  11.404 -0.5783 -0.0462 -0.3218
    7MPD2    H514204   2.125   3.857  11.454 -1.1911 -0.9534 -0.7088
    7MPD2    N114205   2.334   3.414  11.162  0.5936  0.6498  0.2689
    7MPD2    H714206   2.295   3.321  11.144  1.1813  0.3971  0.2969
    8TMC3    C114207   2.510   3.375  11.002  0.4069 -0.3851  0.2618
    8TMC3    C214208   2.429   3.274  10.956  0.3670 -0.8227 -0.6560
    8TMC3    C314209   2.423   3.258  10.817  0.1357  0.4235  0.5709
    8TMC3    C414210   2.578   3.455  10.922 -0.5968 -0.1214 -0.8357
    8TMC3    C514211   2.547   3.460  10.791  0.1325 -0.2750  0.1534
    8TMC3    C614212   2.480   3.353  10.734  0.5150  0.3573  0.9263
    8TMC3     C14213   2.442   3.466  11.095  0.5495 -0.1488  1.0519
    8TMC3     O14214   2.489   3.577  11.110 -0.3992 -0.1485  0.2843
    8TMC3     H14215   2.376   3.215  11.030  0.7261  0.8511  0.9667
    8TMC3    H114216   2.642   3.531  10.966  1.6681 -1.2501 -2.2036
    8TMC3    H214217   2.465   3.344  10.627  2.4753  2.0488  0.5191
    8TMC3    C714218   2.542   3.591  10.735  0.0191  0.2796  0.1445
    8TMC3    C814219   2.308   3.183  10.770 -0.1000 -0.4480 -0.4697
    8TMC3    O114220   2.529   3.596  10.611  0.4950 -0.0557 -0.2006
    8TMC3    O214221   2.222   3.231  10.700 -0.1623  0.2326  0.3387
    9MPD2     C14222   2.250   2.855  10.932  0.2817 -0.0568 -0.5551
    9MPD2    C114223   2.214   2.969  10.866  0.1846  0.3742 -0.3892
    9MPD2    C214224   2.082   2.982  10.826 -0.6855 -0.0224 -0.7858
    9MPD2    C314225   1.987   2.889  10.860  0.5911 -0.0132 -0.1614
    9MPD2    C414226   2.027   2.766  10.912 -0.3624 -0.4740  0.1446
    9MPD2    C514227   2.155   2.754  10.950  0.1160 -0.0765 -0.2530
    9MPD2     H14228   2.053   3.079  10.787  2.6630  1.1615 -0.3134
    9MPD2    H114229   1.949   2.698  10.945 -0.7062  0.0253  0.3643
    9MPD2    H214230   2.348   2.847  10.978 -0.6359  0.7042  1.4835
    9MPD2    H314231   2.188   2.666  11.004  0.3086  0.9004  1.1887
    9MPD2     N14232   1.849   2.910  10.841  0.3230  0.5963  0.2851
    9MPD2    H514233   1.788   2.837  10.877  1.6530 -0.0572  1.1988
    9MPD2    N114234   2.321   3.066  10.845 -0.2639 -0.3052 -0.6797
    9MPD2    H714235   2.415   3.059  10.884 -1.6527  0.3546  2.7330
    1MPD1     C14236   1.173   2.260  16.472  0.5647  0.0067 -0.0763
    1MPD1    C114237   1.239   2.337  16.386 -0.1920 -0.0919 -0.0933
    1MPD1    C214238   1.356   2.294  16.320  0.2405  0.0033  0.0350
    1MPD1    C314239   1.383   2.162  16.331 -0.6726 -0.1541  0.4302
    1MPD1    C414240   1.302   2.079  16.414  0.0321 -0.2986  0.0905
    1MPD1    C514241   1.203   2.129  16.481 -0.0524  0.1711 -0.2276
    1MPD1     H14242   1.412   2.367  16.262  0.3277  0.4316  0.6643
    1MPD1    H114243   1.339   1.977  16.416 -1.5594 -0.8494  1.5371
    1MPD1    H214244   1.091   2.304  16.527 -1.6076 -0.8954 -2.6174
    1MPD1    H314245   1.130   2.071  16.537  0.0729  2.0843  1.9363
    1MPD1     N14246   1.504   2.101  16.282 -0.4463  0.4942  0.3369
    1MPD1    H514247   1.520   2.002  16.297 -1.3973  0.0448 -1.5108
    1MPD1    N114248   1.210   2.476  16.391  0.1410  0.7443 -0.0659
    1MPD1    H614249   1.248   2.525  16.310 -0.1868 -0.7383 -1.1289
    1MPD1    H714250   1.119   2.512  16.421 -0.7716 -1.7432  0.1847
    2MPD1     C14251   1.691   1.279  16.312  0.3908 -0.0368 -0.1140
    2MPD1    C114252   1.587   1.372  16.311 -0.9364  0.3186  0.9119
    2MPD1    C214253   1.624   1.506  16.315 -0.1816  0.5259  0.3543
    2MPD1    C314254   1.749   1.554  16.284 -0.5808 -0.7879 -0.0532
    2MPD1    C414255   1.848   1.462  16.267  0.2551 -0.1149  0.3330
    2MPD1    C514256   1.825   1.324  16.298 -0.5422  0.1065 -0.0216
    2MPD1     H14257   1.542   1.577  16.324  0.1982  0.8266  1.3677
    2MPD1    H114258   1.951   1.494  16.261  0.3320 -0.1882  1.2609
    2MPD1    H214259   1.671   1.174  16.330  2.3779 -0.2291  1.0767
    2MPD1    H314260   1.909   1.256  16.302  0.7584  1.6515 -0.7710
    2MPD1     N14261   1.765   1.698  16.281  0.0344  0.7147  0.2789
    2MPD1    H514262   1.686   1.761  16.271  0.9437  2.0185  1.3328
    2MPD1    N114263   1.452   1.324  16.330  0.0766  0.7171  0.9114
    2MPD1    H614264   1.392   1.391  16.283  0.5606  1.4684  1.3625
    2MPD1    H714265   1.426   1.240  16.278  3.7534 -1.3006  2.3464
    3TCq2    C114266   1.887   1.766  16.278 -0.2381  0.6368 -0.1989
    3TCq2    O214267   2.001   1.726  16.302  0.0113  0.2330 -0.0699
    3TCq2    C214268   1.873   1.900  16.235 -0.0807 -0.0521 -0.3407
    3TCq2    C314269   1.964   1.957  16.155  0.5126  0.0482 -0.0972
    3TCq2    C414270   1.945   2.086  16.104 -0.4926 -0.6296 -0.2074
    3TCq2    C514271   1.827   2.152  16.125  0.5496 -0.5458  0.3984
    3TCq2    C614272   1.729   2.089  16.197 -0.2245  0.9409  0.7190
    3TCq2    C714273   1.752   1.967  16.262 -0.3006 -0.0046  0.6032
    3TCq2    C814274   1.610   2.169  16.220 -0.4730  0.0134 -0.2404
    3TCq2    O414275   1.605   2.289  16.182  0.3780  0.3719  0.1618
    3TCq2    C914276   2.031   2.143  16.006  0.1082 -0.1049 -0.1439
    3TCq2    O514277   2.125   2.073  15.958 -0.2055  0.4432  1.5540
    3TCq2    O614278   2.016   2.268  15.972 -0.6214 -0.4813 -0.1183
    3TCq2    H214279   2.046   1.893  16.125 -0.9608 -1.8673 -0.0603
    3TCq2    H314280   1.819   2.245  16.071  0.0569 -0.4295  0.6687
    3TCq2    H414281   1.681   1.940  16.340 -2.4063  1.2901 -0.8782
    1TCq1    O114282   4.006   1.265  12.756 -0.1798 -0.1890 -0.8476
    1TCq1    C114283   3.882   1.252  12.814 -0.1789 -0.0031  0.3671
    1TCq1    O214284   3.846   1.321  12.908  0.0506 -0.4637 -0.7416
    1TCq1    C214285   3.852   1.111  12.803  0.9683  0.7250 -0.6432
    1TCq1    C314286   3.719   1.080  12.791 -0.9564  0.1073 -0.4012
    1TCq1    C414287   3.683   0.953  12.808  0.0910 -0.0054 -0.5366
    1TCq1    C514288   3.776   0.856  12.831  0.8170  0.0262  0.0458
    1TCq1    C614289   3.909   0.888  12.853 -0.8387 -0.4992 -0.1137
    1TCq1    C714290   3.951   1.018  12.829 -0.8188 -0.2308  0.1525
    1TCq1    C814291   3.973   0.815  12.957  0.3392  0.0422 -0.8502
    1TCq1    O414292   3.905   0.787  13.050 -0.1904 -0.1783  0.0226
    1TCq1    C914293   3.545   0.910  12.789  0.3439  0.2010  0.3207
    1TCq1    O514294   3.465   1.006  12.751  0.2465  0.3154 -0.2486
    1TCq1    O614295   3.516   0.788  12.790  0.0537  0.1899  0.4292
    1TCq1    H114296   4.010   1.194  12.689 -1.3432 -0.9757 -0.0933
    1TCq1    H214297   3.635   1.149  12.788 -1.9584 -1.0729  0.4031
    1TCq1    H314298   3.745   0.755  12.854 -0.1248 -0.1496 -1.9503
    1TCq1    H414299   4.049   1.048  12.862 -0.7520 -0.3518  0.0658
    2MPD2     C14300   4.145   0.660  13.121 -0.3417  0.4689 -0.1569
    2MPD2    C114301   4.197   0.750  13.030  0.1567  0.1995 -0.3442
    2MPD2    C214302   4.328   0.792  13.030 -0.0601 -0.1775  0.2404
    2MPD2    C314303   4.410   0.751  13.138 -0.1340 -0.2550 -0.1363
    2MPD2    C414304   4.364   0.653  13.222 -0.0609  0.0083 -0.0169
    2MPD2    C514305   4.233   0.605  13.213  0.2298 -0.1835 -0.6476
    2MPD2     H14306   4.367   0.870  12.966  1.1814 -0.9428  0.0542
    2MPD2    H114307   4.431   0.605  13.293 -1.2243  0.2476  1.2484
    2MPD2    H214308   4.046   0.616  13.126  0.2682 -0.7053  1.9170
    2MPD2    H314309   4.198   0.518  13.267  1.4898  0.1584  0.7468
    2MPD2     N14310   4.540   0.800  13.143 -0.0566 -0.0047  0.7085
    2MPD2    H514311   4.557   0.880  13.083  0.0745 -0.5841 -0.0229
    2MPD2    N114312   4.110   0.826  12.946 -0.1982  0.2891 -0.2723
    2MPD2    H714313   4.151   0.875  12.868 -2.1021 -0.6864 -1.8978
    3TCq1    O114314   0.256   1.151  13.063 -0.4464  0.2203 -0.2320
    3TCq1    C114315   0.151   1.167  13.140  0.2888  0.1013  0.1332
    3TCq1    O214316   0.044   1.209  13.106 -0.3446  0.0733 -0.0082
    3TCq1    C214317   0.154   1.028  13.187 -0.6545 -0.1341 -0.3394
    3TCq1    C314318   0.268   0.969  13.228  0.6807  0.7139 -0.4205
    3TCq1    C414319   0.266   0.834  13.252  0.0253 -0.4850  0.0741
    3TCq1    C514320   0.171   0.755  13.208 -0.4475 -0.1458 -0.0897
    3TCq1    C614321   0.051   0.813  13.183  0.0379  0.6494 -0.7982
    3TCq1    C714322   0.039   0.952  13.173 -0.2768  0.0570 -0.6785
    3TCq1    C814323   4.649   0.739  13.202  0.3869 -0.8375 -0.1346
    3TCq1    O414324   4.666   0.630  13.258  0.1578 -0.4464  0.0194
    3TCq1    C914325   0.372   0.780  13.324  1.0415  0.5030  0.1992
    3TCq1    O514326   0.398   0.660  13.298  0.6926  0.5166 -0.7376
    3TCq1    O614327   0.455   0.854  13.382  0.1969  0.2966 -0.4371
    3TCq1    H114328   0.333   1.112  13.110 -0.6082 -2.3289 -2.1284
    3TCq1    H214329   0.345   1.034  13.265  0.5524  0.2895  0.6047
    3TCq1    H314330   0.178   0.649  13.229  2.4595 -0.3901 -2.1957
    3TCq1    H414331   4.679   1.001  13.122 -0.7417 -0.9310 -0.8878
    1MPD2     C14332   4.673   2.556  14.737 -0.3869 -0.0340  0.5949
    1MPD2    C114333   4.575   2.463  14.766  0.5589 -0.2172 -0.4043
    1MPD2    C214334   4.597   2.374  14.867  0.3111  0.4828 -0.3965
    1MPD2    C314335   4.697   2.390  14.959  0.5715 -0.5168 -0.2311
    1MPD2    C414336   0.067   2.490  14.937  0.5026  0.0929 -0.4945
    1MPD2    C514337   0.057   2.569  14.824  0.0703 -0.0326 -0.2888
    1MPD2     H14338   4.540   2.282  14.875  0.0996  0.5497 -1.0618
    1MPD2    H114339   0.149   2.510  15.005  0.1911 -0.2612 -0.0162
    1MPD2    H214340   4.653   2.619  14.651  1.6881 -0.7113 -0.3639
    1MPD2    H314341   0.126   2.653  14.826 -0.2840  0.1925  3.3392
    1MPD2     N14342   4.713   2.295  15.061 -0.6742  1.1796 -0.4429
    1MPD2    H514343   4.644   2.221  15.056 -0.2406  0.7773 -0.4655
    1MPD2    N114344   4.464   2.449  14.675  0.1210 -0.1246  0.3713
    1MPD2    H714345   4.446   2.518  14.603  0.2783  2.0985  2.4299
    2TMC3    C114346   4.248   2.373  14.607  0.4465  0.3016  0.4014
    2TMC3    C214347   4.174   2.265  14.630  0.3630  0.1106 -0.3213
    2TMC3    C314348   4.044   2.280  14.659  0.6300  0.0963  0.0112
    2TMC3    C414349   4.190   2.494  14.602 -0.4252  0.1617 -0.1454
    2TMC3    C514350   4.052   2.504  14.615  0.3409 -0.4117 -0.1834
    2TMC3    C614351   3.975   2.400  14.626  0.1062 -0.4245  0.3993
    2TMC3     C14352   4.367   2.351  14.678 -0.0883 -0.3561  0.1368
    2TMC3     O14353   4.367   2.245  14.744 -0.2648  0.1192  0.0144
    2TMC3     H14354   4.210   2.165  14.607  0.4468 -0.2806  1.4967
    2TMC3    H114355   4.252   2.583  14.596  1.0408 -0.9736 -1.5144
    2TMC3    H214356   3.868   2.412  14.639  0.1060 -2.0418  1.9222
    2TMC3    C714357   3.994   2.631  14.579  0.0097  0.5058  0.1259
    2TMC3    C814358   3.993   2.199  14.770  0.6203  0.6539  0.1017
    2TMC3    O114359   3.887   2.623  14.523  0.4063  0.6893  0.4100
    2TMC3    O214360   3.874   2.184  14.782  0.3139 -0.3382  0.1093
    3TCq1    O114361   4.223   3.389  15.085  0.5243 -0.2426 -0.0281
    3TCq1    C114362   4.343   3.445  15.054 -0.4144 -0.0610  0.4251
    3TCq1    O214363   4.422   3.497  15.135 -0.5712  0.7693 -0.0139
    3TCq1    C214364   4.389   3.431  14.912  0.1733 -0.3505  0.0487
    3TCq1    C314365   4.523   3.418  14.887 -0.2727  0.4933  0.5121
    3TCq1    C414366   4.559   3.360  14.774 -0.3609  0.5558 -0.3606
    3TCq1    C514367   4.467   3.342  14.672 -0.2255 -0.7588 -0.1174
    3TCq1    C614368   4.338   3.376  14.698  0.1972  0.1056  0.1703
    3TCq1    C714369   4.298   3.402  14.819  0.3566 -0.4236 -0.1438
    3TCq1    C814370   4.245   3.315  14.604  0.4237 -0.3736 -0.1822
    3TCq1    O414371   4.226   3.354  14.489  0.8213 -0.6804  0.9012
    3TCq1    C914372   4.698   3.317  14.756  0.0078  1.0401  0.6334
    3TCq1    O514373   0.070   3.377  14.817  0.7641  0.1896  1.2180
    3TCq1    O614374   4.720   3.234  14.666 -0.4703 -0.1082 -0.2154
    3TCq1    H114375   4.183   3.339  15.011 -0.7086  0.8245 -0.0790
    3TCq1    H214376   4.594   3.426  14.969  0.9532 -0.7746 -0.4247
    3TCq1    H314377   4.498   3.298  14.577  0.0087 -2.1715  0.6184
    3TCq1    H414378   4.193   3.420  14.842  0.2890 -0.0426 -0.7670
    4MPD2     C14379   4.037   3.131  14.495 -0.3580  0.1359 -0.1656
    4MPD2    C114380   4.133   3.092  14.583 -0.6830 -0.7656  0.4113
    4MPD2    C214381   4.143   2.960  14.629 -0.3198 -0.5919 -0.3189
    4MPD2    C314382   4.055   2.867  14.572  0.2990  0.0496 -0.8489
    4MPD2    C414383   3.955   2.905  14.482  0.8932 -0.2730 -0.0175
    4MPD2    C514384   3.956   3.037  14.442  0.0184 -0.3308 -0.5384
    4MPD2     H14385   4.219   2.935  14.702  0.2234  0.4410 -0.5314
    4MPD2    H114386   3.886   2.838  14.430 -0.9398  2.1468 -0.6801
    4MPD2    H214387   4.010   3.236  14.485 -3.3484 -0.6336 -0.1670
    4MPD2    H314388   3.883   3.069  14.368 -0.4481  2.1301  0.9932
    4MPD2     N14389   4.078   2.734  14.605 -0.1912 -0.7923 -0.5111
    4MPD2    H514390   4.153   2.715  14.671  0.3464 -1.3629 -1.2963
    4MPD2    N114391   4.216   3.186  14.647  0.3496 -0.2708 -0.1920
    4MPD2    H714392   4.255   3.159  14.736 -0.0201 -1.1611 -0.3020
    5TMC2    C114393   4.590   2.047  15.266 -0.5757  0.1005  0.1195
    5TMC2    C214394   4.553   2.107  15.379 -0.1755  0.1557 -0.0084
    5TMC2    C314395   4.632   2.205  15.444  1.0889 -0.4053 -0.7440
    5TMC2    C414396   4.706   2.091  15.206 -0.3892 -0.3098  0.3880
    5TMC2    C514397   0.054   2.198  15.260  0.1772 -0.3591 -0.4022
    5TMC2    C614398   0.018   2.252  15.380 -0.2297  0.1078  0.1631
    5TMC2     C14399   4.485   2.040  15.173  0.7598 -0.3228 -0.4876
    5TMC2     O14400   4.509   2.052  15.053 -0.4394 -0.7260 -0.1510
    5TMC2     H14401   4.464   2.085  15.437  0.6506 -0.6017  0.9486
    5TMC2    H114402   0.022   2.050  15.113 -1.1281 -0.7103  0.2674
    5TMC2    H214403   0.073   2.338  15.416 -1.0871 -0.1656  2.1033
    5TMC2    C714404   0.084   2.306  15.167  0.3164  0.3518  0.6967
    5TMC2    C814405   4.592   2.257  15.567  0.2413 -0.5991  0.6355
    5TMC2    O114406   0.157   2.399  15.196 -0.4298 -0.0513 -0.0940
    5TMC2    O214407   4.561   2.187  15.661  0.3057  0.2665  0.2808
    5TMC2    O514408   4.516   2.364  15.535 -0.2928 -0.0836  0.4236
    5TMC2    H514409   4.537   2.396  15.445  0.7889  0.0729  0.7376
    6MPD2     C14410   3.997   2.052  15.033 -0.1096  0.7260 -0.7164
    6MPD2    C114411   4.104   2.108  14.975 -0.4654  0.2776  0.1211
    6MPD2    C214412   4.227   2.098  15.041 -0.6758  0.3339 -0.0342
    6MPD2    C314413   4.242   2.031  15.164  0.1402 -0.4158  0.2228
    6MPD2    C414414   4.129   1.973  15.218 -0.3106  0.1367  0.2893
    6MPD2    C514415   4.012   1.980  15.151 -0.3795  0.4974 -0.3230
    6MPD2     H14416   4.305   2.158  14.995  0.9945 -0.6739  1.4813
    6MPD2    H114417   4.145   1.925  15.314  2.4588 -0.5495 -0.5143
    6MPD2    H214418   3.900   2.063  14.987 -0.6663 -1.7909 -0.1469
    6MPD2    H314419   3.927   1.934  15.199 -0.1687  0.8984  0.4392
    6MPD2     N14420   4.368   2.025  15.228  0.1675  0.4000  0.2005
    6MPD2    H514421   4.373   1.995  15.325  1.3872  0.9065  0.3056
    6MPD2    N114422   4.105   2.169  14.849 -0.4931 -0.6166  0.1388
    6MPD2    H714423   4.194   2.208  14.818  0.8860 -1.4617  3.0426
  945NH4     N114424   1.941   3.114   9.198 -0.4335 -0.4914  0.1143
  945NH4     H214425   2.012   3.050   9.157  0.3938  1.8075 -2.0527
  945NH4     H314426   1.871   3.051   9.242 -0.0067 -0.7529  0.4240
  945NH4     H414427   1.903   3.166   9.117 -0.3044 -0.3720  0.1311
  945NH4     H514428   1.978   3.178   9.272 -1.5409  0.6734 -0.3349
  946SOD     NA14429   1.979   1.890   1.694 -0.3323 -0.1834 -0.2671
  947SOD     NA14430   0.764   1.335  14.511  0.3211  0.1397 -0.0569
  948SOD     NA14431   1.166   0.684   3.334 -0.2700 -0.0196  0.5660
  949SOD     NA14432   4.091   1.248  14.107 -0.1657  0.2476  0.0536
  950SOD     NA14433   2.201   0.073   7.927  0.2627 -0.4692  0.3012
  951SOD     NA14434   2.170   0.705  10.909  0.1154 -0.3119  0.2837
  952SOD     NA14435   3.794   3.679  17.171  0.1790  0.1648  0.0433
  953SOD     NA14436   4.248   4.437   3.905 -0.2590 -0.5108 -0.3935
  954SOD     NA14437   0.611   0.680  13.373 -0.3594 -0.5977 -0.0695
  955SOD     NA14438   3.479   1.311   2.836  0.0190  0.0680 -0.5283
  956SOD     NA14439   0.857   3.512  13.320 -0.4779  0.0563  0.0038
  957SOD     NA14440   3.684   2.853  10.073  0.7689 -0.1986  0.6202
  958SOD     NA14441   3.608   0.256  16.953  0.3503  0.2093 -0.2568
  959SOD     NA14442   0.935   1.616  14.642  0.2756 -0.1383 -0.0053
  960SOD     NA14443   2.065   2.907  13.707 -0.2615  0.1371  0.2797
  961SOD     NA14444   1.851   4.593   8.076 -0.0106  0.2902 -0.4521
  962SOD     NA14445   0.259   3.498   0.761 -0.2833 -0.2128 -0.1407
  963SOD     NA14446   3.035   4.056   1.575 -0.1514  0.1007 -0.4698
  964SOD     NA14447   3.859   0.401  10.001  0.3959 -0.6227  0.4060
  965SOD     NA14448   1.554   2.721  14.925 -0.0415  0.2095  0.1728
  966SOD     NA14449   3.605   2.340   2.257 -0.1541  0.3356  0.0665
  967SOD     NA14450   0.302   1.284  11.538 -0.1931 -0.2425  0.1011
  968SOD     NA14451   2.244   4.373   2.854 -0.4659  0.6328 -0.6103
  969SOD     NA14452   3.307   0.697  13.186  0.4121  0.1866  0.0162
  970SOD     NA14453   4.620   2.244  10.461 -0.5307  0.3775 -0.0002
  971SOD     NA14454   2.904   2.675   2.426 -0.3362 -0.0259  0.0347
  972SOD     NA14455   3.829   4.542   4.673  0.2838 -0.1031 -0.1376
  973SOD     NA14456   0.521   0.446  12.062 -0.1981 -0.0741  0.5845
  974SOD     NA14457   1.014   4.118   1.771  0.2924  0.0443 -0.3930
  975SOD     NA14458   4.393   4.021  11.283 -0.3974 -0.1082 -0.3085
  976SOD     NA14459   3.743   0.487  10.285 -0.3635 -0.0223  0.0175
  977SOD     NA14460   0.575   2.709  16.051  0.0440 -0.2042  0.6826
  978SOD     NA14461   1.912   3.237  14.108 -0.0019 -0.0213 -0.3099
  979SOD     NA14462   0.210   0.258  13.120  0.6993  0.0419  0.3389
  980SOD     NA14463   0.590   2.455  15.052 -0.0243  0.9142 -0.1402
  981SOD     NA14464   3.978   0.705  10.642 -0.1833 -0.1830  0.3225
  982SOD     NA14465   4.037   0.141   9.903 -0.3544  0.0913 -0.2334
  983SOD     NA14466   1.103   2.033   1.997 -0.3013 -0.3997  0.2309
  984SOD     NA14467   1.596   1.840   0.440 -0.6305  0.6399  0.5250
  985SOD     NA14468   3.258   1.672  10.770 -0.0306 -0.2372  0.2451
  986SOD     NA14469   2.047   2.453  15.863  0.2691 -0.0712 -0.1493
  987SOD     NA14470   0.708   2.562  12.412 -0.0811 -0.0715  0.1216
  988SOD     NA14471   0.656   4.645  17.374 -0.6788  0.4561  0.0837
  989SOD     NA14472   4.662   3.557  10.153  0.0059  0.1792 -0.5778
  990SOD     NA14473   2.844   0.179  10.854 -0.3200  0.2250  0.1389
  991SOD     NA14474   2.027   4.585  15.023  0.2731  0.5078 -0.1160
  992SOD     NA14475   3.238   0.829  15.466 -0.1291 -0.0036 -0.1820
  993SOD     NA14476   0.210   3.261  14.641 -0.3791 -0.2174  0.1332
  994SOD     NA14477   3.584   2.479  14.983 -0.5298 -0.3900  0.2220
  995SOD     NA14478   1.472   1.491   0.814  0.1464  0.4684  0.2898
  996SOD     NA14479   0.192   1.030  11.752 -0.0783 -0.4496  0.5550
  997SOD     NA14480   1.772   2.184   0.588  0.5497 -0.3539 -0.2424
  998SOD     NA14481   4.332   4.324  10.796 -0.0761  0.2730 -0.0159
  999SOD     NA14482   4.003   0.266   7.702  0.3284 -0.2582 -0.1284
 1000SOD     NA14483   1.145   0.362   1.907 -0.0276  0.0290 -0.2172
 1001SOD     NA14484   3.312   0.996  12.600  0.0431 -0.0579 -0.4014
 1002SOD     NA14485   4.287   4.021  10.981 -0.0089 -0.1314 -0.2291
 1003SOD     NA14486   0.462   3.927   2.635  0.1574 -0.4272 -0.5811
 1004SOD     NA14487   1.437   1.861  15.331  0.3218 -0.3039 -0.2104
 1005SOD     NA14488   3.879   0.752   9.853  0.1758  0.3428 -0.4876
 1006SOD     NA14489   0.412   0.511  13.148 -0.0688  0.3681 -0.6569
 1007SOD     NA14490   1.191   1.451  11.499  0.2590  0.1805  0.1912
 1008SOD     NA14491   0.723   2.706  11.803 -0.8716 -0.0237 -0.0350
 1009SOD     NA14492   0.463   0.986   2.951 -0.4536  0.2831  0.6531
 1010SOD     NA14493   3.218   1.441  13.874 -0.1076 -0.7535 -0.3913
 1011SOL     OW14494   1.570   1.315   7.430  0.2868 -0.2929 -0.8819
 1011SOL    HW114495   1.594   1.405   7.453  2.9845 -1.1639 -0.2893
 1011SOL    HW214496   1.647   1.263   7.453  1.6157  1.1936 -1.9880
 1012SOL     OW14497   0.911   2.063   2.992 -0.7381  0.3496 -0.5011
 1012SOL    HW114498   0.984   2.046   2.932 -0.6905  1.1124 -0.6560
 1012SOL    HW214499   0.961   2.087   3.071 -0.0752  2.9136 -1.7057
 1013SOL     OW14500   1.546   4.679  10.282  0.5514  0.1127  0.2954
 1013SOL    HW114501   1.517   4.661  10.372 -0.4981  1.7056  0.2697
 1013SOL    HW214502   1.614   0.025  10.285  3.0368 -2.3724  0.5791
 1014SOL     OW14503   4.131   2.275   8.820 -0.5334 -0.4613 -0.0618
 1014SOL    HW114504   4.202   2.339   8.818 -1.0094  0.0488 -0.4160
 1014SOL    HW214505   4.172   2.208   8.876 -0.4443  0.0095  0.4314
 1015SOL     OW14506   2.381   1.547   4.032  0.6522  0.2133  0.5801
 1015SOL    HW114507   2.288   1.564   4.049  0.1335 -1.0870 -0.9638
 1015SOL    HW214508   2.375   1.474   3.971 -0.8399 -0.0375  1.0168
 1016SOL     OW14509   2.491   4.106   0.306 -0.2089 -0.4839 -0.4685
 1016SOL    HW114510   2.462   4.024   0.346  1.1937 -1.1470 -0.8061
 1016SOL    HW214511   2.568   4.077   0.257  1.6340 -1.0367  2.7742
 1017SOL     OW14512   3.855   2.557   6.985 -0.0424  0.3505  0.2567
 1017SOL    HW114513   3.852   2.615   6.909 -2.8746 -1.8033 -1.3025
 1017SOL    HW214514   3.770   2.579   7.024 -0.6987 -0.1438 -0.8730
 1018SOL     OW14515   0.309   1.378   6.764 -0.2357  0.4145 -0.0710
 1018SOL    HW114516   0.233   1.409   6.814  1.0915  1.7422  1.1217
 1018SOL    HW214517   0.385   1.411   6.812  0.2752  0.5047 -0.9514
 1019SOL     OW14518   2.849   2.626   9.675 -0.4557  1.0170  0.1745
 1019SOL    HW114519   2.880   2.570   9.604 -0.7344  0.6166  0.3664
 1019SOL    HW214520   2.906   2.703   9.672 -0.9054  1.3812  0.9991
 1020SOL     OW14521   4.445   1.897   1.764 -0.1496  0.1788  0.4021
 1020SOL    HW114522   4.427   1.912   1.857  0.4832  0.2836  0.5131
 1020SOL    HW214523   4.484   1.810   1.764 -1.0997 -0.2472 -3.9063
 1021SOL     OW14524   1.175   2.095   8.544  0.2906  0.0164 -0.0220
 1021SOL    HW114525   1.082   2.070   8.546  0.4024 -0.2214  2.4320
 1021SOL    HW214526   1.179   2.138   8.629 -2.4557 -1.6055  0.9615
 1022SOL     OW14527   1.391   1.357   5.590 -0.1553 -0.0184 -0.3119
 1022SOL    HW114528   1.320   1.296   5.570 -0.4121 -0.3702  1.7275
 1022SOL    HW214529   1.452   1.286   5.611  1.1956  1.5106  0.8792
 1023SOL     OW14530   0.777   1.516  11.329 -0.4518 -0.1803 -0.1881
 1023SOL    HW114531   0.707   1.508  11.264 -1.8881 -0.1072  1.3335
 1023SOL    HW214532   0.730   1.566  11.397  2.0770  1.7879  0.1238
 1024SOL     OW14533   3.900   3.205  16.997  0.1182  0.0066 -0.1582
 1024SOL    HW114534   3.945   3.244  16.922 -0.6153 -0.5980 -0.9106
 1024SOL    HW214535   3.963   3.235  17.064  1.1396  0.2690 -1.2428
 1025SOL     OW14536   2.648   1.335   2.988 -0.1901 -0.2080 -0.4691
 1025SOL    HW114537   2.556   1.361   2.982 -0.0809  0.4211  0.7082
 1025SOL    HW214538   2.653   1.257   2.932 -1.3297 -0.1241 -0.6951
 1026SOL     OW14539   1.040   4.146   6.062 -0.9576  0.2122  0.3137
 1026SOL    HW114540   0.994   4.069   6.096 -0.5609  0.6989  1.9730
 1026SOL    HW214541   1.118   4.103   6.027 -0.8305  1.6574 -1.1871
 1027SOL     OW14542   2.118   2.741   8.932  0.4715  0.0166  0.3032
 1027SOL    HW114543   2.087   2.832   8.933  2.3967  0.6897 -1.3595
 1027SOL    HW214544   2.045   2.694   8.973  0.6461  1.0172  1.7634
 1028SOL     OW14545   2.455   4.226   5.054  0.4747 -0.0571 -0.7210
 1028SOL    HW114546   2.451   4.237   4.959  0.6652 -0.6056 -0.7908
 1028SOL    HW214547   2.527   4.164   5.054  0.4414 -0.0943 -0.2081
 1029SOL     OW14548   2.195   2.438   1.564 -0.3883 -0.8232 -0.2481
 1029SOL    HW114549   2.170   2.440   1.471  2.6770  1.7229 -1.0250
 1029SOL    HW214550   2.285   2.410   1.548 -0.0806  0.4600 -0.7451
 1030SOL     OW14551   3.928   0.789   0.406  0.3156 -0.0194 -0.4164
 1030SOL    HW114552   3.999   0.852   0.402  1.7812 -1.6624 -0.5512
 1030SOL    HW214553   3.894   0.812   0.492 -0.4455 -3.3538  0.1826
 1031SOL     OW14554   4.146   1.896   3.947 -0.1172  0.1971 -0.1810
 1031SOL    HW114555   4.094   1.899   3.867  0.2652 -0.7887 -0.4765
 1031SOL    HW214556   4.127   1.983   3.981 -1.5945 -1.2086  2.6222
 1032SOL     OW14557   3.094   4.257   3.896  0.2424 -0.1905 -0.5066
 1032SOL    HW114558   3.082   4.168   3.863  1.3160 -0.0736 -1.2197
 1032SOL    HW214559   3.169   4.291   3.847  0.5083 -1.4523 -0.9554
 1033SOL     OW14560   3.383   2.381  16.616  0.3738 -0.1060 -0.1234
 1033SOL    HW114561   3.331   2.435  16.675  0.4639 -2.7824  2.3733
 1033SOL    HW214562   3.375   2.419  16.528 -1.9539 -0.5058 -0.0926
 1034SOL     OW14563   4.488   0.829   9.357  0.0798 -0.2381 -0.5255
 1034SOL    HW114564   4.557   0.888   9.329 -0.7541  0.7435 -0.5241
 1034SOL    HW214565   4.488   0.766   9.285 -1.5931 -2.0325  1.0264
 1035SOL     OW14566   2.616   3.857   8.541  0.7486  0.4683 -0.8813
 1035SOL    HW114567   2.535   3.820   8.506  1.0231 -1.0502  0.1007
 1035SOL    HW214568   2.601   3.863   8.635  1.2438 -1.1536 -0.7028
 1036SOL     OW14569   1.907   1.041   8.364 -0.0199  0.2749  0.5220
 1036SOL    HW114570   1.867   0.972   8.416  0.4832 -0.3312  0.1044
 1036SOL    HW214571   1.999   1.034   8.391 -0.4818 -1.1572  1.7011
 1037SOL     OW14572   1.800   3.195  11.541 -0.3767  0.4427  0.7560
 1037SOL    HW114573   1.811   3.283  11.576 -1.2226  0.2984  1.3815
 1037SOL    HW214574   1.715   3.208  11.501  1.0795  0.9207 -2.2181
 1038SOL     OW14575   0.278   4.095   3.103  0.2104 -0.6440 -0.2270
 1038SOL    HW114576   0.372   4.113   3.104 -0.2282  1.7220 -0.7013
 1038SOL    HW214577   0.246   4.184   3.119 -0.0817 -0.4459 -1.9478
 1039SOL     OW14578   1.803   0.786   2.307 -0.4049 -0.2420  0.1480
 1039SOL    HW114579   1.807   0.711   2.247  0.8453 -1.0432  1.2237
 1039SOL    HW214580   1.848   0.845   2.247  0.1460 -1.0526 -0.2281
 1040SOL     OW14581   1.905   3.416   3.850 -0.1968  0.2771  0.5280
 1040SOL    HW114582   1.944   3.365   3.779 -0.0690  0.4292  0.4892
 1040SOL    HW214583   1.819   3.383   3.873 -0.3139  0.9766  1.1172
 1041SOL     OW14584   2.853   2.330   4.544 -0.0322  0.1309 -0.3709
 1041SOL    HW114585   2.811   2.379   4.473  0.4798 -0.6078 -1.1941
 1041SOL    HW214586   2.941   2.346   4.511  0.0945  1.4839  0.6628
 1042SOL     OW14587   1.055   0.621   8.289 -0.2011  0.4341  0.7546
 1042SOL    HW114588   1.043   0.556   8.358  0.7827  0.0063  0.5135
 1042SOL    HW214589   1.042   0.580   8.204  0.8372 -0.3289  0.9691
 1043SOL     OW14590   2.785   0.003   0.918  0.0220 -0.7226  0.1509
 1043SOL    HW114591   2.773   0.057   0.996 -1.6726 -1.3048  0.2787
 1043SOL    HW214592   2.727   4.655   0.947 -0.1382 -0.4239  0.5586
 1044SOL     OW14593   0.127   2.688  11.403  0.8358 -0.6290  0.2408
 1044SOL    HW114594   0.174   2.670  11.484 -0.6293  1.0572  1.4568
 1044SOL    HW214595   0.045   2.730  11.430  0.6086  0.1719 -1.6395
 1045SOL     OW14596   4.582   1.596  10.142 -0.0435 -0.6532  0.2358
 1045SOL    HW114597   4.648   1.654  10.103  1.0207 -0.3248  2.5243
 1045SOL    HW214598   4.615   1.594  10.232  0.5123  3.1990  0.1033
 1046SOL     OW14599   4.397   4.176   6.508 -0.3389 -0.0650 -0.0668
 1046SOL    HW114600   4.474   4.189   6.563 -0.0853  0.4111 -0.5332
 1046SOL    HW214601   4.354   4.103   6.553 -1.3684 -0.9460 -2.4655
 1047SOL     OW14602   1.351   1.385   8.386  0.1401 -0.0853  0.1013
 1047SOL    HW114603   1.291   1.318   8.417  2.4070 -1.2755  1.9495
 1047SOL    HW214604   1.307   1.416   8.307  1.3223 -0.2055 -0.6184
 1048SOL     OW14605   0.477   3.981   6.818 -0.6074 -0.2369 -0.0224
 1048SOL    HW114606   0.383   3.998   6.814 -0.5526  0.2053  0.6109
 1048SOL    HW214607   0.511   4.066   6.846 -1.0525 -0.6694  1.8188
 1049SOL     OW14608   2.425   1.781   5.421 -0.3646  0.0296  0.0707
 1049SOL    HW114609   2.429   1.708   5.359 -2.1834 -0.4952  0.5811
 1049SOL    HW214610   2.444   1.741   5.506 -0.0078  3.0852  1.4227
 1050SOL     OW14611   3.082   2.267   9.628 -0.3139  0.1943  0.1939
 1050SOL    HW114612   3.169   2.301   9.603 -0.4381 -0.7188 -1.5353
 1050SOL    HW214613   3.071   2.335   9.694  0.6278  0.2851  0.2602
 1051SOL     OW14614   4.292   3.974   6.306 -0.1100 -0.1205 -0.3100
 1051SOL    HW114615   4.313   4.022   6.386 -1.2080 -1.1082  0.5720
 1051SOL    HW214616   4.383   3.963   6.281  0.2534 -0.6525  1.2578
 1052SOL     OW14617   0.895   0.473  10.399  0.0826 -0.0049  0.2837
 1052SOL    HW114618   0.959   0.544  10.392 -0.6844  0.5188 -1.4193
 1052SOL    HW214619   0.935   0.431  10.475 -0.3407  2.2107  1.7248
 1053SOL     OW14620   2.875   1.856   6.959 -0.1849 -0.5058 -0.3649
 1053SOL    HW114621   2.887   1.945   6.992 -1.1438 -0.5756  0.1662
 1053SOL    HW214622   2.785   1.833   6.985 -0.5295  0.1914 -0.9558
 1054SOL     OW14623   1.247   2.277   0.025  0.1639  0.4916 -0.1149
 1054SOL    HW114624   1.236   2.372   0.017 -0.9950  0.4512  0.9891
 1054SOL    HW214625   1.300   2.263   0.103 -0.2518 -0.1045  0.0608
 1055SOL     OW14626   1.149   2.224  15.395  0.3415  0.8361  0.1145
 1055SOL    HW114627   1.089   2.178  15.335  0.8532 -1.0016  1.0159
 1055SOL    HW214628   1.225   2.167  15.380 -0.2114 -0.0524  0.7101
 1056SOL     OW14629   3.968   4.597   1.786 -0.1842 -0.1020  0.1731
 1056SOL    HW114630   3.884   4.574   1.747 -0.4148 -0.2371  0.7494
 1056SOL    HW214631   3.976   4.534   1.858  1.3537 -0.5977 -0.4338
 1057SOL     OW14632   1.451   1.051  11.985  0.4812  0.4610  0.5833
 1057SOL    HW114633   1.398   1.097  12.050  0.0157 -0.6628  1.0030
 1057SOL    HW214634   1.516   1.121  11.982  1.2214 -0.2857 -0.7375
 1058SOL     OW14635   3.886   2.394   8.992  0.3288 -0.0065 -0.1307
 1058SOL    HW114636   3.860   2.302   9.002  0.0351 -0.0516 -1.3520
 1058SOL    HW214637   3.972   2.395   9.033 -0.6299  0.0565  1.8960
 1059SOL     OW14638   3.486   1.078   2.253 -0.6679 -0.4564  0.0856
 1059SOL    HW114639   3.526   1.140   2.192  0.0707 -0.0961  0.9315
 1059SOL    HW214640   3.552   1.085   2.322  0.8354 -1.5144 -1.2651
 1060SOL     OW14641   0.823   1.357  11.604  0.0405  0.0424  0.6022
 1060SOL    HW114642   0.828   1.296  11.531  0.6563 -1.0287  1.5425
 1060SOL    HW214643   0.914   1.372  11.628 -0.7333  3.1516  1.5658
 1061SOL     OW14644   1.120   2.880   2.613 -0.2756 -0.6925  0.1108
 1061SOL    HW114645   1.148   2.970   2.635  0.0573 -0.3929 -1.5468
 1061SOL    HW214646   1.036   2.898   2.571 -0.2094 -2.4545 -0.7410
 1062SOL     OW14647   1.679   3.470   6.499 -0.4354 -0.0070 -0.2720
 1062SOL    HW114648   1.759   3.503   6.457  0.2426 -3.0609 -1.4183
 1062SOL    HW214649   1.640   3.550   6.535  0.9341 -0.5702  2.4674
 1063SOL     OW14650   3.366   0.420   7.684  0.1437 -0.2525  0.0810
 1063SOL    HW114651   3.406   0.407   7.598  0.2805  1.9200 -0.1766
 1063SOL    HW214652   3.360   0.515   7.691  2.5064 -0.0836 -0.2339
 1064SOL     OW14653   1.017   1.144   5.975  0.4644  0.1664  0.5135
 1064SOL    HW114654   0.936   1.097   5.954  1.3732 -1.2049  0.1139
 1064SOL    HW214655   1.011   1.210   5.905  2.2978  0.8007  0.9552
 1065SOL     OW14656   2.239   1.366  16.390 -0.7380  0.4206 -0.2190
 1065SOL    HW114657   2.299   1.430  16.352 -0.6353 -1.5352 -3.3549
 1065SOL    HW214658   2.278   1.351  16.476  1.2813 -2.0605 -1.5694
 1066SOL     OW14659   1.526   2.051   2.123 -0.2905  0.1814 -0.3272
 1066SOL    HW114660   1.620   2.036   2.109  0.0234  0.8432  1.1113
 1066SOL    HW214661   1.507   2.090   2.037  3.1822  0.9775 -0.7253
 1067SOL     OW14662   1.660   3.080   1.907  0.1022  0.4080  0.1183
 1067SOL    HW114663   1.572   3.076   1.945 -0.3416 -3.2022 -1.2415
 1067SOL    HW214664   1.709   3.118   1.980  0.0016  0.4595  0.1590
 1068SOL     OW14665   1.953   2.113   8.463  0.3069 -0.6604 -0.1360
 1068SOL    HW114666   1.870   2.121   8.415  0.7461 -2.4784 -1.1891
 1068SOL    HW214667   2.010   2.147   8.394 -1.2899  0.4337 -0.9229
 1069SOL     OW14668   0.596   3.155  15.219 -0.3481 -0.2201 -0.2160
 1069SOL    HW114669   0.529   3.165  15.287  0.2928  0.4485  0.3024
 1069SOL    HW214670   0.552   3.190  15.142 -0.0997  1.9590  0.6353
 1070SOL     OW14671   2.537   3.638   0.639  0.4741  0.0630  0.5735
 1070SOL    HW114672   2.557   3.603   0.725  1.1702  0.2118  0.4683
 1070SOL    HW214673   2.575   3.581   0.573 -0.3052  1.4840 -1.1199
 1071SOL     OW14674   3.289   3.575   5.210 -0.0952 -0.4359 -0.1181
 1071SOL    HW114675   3.376   3.535   5.202  0.5186  0.5897  1.3355
 1071SOL    HW214676   3.303   3.630   5.288 -0.6249 -1.6842  0.8560
 1072SOL     OW14677   3.676   4.006  15.127  0.1239  0.3221 -0.1906
 1072SOL    HW114678   3.637   4.002  15.214 -2.8616  2.4619 -1.4633
 1072SOL    HW214679   3.610   4.060  15.085 -0.2878  0.1190  0.1990
 1073SOL     OW14680   1.684   4.450   2.474  0.1341  0.1735 -0.0361
 1073SOL    HW114681   1.625   4.522   2.451 -1.2958 -1.5623 -1.7116
 1073SOL    HW214682   1.760   4.449   2.415  1.2778  0.4682  1.4394
 1074SOL     OW14683   4.403   2.312   4.358 -0.5067 -0.6824  0.0323
 1074SOL    HW114684   4.481   2.343   4.405  1.3974 -0.4616 -3.2589
 1074SOL    HW214685   4.363   2.394   4.330  0.0233  0.2842  2.1033
 1075SOL     OW14686   1.819   2.980   4.001  0.1801 -0.0576  0.1546
 1075SOL    HW114687   1.894   3.035   3.980  1.0403 -1.0073  0.6965
 1075SOL    HW214688   1.780   2.960   3.916 -1.4134  2.2075  0.3624
 1076SOL     OW14689   4.651   3.598  12.988 -0.4355 -0.2425  0.0730
 1076SOL    HW114690   4.575   3.553  12.951  0.6603 -1.8556 -0.2280
 1076SOL    HW214691   4.712   3.599  12.914 -1.9590 -1.8833 -1.2219
 1077SOL     OW14692   1.336   4.306   4.611 -0.0725 -0.5239  0.3817
 1077SOL    HW114693   1.265   4.285   4.671  1.5978 -1.3741  2.0158
 1077SOL    HW214694   1.363   4.226   4.566  0.0839 -0.0279 -0.4194
 1078SOL     OW14695   0.100   2.374   6.221 -0.4389  0.1253  0.6383
 1078SOL    HW114696   0.079   2.337   6.135  1.0644  2.7681 -0.8959
 1078SOL    HW214697   0.106   2.291   6.268 -0.4997  1.0522  2.2655
 1079SOL     OW14698   0.519   2.455  11.639  0.2934  0.5538 -0.3341
 1079SOL    HW114699   0.495   2.403  11.562 -1.3214 -1.4255  1.5355
 1079SOL    HW214700   0.611   2.432  11.646  0.1358 -0.2973 -1.0768
 1080SOL     OW14701   0.776   1.783   5.815 -1.0090  0.1792  0.1032
 1080SOL    HW114702   0.823   1.701   5.829 -2.4966 -0.4033  1.6349
 1080SOL    HW214703   0.762   1.803   5.908  0.6514  1.0505  0.1707
 1081SOL     OW14704   1.046   2.191  16.099 -0.8168  0.2325  0.2508
 1081SOL    HW114705   1.077   2.239  16.022  0.5331 -1.3831 -0.2135
 1081SOL    HW214706   1.069   2.255  16.166  0.4077  0.6723 -0.5761
 1082SOL     OW14707   1.954   4.445   5.858 -0.2117 -0.4026  0.1494
 1082SOL    HW114708   1.907   4.504   5.799 -1.2179 -1.4492 -0.1098
 1082SOL    HW214709   2.042   4.473   5.836  1.0115 -2.9182  1.8408
 1083SOL     OW14710   0.833   1.998   3.376 -0.2620 -1.0314  0.2622
 1083SOL    HW114711   0.879   1.919   3.347  0.4544 -0.1105 -1.1401
 1083SOL    HW214712   0.759   1.989   3.317  0.7723 -1.1989 -1.0175
 1084SOL     OW14713   1.682   2.051   0.373 -0.5314  0.4663 -0.5015
 1084SOL    HW114714   1.752   2.091   0.322 -0.0126 -0.3517 -0.4396
 1084SOL    HW214715   1.600   2.090   0.344 -1.2408  0.4973  1.4902
 1085SOL     OW14716   2.576   3.644  12.836 -0.4151  0.8307  0.2364
 1085SOL    HW114717   2.610   3.714  12.892  2.3563 -0.2238 -0.1635
 1085SOL    HW214718   2.593   3.569  12.893 -0.3263  1.6409  1.2727
 1086SOL     OW14719   2.354   1.719   3.052  0.0943  0.4764  0.3558
 1086SOL    HW114720   2.398   1.786   3.105  2.2245 -1.1129  0.6123
 1086SOL    HW214721   2.419   1.694   2.985  0.5850  0.5991  0.7848
 1087SOL     OW14722   1.176   1.137   5.232 -0.1232  0.0602 -0.9445
 1087SOL    HW114723   1.094   1.186   5.238 -1.0207 -1.3302 -2.0224
 1087SOL    HW214724   1.159   1.078   5.159  0.3460 -0.7457 -0.3979
 1088SOL     OW14725   2.930   0.034   6.729  0.1645  0.6799  0.3037
 1088SOL    HW114726   2.876   4.676   6.730  0.9237  0.1657  0.4438
 1088SOL    HW214727   2.954   0.053   6.820  0.6761 -2.6556  0.8469
 1089SOL     OW14728   0.344   3.461   8.841  0.3436 -0.2424 -0.5251
 1089SOL    HW114729   0.365   3.374   8.807  0.3364 -0.1174 -0.8471
 1089SOL    HW214730   0.389   3.464   8.925 -0.0371  1.8084 -0.3983
 1090SOL     OW14731   2.067   4.074   3.580 -0.1009  0.1891  0.3530
 1090SOL    HW114732   2.102   4.053   3.493  0.3531  1.2998  0.2605
 1090SOL    HW214733   2.073   3.988   3.621 -2.9168  0.4265  1.3038
 1091SOL     OW14734   2.996   4.187   5.709 -0.0103 -0.3931  0.2393
 1091SOL    HW114735   3.006   4.281   5.723 -0.6003 -0.0561 -1.5679
 1091SOL    HW214736   2.903   4.179   5.730  0.4731 -1.3621  1.9746
 1092SOL     OW14737   4.462   3.200   0.172  0.2613 -0.4761  0.4720
 1092SOL    HW114738   4.390   3.141   0.151  0.0606  0.1627 -0.6483
 1092SOL    HW214739   4.431   3.242   0.252 -0.7266  0.4567 -0.3867
 1093SOL     OW14740   2.903   3.513  13.172 -0.2458  0.4547  0.5582
 1093SOL    HW114741   2.998   3.508  13.162 -0.2383  1.6322  0.0793
 1093SOL    HW214742   2.892   3.608  13.169  1.7161  0.6880  1.0420
 1094SOL     OW14743   2.151   2.482  12.169 -0.2396  0.8596  0.1691
 1094SOL    HW114744   2.137   2.479  12.263 -0.5248 -0.2687  0.0988
 1094SOL    HW214745   2.164   2.390  12.145  0.8216  0.8371  0.8398
 1095SOL     OW14746   1.863   3.604   3.548  0.0695 -0.3093  0.1589
 1095SOL    HW114747   1.902   3.572   3.467  0.5729  0.6165  0.0355
 1095SOL    HW214748   1.775   3.566   3.543  0.0562 -0.4992  1.7191
 1096SOL     OW14749   3.073   0.041   9.469 -0.5621 -0.2800  0.0482
 1096SOL    HW114750   3.101   4.692   9.528  1.1197  2.2107  2.2070
 1096SOL    HW214751   3.151   0.094   9.453 -0.0526 -1.1824 -0.4630
 1097SOL     OW14752   3.733   0.571  13.116 -0.2888 -0.3498 -0.1157
 1097SOL    HW114753   3.733   0.514  13.193 -2.9573 -0.8938 -0.5131
 1097SOL    HW214754   3.799   0.637  13.138  1.4156 -1.0334 -3.1416
 1098SOL     OW14755   3.700   2.894  13.146  0.3034  0.0161 -0.3086
 1098SOL    HW114756   3.673   2.808  13.177 -1.3039 -0.4781 -3.0859
 1098SOL    HW214757   3.620   2.944  13.161  0.4055 -0.7823  2.8743
 1099SOL     OW14758   2.909   1.354   3.573  1.0614  0.3135 -0.4897
 1099SOL    HW114759   2.939   1.395   3.654  0.5084  2.1618 -1.2360
 1099SOL    HW214760   2.897   1.430   3.517  0.9495  0.9377  0.3832
 1100SOL     OW14761   2.313   3.061   6.903  0.1114 -0.3551 -0.1574
 1100SOL    HW114762   2.223   3.038   6.877  0.0247  0.8475 -0.9062
 1100SOL    HW214763   2.303   3.059   6.998 -0.8574  2.4519 -0.2149
 1101SOL     OW14764   3.964   1.133  15.297  0.2180 -0.0800  0.2392
 1101SOL    HW114765   4.010   1.182  15.228  0.3003  1.1719  1.1917
 1101SOL    HW214766   4.020   1.157  15.371  0.3111 -1.3829  0.5821
 1102SOL     OW14767   1.230   0.403   7.976 -0.1088 -0.1245 -0.1357
 1102SOL    HW114768   1.144   0.391   7.936 -1.2039 -1.6264  2.6783
 1102SOL    HW214769   1.245   0.489   7.938  0.2285  0.2746  0.8948
 1103SOL     OW14770   2.339   1.240   5.633 -0.5332 -0.4180 -0.1033
 1103SOL    HW114771   2.382   1.289   5.563  0.2205  1.2587  1.5578
 1103SOL    HW214772   2.253   1.234   5.591  0.4646 -2.7274 -1.8339
 1104SOL     OW14773   2.169   0.536   4.031 -0.2696 -0.1829  0.0697
 1104SOL    HW114774   2.076   0.546   4.053 -0.5975 -0.6301 -1.1319
 1104SOL    HW214775   2.200   0.477   4.099 -2.2970 -0.6531  0.6038
 1105SOL     OW14776   1.903   3.055  13.679  0.0605  0.4143 -0.1243
 1105SOL    HW114777   1.886   3.130  13.622  3.5149  0.5737 -0.9932
 1105SOL    HW214778   1.827   3.055  13.736  0.5501 -1.5799  0.5202
 1106SOL     OW14779   1.397   4.591   3.251  0.1162  0.0246  0.7143
 1106SOL    HW114780   1.302   4.601   3.258  0.2265  0.1748  1.9110
 1106SOL    HW214781   1.413   4.544   3.169  1.8791  1.1449  0.4065
 1107SOL     OW14782   4.585   3.966   3.020  0.0226 -0.4546  0.0040
 1107SOL    HW114783   4.610   3.874   3.015  0.8592 -0.2706  0.9078
 1107SOL    HW214784   4.522   3.965   2.947 -0.5990  2.5439  0.4886
 1108SOL     OW14785   3.688   2.605  11.421 -0.3771  0.4254 -0.3616
 1108SOL    HW114786   3.689   2.660  11.499  0.6734  0.4446 -0.3896
 1108SOL    HW214787   3.604   2.629  11.381 -0.6265 -0.1983 -0.2076
 1109SOL     OW14788   2.459   0.983  15.867 -0.2560 -0.1432  0.6961
 1109SOL    HW114789   2.520   0.941  15.807 -0.3694  0.6176  0.0367
 1109SOL    HW214790   2.375   0.946  15.839  0.3689 -1.3445  0.4064
 1110SOL     OW14791   2.079   3.599   0.521 -0.1157 -0.4753 -0.1740
 1110SOL    HW114792   2.082   3.586   0.426  1.2822  1.1985 -0.3622
 1110SOL    HW214793   2.170   3.628   0.526 -0.5009  0.5794  0.6300
 1111SOL     OW14794   0.342   2.788  14.232  0.0289  0.4885 -0.8609
 1111SOL    HW114795   0.286   2.743  14.296  0.4711  0.7908 -0.2670
 1111SOL    HW214796   0.359   2.864  14.287 -1.5813  0.8870 -0.9090
 1112SOL     OW14797   3.494   2.877  11.046 -0.1207 -0.0430  0.0680
 1112SOL    HW114798   3.552   2.949  11.070 -1.1124  0.4272  1.0705
 1112SOL    HW214799   3.544   2.822  10.987 -2.0708 -3.1274  1.3118
 1113SOL     OW14800   2.780   0.443   6.057 -0.2070 -0.2846  0.5164
 1113SOL    HW114801   2.812   0.387   6.128  3.8043  2.0781  0.5152
 1113SOL    HW214802   2.852   0.505   6.056  0.8604 -1.5796 -1.7944
 1114SOL     OW14803   3.946   2.460   7.899  0.3705 -0.9882  0.1583
 1114SOL    HW114804   3.883   2.487   7.966 -1.2384 -2.7741 -0.6077
 1114SOL    HW214805   4.026   2.485   7.945  0.6652 -1.2067 -0.2357
 1115SOL     OW14806   2.472   2.008   2.444  0.1662  0.3895  0.0437
 1115SOL    HW114807   2.411   2.079   2.462  1.6669  1.1553  2.1847
 1115SOL    HW214808   2.419   1.928   2.437 -1.8988  1.5828  2.1838
 1116SOL     OW14809   3.357   0.083   4.498 -0.4471  0.8575  0.2956
 1116SOL    HW114810   3.410   0.103   4.421  1.0658 -0.6518  0.9433
 1116SOL    HW214811   3.430   0.086   4.561 -2.5261 -1.2873  2.7916
 1117SOL     OW14812   2.052   1.156   0.651 -0.5304  0.5001 -0.0925
 1117SOL    HW114813   2.138   1.129   0.619 -0.2106  2.6015 -1.0007
 1117SOL    HW214814   2.073   1.230   0.709 -1.9546  2.2439 -1.8152
 1118SOL     OW14815   1.007   4.441  16.794  0.1116  0.0885 -0.0428
 1118SOL    HW114816   1.028   4.526  16.757 -0.3596 -0.1728 -0.9134
 1118SOL    HW214817   0.951   4.467  16.867  1.3631  0.2281  0.8681
 1119SOL     OW14818   3.923   1.576   0.916  0.0858 -0.2286  0.0038
 1119SOL    HW114819   3.979   1.578   0.994 -0.0894 -1.1212  0.1635
 1119SOL    HW214820   3.993   1.589   0.852 -0.8585  0.1521 -0.9416
 1120SOL     OW14821   3.281   1.869  13.086  0.2741  0.3127  0.3133
 1120SOL    HW114822   3.215   1.937  13.071 -0.6048 -0.7342 -0.5743
 1120SOL    HW214823   3.254   1.805  13.019  2.3374 -0.1898 -0.0377
 1121SOL     OW14824   3.040   3.155   4.403 -0.6563  0.2451  0.8987
 1121SOL    HW114825   3.016   3.154   4.496 -0.8062  1.6422  0.8858
 1121SOL    HW214826   2.954   3.134   4.367 -0.5368  0.7661  0.2990
 1122SOL     OW14827   3.344   0.842   8.584  0.1149 -0.3080  0.1422
 1122SOL    HW114828   3.304   0.795   8.511  0.6767 -0.1748 -0.2484
 1122SOL    HW214829   3.265   0.890   8.608 -1.1431 -1.0873 -2.4148
 1123SOL     OW14830   1.964   0.660   8.398  0.5412 -0.3938 -0.7972
 1123SOL    HW114831   1.910   0.608   8.338  0.8402  0.6274 -1.9701
 1123SOL    HW214832   2.006   0.592   8.451  0.2431  0.6149  0.7370
 1124SOL     OW14833   2.459   0.203   1.730  0.0068  0.0342 -0.3112
 1124SOL    HW114834   2.474   0.261   1.806 -1.5197 -0.3974  0.3185
 1124SOL    HW214835   2.370   0.224   1.703 -0.2172 -0.4784  0.0373
 1125SOL     OW14836   3.914   4.381   4.228  0.2750  0.1242  0.0220
 1125SOL    HW114837   3.895   4.287   4.232 -0.6181  0.3468  0.8740
 1125SOL    HW214838   3.826   4.415   4.214 -0.3543 -1.5234  0.0153
 1126SOL     OW14839   2.400   0.031  11.558 -0.2760 -0.2060 -0.2403
 1126SOL    HW114840   2.482   0.075  11.582 -0.2077 -1.3551  1.6657
 1126SOL    HW214841   2.417   4.699  11.481 -0.2129  0.0707 -0.4170
 1127SOL     OW14842   4.705   2.367   3.337 -0.6325  0.6654 -0.1769
 1127SOL    HW114843   4.637   2.317   3.383  1.1022  1.4183  3.1777
 1127SOL    HW214844   0.038   2.397   3.410  0.4908  0.3122 -0.8760
 1128SOL     OW14845   3.603   3.423   8.063 -0.0370  0.1729 -0.5723
 1128SOL    HW114846   3.642   3.472   7.991 -0.2662  1.7838  0.4005
 1128SOL    HW214847   3.623   3.488   8.130 -2.7417  0.7438 -0.3050
 1129SOL     OW14848   0.572   3.637   9.315 -0.5228  0.0961  0.0159
 1129SOL    HW114849   0.501   3.699   9.297  1.1489  1.6818 -1.0454
 1129SOL    HW214850   0.534   3.575   9.377  1.4264 -0.3600  0.7297
 1130SOL     OW14851   3.338   4.561   4.302 -0.1426  0.0179 -0.6381
 1130SOL    HW114852   3.253   4.518   4.315  0.0353 -0.2632 -0.4040
 1130SOL    HW214853   3.339   4.634   4.364  0.0486  0.4338 -1.1350
 1131SOL     OW14854   0.812   3.292  13.722 -0.3481 -0.4561  0.0364
 1131SOL    HW114855   0.819   3.222  13.657  2.7485 -1.0924  1.0450
 1131SOL    HW214856   0.876   3.346  13.675 -0.0397 -0.2810  0.6620
 1132SOL     OW14857   2.367   1.320  16.611 -0.2450 -0.0633  0.3573
 1132SOL    HW114858   2.450   1.339  16.567  2.0179 -1.6468  3.9548
 1132SOL    HW214859   2.387   1.238  16.656  2.3303  1.1073  1.3274
 1133SOL     OW14860   0.473   2.009  14.939  0.0899  0.3906  0.2178
 1133SOL    HW114861   0.514   1.932  14.899  1.3938  1.2025 -0.0182
 1133SOL    HW214862   0.429   2.037  14.859  1.0234  1.8119  0.1986
 1134SOL     OW14863   2.304   4.417   7.221  0.3693 -0.6029 -0.3712
 1134SOL    HW114864   2.377   4.477   7.201  1.1069 -0.3513  3.0026
 1134SOL    HW214865   2.343   4.330   7.215 -0.3767 -0.9249 -0.5058
 1135SOL     OW14866   4.423   1.036   5.027 -0.9358  0.0684 -0.2932
 1135SOL    HW114867   4.420   0.941   5.038 -0.3369  0.3559  2.2882
 1135SOL    HW214868   4.484   1.059   5.097 -0.0998 -0.6513 -0.7885
 1136SOL     OW14869   1.376   1.128   7.691  0.0536  0.0050 -0.3030
 1136SOL    HW114870   1.463   1.091   7.678  0.2071  0.4443 -0.5149
 1136SOL    HW214871   1.414   1.209   7.725  2.6222 -1.2378 -0.2523
 1137SOL     OW14872   4.673   2.786  10.273 -0.7946 -0.1221  0.2439
 1137SOL    HW114873   4.579   2.771  10.268 -1.0487  1.1820  1.1002
 1137SOL    HW214874   4.702   2.695  10.279 -0.8470  0.0720  3.6133
 1138SOL     OW14875   0.177   2.752   1.588 -0.1388 -0.1361  0.1822
 1138SOL    HW114876   0.254   2.729   1.537  0.8529  1.2731  1.0441
 1138SOL    HW214877   0.106   2.706   1.542 -0.7127 -0.4088  1.3292
 1139SOL     OW14878   0.776   1.318   3.147  0.3326  0.7554 -0.3658
 1139SOL    HW114879   0.752   1.384   3.081 -1.1315  0.1290 -0.4715
 1139SOL    HW214880   0.691   1.279   3.171  0.5335  0.3510 -0.3166
 1140SOL     OW14881   4.528   3.011   4.262  0.2428 -0.4014  0.1436
 1140SOL    HW114882   4.567   3.053   4.338 -1.7407  1.0549  0.3548
 1140SOL    HW214883   4.438   3.022   4.292 -0.0361  1.0122 -1.1916
 1141SOL     OW14884   4.270   0.295   6.796 -0.3872  0.3522  0.5148
 1141SOL    HW114885   4.185   0.335   6.816 -2.6961 -3.0740 -2.5597
 1141SOL    HW214886   4.286   0.351   6.720 -3.1758  0.1534 -0.1998
 1142SOL     OW14887   1.002   2.046   0.662 -0.9047  0.1161 -0.3909
 1142SOL    HW114888   0.991   2.066   0.755  2.2242 -0.4322  0.0845
 1142SOL    HW214889   0.945   1.969   0.656  1.5817 -1.7604  0.1963
 1143SOL     OW14890   1.508   1.607   4.996  0.2067  0.6852  0.9314
 1143SOL    HW114891   1.436   1.667   5.013  0.5014  1.1642  0.5087
 1143SOL    HW214892   1.495   1.603   4.901 -0.3945  0.1515  1.0338
 1144SOL     OW14893   0.576   4.462   2.696 -0.7035  0.7706  0.2943
 1144SOL    HW114894   0.666   4.450   2.665 -1.7619 -1.8410 -1.6662
 1144SOL    HW214895   0.592   4.420   2.781  1.4228 -0.6284 -0.8036
 1145SOL     OW14896   2.605   2.426   6.305  0.2353 -0.1426  0.1073
 1145SOL    HW114897   2.585   2.391   6.219  0.9456 -0.9379  0.2683
 1145SOL    HW214898   2.653   2.356   6.349  0.0190 -0.5479 -0.3102
 1146SOL     OW14899   1.265   3.165   5.690 -0.0140 -0.3452 -0.1266
 1146SOL    HW114900   1.293   3.089   5.742  0.7445  0.4124  0.5740
 1146SOL    HW214901   1.171   3.152   5.686 -0.0852  0.0124  0.3978
 1147SOL     OW14902   3.599   2.568   2.764 -0.1914 -0.1605  0.2104
 1147SOL    HW114903   3.670   2.604   2.711  0.1357 -0.0204  0.7412
 1147SOL    HW214904   3.529   2.556   2.699 -2.2003 -2.8329  2.8784
 1148SOL     OW14905   1.414   1.683  10.643  0.5352 -0.4396 -0.5882
 1148SOL    HW114906   1.471   1.752  10.609  1.3990 -1.0340 -0.3588
 1148SOL    HW214907   1.438   1.685  10.736 -0.7232  0.4429 -0.2822
 1149SOL     OW14908   2.860   0.185   7.239  0.5623  0.4491  0.5173
 1149SOL    HW114909   2.892   0.230   7.161 -2.0234 -0.1732 -0.9265
 1149SOL    HW214910   2.820   0.108   7.197  1.4880  1.0854 -1.5595
 1150SOL     OW14911   1.938   2.623   8.247  0.1170 -0.0216  0.1102
 1150SOL    HW114912   1.979   2.655   8.167 -1.1052 -0.6549 -0.7691
 1150SOL    HW214913   1.848   2.653   8.246  0.9896  2.6021  0.6082
 1151SOL     OW14914   1.093   3.776  14.275  0.2821 -0.0334 -0.3234
 1151SOL    HW114915   1.023   3.833  14.242  0.8869  1.1119  0.3980
 1151SOL    HW214916   1.151   3.775  14.198 -0.2473 -0.2694 -0.7222
 1152SOL     OW14917   2.029   0.534   4.370 -0.4580  0.2003 -0.3132
 1152SOL    HW114918   2.118   0.519   4.403  0.4210 -0.5370 -3.0406
 1152SOL    HW214919   2.002   0.611   4.420  1.4565  1.5243 -1.3396
 1153SOL     OW14920   0.975   3.617   5.808 -0.0138  0.7041 -0.2260
 1153SOL    HW114921   0.893   3.641   5.766 -1.3090 -1.0989  1.2463
 1153SOL    HW214922   0.970   3.521   5.813  0.0907  0.7743  1.2505
 1154SOL     OW14923   0.839   2.317  11.981 -0.4353 -0.2592  0.3955
 1154SOL    HW114924   0.859   2.224  11.975  0.2287 -0.2502  2.4962
 1154SOL    HW214925   0.756   2.307  12.026 -1.3660  0.5318 -1.1517
 1155SOL     OW14926   1.209   2.573   9.672  0.0870 -0.2161 -0.2793
 1155SOL    HW114927   1.294   2.539   9.644  0.2932 -0.8850  1.1732
 1155SOL    HW214928   1.165   2.536   9.596 -1.7351 -1.8363  1.5759
 1156SOL     OW14929   4.457   1.670   7.017 -0.1989 -0.8652  0.3424
 1156SOL    HW114930   4.542   1.637   7.048  0.2400 -0.6218 -0.6133
 1156SOL    HW214931   4.489   1.722   6.943 -2.2656  0.8584  0.6643
 1157SOL     OW14932   2.762   2.027   7.475  0.5234  1.0067  0.3183
 1157SOL    HW114933   2.674   2.026   7.513 -0.6929 -2.3987 -2.6405
 1157SOL    HW214934   2.816   2.061   7.546  1.9241 -2.3027  0.8477
 1158SOL     OW14935   2.415   1.839  10.133 -0.0252 -0.1878  0.0565
 1158SOL    HW114936   2.466   1.759  10.144  0.6016 -0.1166 -2.3284
 1158SOL    HW214937   2.420   1.839  10.037  0.0035  2.1347  0.0453
 1159SOL     OW14938   1.544   4.506  10.067 -0.2824  0.6155  0.9482
 1159SOL    HW114939   1.491   4.453  10.126 -0.4352 -0.0680  0.1998
 1159SOL    HW214940   1.555   4.579  10.128 -1.1317 -0.4425  2.3458
 1160SOL     OW14941   2.764   3.180   7.616 -0.4081 -0.0846 -0.4191
 1160SOL    HW114942   2.677   3.187   7.655 -0.1385  0.0620  0.1574
 1160SOL    HW214943   2.748   3.193   7.522 -0.5092 -2.1239 -0.6799
 1161SOL     OW14944   1.566   1.052   9.899  0.1030 -0.5037 -0.1747
 1161SOL    HW114945   1.605   1.090   9.977  1.3465  1.0794 -1.5744
 1161SOL    HW214946   1.576   1.122   9.835  0.7618 -2.3415 -2.1029
 1162SOL     OW14947   4.564   1.248  16.522  0.0328 -0.2274  0.2253
 1162SOL    HW114948   4.629   1.183  16.498  0.7575  0.4438  0.3554
 1162SOL    HW214949   4.573   1.323  16.464  1.8741 -0.1087  0.6619
 1163SOL     OW14950   2.829   2.116  14.567  0.1308 -0.0921 -0.2381
 1163SOL    HW114951   2.865   2.185  14.622  1.0305  0.7397 -1.8518
 1163SOL    HW214952   2.769   2.159  14.506 -0.2652  0.9608  0.9047
 1164SOL     OW14953   2.486   1.221   2.273 -0.2500  0.0307  0.1668
 1164SOL    HW114954   2.466   1.233   2.366  0.7484 -0.8241  0.4978
 1164SOL    HW214955   2.480   1.308   2.234 -1.5776 -0.0678  0.1591
 1165SOL     OW14956   0.289   0.066   5.037  0.1181  0.3267 -0.3709
 1165SOL    HW114957   0.221   0.068   4.970 -1.2632 -1.0635  0.9727
 1165SOL    HW214958   0.359   0.020   4.992 -0.8160 -0.7144 -0.7467
 1166SOL     OW14959   2.996   0.697   4.692 -0.3388 -0.2303  0.1981
 1166SOL    HW114960   2.993   0.646   4.773  0.5995 -1.8415 -0.7811
 1166SOL    HW214961   3.071   0.649   4.656 -1.0390  0.8093 -2.6215
 1167SOL     OW14962   1.991   0.960   5.350 -0.1191 -0.4284 -0.5303
 1167SOL    HW114963   1.978   0.950   5.256  2.0114  0.0470 -0.8771
 1167SOL    HW214964   2.083   0.950   5.328 -0.6813  0.1854 -3.1084
 1168SOL     OW14965   3.187   4.387   2.189 -0.6692  0.4273 -0.6751
 1168SOL    HW114966   3.137   4.306   2.192 -0.7464  0.5027  0.1230
 1168SOL    HW214967   3.141   4.441   2.254  1.5167  1.8352 -0.2957
 1169SOL     OW14968   1.997   1.260   9.739 -0.0796 -0.1577  0.5821
 1169SOL    HW114969   2.014   1.350   9.711 -1.2904  0.4370  1.7745
 1169SOL    HW214970   1.901   1.259   9.738 -0.0349 -2.0309 -0.4679
 1170SOL     OW14971   3.446   1.083   1.881  0.1935  0.2409 -0.2324
 1170SOL    HW114972   3.489   1.158   1.923  0.5885 -0.1415  0.0531
 1170SOL    HW214973   3.478   1.091   1.791 -0.3400 -1.6428 -0.5945
 1171SOL     OW14974   4.381   4.555   7.938 -0.0045  0.1120 -0.3680
 1171SOL    HW114975   4.371   4.637   7.988 -1.9552 -0.5896  0.3929
 1171SOL    HW214976   4.398   4.489   8.005  0.7974  0.2375 -0.4443
 1172SOL     OW14977   3.608   0.601   3.466  0.2190 -0.9483 -0.5115
 1172SOL    HW114978   3.699   0.609   3.494 -0.6100  0.0752  1.8534
 1172SOL    HW214979   3.574   0.645   3.543 -1.3305  2.7816 -3.3401
 1173SOL     OW14980   1.762   1.411   4.966 -0.1178  0.2609 -0.6206
 1173SOL    HW114981   1.847   1.382   5.000 -0.2284  0.1811 -0.4136
 1173SOL    HW214982   1.700   1.364   5.021 -0.4422  0.7087 -0.6084
 1174SOL     OW14983   3.546   0.101   0.448 -0.4450 -0.6814  0.1970
 1174SOL    HW114984   3.498   0.182   0.465  0.8688 -0.0803  1.0063
 1174SOL    HW214985   3.630   0.110   0.492 -0.9624  0.1643  1.0203
 1175SOL     OW14986   0.085   2.429  11.276  0.1569 -0.5027  0.2354
 1175SOL    HW114987   0.136   2.464  11.203 -3.7234 -1.4742 -2.9498
 1175SOL    HW214988   0.090   2.508  11.329 -0.8947 -1.4268  1.7274
 1176SOL     OW14989   0.275   0.007   7.907 -0.4542  0.0786  0.3123
 1176SOL    HW114990   0.191   0.039   7.938 -0.8550 -1.7484  1.1322
 1176SOL    HW214991   0.267   0.000   7.812 -2.9644  2.1519  0.3809
 1177SOL     OW14992   3.919   0.197   8.959  0.0256 -0.0245 -0.1272
 1177SOL    HW114993   3.951   0.161   9.042 -0.0835 -1.4667 -0.7014
 1177SOL    HW214994   3.953   0.286   8.960 -2.4937  0.9052  2.6976
 1178SOL     OW14995   1.485   4.696  15.800 -0.0931 -0.3512  0.0121
 1178SOL    HW114996   1.489   4.617  15.854 -0.1971  2.1716  3.6917
 1178SOL    HW214997   1.570   0.017  15.810  0.8881 -1.8619 -1.9503
 1179SOL     OW14998   3.252   4.713  17.156 -0.0731 -0.1777  0.1737
 1179SOL    HW114999   3.201   4.641  17.120  0.2616 -0.0406 -0.5707
 1179SOL    HW215000   3.263   4.678  17.245  1.4933  2.6975  1.1240
 1180SOL     OW15001   0.099   0.076   4.089 -0.4215  0.4711  0.8452
 1180SOL    HW115002   0.137   0.160   4.063 -1.9559  0.4680 -1.3798
 1180SOL    HW215003   0.156   0.061   4.165  0.6799 -1.6961 -0.4208
 1181SOL     OW15004   1.688   2.640   8.360 -0.1621  0.2173 -0.4713
 1181SOL    HW115005   1.659   2.554   8.392  0.8964 -0.0202 -0.1731
 1181SOL    HW215006   1.625   2.666   8.293 -1.0090  0.7023  0.5012
 1182SOL     OW15007   2.638   0.093   7.892  0.3818 -0.8153 -0.7507
 1182SOL    HW115008   2.678   0.006   7.901 -0.0200 -1.2222 -2.7539
 1182SOL    HW215009   2.670   0.127   7.975 -0.5800 -2.9552  0.5002
 1183SOL     OW15010   2.160   3.906   4.971 -0.1084  0.3496  0.5086
 1183SOL    HW115011   2.244   3.894   4.927  0.0228  1.8145  0.3619
 1183SOL    HW215012   2.165   3.998   4.995  1.2433  0.7721 -1.3998
 1184SOL     OW15013   3.605   3.118   6.538  0.1807  0.3938  0.0079
 1184SOL    HW115014   3.599   3.037   6.588  1.4016  0.7870  0.8005
 1184SOL    HW215015   3.511   3.132   6.529  0.1071 -0.0781  0.0595
 1185SOL     OW15016   1.764   0.565   2.136 -0.2677 -0.3339  0.3706
 1185SOL    HW115017   1.838   0.518   2.096 -1.0731 -1.5236  0.2523
 1185SOL    HW215018   1.729   0.496   2.192 -0.7375 -0.6866 -0.3450
 1186SOL     OW15019   4.105   1.534   5.269 -0.7785  0.1887  0.2700
 1186SOL    HW115020   4.130   1.547   5.361 -0.4437 -1.6404  0.4479
 1186SOL    HW215021   4.009   1.531   5.274 -0.7342  0.4184  1.3334
 1187SOL     OW15022   3.016   1.431   3.817  0.3399 -0.7397 -0.0485
 1187SOL    HW115023   2.966   1.470   3.889  0.7702 -1.4271  0.6239
 1187SOL    HW215024   3.057   1.355   3.858  1.5266  0.8181  1.6470
 1188SOL     OW15025   3.582   1.327   3.278  0.3671  0.2923 -0.5773
 1188SOL    HW115026   3.530   1.350   3.355  0.1027  0.4896 -0.8156
 1188SOL    HW215027   3.615   1.241   3.304  1.9761  0.7806 -0.9457
 1189SOL     OW15028   3.962   0.766   4.269 -0.3241  0.4950 -0.1022
 1189SOL    HW115029   4.045   0.726   4.297 -1.2989 -1.2101  0.3195
 1189SOL    HW215030   4.001   0.830   4.210 -2.0163  1.5464 -0.0833
 1190SOL     OW15031   2.661   3.469   7.036 -0.0859  0.5375 -0.2039
 1190SOL    HW115032   2.572   3.496   7.057 -0.4485  0.0370 -1.0869
 1190SOL    HW215033   2.707   3.523   7.101 -1.4606  0.7714  0.5763
 1191SOL     OW15034   1.820   3.383  10.612  0.1108  0.0449 -0.5128
 1191SOL    HW115035   1.806   3.428  10.695  1.1150 -1.4909  0.4927
 1191SOL    HW215036   1.755   3.312  10.619  1.1939 -0.6455  2.5213
 1192SOL     OW15037   3.985   2.293   4.359 -0.7572 -0.2555  0.0954
 1192SOL    HW115038   4.015   2.208   4.391 -1.7916  1.1375  4.8772
 1192SOL    HW215039   3.907   2.297   4.415 -0.8230 -0.5732  0.0250
 1193SOL     OW15040   1.184   1.251   0.007  0.3011  0.4768 -0.1643
 1193SOL    HW115041   1.095   1.279   0.029 -0.1984 -1.0155 -0.3195
 1193SOL    HW215042   1.235   1.332   0.001 -0.8344  1.2121  0.1242
 1194SOL     OW15043   2.061   3.779   3.574 -0.1528  0.0466 -0.2860
 1194SOL    HW115044   2.079   3.795   3.481 -0.9110 -0.3333 -0.5021
 1194SOL    HW215045   1.989   3.716   3.577 -1.4798  1.6892  2.6094
 1195SOL     OW15046   1.681   3.843   8.635  0.3148 -0.2249 -0.7805
 1195SOL    HW115047   1.649   3.893   8.711 -1.4222  0.7418 -2.1479
 1195SOL    HW215048   1.773   3.869   8.645 -0.1604  0.9669  0.5840
 1196SOL     OW15049   2.079   4.169   0.113 -0.3312  0.1048  0.0873
 1196SOL    HW115050   2.014   4.227   0.072 -0.6207  0.7860  1.5142
 1196SOL    HW215051   2.083   4.189   0.206  0.3711  2.6724 -0.4770
 1197SOL     OW15052   4.450   4.653  13.472  0.0354 -0.0353  0.8245
 1197SOL    HW115053   4.532   4.677  13.427 -1.2766 -1.2144 -2.1954
 1197SOL    HW215054   4.478   4.569  13.508  0.5047 -0.4709 -0.5761
 1198SOL     OW15055   0.679   0.182  13.075 -0.1309 -0.1843  0.5152
 1198SOL    HW115056   0.700   0.190  12.982  1.3057  0.1818  0.8581
 1198SOL    HW215057   0.764   0.219  13.101  0.1558 -0.6984  0.3113
 1199SOL     OW15058   3.061   0.869   5.291 -0.5014 -0.0352 -0.2504
 1199SOL    HW115059   3.054   0.958   5.326  1.5456 -1.2037  3.1047
 1199SOL    HW215060   3.125   0.877   5.221 -0.9928  2.0774 -0.4800
 1200SOL     OW15061   4.486   3.800  13.062 -0.0343 -0.0085 -0.0531
 1200SOL    HW115062   4.495   3.888  13.026  2.2023  1.2385  3.5282
 1200SOL    HW215063   4.564   3.752  13.033  0.8615  0.3403  1.7505
 1201SOL     OW15064   1.841   4.623   3.881 -0.1428  0.5013  0.4564
 1201SOL    HW115065   1.794   4.551   3.923 -1.3447  1.2008  0.2993
 1201SOL    HW215066   1.870   4.676   3.955 -0.5154  0.0824  0.9021
 1202SOL     OW15067   0.319   2.156   4.307 -0.0823 -0.2346 -0.3172
 1202SOL    HW115068   0.406   2.193   4.291 -0.4184  0.9447  0.5746
 1202SOL    HW215069   0.344   2.075   4.351  1.2378  0.5827  0.4535
 1203SOL     OW15070   1.571   1.467  10.055  0.3661 -0.0105  0.3328
 1203SOL    HW115071   1.597   1.388  10.103  0.8076  0.8266  1.4609
 1203SOL    HW215072   1.625   1.459   9.976  2.5056  1.1087  1.6806
 1204SOL     OW15073   1.104   3.926   6.318 -0.0429  0.5756 -0.5583
 1204SOL    HW115074   1.038   3.871   6.362  0.5392 -0.5651 -1.0981
 1204SOL    HW215075   1.175   3.863   6.333 -1.1006 -0.3963  0.3440
 1205SOL     OW15076   4.006   3.874  13.938 -0.1925  0.0493 -0.0944
 1205SOL    HW115077   4.003   3.830  14.024 -0.5732  0.3019  0.0189
 1205SOL    HW215078   4.024   3.964  13.964 -1.8446 -0.0068  1.2867
 1206SOL     OW15079   3.477   1.206   3.033  0.3684 -0.0481  0.2644
 1206SOL    HW115080   3.527   1.252   3.100 -0.5750  0.8039  0.3745
 1206SOL    HW215081   3.428   1.140   3.082  0.9623 -1.2073 -0.6832
 1207SOL     OW15082   0.363   3.744   6.463  0.2933  0.0026  0.1642
 1207SOL    HW115083   0.366   3.674   6.397 -2.0608  0.2250 -0.2032
 1207SOL    HW215084   0.359   3.828   6.418  1.7715  1.1725  2.2235
 1208SOL     OW15085   1.510   2.606   7.552 -0.0538 -0.4338 -0.0676
 1208SOL    HW115086   1.478   2.546   7.484 -0.9862  0.4504 -0.3984
 1208SOL    HW215087   1.605   2.597   7.540 -0.1908  0.0343 -1.5696
 1209SOL     OW15088   3.277   4.615  17.397 -0.0918 -0.1311  0.1577
 1209SOL    HW115089   3.329   4.649  17.470 -0.4685 -0.4569  0.5728
 1209SOL    HW215090   3.194   4.622  17.443 -0.7126  0.2398 -1.0116
 1210SOL     OW15091   1.363   3.865   9.641  0.0750 -0.0624  1.4121
 1210SOL    HW115092   1.457   3.845   9.639  0.0576  0.0663 -1.1701
 1210SOL    HW215093   1.318   3.830   9.564  2.0575 -0.2286  0.3346
 1211SOL     OW15094   4.363   0.694   3.236 -0.1931 -0.1759 -0.1457
 1211SOL    HW115095   4.298   0.630   3.208 -1.3092  1.0869 -0.3838
 1211SOL    HW215096   4.430   0.631   3.264  1.4423  2.4847  1.9502
 1212SOL     OW15097   4.436   3.586  11.561  0.4498 -0.5039  0.2162
 1212SOL    HW115098   4.404   3.600  11.650 -2.1551 -0.3203 -0.7733
 1212SOL    HW215099   4.517   3.536  11.574  2.1790  1.7027 -1.9125
 1213SOL     OW15100   2.886   4.052   2.377  0.7217 -0.1075  0.4610
 1213SOL    HW115101   2.980   4.057   2.360  0.8258  0.3043  1.1754
 1213SOL    HW215102   2.875   4.147   2.370 -0.6761 -0.2104  1.0693
 1214SOL     OW15103   0.331   2.369   9.443 -0.3477 -0.4865 -0.5548
 1214SOL    HW115104   0.410   2.351   9.392  0.6644  2.6877 -0.0800
 1214SOL    HW215105   0.342   2.307   9.516 -0.3591  1.3013  0.9592
 1215SOL     OW15106   1.487   0.956   4.178 -0.5500 -0.3081 -0.0844
 1215SOL    HW115107   1.558   0.901   4.144  0.7497  1.2994  0.0055
 1215SOL    HW215108   1.528   1.043   4.178 -0.8127 -0.1836  0.1244
 1216SOL     OW15109   2.330   3.004   5.541  0.3881 -0.0483 -0.1858
 1216SOL    HW115110   2.290   3.049   5.615 -2.0534 -1.9804 -0.3178
 1216SOL    HW215111   2.367   2.924   5.579  0.6543  1.4739  2.7679
 1217SOL     OW15112   4.472   1.371   3.646  0.4629 -0.6583  0.0579
 1217SOL    HW115113   4.482   1.288   3.599  0.9111 -1.7158  2.0093
 1217SOL    HW215114   4.434   1.344   3.730 -1.0813  0.0191 -0.4224
 1218SOL     OW15115   4.444   3.159  11.612 -0.1278  0.1759 -0.4647
 1218SOL    HW115116   4.350   3.173  11.605 -0.0986 -0.4047 -2.1296
 1218SOL    HW215117   4.470   3.168  11.520 -0.9865  4.9637 -0.2198
 1219SOL     OW15118   1.027   0.129  16.112  0.1717 -0.6838  0.5468
 1219SOL    HW115119   0.943   0.083  16.113  0.5283 -1.3468  0.0431
 1219SOL    HW215120   1.081   0.075  16.054 -1.0549  0.1826 -1.3664
 1220SOL     OW15121   1.513   2.514   8.795 -0.2761  0.2427  0.3464
 1220SOL    HW115122   1.600   2.526   8.756  0.5297 -1.0263  1.7716
 1220SOL    HW215123   1.515   2.567   8.874  0.9611 -1.9060  1.7530
 1221SOL     OW15124   2.487   3.585   1.843  0.5703  0.1567 -0.0292
 1221SOL    HW115125   2.548   3.513   1.826  0.8745  0.3530  0.2405
 1221SOL    HW215126   2.445   3.600   1.758  0.4553 -0.0396 -0.0071
 1222SOL     OW15127   1.686   1.184  10.129 -0.1073  0.4160 -0.1456
 1222SOL    HW115128   1.751   1.184  10.199  2.6529 -0.2636 -2.7071
 1222SOL    HW215129   1.610   1.212  10.179  0.6141 -1.3592  1.9672
 1223SOL     OW15130   3.957   2.532   4.222 -0.1247  0.0322  0.5100
 1223SOL    HW115131   3.969   2.440   4.245 -1.1500 -0.6068 -1.5082
 1223SOL    HW215132   3.981   2.568   4.307  2.2476  0.5042 -0.3523
 1224SOL     OW15133   0.708   3.549   4.940 -0.1986 -0.6778 -0.5557
 1224SOL    HW115134   0.668   3.511   4.862 -1.2704 -0.9067  0.0949
 1224SOL    HW215135   0.798   3.554   4.909  0.6699 -0.4297  1.9939
 1225SOL     OW15136   1.764   3.475  17.646 -0.1978 -0.0409  0.2255
 1225SOL    HW115137   1.826   3.536  17.607  0.9521  0.1795  2.4553
 1225SOL    HW215138   1.767   3.405  17.580 -1.7194 -0.5514  0.6741
 1226SOL     OW15139   3.653   3.327   5.979  0.2473 -0.2601 -0.8683
 1226SOL    HW115140   3.625   3.235   5.975 -0.0150 -0.1861 -0.7651
 1226SOL    HW215141   3.630   3.346   6.070  0.4572 -2.5949 -0.3033
 1227SOL     OW15142   3.621   4.205  15.790 -0.2543  0.2397 -0.4004
 1227SOL    HW115143   3.676   4.206  15.712  1.8073 -0.7375  1.0455
 1227SOL    HW215144   3.554   4.271  15.772  1.0418  2.4239  2.7523
 1228SOL     OW15145   3.965   1.894  13.540 -0.2071  0.2249 -0.2235
 1228SOL    HW115146   4.035   1.831  13.524 -0.6873 -0.1389 -0.8641
 1228SOL    HW215147   3.907   1.884  13.465 -0.3496 -3.9770  0.4665
 1229SOL     OW15148   2.921   1.599   3.451  1.1213  0.2653 -0.1908
 1229SOL    HW115149   2.887   1.663   3.388  0.7340 -0.2460 -0.4994
 1229SOL    HW215150   2.929   1.659   3.525  1.4678  0.9202 -0.7536
 1230SOL     OW15151   1.305   4.404   1.466 -0.1466 -0.7906 -0.2034
 1230SOL    HW115152   1.273   4.415   1.377  0.7610  0.8926 -0.3259
 1230SOL    HW215153   1.287   4.489   1.505 -2.4073 -0.9494 -0.9295
 1231SOL     OW15154   0.278   0.242   2.904 -0.0960  0.6062 -0.1692
 1231SOL    HW115155   0.353   0.290   2.938  0.3094 -1.3695  1.6893
 1231SOL    HW215156   0.289   0.155   2.944  1.0072  0.5908 -0.5028
 1232SOL     OW15157   1.556   1.938   5.990  0.0771 -0.6540 -0.2919
 1232SOL    HW115158   1.586   1.900   6.072  1.4977  2.4195  0.6144
 1232SOL    HW215159   1.563   2.032   6.007 -0.0730 -0.5983 -0.5397
 1233SOL     OW15160   1.748   2.314   7.687  0.4030 -0.5532  0.3960
 1233SOL    HW115161   1.834   2.350   7.664 -0.1530 -0.1063 -0.9343
 1233SOL    HW215162   1.789   2.239   7.730 -1.3925 -1.7569 -0.0304
 1234SOL     OW15163   3.226   2.265   5.362  0.3436 -0.1399 -0.6528
 1234SOL    HW115164   3.233   2.226   5.275 -0.4315 -0.0105 -0.7743
 1234SOL    HW215165   3.289   2.337   5.370  0.3410  0.2027 -3.9476
 1235SOL     OW15166   0.637   2.449   3.122 -0.1258 -0.2628 -0.4142
 1235SOL    HW115167   0.729   2.454   3.147 -0.2193  1.7208 -0.4727
 1235SOL    HW215168   0.650   2.486   3.034 -0.7757  0.1304 -0.3414
 1236SOL     OW15169   1.102   1.975  10.703 -0.3305  0.3451 -0.3097
 1236SOL    HW115170   1.154   1.932  10.771  0.2001  2.0014  0.3436
 1236SOL    HW215171   1.176   1.969  10.642 -0.4810 -0.2867 -0.4335
 1237SOL     OW15172   1.538   4.121   9.596 -0.4976  0.4450  0.5889
 1237SOL    HW115173   1.449   4.086   9.604  0.8515 -2.9352  0.5668
 1237SOL    HW215174   1.592   4.086   9.666  2.9509 -1.4545 -3.0256
 1238SOL     OW15175   1.627   4.470  11.100 -0.2341  0.4105  0.3236
 1238SOL    HW115176   1.676   4.475  11.018 -0.0274 -0.7250  0.3812
 1238SOL    HW215177   1.667   4.544  11.146  0.0726  1.1538 -1.1488
 1239SOL     OW15178   1.948   3.447   1.556  0.4655  0.0637 -0.0743
 1239SOL    HW115179   1.898   3.523   1.528 -0.6999 -0.3552  0.8342
 1239SOL    HW215180   1.955   3.391   1.479 -0.0241 -2.9762  2.0834
 1240SOL     OW15181   2.038   2.600  14.953 -0.6163  0.0305 -0.2757
 1240SOL    HW115182   2.047   2.556  14.869 -1.3051  0.2704 -0.4710
 1240SOL    HW215183   2.125   2.575  14.985 -1.3404 -1.3470  0.6227
 1241SOL     OW15184   2.320   0.897   5.932  0.3553  0.7028 -0.0286
 1241SOL    HW115185   2.399   0.942   5.903  1.1053  2.0791  4.1518
 1241SOL    HW215186   2.338   0.893   6.026  0.9341  0.5222 -0.1465
 1242SOL     OW15187   2.186   2.880   1.917 -0.0331 -0.5583  0.1771
 1242SOL    HW115188   2.243   2.951   1.949  0.7256  0.7019 -4.0548
 1242SOL    HW215189   2.247   2.828   1.866  0.8938  2.7050 -2.0298
 1243SOL     OW15190   1.676   2.681   4.376  0.6657  0.6340 -0.3461
 1243SOL    HW115191   1.753   2.625   4.384  0.5436  0.3971 -0.8027
 1243SOL    HW215192   1.632   2.678   4.461 -1.3451 -0.4620 -1.4128
 1244SOL     OW15193   0.626   4.693   5.873 -0.4537 -0.1313  0.0713
 1244SOL    HW115194   0.698   4.672   5.933 -0.6610  1.1333  0.7572
 1244SOL    HW215195   0.658   4.692   5.783  0.4297  3.1419  0.3407
 1245SOL     OW15196   0.780   3.870  10.935  0.5030 -0.1928  0.3268
 1245SOL    HW115197   0.832   3.804  10.980  1.1587 -1.2932 -2.0496
 1245SOL    HW215198   0.704   3.859  10.991 -0.2401  0.6065 -0.5114
 1246SOL     OW15199   0.098   2.221   8.638 -0.1766  0.0582 -0.2132
 1246SOL    HW115200   0.028   2.286   8.633 -1.4758 -1.4364 -1.1712
 1246SOL    HW215201   0.046   2.142   8.648  1.4216 -1.1945 -1.8121
 1247SOL     OW15202   3.738   0.817   5.374 -0.3560  0.3371 -0.1064
 1247SOL    HW115203   3.761   0.742   5.429 -1.6487  0.0838  0.1000
 1247SOL    HW215204   3.827   0.844   5.352 -1.0168 -0.2243 -3.4526
 1248SOL     OW15205   0.888   4.709  16.375 -0.0975 -0.3764 -0.6291
 1248SOL    HW115206   0.881   4.621  16.412 -0.4070 -1.0238 -2.2364
 1248SOL    HW215207   0.859   4.689  16.286  0.9631  1.8770 -1.4873
 1249SOL     OW15208   2.782   1.126   0.944 -0.2315  0.1637  0.3725
 1249SOL    HW115209   2.725   1.054   0.917 -2.3538  2.1179 -0.3905
 1249SOL    HW215210   2.725   1.166   1.011 -2.9359  0.1287 -1.9286
 1250SOL     OW15211   0.256   1.735  12.526 -0.1965  0.3252 -0.0142
 1250SOL    HW115212   0.175   1.768  12.566 -0.8182 -0.8294 -0.3270
 1250SOL    HW215213   0.307   1.809  12.492 -1.0446  1.3043  0.8145
 1251SOL     OW15214   3.841   4.174   9.391 -0.1297  0.2406 -0.1546
 1251SOL    HW115215   3.770   4.110   9.391  2.1568 -2.2625 -0.5517
 1251SOL    HW215216   3.783   4.249   9.403 -1.5684 -0.9845  0.5141
 1252SOL     OW15217   0.944   1.846   0.325  0.4577  0.3268  0.8317
 1252SOL    HW115218   0.863   1.868   0.280  1.2342 -1.9614 -1.7013
 1252SOL    HW215219   0.905   1.856   0.412 -0.4996 -2.6554  0.7567
 1253SOL     OW15220   1.561   3.044   1.152  0.2824 -0.0865 -0.2921
 1253SOL    HW115221   1.627   2.997   1.101 -0.2224 -0.8744 -0.2167
 1253SOL    HW215222   1.496   3.078   1.090 -0.8131  1.0781  1.4903
 1254SOL     OW15223   4.238   1.740   6.337  0.5482 -0.0227 -0.8950
 1254SOL    HW115224   4.326   1.706   6.357  0.2639  0.5453  1.3744
 1254SOL    HW215225   4.253   1.784   6.254 -1.5431 -0.9904 -1.7935
 1255SOL     OW15226   0.747   2.560  11.234 -0.5570 -0.0373  0.5612
 1255SOL    HW115227   0.704   2.644  11.216 -0.2607  0.1060  0.5365
 1255SOL    HW215228   0.815   2.590  11.294 -1.3979  1.8234  0.6057
 1256SOL     OW15229   3.538   2.908   7.751 -0.3737  0.1603  0.0421
 1256SOL    HW115230   3.585   2.943   7.675 -2.3413  2.7581 -0.0078
 1256SOL    HW215231   3.611   2.910   7.813  0.2268 -1.5291 -0.6369
 1257SOL     OW15232   1.387   2.193   4.967  0.0190 -0.0219 -0.0222
 1257SOL    HW115233   1.461   2.134   4.950 -0.5131 -0.4118 -0.9286
 1257SOL    HW215234   1.329   2.193   4.891 -0.3527 -1.1105  0.2600
 1258SOL     OW15235   3.669   1.466   0.071 -0.2132  0.2875 -0.3287
 1258SOL    HW115236   3.658   1.430   0.159 -1.0755 -0.0642 -0.5744
 1258SOL    HW215237   3.627   1.401   0.014 -0.9097 -0.0177  0.5385
 1259SOL     OW15238   4.701   4.289   8.465 -0.4118  0.1963 -0.2670
 1259SOL    HW115239   4.695   4.256   8.554 -0.9152  0.7172 -0.1064
 1259SOL    HW215240   4.666   4.219   8.409 -1.3146  1.4934 -1.3427
 1260SOL     OW15241   0.112   0.516  16.073 -0.2104 -0.1129 -0.2198
 1260SOL    HW115242   0.190   0.566  16.051 -0.5380  0.2562 -0.5537
 1260SOL    HW215243   0.079   0.586  16.130 -1.4141 -0.9406  0.1079
 1261SOL     OW15244   1.548   3.520   5.405 -0.2256  0.4982 -0.7353
 1261SOL    HW115245   1.474   3.477   5.448  0.1532 -0.2536 -0.8226
 1261SOL    HW215246   1.618   3.455   5.410 -0.3475  0.2437 -2.3870
 1262SOL     OW15247   3.344   2.068   8.380  0.3540 -0.2959 -0.3302
 1262SOL    HW115248   3.399   2.136   8.340  1.3748 -2.0320 -1.8820
 1262SOL    HW215249   3.394   1.987   8.379  1.0366  0.1131  0.7102
 1263SOL     OW15250   1.026   0.487   1.757  0.1609  0.5286  0.0089
 1263SOL    HW115251   1.046   0.521   1.670  3.4621 -0.1070  0.5108
 1263SOL    HW215252   0.986   0.565   1.796  0.4331  0.4521  0.4452
 1264SOL     OW15253   3.742   2.683   4.160 -0.2685  0.2105  0.1067
 1264SOL    HW115254   3.712   2.704   4.248  1.9668  1.0831  0.6742
 1264SOL    HW215255   3.818   2.632   4.188 -0.8418 -2.1359 -2.6515
 1265SOL     OW15256   4.651   0.967   1.506  0.3696 -0.1005 -0.5463
 1265SOL    HW115257   4.697   0.894   1.547  0.3399  0.0805 -0.1901
 1265SOL    HW215258   4.606   0.996   1.586  0.7228 -0.3943 -0.2439
 1266SOL     OW15259   3.350   0.145  11.093  0.1327  0.1756  0.4504
 1266SOL    HW115260   3.298   0.066  11.074  1.4961 -0.7213  0.4568
 1266SOL    HW215261   3.338   0.196  11.013 -0.3281 -0.7350 -0.0613
 1267SOL     OW15262   4.585   2.846   3.240 -0.3511  0.2304  0.9192
 1267SOL    HW115263   4.609   2.938   3.252 -0.7802  0.4648 -0.0587
 1267SOL    HW215264   4.629   2.811   3.318  2.7330  1.1591 -0.4355
 1268SOL     OW15265   3.357   3.610  16.241  0.9618  0.3199  0.1180
 1268SOL    HW115266   3.325   3.545  16.178  0.8168 -0.1131  0.6367
 1268SOL    HW215267   3.290   3.602  16.309  2.8111 -1.2527  1.7397
 1269SOL     OW15268   3.789   1.445   5.619  0.0525 -0.0170  0.0623
 1269SOL    HW115269   3.821   1.426   5.707 -1.0575 -0.0699  0.4538
 1269SOL    HW215270   3.803   1.540   5.614  0.2589  0.1153  2.9358
 1270SOL     OW15271   3.030   1.513  15.358  0.0407 -0.7099 -0.1241
 1270SOL    HW115272   2.951   1.565  15.346  0.4943 -0.3513 -1.5682
 1270SOL    HW215273   3.022   1.460  15.278 -1.5073 -1.4032  0.4799
 1271SOL     OW15274   3.179   3.041   9.910 -0.0555  0.0300 -0.0269
 1271SOL    HW115275   3.263   3.012   9.875 -0.6414 -1.2864 -0.3676
 1271SOL    HW215276   3.153   3.087   9.831  0.4208  1.3128  0.5568
 1272SOL     OW15277   4.136   0.739   2.927  0.3627 -0.4339  0.3922
 1272SOL    HW115278   4.100   0.820   2.963  1.5909 -0.3779  1.5052
 1272SOL    HW215279   4.102   0.745   2.838  2.2192  2.5910 -0.1019
 1273SOL     OW15280   0.459   2.697   5.758 -0.0730  0.0648 -0.4494
 1273SOL    HW115281   0.443   2.698   5.852 -0.0262 -2.5265 -0.4284
 1273SOL    HW215282   0.552   2.675   5.750  0.1112  0.7839 -0.2794
 1274SOL     OW15283   0.124   3.583   6.767  0.0793  0.0435  0.3129
 1274SOL    HW115284   0.143   3.539   6.850 -0.9183 -2.3890 -0.7347
 1274SOL    HW215285   0.189   3.653   6.772  0.7356 -0.7978  3.4013
 1275SOL     OW15286   4.351   2.365   6.282  0.3496  0.0167  0.4617
 1275SOL    HW115287   4.329   2.352   6.374  2.6249 -0.9183  0.8933
 1275SOL    HW215288   4.422   2.302   6.267  0.3187  0.3669 -1.1726
 1276SOL     OW15289   2.177   2.619  15.703  0.1013 -0.0658 -0.0900
 1276SOL    HW115290   2.153   2.682  15.635 -1.5966  0.7230  1.2428
 1276SOL    HW215291   2.265   2.650  15.727  0.2866 -2.6285  2.4600
 1277SOL     OW15292   2.908   3.491   5.448 -0.0466  0.5301  0.5982
 1277SOL    HW115293   2.850   3.568   5.448  1.8663  1.9695  0.4588
 1277SOL    HW215294   2.934   3.501   5.356  0.5250 -1.5421  0.5557
 1278SOL     OW15295   1.739   1.465   5.687  0.4460  0.0060  0.0393
 1278SOL    HW115296   1.797   1.446   5.761 -1.7314  1.4560  2.0767
 1278SOL    HW215297   1.803   1.483   5.618 -0.0801  1.2798 -0.1117
 1279SOL     OW15298   2.020   2.160   6.338  0.2034  0.3897 -0.5071
 1279SOL    HW115299   1.982   2.107   6.267 -2.5727  1.9744 -0.2156
 1279SOL    HW215300   1.947   2.166   6.400  0.1532  0.0590 -0.5335
 1280SOL     OW15301   4.131   0.649   7.461 -0.4913 -0.2672  0.4905
 1280SOL    HW115302   4.214   0.654   7.509 -0.3776 -3.3797  0.5687
 1280SOL    HW215303   4.155   0.609   7.377 -0.1556 -1.5713  1.2210
 1281SOL     OW15304   4.370   2.241   8.192 -0.0834 -0.1712  0.1221
 1281SOL    HW115305   4.449   2.248   8.246  0.1387 -2.4914  0.1254
 1281SOL    HW215306   4.355   2.335   8.189  2.0854  0.1473 -0.8212
 1282SOL     OW15307   3.973   0.024   8.058 -0.3226 -0.1936 -0.3958
 1282SOL    HW115308   3.986   4.651   8.048 -1.7473 -0.3483 -0.7639
 1282SOL    HW215309   3.951   0.040   8.149  0.8670  0.3924 -0.2204
 1283SOL     OW15310   2.519   3.625   5.014  0.2446  0.3001  0.5651
 1283SOL    HW115311   2.498   3.535   5.039  0.0203 -0.0587 -0.9074
 1283SOL    HW215312   2.440   3.661   4.973  0.0996 -0.7283 -0.0956
 1284SOL     OW15313   2.103   4.050   5.370  0.2883  0.5080 -0.0658
 1284SOL    HW115314   2.019   4.075   5.407  0.0976 -0.4834  0.1646
 1284SOL    HW215315   2.137   4.139   5.368 -0.6981  0.8627 -0.9636
 1285SOL     OW15316   2.156   0.217   2.376  0.1186 -0.3932  0.2106
 1285SOL    HW115317   2.193   0.240   2.461 -0.0595 -0.3381  0.2725
 1285SOL    HW215318   2.143   0.298   2.328  1.7109  0.4012  1.1006
 1286SOL     OW15319   4.660   0.023   2.688 -0.1553  0.2118 -0.4651
 1286SOL    HW115320   4.708   0.069   2.619  0.0496  1.4409  0.4999
 1286SOL    HW215321   4.688   4.652   2.684 -0.3023  0.2659 -2.6642
 1287SOL     OW15322   3.657   2.212  14.941  0.3975  0.3055  0.8386
 1287SOL    HW115323   3.736   2.208  14.888  0.1859  3.4254  0.3271
 1287SOL    HW215324   3.680   2.274  15.010  1.3304  0.6393  0.2205
 1288SOL     OW15325   2.724   4.443   1.982 -0.6212  0.3610  0.1426
 1288SOL    HW115326   2.745   4.511   1.919 -0.7775  1.5269  1.3503
 1288SOL    HW215327   2.737   4.492   2.063  1.1972  0.9018 -0.4852
 1289SOL     OW15328   3.588   2.473  13.446 -0.2126  0.1262 -0.1166
 1289SOL    HW115329   3.632   2.490  13.529 -0.9925  0.1187  0.2968
 1289SOL    HW215330   3.582   2.378  13.439 -1.0475  0.2622 -1.4507
 1290SOL     OW15331   2.498   1.907   8.961  0.2459 -0.1477  0.4779
 1290SOL    HW115332   2.488   1.826   8.911  0.1609  0.4745 -0.5052
 1290SOL    HW215333   2.560   1.958   8.909 -0.8171  0.7351  0.0727
 1291SOL     OW15334   3.471   2.147   3.722  0.2062  0.0249  0.0845
 1291SOL    HW115335   3.529   2.144   3.646 -0.7264 -0.9593 -0.6089
 1291SOL    HW215336   3.528   2.172   3.794 -1.6681  0.0536  1.5457
 1292SOL     OW15337   4.130   1.955   2.715 -0.2971 -0.1353 -0.1901
 1292SOL    HW115338   4.054   1.995   2.756  0.6879  0.2880  1.2333
 1292SOL    HW215339   4.167   1.895   2.780  0.2908  0.9884  0.5196
 1293SOL     OW15340   1.213   0.086   4.946 -0.3455 -0.1509 -0.7376
 1293SOL    HW115341   1.250   4.719   4.945 -0.3482 -0.1560  1.4127
 1293SOL    HW215342   1.168   0.080   5.030 -1.1976 -0.0315 -1.1854
 1294SOL     OW15343   4.562   3.529   2.443 -0.2536  0.0418 -0.3574
 1294SOL    HW115344   4.491   3.497   2.388  0.3334 -0.9958 -0.5048
 1294SOL    HW215345   4.641   3.501   2.396  0.2762  2.2830 -0.8253
 1295SOL     OW15346   0.875   3.153   8.289  0.0258 -0.0442 -0.1425
 1295SOL    HW115347   0.886   3.085   8.355  1.6706  1.5967  1.2905
 1295SOL    HW215348   0.964   3.185   8.301 -0.1051 -0.3699  1.7093
 1296SOL     OW15349   1.059   0.383  13.270  0.0254 -0.5030 -0.5020
 1296SOL    HW115350   1.154   0.390  13.282 -0.1409  1.0087 -0.0443
 1296SOL    HW215351   1.044   0.293  13.298  1.6320 -1.1241 -1.5909
 1297SOL     OW15352   2.681   4.313   4.764  0.2830 -0.6540 -0.4339
 1297SOL    HW115353   2.590   4.305   4.794 -0.5119  1.3349 -2.3069
 1297SOL    HW215354   2.688   4.253   4.690  2.6627  1.0270 -1.5823
 1298SOL     OW15355   0.419   3.050  10.662  0.0591  0.4802 -0.3788
 1298SOL    HW115356   0.510   3.023  10.673 -0.1172 -0.4378 -1.1129
 1298SOL    HW215357   0.397   3.039  10.570  3.5028  1.1991 -1.2566
 1299SOL     OW15358   0.069   0.771  11.489 -0.8021 -0.0321 -0.5947
 1299SOL    HW115359   0.004   0.746  11.556  1.5222 -1.2012  1.2108
 1299SOL    HW215360   0.043   0.861  11.468  2.2306  0.3628 -2.5308
 1300SOL     OW15361   0.518   3.118   5.393  0.1316  0.1016 -0.0607
 1300SOL    HW115362   0.437   3.168   5.386 -2.1993 -3.4730  1.3491
 1300SOL    HW215363   0.549   3.154   5.476  1.9357  0.4100 -0.8486
 1301SOL     OW15364   0.189   1.178   6.630 -0.2713  0.2234  0.4692
 1301SOL    HW115365   0.174   1.124   6.708 -0.2210  0.9673  0.9936
 1301SOL    HW215366   0.246   1.243   6.670  0.1568 -0.2474  0.6254
 1302SOL     OW15367   4.560   1.719   7.645 -0.4766 -0.2322  0.1735
 1302SOL    HW115368   4.492   1.721   7.578  1.9420  0.6132 -2.2557
 1302SOL    HW215369   4.579   1.813   7.650 -0.9825 -0.1715  0.8705
 1303SOL     OW15370   1.066   2.663   5.322 -0.3777  0.0191 -0.2557
 1303SOL    HW115371   0.989   2.652   5.378 -0.9478  1.2677 -0.8101
 1303SOL    HW215372   1.044   2.597   5.256 -0.8275  1.7959 -1.8658
 1304SOL     OW15373   3.203   3.960   7.112 -0.1510 -0.0239 -0.8040
 1304SOL    HW115374   3.129   3.938   7.056  0.1557  0.6360 -1.4647
 1304SOL    HW215375   3.154   4.014   7.174  0.6857  2.8757 -2.6716
 1305SOL     OW15376   0.597   4.346   7.926  0.1717 -0.0852  0.9740
 1305SOL    HW115377   0.609   4.279   7.994  1.2999 -0.4794  0.3859
 1305SOL    HW215378   0.628   4.420   7.978 -1.1912  0.9706  0.2689
 1306SOL     OW15379   1.659   2.663   3.626  0.7202  0.4846 -0.2410
 1306SOL    HW115380   1.724   2.648   3.558  1.0019 -0.7481  0.2941
 1306SOL    HW215381   1.604   2.733   3.592  0.1466  0.0773 -0.1435
 1307SOL     OW15382   3.442   4.159   4.003 -0.4440 -0.2118 -0.3930
 1307SOL    HW115383   3.382   4.213   4.054  1.6765 -0.5202  2.4307
 1307SOL    HW215384   3.394   4.080   3.977 -1.4387 -0.1644  1.3189
 1308SOL     OW15385   2.206   1.875   1.594  0.0710 -0.3062  0.6687
 1308SOL    HW115386   2.239   1.961   1.568 -1.7466 -0.2374 -1.3609
 1308SOL    HW215387   2.267   1.810   1.560  1.7744  2.0821 -0.8463
 1309SOL     OW15388   4.654   2.051   8.834  0.4583  0.0110  0.3531
 1309SOL    HW115389   4.615   1.979   8.882 -0.6890 -0.8431 -1.8770
 1309SOL    HW215390   4.682   2.108   8.906 -0.1914 -0.3069  0.8518
 1310SOL     OW15391   1.250   2.983   6.828 -0.2426  0.1998  0.1406
 1310SOL    HW115392   1.272   2.959   6.918  0.4591 -0.4243 -0.2013
 1310SOL    HW215393   1.336   2.999   6.788 -1.1973  1.6293 -1.3509
 1311SOL     OW15394   0.966   2.857   3.938  0.0022  0.0643  0.1415
 1311SOL    HW115395   0.948   2.767   3.966  0.3592  0.5421  1.9404
 1311SOL    HW215396   0.877   2.891   3.939  0.0588  0.2084  0.4086
 1312SOL     OW15397   1.006   4.199   2.587 -0.2938  0.2833 -0.2895
 1312SOL    HW115398   0.998   4.277   2.642  2.0140  0.5342 -0.2963
 1312SOL    HW215399   1.101   4.187   2.579 -0.6282 -2.6118  0.1180
 1313SOL     OW15400   4.228   2.131   5.673 -0.0525 -0.1986 -0.7178
 1313SOL    HW115401   4.229   2.071   5.599  2.9818  1.0910 -1.7330
 1313SOL    HW215402   4.317   2.165   5.662 -0.1531  0.3428  0.1563
 1314SOL     OW15403   0.344   2.940   9.096 -0.1629  0.3190  0.1465
 1314SOL    HW115404   0.403   2.869   9.071 -0.5524  0.5759 -1.4611
 1314SOL    HW215405   0.358   2.945   9.191 -0.3794  1.2209  0.1331
 1315SOL     OW15406   2.296   4.408   8.121  0.2800  0.0949  0.3621
 1315SOL    HW115407   2.357   4.344   8.157  1.0325  0.4525 -0.2742
 1315SOL    HW215408   2.245   4.427   8.200  0.9428  1.0302  0.5678
 1316SOL     OW15409   4.228   4.605   4.382 -0.1090 -0.0989 -0.9330
 1316SOL    HW115410   4.137   4.626   4.405 -0.6424 -2.5409 -0.7025
 1316SOL    HW215411   4.244   4.674   4.319 -1.5977  1.3159  0.2512
 1317SOL     OW15412   1.994   0.730   9.797  0.5544 -0.2102  0.4006
 1317SOL    HW115413   1.959   0.710   9.710  1.5241  0.6121 -0.1748
 1317SOL    HW215414   2.083   0.700   9.778  0.4025 -1.0788  1.0754
 1318SOL     OW15415   1.200   2.552  11.833 -0.4527  0.1404  0.4879
 1318SOL    HW115416   1.207   2.468  11.877  2.7997  0.0868 -0.1299
 1318SOL    HW215417   1.280   2.597  11.858 -0.1963 -1.2612  2.1752
 1319SOL     OW15418   3.110   3.339   2.029  0.4688  0.1007 -0.2802
 1319SOL    HW115419   3.032   3.394   2.035  0.8245  0.7789 -1.9001
 1319SOL    HW215420   3.069   3.253   2.040  0.3099  0.4281  1.7506
 1320SOL     OW15421   4.357   0.230   9.618  0.1259  0.2718  0.1397
 1320SOL    HW115422   4.409   0.310   9.622  0.5323 -0.0528  1.3891
 1320SOL    HW215423   4.348   0.227   9.522 -2.3988 -0.5857  0.4052
 1321SOL     OW15424   0.418   1.112  15.500  0.2075 -0.3884  0.2154
 1321SOL    HW115425   0.328   1.083  15.486  0.1414 -0.9714  1.7952
 1321SOL    HW215426   0.424   1.187  15.440 -0.0389 -0.9439 -0.4987
 1322SOL     OW15427   2.145   1.589   3.151 -0.0922  0.5113 -0.2456
 1322SOL    HW115428   2.216   1.648   3.123 -1.3785  2.1325 -0.1087
 1322SOL    HW215429   2.084   1.587   3.078  0.1378 -1.3329 -0.3781
 1323SOL     OW15430   2.232   1.032   7.345 -0.1135  0.3292 -0.3194
 1323SOL    HW115431   2.227   1.019   7.251  0.3110 -1.9576 -0.0147
 1323SOL    HW215432   2.142   1.011   7.371  0.5283 -0.0259  1.6764
 1324SOL     OW15433   2.222   1.839  15.964 -0.1213 -0.4732  0.3374
 1324SOL    HW115434   2.144   1.802  15.922 -0.2460  0.7262 -0.4927
 1324SOL    HW215435   2.201   1.932  15.961  0.9018 -0.2904 -1.0845
 1325SOL     OW15436   2.566   4.272  10.447  0.5786 -0.1448 -0.7068
 1325SOL    HW115437   2.562   4.327  10.368  1.9333  1.6706  0.4790
 1325SOL    HW215438   2.473   4.253  10.451  0.3199  1.0385 -1.1802
 1326SOL     OW15439   1.561   2.723   5.400 -0.2135  0.6738 -1.1549
 1326SOL    HW115440   1.621   2.648   5.402 -0.3748  0.5554 -0.6701
 1326SOL    HW215441   1.476   2.683   5.380 -0.8040  1.3580 -0.0074
 1327SOL     OW15442   3.958   1.192   4.315  0.6141 -0.3464 -0.7481
 1327SOL    HW115443   4.026   1.171   4.379  0.7184  1.5020 -0.2434
 1327SOL    HW215444   4.005   1.269   4.284  0.0563  0.3341  0.1033
 1328SOL     OW15445   3.504   3.911  15.319  0.2492  0.2043  0.9044
 1328SOL    HW115446   3.422   3.863  15.308  0.4659 -0.0829  0.5681
 1328SOL    HW215447   3.481   4.004  15.322 -1.7137 -0.2920  1.3029
 1329SOL     OW15448   3.297   2.907   8.462 -0.7418  0.5960 -0.0490
 1329SOL    HW115449   3.275   2.989   8.506  2.4520  0.1862  2.2450
 1329SOL    HW215450   3.229   2.852   8.501  1.3023 -1.7749  0.1576
 1330SOL     OW15451   2.783   4.194   3.187  0.1378 -0.0401 -0.8619
 1330SOL    HW115452   2.785   4.220   3.279  0.7773 -1.8521 -0.3677
 1330SOL    HW215453   2.835   4.262   3.145 -0.3733  0.2357 -1.0406
 1331SOL     OW15454   3.035   0.167   0.894  0.0236  0.2291 -0.3145
 1331SOL    HW115455   3.084   0.090   0.865 -0.2329 -0.1578  0.2751
 1331SOL    HW215456   2.974   0.134   0.960 -1.8668  0.7560 -1.7605
 1332SOL     OW15457   1.860   1.737   3.457 -0.2378  0.4341  0.0696
 1332SOL    HW115458   1.853   1.820   3.504  0.1159  0.4938  0.0172
 1332SOL    HW215459   1.768   1.713   3.466 -0.4375  0.7411 -1.2239
 1333SOL     OW15460   0.353   2.860   4.494  0.2317  0.1697  0.2296
 1333SOL    HW115461   0.271   2.810   4.498  0.8901 -0.7384  2.4411
 1333SOL    HW215462   0.364   2.896   4.582  0.3569 -1.0501  0.7161
 1334SOL     OW15463   2.364   3.550   0.367 -0.2216  0.2674 -0.4449
 1334SOL    HW115464   2.439   3.496   0.395 -0.2056  0.7767  0.4943
 1334SOL    HW215465   2.355   3.611   0.440 -4.4111 -1.2678  0.3245
 1335SOL     OW15466   2.384   2.320   7.064  0.0325  0.2750 -0.3612
 1335SOL    HW115467   2.397   2.385   7.134 -0.0321  0.8829 -0.9140
 1335SOL    HW215468   2.447   2.256   7.097 -0.9965  0.3584  1.7727
 1336SOL     OW15469   1.819   2.291   3.416  0.0140 -0.4210 -0.1815
 1336SOL    HW115470   1.819   2.387   3.420 -0.1342 -0.4889  1.5982
 1336SOL    HW215471   1.870   2.280   3.497  0.9799 -0.6584 -0.8265
 1337SOL     OW15472   1.920   3.967   5.704 -0.1397 -0.2934  0.4799
 1337SOL    HW115473   1.930   4.056   5.737 -1.3818 -0.2273  0.6665
 1337SOL    HW215474   1.850   3.972   5.639  0.7674  0.3908 -0.4413
 1338SOL     OW15475   0.234   1.733   2.774 -0.0263  0.2577 -0.0342
 1338SOL    HW115476   0.162   1.675   2.751  0.7903 -0.9977  0.5467
 1338SOL    HW215477   0.282   1.670   2.829  1.3501 -0.7726 -2.4399
 1339SOL     OW15478   4.721   0.494  12.234  0.1387 -0.2143 -0.2112
 1339SOL    HW115479   4.675   0.566  12.277  0.0438 -0.9714  0.9741
 1339SOL    HW215480   0.001   0.431  12.306 -0.7071  1.0163  0.8875
 1340SOL     OW15481   2.245   4.222   6.842 -0.4364  0.0319 -0.3162
 1340SOL    HW115482   2.259   4.316   6.835 -1.3087  0.2919  1.3662
 1340SOL    HW215483   2.208   4.223   6.930  0.4750  0.2824  0.0637
 1341SOL     OW15484   2.345   2.349   9.453  0.2269 -0.7614 -0.8621
 1341SOL    HW115485   2.395   2.309   9.382  2.0054 -1.4929  0.7903
 1341SOL    HW215486   2.383   2.304   9.529 -2.3073 -1.0400  0.2451
 1342SOL     OW15487   3.016   3.965   6.914 -0.1693 -0.7185 -0.1332
 1342SOL    HW115488   2.928   3.932   6.894  0.1537 -1.8307  0.2902
 1342SOL    HW215489   3.039   4.006   6.830  2.3339 -3.6799 -0.8843
 1343SOL     OW15490   0.684   1.626   5.600  0.1098 -0.1430 -0.7168
 1343SOL    HW115491   0.718   1.691   5.661  0.4533 -0.0459 -1.0142
 1343SOL    HW215492   0.756   1.595   5.546  1.9444  2.1156  0.4631
 1344SOL     OW15493   2.510   2.024   5.513 -0.1402  0.3919  0.4331
 1344SOL    HW115494   2.488   1.951   5.454 -0.1404  1.6883 -1.1885
 1344SOL    HW215495   2.569   1.985   5.577 -0.4943 -0.3093  0.3323
 1345SOL     OW15496   0.455   3.483   3.184 -0.7621 -0.0966 -0.3903
 1345SOL    HW115497   0.538   3.452   3.148 -0.4517  0.4066 -0.1034
 1345SOL    HW215498   0.479   3.570   3.214 -2.3828 -0.9178  3.3423
 1346SOL     OW15499   3.473   3.834   4.595  0.9254 -0.2545  0.2014
 1346SOL    HW115500   3.394   3.793   4.630  1.1973 -1.0764 -0.1534
 1346SOL    HW215501   3.529   3.758   4.577 -1.2703 -1.6684 -0.6790
 1347SOL     OW15502   4.428   4.301  12.827  0.1096 -0.4637 -0.1246
 1347SOL    HW115503   4.468   4.219  12.800 -2.5639 -1.9026  0.3259
 1347SOL    HW215504   4.344   4.280  12.788 -1.1986  0.7798  2.0645
 1348SOL     OW15505   4.550   3.503   5.397  0.2659 -0.3490 -0.2504
 1348SOL    HW115506   4.564   3.415   5.360  2.5491  0.3683 -1.1120
 1348SOL    HW215507   4.477   3.485   5.457 -0.2974 -0.7283 -1.0460
 1349SOL     OW15508   3.198   2.034   6.181  0.0339 -0.0118  0.4460
 1349SOL    HW115509   3.126   2.009   6.124  0.4891  2.0236 -1.0302
 1349SOL    HW215510   3.150   2.094   6.238  2.6875  2.5455  0.0398
 1350SOL     OW15511   1.015   1.883   2.405 -0.0011  0.8326  0.4248
 1350SOL    HW115512   1.098   1.857   2.446 -0.4466  0.3353  0.9994
 1350SOL    HW215513   0.951   1.900   2.473 -1.3348 -0.4815 -0.5004
 1351SOL     OW15514   2.661   0.657   7.900  0.0226 -0.3142 -0.0713
 1351SOL    HW115515   2.680   0.585   7.959 -0.8270  0.2856  0.9153
 1351SOL    HW215516   2.580   0.700   7.927  0.2199  1.3399 -2.0644
 1352SOL     OW15517   3.589   4.613   7.579 -0.0909 -0.3328  0.3671
 1352SOL    HW115518   3.612   4.706   7.572 -0.4971 -0.0418  2.9152
 1352SOL    HW215519   3.506   4.625   7.625 -1.8359 -1.1018 -2.5474
 1353SOL     OW15520   2.293   3.636   3.041 -0.4678 -0.0288  0.4788
 1353SOL    HW115521   2.257   3.590   3.117 -0.7225  1.7479  1.4340
 1353SOL    HW215522   2.373   3.672   3.080  0.2672  0.2316 -1.2761
 1354SOL     OW15523   0.930   2.954   8.539  0.6394 -0.0486  0.3677
 1354SOL    HW115524   0.985   3.028   8.564 -2.1417  1.2431  2.6274
 1354SOL    HW215525   0.890   2.925   8.621 -2.2577 -0.7537 -1.2721
 1355SOL     OW15526   3.846   1.892   8.391  0.6936  0.2504  0.7246
 1355SOL    HW115527   3.882   1.920   8.307 -0.0854 -2.7325 -0.5927
 1355SOL    HW215528   3.781   1.961   8.400 -0.2183 -0.6471  0.9822
 1356SOL     OW15529   1.347   4.122   3.631 -0.3983  0.1321 -0.1035
 1356SOL    HW115530   1.328   4.087   3.544 -0.1299  2.3180 -1.0362
 1356SOL    HW215531   1.362   4.213   3.607  1.5690 -0.8206 -2.3762
 1357SOL     OW15532   3.946   0.018   2.418  0.6155  0.0743 -0.1592
 1357SOL    HW115533   3.894   0.048   2.342 -2.2925  0.3209  1.9270
 1357SOL    HW215534   3.994   4.663   2.384  0.1521 -0.0890 -0.4526
 1358SOL     OW15535   0.738   2.122   0.465 -0.0912  0.0880 -0.1545
 1358SOL    HW115536   0.757   2.064   0.539  0.4071  0.9280  0.3755
 1358SOL    HW215537   0.668   2.068   0.427 -1.5733  0.6314  1.8394
 1359SOL     OW15538   1.707   3.037   8.241 -0.3383  0.2108  0.2673
 1359SOL    HW115539   1.667   3.069   8.321  0.3427 -1.4827  1.2941
 1359SOL    HW215540   1.635   3.002   8.188 -0.0396 -0.3838  0.2444
 1360SOL     OW15541   2.524   4.249   8.262  0.2780  0.3782  0.1599
 1360SOL    HW115542   2.557   4.337   8.279  1.5578 -0.7954  3.8858
 1360SOL    HW215543   2.601   4.194   8.275  0.5010  0.4759 -0.7736
 1361SOL     OW15544   2.260   2.843  16.587  0.3363  0.3703  0.2922
 1361SOL    HW115545   2.249   2.891  16.505  0.8591 -0.2442 -0.1370
 1361SOL    HW215546   2.321   2.773  16.565  1.4030  1.3240  0.1746
 1362SOL     OW15547   3.119   1.714   5.348 -0.0769 -0.6536 -0.1886
 1362SOL    HW115548   3.112   1.802   5.385 -0.7973 -0.7333 -0.1197
 1362SOL    HW215549   3.101   1.738   5.257 -1.2048 -0.7644  0.0017
 1363SOL     OW15550   3.989   3.945  14.359 -0.4138  0.2170  0.1585
 1363SOL    HW115551   4.070   3.981  14.395 -0.2758 -1.7024  1.7691
 1363SOL    HW215552   4.029   3.883  14.298  0.3333  2.7552 -1.9235
 1364SOL     OW15553   1.758   1.800   5.795 -0.1575 -0.4957  0.0632
 1364SOL    HW115554   1.720   1.759   5.873  0.8511 -0.5065  0.5546
 1364SOL    HW215555   1.799   1.880   5.829 -2.2230  1.5643 -2.3588
 1365SOL     OW15556   0.416   2.188   2.241  0.0210  0.2333 -0.2421
 1365SOL    HW115557   0.466   2.239   2.304 -0.0025  0.1885 -0.1875
 1365SOL    HW215558   0.378   2.127   2.305  0.8205  0.4482  0.4334
 1366SOL     OW15559   2.904   0.639  17.533  0.0786 -1.0124 -0.0558
 1366SOL    HW115560   2.824   0.688  17.555  2.0916  2.2735 -0.1058
 1366SOL    HW215561   2.938   0.637  17.622  1.1237  0.5520 -0.4199
 1367SOL     OW15562   2.760   3.812   2.368  0.3642 -0.0489  0.2439
 1367SOL    HW115563   2.801   3.898   2.369 -2.4367  1.3135 -0.2286
 1367SOL    HW215564   2.682   3.827   2.313 -0.0497 -1.7485  0.3743
 1368SOL     OW15565   2.222   2.332   3.502  0.4956  0.1683 -0.2671
 1368SOL    HW115566   2.239   2.242   3.531 -0.8665 -0.9657 -2.9509
 1368SOL    HW215567   2.294   2.378   3.545  1.9734 -0.9715 -1.5203
 1369SOL     OW15568   3.067   2.747  13.942 -0.0971 -0.2857 -0.3144
 1369SOL    HW115569   3.073   2.664  13.896  2.0023  0.8550 -2.0719
 1369SOL    HW215570   3.009   2.799  13.886 -0.6326 -2.7366 -2.0254
 1370SOL     OW15571   4.556   2.173  16.709  0.6031 -0.1150  0.5843
 1370SOL    HW115572   4.547   2.265  16.735 -2.4310 -0.8329  2.0775
 1370SOL    HW215573   4.463   2.151  16.715  0.4098  1.1980  2.3466
 1371SOL     OW15574   0.720   3.636  13.170 -0.2915 -0.2991 -0.1390
 1371SOL    HW115575   0.700   3.583  13.093 -0.4927  1.1209 -1.0595
 1371SOL    HW215576   0.630   3.666  13.187 -0.0893  0.3448 -0.2170
 1372SOL     OW15577   1.057   0.093  12.838  0.1280 -0.0695 -0.1552
 1372SOL    HW115578   1.149   0.067  12.836 -0.3103 -1.7660  1.8476
 1372SOL    HW215579   1.016   0.008  12.854  0.0619  0.0512  0.3014
 1373SOL     OW15580   3.678   1.367  12.139  0.4383  0.5917  0.0824
 1373SOL    HW115581   3.616   1.438  12.156 -2.2276 -1.3863 -1.2157
 1373SOL    HW215582   3.639   1.300  12.196  2.9231 -0.9229  0.0037
 1374SOL     OW15583   1.514   3.383  13.851 -0.5176  0.8733 -1.0710
 1374SOL    HW115584   1.494   3.314  13.789 -0.5935 -0.7814  0.7795
 1374SOL    HW215585   1.566   3.334  13.915  1.3884  3.5865 -0.5496
 1375SOL     OW15586   4.563   3.645   3.938 -0.0183  0.5320  0.1839
 1375SOL    HW115587   4.649   3.687   3.931  0.5602 -0.9332 -1.2872
 1375SOL    HW215588   4.584   3.579   4.003 -1.0351  0.2834  0.2628
 1376SOL     OW15589   1.392   3.441   6.945 -0.7875 -0.1006 -0.0609
 1376SOL    HW115590   1.463   3.432   6.882  0.7904 -0.2524  1.7149
 1376SOL    HW215591   1.315   3.462   6.892  1.2026  1.5708 -2.2715
 1377SOL     OW15592   4.035   2.918   4.684  0.1914  0.3087  0.3758
 1377SOL    HW115593   3.990   2.837   4.708  2.4376 -1.0014  0.2018
 1377SOL    HW215594   3.989   2.949   4.606 -0.1193 -0.4335  0.2659
 1378SOL     OW15595   3.478   3.672   7.082 -0.4112  0.1099  0.6558
 1378SOL    HW115596   3.475   3.760   7.043 -2.0216 -0.9851 -1.6670
 1378SOL    HW215597   3.417   3.619   7.030 -0.6756  0.6633  0.3996
 1379SOL     OW15598   1.493   2.472  13.180 -0.0096 -0.2718  0.0004
 1379SOL    HW115599   1.499   2.444  13.271  0.3138  0.0904  0.0929
 1379SOL    HW215600   1.536   2.405  13.127  2.6434  1.1495  0.3571
 1380SOL     OW15601   0.322   1.489   3.630  0.5796  0.6507 -0.0588
 1380SOL    HW115602   0.249   1.428   3.617  1.7034 -1.2368  2.4080
 1380SOL    HW215603   0.283   1.562   3.581 -0.1171 -0.8708 -1.7771
 1381SOL     OW15604   2.466   3.366   5.070 -0.6145  0.0815 -0.6721
 1381SOL    HW115605   2.413   3.347   4.992 -1.1338  1.4548 -0.6516
 1381SOL    HW215606   2.402   3.351   5.139 -2.0506  2.4491 -1.4664
 1382SOL     OW15607   0.463   1.368   3.216  0.7401 -0.3785 -0.1603
 1382SOL    HW115608   0.431   1.421   3.289 -1.1589 -0.5310 -0.8885
 1382SOL    HW215609   0.496   1.435   3.156 -1.0093  0.5238 -0.1190
 1383SOL     OW15610   4.237   4.704   0.852 -0.5547 -0.1783  0.0055
 1383SOL    HW115611   4.222   4.695   0.758 -1.7148  0.0178  0.1716
 1383SOL    HW215612   4.274   0.071   0.850  1.4153 -1.0187 -0.2284
 1384SOL     OW15613   4.307   2.048   6.722  0.0086  0.3637  0.4100
 1384SOL    HW115614   4.367   2.079   6.790 -0.2325  2.7865 -0.4489
 1384SOL    HW215615   4.253   2.126   6.708  2.0188  1.3617 -2.0458
 1385SOL     OW15616   3.593   1.071   9.050  0.5525  0.1075 -0.2781
 1385SOL    HW115617   3.685   1.059   9.072  0.1438 -2.5473  0.0398
 1385SOL    HW215618   3.584   1.055   8.956 -3.4273  0.0780  0.0819
 1386SOL     OW15619   0.465   1.367   2.688  0.3631 -0.0916 -0.6906
 1386SOL    HW115620   0.482   1.391   2.597  1.6550  1.7567  0.0608
 1386SOL    HW215621   0.528   1.297   2.701  0.3450  0.1224  0.4695
 1387SOL     OW15622   4.543   2.859   2.130 -0.1816 -0.0331  0.3139
 1387SOL    HW115623   4.454   2.840   2.159 -1.3754  0.7891 -2.8660
 1387SOL    HW215624   4.509   2.934   2.082  0.0722  1.1068  1.8879
 1388SOL     OW15625   0.110   3.603  12.001  0.0350 -0.4460 -0.9684
 1388SOL    HW115626   0.139   3.666  11.935  1.2270 -2.9535 -2.8379
 1388SOL    HW215627   0.161   3.523  11.991 -0.6702 -0.7824 -1.9300
 1389SOL     OW15628   2.288   1.795  12.996  0.3246 -0.0711  0.2925
 1389SOL    HW115629   2.304   1.752  12.911 -3.0798  0.0031 -0.4041
 1389SOL    HW215630   2.201   1.767  13.023 -1.1514  1.9451 -2.3545
 1390SOL     OW15631   0.215   1.156   5.888  0.2119  0.6684  0.1920
 1390SOL    HW115632   0.243   1.229   5.832 -2.8713  1.6899 -0.0336
 1390SOL    HW215633   0.274   1.088   5.856  0.4418  1.1262 -0.3670
 1391SOL     OW15634   3.669   3.518   4.955 -0.8315  0.3423 -0.0503
 1391SOL    HW115635   3.680   3.479   4.869 -0.3269 -2.3305  1.2275
 1391SOL    HW215636   3.641   3.607   4.931 -1.0419  0.9852  2.5450
 1392SOL     OW15637   3.981   2.720   4.412 -0.3399 -0.1656  0.0598
 1392SOL    HW115638   3.909   2.779   4.434  1.1423  2.2279 -1.4836
 1392SOL    HW215639   4.007   2.690   4.499 -0.6154 -0.9322 -0.1213
 1393SOL     OW15640   3.475   1.440   7.984 -0.4714 -0.2732  0.0243
 1393SOL    HW115641   3.458   1.534   7.979  1.1579  0.0111 -0.1072
 1393SOL    HW215642   3.433   1.429   8.070  1.9437 -1.9971  0.9953
 1394SOL     OW15643   2.850   2.733  13.600  0.1806  0.3807 -0.3503
 1394SOL    HW115644   2.842   2.790  13.676 -0.1160 -1.1909  0.7962
 1394SOL    HW215645   2.784   2.770  13.541 -3.9077  1.4122  4.8776
 1395SOL     OW15646   2.760   1.527   2.230  0.1116 -0.4118 -0.3567
 1395SOL    HW115647   2.842   1.574   2.221 -1.5348  2.6289  0.6797
 1395SOL    HW215648   2.744   1.488   2.144  0.1861 -1.5473  0.1454
 1396SOL     OW15649   0.020   0.246   9.603 -0.2747  0.0077 -0.1713
 1396SOL    HW115650   4.672   0.293   9.557 -2.1510  0.3575  3.0275
 1396SOL    HW215651   0.057   0.324   9.644  1.0240 -0.1124 -1.1128
 1397SOL     OW15652   0.115   2.133  10.010 -0.8107 -0.2103  0.2152
 1397SOL    HW115653   0.183   2.123   9.943  0.2608  0.9566  1.1204
 1397SOL    HW215654   0.139   2.075  10.082 -0.0328 -1.0528 -0.7242
 1398SOL     OW15655   0.913   1.906  10.534  0.2458  0.0481 -0.1490
 1398SOL    HW115656   0.991   1.927  10.585 -0.8102  0.6041  1.2567
 1398SOL    HW215657   0.856   1.983  10.541  0.7694  0.4257  0.0080
 1399SOL     OW15658   2.446   1.097  16.742  0.1393  0.1097 -0.5818
 1399SOL    HW115659   2.535   1.065  16.729  0.2602  0.9975 -1.9327
 1399SOL    HW215660   2.412   1.035  16.807  1.4719  0.9586  0.9196
 1400SOL     OW15661   0.341   4.421   7.110 -0.7076 -0.1545  0.1301
 1400SOL    HW115662   0.315   4.365   7.183  1.4844 -0.6397  0.5427
 1400SOL    HW215663   0.267   4.398   7.054 -0.2267 -0.3664 -0.4130
 1401SOL     OW15664   4.180   1.261   6.095 -0.0452 -0.0673 -0.4814
 1401SOL    HW115665   4.086   1.272   6.109  0.4000  3.6821 -0.6651
 1401SOL    HW215666   4.183   1.243   6.001  0.5173 -1.5135 -0.1962
 1402SOL     OW15667   2.610   1.388   6.472  0.3505  0.7512 -0.1206
 1402SOL    HW115668   2.699   1.354   6.473 -0.5886 -1.7938 -2.3312
 1402SOL    HW215669   2.569   1.301   6.469 -1.5985  1.7175 -1.2764
 1403SOL     OW15670   2.225   2.163   2.485 -0.1679  0.2955  0.2481
 1403SOL    HW115671   2.287   2.234   2.468  2.3764 -1.7476  1.1750
 1403SOL    HW215672   2.216   2.167   2.580 -1.6343 -1.2189  0.1759
 1404SOL     OW15673   3.338   4.064  15.537 -0.0915 -0.2511  0.1938
 1404SOL    HW115674   3.244   4.066  15.520 -0.0133  0.8711 -0.1050
 1404SOL    HW215675   3.355   3.980  15.578 -0.6700  0.2483  1.4741
 1405SOL     OW15676   1.652   0.466   4.112 -0.0039  0.1262 -0.1304
 1405SOL    HW115677   1.581   0.498   4.056 -0.9004 -0.3449  0.7385
 1405SOL    HW215678   1.623   0.375   4.119 -1.1332  0.4074 -1.2379
 1406SOL     OW15679   1.782   0.108  10.247 -0.2109 -0.6245 -0.0167
 1406SOL    HW115680   1.810   0.150  10.328 -0.3324 -1.5205  0.4976
 1406SOL    HW215681   1.843   0.153  10.189 -0.3511  2.5543  2.3044
 1407SOL     OW15682   0.353   3.211   8.674 -0.2455 -0.6026 -0.3682
 1407SOL    HW115683   0.371   3.204   8.580  0.4533 -1.6821 -0.1485
 1407SOL    HW215684   0.316   3.126   8.697 -0.5581 -0.3529  0.0466
 1408SOL     OW15685   1.080   4.070   8.655 -0.0381  0.3600  0.1059
 1408SOL    HW115686   1.047   4.153   8.618 -2.5763 -1.2202 -1.1525
 1408SOL    HW215687   1.028   4.070   8.735  2.1436 -1.6326  1.5108
 1409SOL     OW15688   2.101   3.865   9.059 -0.2863 -0.5078  0.0740
 1409SOL    HW115689   2.122   3.884   8.967 -0.3404 -2.3551 -0.3243
 1409SOL    HW215690   2.192   3.876   9.086 -0.1695 -1.3360  0.0161
 1410SOL     OW15691   3.111   1.352   5.828 -0.4471  0.2799  0.1281
 1410SOL    HW115692   3.037   1.340   5.888  1.0057  0.9406  2.0495
 1410SOL    HW215693   3.103   1.275   5.771  0.8937  1.0537 -1.1104
 1411SOL     OW15694   1.733   1.464   9.817  0.2253  0.2464 -0.4978
 1411SOL    HW115695   1.745   1.375   9.783  0.1823  0.4047 -0.9255
 1411SOL    HW215696   1.692   1.502   9.740  1.8672  0.0736 -1.4572
 1412SOL     OW15697   2.510   1.489   7.954  0.5768 -0.1892 -1.2703
 1412SOL    HW115698   2.552   1.407   7.979 -3.2584 -1.7382  0.1475
 1412SOL    HW215699   2.579   1.553   7.969 -1.0115  1.0909  0.6399
 1413SOL     OW15700   0.238   0.953   2.872 -0.1381  0.2400  0.3798
 1413SOL    HW115701   0.188   0.880   2.835 -3.3062  0.6174  3.9415
 1413SOL    HW215702   0.242   1.010   2.795 -0.6534 -1.0977 -0.6430
 1414SOL     OW15703   2.153   2.247  15.726 -0.6305  0.3317  0.6473
 1414SOL    HW115704   2.132   2.203  15.809 -1.1353 -2.1080 -0.7772
 1414SOL    HW215705   2.218   2.183  15.697 -0.7151  0.1950  0.7592
 1415SOL     OW15706   2.386   1.135   4.035 -0.0775  0.1101  0.5745
 1415SOL    HW115707   2.449   1.187   4.084 -1.0729 -0.0266  1.9984
 1415SOL    HW215708   2.416   1.046   4.048 -2.0291 -0.4715  1.1720
 1416SOL     OW15709   1.292   4.701  12.939 -0.0180 -0.3354  0.4114
 1416SOL    HW115710   1.338   0.046  12.992 -1.4839 -0.5820  1.9944
 1416SOL    HW215711   1.358   4.687  12.871  0.5947  1.1597  0.6973
 1417SOL     OW15712   3.517   0.004   1.630 -0.1084  0.1179 -0.0734
 1417SOL    HW115713   3.540   0.095   1.614 -0.0563  0.0538 -0.3777
 1417SOL    HW215714   3.552   4.716   1.719  0.8522  2.0360 -0.2594
 1418SOL     OW15715   1.982   3.957   1.683 -0.3259  0.1944  0.1362
 1418SOL    HW115716   1.982   4.026   1.750  2.6209  0.2728  0.0387
 1418SOL    HW215717   1.934   3.996   1.609 -0.5919 -0.3581  0.0160
 1419SOL     OW15718   1.723   1.573   4.316  0.0275 -0.5650 -0.1319
 1419SOL    HW115719   1.649   1.516   4.336 -0.3444  0.0389  0.1980
 1419SOL    HW215720   1.699   1.652   4.269 -2.0979 -2.0983 -1.5908
 1420SOL     OW15721   3.365   3.436   8.192  0.0692 -0.0320 -0.7223
 1420SOL    HW115722   3.333   3.377   8.259 -0.2862 -0.3708 -1.1892
 1420SOL    HW215723   3.450   3.401   8.166  0.9731  0.0725  2.0916
 1421SOL     OW15724   0.652   4.525   6.502  0.6551  0.1401 -0.2808
 1421SOL    HW115725   0.565   4.565   6.503  0.9671  0.8426 -1.7603
 1421SOL    HW215726   0.672   4.535   6.409  1.7882  4.1611  0.3991
 1422SOL     OW15727   1.771   1.850   6.933  0.5923  0.4719 -0.0597
 1422SOL    HW115728   1.837   1.785   6.909  0.1944  0.5401 -1.3575
 1422SOL    HW215729   1.834   1.917   6.959  1.9012 -0.3821 -1.0098
 1423SOL     OW15730   1.840   1.785   2.718  0.0174  0.2239 -0.5953
 1423SOL    HW115731   1.771   1.829   2.767  1.0659 -1.0201  1.9603
 1423SOL    HW215732   1.904   1.854   2.701 -0.8011  1.5383  1.7237
 1424SOL     OW15733   1.768   2.510   5.366  0.6790 -0.0264 -0.5187
 1424SOL    HW115734   1.730   2.456   5.435 -0.1662  1.0224 -0.1515
 1424SOL    HW215735   1.766   2.456   5.287 -0.0639 -1.5309  0.5347
 1425SOL     OW15736   4.194   1.267   8.499 -0.1592  0.0385 -0.3866
 1425SOL    HW115737   4.193   1.269   8.594  3.0973 -0.2369 -0.3293
 1425SOL    HW215738   4.151   1.348   8.474  0.8988  0.2681 -1.4767
 1426SOL     OW15739   0.841   1.804   4.279 -0.3112  0.3747  0.2525
 1426SOL    HW115740   0.841   1.710   4.260  2.6007 -0.2194  3.2150
 1426SOL    HW215741   0.745   1.808   4.274 -0.3709 -0.2529  0.8709
 1427SOL     OW15742   3.434   2.491   4.883 -0.2133 -0.3548  0.1482
 1427SOL    HW115743   3.365   2.513   4.821 -0.0522  1.3551  0.5580
 1427SOL    HW215744   3.457   2.572   4.929 -0.6484 -0.1730  0.0430
 1428SOL     OW15745   3.852   3.874   8.424  0.2244 -0.1071  0.0767
 1428SOL    HW115746   3.756   3.866   8.429  0.4359 -2.0861  1.3850
 1428SOL    HW215747   3.867   3.961   8.388 -4.2557  0.0518 -1.4120
 1429SOL     OW15748   4.113   2.418   8.336  0.3428 -0.0565  0.0595
 1429SOL    HW115749   4.115   2.514   8.343 -1.8163 -0.1082  1.3784
 1429SOL    HW215750   4.178   2.404   8.405 -0.1175  1.8336  0.8851
 1430SOL     OW15751   4.058   0.764   3.242 -0.5004  0.3261 -0.2712
 1430SOL    HW115752   3.963   0.753   3.242 -0.3804 -0.5225  2.6267
 1430SOL    HW215753   4.083   0.726   3.158  0.3309 -0.8534  0.5171
 1431SOL     OW15754   4.190   0.604  16.740 -0.2689  0.0319 -0.3087
 1431SOL    HW115755   4.231   0.678  16.695 -1.5059  2.5231  2.6666
 1431SOL    HW215756   4.230   0.525  16.705 -1.6545 -0.3338 -1.0783
 1432SOL     OW15757   2.782   4.548   4.149  0.3473  0.2269  0.0458
 1432SOL    HW115758   2.823   4.508   4.073 -0.2737 -0.7985  0.2569
 1432SOL    HW215759   2.694   4.512   4.143  1.1096 -1.1553 -2.8124
 1433SOL     OW15760   4.454   1.651   1.522 -0.2913 -0.2414  0.6203
 1433SOL    HW115761   4.443   1.650   1.427 -0.9777 -2.3495  0.7354
 1433SOL    HW215762   4.408   1.734   1.539  0.0665  0.4578 -1.8436
 1434SOL     OW15763   0.609   1.244   8.612 -0.0372 -0.2152  0.3651
 1434SOL    HW115764   0.684   1.271   8.666  0.6096  1.2978 -1.2643
 1434SOL    HW215765   0.552   1.313   8.647 -0.0431 -0.3390  0.5932
 1435SOL     OW15766   3.409   0.167  15.049 -0.2135 -0.5242 -0.1436
 1435SOL    HW115767   3.468   0.180  14.975  1.0187 -1.8132  0.6123
 1435SOL    HW215768   3.349   0.241  15.036 -1.1489 -0.6380  3.5801
 1436SOL     OW15769   2.774   2.064   4.268 -0.5854  0.4773  0.0152
 1436SOL    HW115770   2.728   2.081   4.351 -0.1536 -2.2466  0.8232
 1436SOL    HW215771   2.742   1.977   4.243 -1.4500 -0.0727  3.0274
 1437SOL     OW15772   1.048   0.327  15.791 -0.3405 -0.3067 -0.0494
 1437SOL    HW115773   1.101   0.268  15.736  1.3716  1.5629 -0.3889
 1437SOL    HW215774   0.974   0.352  15.736 -0.3566 -0.8657 -0.2869
 1438SOL     OW15775   0.806   2.994   5.599  0.2763 -0.2666  0.3184
 1438SOL    HW115776   0.753   2.997   5.519  2.0623  2.1023 -0.7684
 1438SOL    HW215777   0.738   3.001   5.666 -0.5049  0.3685 -0.5389
 1439SOL     OW15778   0.287   0.886  11.612  0.2346 -0.1773  0.1685
 1439SOL    HW115779   0.325   0.801  11.636 -2.1850 -1.3978 -0.2913
 1439SOL    HW215780   0.221   0.855  11.550 -0.2874 -0.9266  1.1067
 1440SOL     OW15781   4.322   0.450   7.775 -0.1497 -0.4028  0.2597
 1440SOL    HW115782   4.345   0.511   7.705  1.5406  0.6856  1.7311
 1440SOL    HW215783   4.227   0.446   7.771 -0.1055 -2.6283  1.3462
 1441SOL     OW15784   2.488   3.747   7.417 -0.1741 -0.3716 -0.5193
 1441SOL    HW115785   2.424   3.756   7.489 -0.0272 -2.5079 -0.1210
 1441SOL    HW215786   2.562   3.787   7.463 -0.3261 -0.7127  0.0265
 1442SOL     OW15787   2.254   2.714   5.409 -0.1962  0.4195 -0.3392
 1442SOL    HW115788   2.250   2.623   5.378  0.1788 -0.0571  0.9855
 1442SOL    HW215789   2.203   2.708   5.490  1.3302  0.7092  0.6439
 1443SOL     OW15790   1.717   1.804   4.160  0.6362  0.1266 -0.2054
 1443SOL    HW115791   1.709   1.893   4.124 -0.0083  0.2537  0.2387
 1443SOL    HW215792   1.768   1.761   4.091  0.9339 -0.4946  0.4140
 1444SOL     OW15793   2.360   4.550  11.286  0.7596 -0.2571 -0.4347
 1444SOL    HW115794   2.300   4.614  11.248  1.7489  0.9478  0.0583
 1444SOL    HW215795   2.445   4.578  11.252  0.6518 -1.5384 -1.8071
 1445SOL     OW15796   0.662   3.340   8.219  0.4723 -0.1484  0.1037
 1445SOL    HW115797   0.737   3.284   8.242 -2.8365 -3.6391  2.3227
 1445SOL    HW215798   0.686   3.393   8.143 -1.0640 -0.2960 -0.4846
 1446SOL     OW15799   3.632   2.067   7.513 -0.5516 -0.5205 -0.5917
 1446SOL    HW115800   3.701   2.007   7.543  1.2116 -0.0605 -3.6806
 1446SOL    HW215801   3.554   2.013   7.523 -0.2036 -1.1367 -1.1719
 1447SOL     OW15802   0.192   1.632   3.903 -0.4376 -0.1065  0.0073
 1447SOL    HW115803   0.200   1.633   3.998  0.2771  2.2966 -0.0773
 1447SOL    HW215804   0.116   1.575   3.893 -0.2630 -0.2924 -0.2401
 1448SOL     OW15805   2.622   0.202   5.383  0.1093 -0.3089  0.5976
 1448SOL    HW115806   2.562   0.275   5.395 -2.1181 -2.0249 -0.1331
 1448SOL    HW215807   2.653   0.199   5.474 -1.7954  0.3860  1.2685
 1449SOL     OW15808   3.560   0.874   3.289  0.6173 -0.2730 -0.1902
 1449SOL    HW115809   3.486   0.869   3.229  0.4922  0.1746 -0.0741
 1449SOL    HW215810   3.512   0.864   3.372  1.3786 -0.3626  0.2400
 1450SOL     OW15811   3.719   0.864   6.760 -0.0713  0.4394 -0.0744
 1450SOL    HW115812   3.657   0.916   6.709 -1.5475 -1.2914 -0.0130
 1450SOL    HW215813   3.803   0.897   6.727 -0.6816  0.1666 -1.9339
 1451SOL     OW15814   0.188   1.707   6.312 -0.0615 -0.0396 -0.0398
 1451SOL    HW115815   0.114   1.690   6.370  2.2375 -2.4533  2.1529
 1451SOL    HW215816   0.176   1.800   6.292  1.2038  0.5437  1.9535
 1452SOL     OW15817   1.278   3.915   8.765 -0.2314  0.0672 -0.5222
 1452SOL    HW115818   1.231   3.835   8.741 -0.9788  0.5140 -0.5468
 1452SOL    HW215819   1.223   3.979   8.720 -1.7062 -0.0774  1.0483
 1453SOL     OW15820   3.716   1.624   8.416 -0.3989 -0.2098 -0.0565
 1453SOL    HW115821   3.763   1.707   8.414 -0.9757  0.1464  1.1495
 1453SOL    HW215822   3.637   1.650   8.465 -0.5340  0.4734 -0.6316
 1454SOL     OW15823   1.532   1.053   7.322  0.0892  0.1451 -0.7047
 1454SOL    HW115824   1.443   1.017   7.313  0.1231  0.0466 -0.6559
 1454SOL    HW215825   1.511   1.145   7.334 -1.0746 -0.0647 -1.1615
 1455SOL     OW15826   3.748   1.890   7.884  0.5076  0.0076 -0.2363
 1455SOL    HW115827   3.732   1.911   7.976  1.6417 -0.3543  0.0505
 1455SOL    HW215828   3.667   1.926   7.849  1.1800  0.7851 -1.0117
 1456SOL     OW15829   2.061   0.588   2.779  0.5839  0.4091 -0.7180
 1456SOL    HW115830   2.132   0.543   2.734  1.2065  1.0291 -0.3613
 1456SOL    HW215831   2.064   0.677   2.742  1.0034  0.5657 -0.3037
 1457SOL     OW15832   3.762   2.414   9.922 -0.6398  0.0605 -0.1518
 1457SOL    HW115833   3.728   2.354   9.988  3.1150 -0.2383  1.5251
 1457SOL    HW215834   3.752   2.368   9.838 -2.4926  0.4292 -0.1325
 1458SOL     OW15835   0.229   3.189  16.857 -0.2814  0.0406 -0.0968
 1458SOL    HW115836   0.153   3.247  16.853  0.1882  0.9675  3.9560
 1458SOL    HW215837   0.182   3.109  16.882 -1.4531  0.3947 -1.1499
 1459SOL     OW15838   2.223   0.325   1.647 -0.3474  0.6609 -0.2726
 1459SOL    HW115839   2.241   0.415   1.621 -1.8968  1.0649  0.0307
 1459SOL    HW215840   2.157   0.343   1.714  2.4763 -1.6544  3.1693
 1460SOL     OW15841   1.770   0.755  16.247 -0.3017 -0.2192  0.1585
 1460SOL    HW115842   1.833   0.695  16.288  0.1536 -0.7024 -1.2486
 1460SOL    HW215843   1.744   0.821  16.311 -2.1982 -3.5538  2.8049
 1461SOL     OW15844   4.413   2.065   2.711  0.5734  0.4918 -0.3810
 1461SOL    HW115845   4.460   2.028   2.786  0.8928  1.7480  0.0362
 1461SOL    HW215846   4.335   2.009   2.709 -0.0818  1.4800 -1.7569
 1462SOL     OW15847   2.651   4.457   8.384  0.0005  0.0799  0.0850
 1462SOL    HW115848   2.648   4.475   8.478  1.8671  0.6233  0.0399
 1462SOL    HW215849   2.714   4.521   8.352 -0.7581  0.2121 -1.1346
 1463SOL     OW15850   3.023   1.071   2.069  0.0931  0.4282 -0.7720
 1463SOL    HW115851   3.038   1.082   1.975  0.2370 -0.4252 -0.8540
 1463SOL    HW215852   3.110   1.054   2.105  0.5601 -0.5539 -2.3798
 1464SOL     OW15853   0.352   3.037   7.350  0.0183  0.5170  0.8832
 1464SOL    HW115854   0.415   3.030   7.422 -0.6645  2.4864  1.6670
 1464SOL    HW215855   0.278   3.084   7.387 -1.5570 -1.1167 -0.1521
 1465SOL     OW15856   1.606   2.334  17.299 -0.1825 -0.7209  0.3384
 1465SOL    HW115857   1.630   2.424  17.318 -2.1616 -0.3802  1.1625
 1465SOL    HW215858   1.541   2.325  17.369 -2.4539 -2.2240 -1.9601
 1466SOL     OW15859   0.600   2.202   5.910  0.4801 -0.2322 -0.4139
 1466SOL    HW115860   0.602   2.184   6.004 -0.2926 -2.1716 -0.7840
 1466SOL    HW215861   0.601   2.117   5.866 -1.0074 -0.5505  0.1710
 1467SOL     OW15862   1.795   2.236   2.630 -0.5038 -0.1446 -0.1278
 1467SOL    HW115863   1.835   2.245   2.544 -2.2966  1.2609 -0.8129
 1467SOL    HW215864   1.721   2.177   2.612 -1.5455  0.6339  1.5478
 1468SOL     OW15865   0.421   3.515  14.381 -0.6084  0.0159  0.2803
 1468SOL    HW115866   0.393   3.431  14.418 -0.6777  0.5454  1.4184
 1468SOL    HW215867   0.513   3.494  14.361 -0.6171  0.7467 -0.5184
 1469SOL     OW15868   3.107   2.916   5.528 -0.5002 -0.5681  0.3141
 1469SOL    HW115869   3.047   2.987   5.505  0.1569  0.0501  0.5052
 1469SOL    HW215870   3.048   2.848   5.495  0.4113 -1.6459  0.8993
 1470SOL     OW15871   2.922   0.529   0.784  0.1353  0.1268 -0.1007
 1470SOL    HW115872   2.845   0.472   0.793  0.6967 -0.3359  1.7053
 1470SOL    HW215873   2.883   0.587   0.719 -0.8117  0.1166  0.4625
 1471SOL     OW15874   0.039   1.936   7.079  0.3629  0.2760 -0.2955
 1471SOL    HW115875   0.034   2.031   7.085 -0.7239  0.0361  2.4697
 1471SOL    HW215876   0.012   1.920   7.169 -0.6038 -0.6476 -0.7518
 1472SOL     OW15877   2.597   4.289   0.516  0.1593  0.3226  0.1541
 1472SOL    HW115878   2.600   4.385   0.520  0.2745  0.2978  0.6858
 1472SOL    HW215879   2.571   4.284   0.424  0.1535  2.5013  0.0454
 1473SOL     OW15880   4.116   0.223   7.305 -0.7556  0.3510  0.5683
 1473SOL    HW115881   4.208   0.247   7.296 -1.4235  1.8907 -2.0464
 1473SOL    HW215882   4.106   0.174   7.223 -0.4224  2.1366 -0.5437
 1474SOL     OW15883   1.063   3.460  12.929  0.4701  0.4217 -0.3301
 1474SOL    HW115884   1.053   3.410  12.848  1.1399 -1.3604  0.6986
 1474SOL    HW215885   1.107   3.401  12.989 -0.7034  1.1725  1.2623
 1475SOL     OW15886   0.485   1.525  10.869  0.6748 -0.6639  0.3485
 1475SOL    HW115887   0.487   1.434  10.898 -0.2038 -0.7375  0.1706
 1475SOL    HW215888   0.484   1.503  10.776 -1.3786 -0.5222  0.3397
 1476SOL     OW15889   2.824   2.184  11.840  0.3815 -0.3541 -0.2874
 1476SOL    HW115890   2.801   2.109  11.894  2.2371 -0.1401  0.7890
 1476SOL    HW215891   2.779   2.256  11.884 -1.4173 -0.9405 -1.1399
 1477SOL     OW15892   0.339   0.265   7.221  0.0056  0.5078 -0.8682
 1477SOL    HW115893   0.341   0.258   7.317  2.6057  0.7185 -0.9064
 1477SOL    HW215894   0.416   0.211   7.202 -0.0190  0.7554 -1.6761
 1478SOL     OW15895   0.550   1.749   4.660  0.5075 -0.7706  0.0130
 1478SOL    HW115896   0.503   1.744   4.743  1.3993  1.6435  0.6567
 1478SOL    HW215897   0.555   1.844   4.657  2.3204 -0.8212  1.3052
 1479SOL     OW15898   2.739   1.051   6.067  0.1140 -0.4974 -0.3827
 1479SOL    HW115899   2.765   0.969   6.024  0.0133  0.3625 -2.0811
 1479SOL    HW215900   2.817   1.057   6.123  1.7929 -0.8541 -2.6879
 1480SOL     OW15901   3.245   0.372   8.800  0.3147  0.6203 -0.5793
 1480SOL    HW115902   3.185   0.299   8.784 -0.9727  0.9553  2.6527
 1480SOL    HW215903   3.296   0.333   8.871 -0.9333  0.2945  0.1531
 1481SOL     OW15904   0.564   3.851   2.020 -0.0078 -0.0592  0.5712
 1481SOL    HW115905   0.552   3.826   1.928  2.4308  0.5845  0.0755
 1481SOL    HW215906   0.645   3.901   2.029 -0.6150  1.3674 -2.0225
 1482SOL     OW15907   0.855   2.460   9.453 -0.8644 -0.9306 -0.0930
 1482SOL    HW115908   0.914   2.422   9.388  0.6876  3.4843 -1.2390
 1482SOL    HW215909   0.903   2.460   9.535  0.1146 -2.6860 -0.6562
 1483SOL     OW15910   1.731   2.698   9.318 -0.1548 -0.3194  0.3579
 1483SOL    HW115911   1.820   2.666   9.302 -0.4663  0.0225 -2.0533
 1483SOL    HW215912   1.749   2.791   9.336  3.2424 -0.4269 -2.4510
 1484SOL     OW15913   2.842   1.196   8.437  0.1876 -0.0418  0.4743
 1484SOL    HW115914   2.915   1.246   8.402 -0.0873 -0.1277 -0.2098
 1484SOL    HW215915   2.883   1.109   8.441  0.4278  0.0231 -0.6430
 1485SOL     OW15916   2.072   1.949   3.204 -0.5615  0.1050  0.2704
 1485SOL    HW115917   2.094   1.857   3.188  0.2477  0.6050 -1.5282
 1485SOL    HW215918   2.146   1.992   3.248  0.6858 -1.5251 -0.2350
 1486SOL     OW15919   1.262   1.761  13.810  0.6284  0.2312 -0.0016
 1486SOL    HW115920   1.214   1.827  13.861 -1.1363 -0.3435 -0.9048
 1486SOL    HW215921   1.322   1.723  13.874  0.8840  0.6490  0.0046
 1487SOL     OW15922   2.695   1.964  16.116  0.0490  0.2639 -0.0847
 1487SOL    HW115923   2.637   1.897  16.152 -2.0038  0.1004 -3.7802
 1487SOL    HW215924   2.784   1.934  16.136 -0.0373 -0.4041 -0.7309
 1488SOL     OW15925   3.958   2.304   5.146 -0.4166 -0.3892  0.2875
 1488SOL    HW115926   3.943   2.273   5.056 -2.0355  0.2446  0.3395
 1488SOL    HW215927   3.956   2.219   5.190  0.4532  0.1703  1.3819
 1489SOL     OW15928   0.545   3.951  13.784 -0.0346 -0.1772  0.4209
 1489SOL    HW115929   0.513   3.874  13.831  1.0334 -1.3380 -0.7479
 1489SOL    HW215930   0.583   3.914  13.705  2.3406 -0.8756  1.8543
 1490SOL     OW15931   2.936   2.456  16.155 -0.2379 -0.3390  0.2380
 1490SOL    HW115932   2.886   2.375  16.158  0.1285 -0.5276  1.4108
 1490SOL    HW215933   2.932   2.485  16.064  0.6554 -1.3884 -0.1380
 1491SOL     OW15934   4.561   0.730   2.800  0.3698 -0.1903  0.4785
 1491SOL    HW115935   4.474   0.690   2.811 -0.4124  1.8250  1.6109
 1491SOL    HW215936   4.530   0.818   2.778 -0.2446 -0.6789 -0.6330
 1492SOL     OW15937   4.547   2.615   4.014 -0.1593 -0.0640 -0.3245
 1492SOL    HW115938   4.583   2.703   4.004 -0.3879  0.1653  0.9106
 1492SOL    HW215939   4.625   2.560   4.001 -0.1845  0.2305 -1.7967
 1493SOL     OW15940   2.944   0.786   0.639  0.3475 -0.3841 -0.0457
 1493SOL    HW115941   3.007   0.859   0.643  1.5883 -1.3610 -1.7727
 1493SOL    HW215942   2.871   0.835   0.677 -0.9926 -0.8363 -2.0278
 1494SOL     OW15943   3.140   1.326   2.238 -0.2872  0.6290  0.0448
 1494SOL    HW115944   3.078   1.351   2.170 -2.2905 -1.3581  1.1354
 1494SOL    HW215945   3.218   1.353   2.189  0.2433 -0.4506  0.2999
 1495SOL     OW15946   2.134   0.309   5.259  0.5870 -0.1308  0.3139
 1495SOL    HW115947   2.070   0.380   5.251  0.6363 -0.1636 -0.4199
 1495SOL    HW215948   2.179   0.331   5.340  2.7095 -0.5325 -0.7654
 1496SOL     OW15949   2.139   1.648  17.562 -0.1215  1.0891 -0.6234
 1496SOL    HW115950   2.131   1.673  17.654 -0.3419  0.6494 -0.5225
 1496SOL    HW215951   2.061   1.691  17.527 -0.9602  0.1014  0.0081
 1497SOL     OW15952   1.530   3.651   0.858 -0.1001  0.4356  0.0791
 1497SOL    HW115953   1.484   3.587   0.805 -0.6328  0.7944  0.1083
 1497SOL    HW215954   1.602   3.660   0.796  0.4410 -0.6182  0.5607
 1498SOL     OW15955   0.618   2.897   4.723 -0.2281  0.3066 -0.0023
 1498SOL    HW115956   0.582   2.878   4.636  0.5119 -0.7357 -0.0818
 1498SOL    HW215957   0.680   2.965   4.696  0.9991 -0.7212  0.2045
 1499SOL     OW15958   1.550   2.539   3.165 -0.0767 -0.4969 -0.3435
 1499SOL    HW115959   1.501   2.596   3.224  0.7032 -0.3141  0.1313
 1499SOL    HW215960   1.509   2.574   3.086 -1.2245 -0.1375  0.4193
 1500SOL     OW15961   3.815   0.659  16.050  0.6918  0.1312 -0.8747
 1500SOL    HW115962   3.825   0.669  15.955  4.1055  1.0683 -0.3883
 1500SOL    HW215963   3.862   0.737  16.079  0.3206 -0.3341  0.9522
 1501SOL     OW15964   2.049   4.611   7.921  0.0100 -0.6902 -0.6118
 1501SOL    HW115965   2.098   4.529   7.918 -0.4511 -1.1077  2.5193
 1501SOL    HW215966   2.009   4.614   7.835 -0.5570 -0.4105 -0.3328
 1502SOL     OW15967   2.203   3.065  13.627 -0.3004  0.0022  0.4386
 1502SOL    HW115968   2.261   3.122  13.678 -0.1988  0.2857  0.0032
 1502SOL    HW215969   2.267   3.057  13.556  1.0816 -2.7846  1.9821
 1503SOL     OW15970   2.392   4.435   3.353 -0.0467 -0.6096  0.3865
 1503SOL    HW115971   2.316   4.479   3.391  1.6805  1.9094  0.9098
 1503SOL    HW215972   2.371   4.345   3.378  1.8934 -1.0946  0.2727
 1504SOL     OW15973   2.615   2.557   5.879 -0.0744 -0.5097  0.3383
 1504SOL    HW115974   2.537   2.543   5.825  0.5426 -2.5106 -0.0240
 1504SOL    HW215975   2.627   2.652   5.877 -1.3219 -0.3598 -0.2659
 1505SOL     OW15976   3.712   0.253   8.233 -0.2644 -0.1907  0.8189
 1505SOL    HW115977   3.787   0.292   8.279 -0.4182 -0.0617  0.9583
 1505SOL    HW215978   3.635   0.297   8.269  0.3333  2.1157 -0.7361
 1506SOL     OW15979   4.144   0.101   4.757  0.1649 -0.6761 -0.3989
 1506SOL    HW115980   4.056   0.116   4.791  0.9548  2.1083  0.4375
 1506SOL    HW215981   4.174   0.192   4.746 -0.2609 -0.4367  0.3699
 1507SOL     OW15982   3.776   1.782   3.815  0.1399 -0.1386  0.3054
 1507SOL    HW115983   3.862   1.743   3.800 -0.4625 -1.4399  0.3035
 1507SOL    HW215984   3.810   1.870   3.834  3.2508 -1.3013  0.0300
 1508SOL     OW15985   3.659   3.164  11.943  0.2279  0.2892 -0.1315
 1508SOL    HW115986   3.595   3.210  11.889  2.2552  1.4385 -1.5489
 1508SOL    HW215987   3.603   3.130  12.012 -0.3396 -2.6378 -2.0117
 1509SOL     OW15988   0.333   0.916   5.787  0.1368  0.6743  0.4809
 1509SOL    HW115989   0.279   0.851   5.742  2.6295 -2.0634  1.4932
 1509SOL    HW215990   0.398   0.945   5.723 -0.1786 -3.4136 -1.6572
 1510SOL     OW15991   0.611   1.209  14.607  0.5015 -0.2180 -0.3569
 1510SOL    HW115992   0.520   1.191  14.586  0.4509 -0.0262 -0.3012
 1510SOL    HW215993   0.613   1.181  14.698  0.8592 -1.0817 -0.6274
 1511SOL     OW15994   3.149   2.290   7.399  0.4113  0.2300 -0.0699
 1511SOL    HW115995   3.207   2.366   7.407  0.4712  0.4079 -2.1763
 1511SOL    HW215996   3.064   2.315   7.436  0.6839  0.3367  0.4937
 1512SOL     OW15997   1.116   0.433  17.614  0.3433 -0.2122 -0.4752
 1512SOL    HW115998   1.145   0.405   0.013  0.9188  0.3528 -0.4823
 1512SOL    HW215999   1.046   0.497  17.626  1.4425  0.5898  1.6660
 1513SOL     OW16000   1.267   2.747   0.945 -0.7544  0.3740  0.1780
 1513SOL    HW116001   1.268   2.711   0.857 -0.8921 -0.4845  0.5294
 1513SOL    HW216002   1.295   2.835   0.919 -1.6103  0.8334  0.7969
 1514SOL     OW16003   3.912   3.644   9.930  0.5620  0.4558 -0.3169
 1514SOL    HW116004   3.850   3.695   9.982  0.0291 -0.1443 -0.3479
 1514SOL    HW216005   3.949   3.575   9.985  0.0381 -0.7501 -1.4585
 1515SOL     OW16006   1.239   3.569   2.844  0.4285 -0.0506  0.2071
 1515SOL    HW116007   1.265   3.539   2.757 -0.5164 -0.6095  0.1262
 1515SOL    HW216008   1.150   3.534   2.842  0.4301  0.0398 -1.0923
 1516SOL     OW16009   2.019   3.122   7.625 -0.0631  0.7079  0.2863
 1516SOL    HW116010   2.094   3.138   7.567  0.3422  1.7479  1.0984
 1516SOL    HW216011   1.948   3.160   7.574 -0.1998 -0.6686 -0.5470
 1517SOL     OW16012   1.067   1.835  15.410 -0.6002  0.4287 -0.1348
 1517SOL    HW116013   1.160   1.816  15.394 -0.7742 -0.8552  0.3680
 1517SOL    HW216014   1.041   1.860  15.321 -0.4402  1.1621  0.0247
 1518SOL     OW16015   0.786   1.477   7.601 -0.4771 -0.9272 -0.1377
 1518SOL    HW116016   0.784   1.398   7.655  0.6249 -1.6909 -1.1933
 1518SOL    HW216017   0.824   1.437   7.523  0.3912 -0.0228 -0.1871
 1519SOL     OW16018   1.690   0.610  11.946  0.2591  0.1493  0.1298
 1519SOL    HW116019   1.626   0.557  11.899 -0.2164  0.7618  0.0908
 1519SOL    HW216020   1.644   0.618  12.029 -2.7358 -1.7533 -1.3673
 1520SOL     OW16021   2.939   3.199   4.655  0.7893  0.3456  0.2474
 1520SOL    HW116022   2.890   3.152   4.722  2.2513 -1.8341 -0.1911
 1520SOL    HW216023   2.992   3.255   4.713 -0.0780 -0.0217  1.3803
 1521SOL     OW16024   3.496   4.614   8.544  0.1098 -0.0573  0.1445
 1521SOL    HW116025   3.525   4.548   8.607 -1.4888 -1.0829 -0.1914
 1521SOL    HW216026   3.529   4.575   8.463  0.5241  1.1946 -0.2929
 1522SOL     OW16027   2.762   4.438   9.198 -0.3703  0.0446  0.2507
 1522SOL    HW116028   2.821   4.492   9.251 -0.2312 -0.1423  0.2851
 1522SOL    HW216029   2.684   4.435   9.254  0.4383  1.5894  1.4929
 1523SOL     OW16030   3.038   0.320   8.269 -0.3323 -0.0932  0.3133
 1523SOL    HW116031   3.081   0.244   8.308  0.8118 -0.1207 -1.0086
 1523SOL    HW216032   2.987   0.344   8.347  0.6797  1.8450  0.3743
 1524SOL     OW16033   3.937   2.903   6.337  0.2362  0.4943 -0.3429
 1524SOL    HW116034   4.026   2.920   6.307  0.3371 -2.3389 -1.5420
 1524SOL    HW216035   3.919   2.821   6.292  1.8538 -0.0097 -0.0581
 1525SOL     OW16036   1.496   1.514  14.986  0.3845  0.6924 -0.0923
 1525SOL    HW116037   1.551   1.504  15.063 -0.7869 -0.1515  0.6284
 1525SOL    HW216038   1.486   1.609  14.985  0.8515  0.7264 -3.5650
 1526SOL     OW16039   4.156   4.460   7.745  0.2182  0.1768 -0.0983
 1526SOL    HW116040   4.185   4.528   7.684 -0.1735 -0.0820 -0.5770
 1526SOL    HW216041   4.224   4.454   7.813 -1.7134  1.5920  1.9370
 1527SOL     OW16042   3.267   2.842   9.162 -0.2523 -0.4921  0.3955
 1527SOL    HW116043   3.190   2.789   9.184 -0.7488  1.6019  3.6925
 1527SOL    HW216044   3.216   2.916   9.127  2.1260  0.3783 -1.1848
 1528SOL     OW16045   0.903   2.427  14.226 -0.0462 -0.5326  0.1791
 1528SOL    HW116046   0.842   2.388  14.163 -0.8487  0.5349  0.2786
 1528SOL    HW216047   0.945   2.496  14.175 -1.2900 -1.1027 -1.6098
 1529SOL     OW16048   3.263   3.307   3.637 -0.4112  0.2298  0.6784
 1529SOL    HW116049   3.354   3.300   3.668 -0.1246 -0.3984 -0.3130
 1529SOL    HW216050   3.283   3.325   3.545  0.1321  0.1753  0.7885
 1530SOL     OW16051   3.283   2.445  10.256 -0.2683  0.4026  0.2699
 1530SOL    HW116052   3.249   2.491  10.332 -0.2460 -1.5990  1.5107
 1530SOL    HW216053   3.221   2.372  10.259  0.7797 -0.5310 -0.6502
 1531SOL     OW16054   0.342   2.901   4.229  0.2691  0.1678 -0.3881
 1531SOL    HW116055   0.358   2.871   4.318  0.0286  2.5594  0.4718
 1531SOL    HW216056   0.424   2.950   4.218  0.1903  0.4153  0.1390
 1532SOL     OW16057   0.247   1.948  13.758  0.6535 -0.1631  0.0810
 1532SOL    HW116058   0.201   1.864  13.751  0.4620 -0.2308  2.0682
 1532SOL    HW216059   0.180   1.996  13.807 -0.5632  0.6605 -2.3754
 1533SOL     OW16060   3.229   2.827  10.382  1.0027 -0.3094 -0.1711
 1533SOL    HW116061   3.284   2.904  10.399 -1.3541  1.7614 -1.8677
 1533SOL    HW216062   3.182   2.853  10.302 -2.0364  2.3581  2.4575
 1534SOL     OW16063   3.782   2.702   8.399  0.0109 -0.1680  0.1595
 1534SOL    HW116064   3.750   2.662   8.480  0.4007 -2.3216 -0.7444
 1534SOL    HW216065   3.694   2.732   8.378  0.0631 -0.6549 -0.7715
 1535SOL     OW16066   4.175   2.986   4.937  0.5650  0.2812  0.2543
 1535SOL    HW116067   4.081   2.992   4.956  0.5360 -2.1562  0.8999
 1535SOL    HW216068   4.157   2.980   4.843 -3.1153 -1.6709  1.0817
 1536SOL     OW16069   0.425   2.370   6.803 -0.0925 -0.1343 -0.0492
 1536SOL    HW116070   0.366   2.295   6.802  1.9336 -1.7170 -1.0324
 1536SOL    HW216071   0.456   2.371   6.713 -0.7050 -0.1134 -0.2602
 1537SOL     OW16072   4.521   1.951   2.991  0.3508  0.4457 -0.2854
 1537SOL    HW116073   4.521   2.046   3.005  1.0854  0.4578 -0.3263
 1537SOL    HW216074   4.614   1.933   2.974  0.2091 -1.5683  1.1420
 1538SOL     OW16075   4.344   2.888   6.387 -0.0899 -0.3548  0.3204
 1538SOL    HW116076   4.427   2.929   6.364  0.2764 -2.0299 -1.3587
 1538SOL    HW216077   4.362   2.795   6.370  0.2929 -0.3893  0.9070
 1539SOL     OW16078   0.085   1.573   4.763  0.0030 -0.2142 -0.3591
 1539SOL    HW116079   0.041   1.565   4.847  2.2556  1.1017  0.9443
 1539SOL    HW216080   0.015   1.559   4.699 -2.7219 -1.0207  2.8130
 1540SOL     OW16081   0.064   0.810   5.739  0.1428  0.0693  0.1092
 1540SOL    HW116082   0.084   0.782   5.828 -1.1833  0.5549  0.5694
 1540SOL    HW216083   0.000   0.746   5.707  0.0782  0.5427 -0.7227
 1541SOL     OW16084   1.767   3.356   8.521  0.7856  0.6914  0.4588
 1541SOL    HW116085   1.711   3.434   8.525 -1.6655 -0.9678 -0.8507
 1541SOL    HW216086   1.781   3.356   8.426  0.7667  1.5933  0.4517
 1542SOL     OW16087   1.999   3.066   5.670 -0.0197 -0.4548  0.2062
 1542SOL    HW116088   2.040   3.151   5.686 -2.1542  0.4101  1.0717
 1542SOL    HW216089   2.025   3.057   5.578 -2.1271  1.6563 -0.6031
 1543SOL     OW16090   0.054   0.722  14.504  0.5987  0.4303 -0.1526
 1543SOL    HW116091   0.108   0.685  14.434  0.1067 -2.5385  1.0409
 1543SOL    HW216092   4.692   0.676  14.501 -0.0568  1.6025 -0.0428
 1544SOL     OW16093   0.114   3.685  14.409  0.0203 -0.4549  0.3474
 1544SOL    HW116094   0.107   3.733  14.326 -3.5266 -2.7208 -0.7080
 1544SOL    HW216095   0.177   3.738  14.456 -0.1318  0.2062 -0.1968
 1545SOL     OW16096   0.617   1.171   2.553  0.1384  0.1861  0.1569
 1545SOL    HW116097   0.613   1.246   2.494  1.9960  0.0450 -0.1405
 1545SOL    HW216098   0.670   1.112   2.500  3.3109  1.8737  1.4545
 1546SOL     OW16099   2.478   0.010   1.937  0.0177 -0.2302  0.2684
 1546SOL    HW116100   2.395   4.688   1.959  0.2342 -1.0805 -0.5707
 1546SOL    HW216101   2.447   0.077   1.877 -1.2060 -0.4085  0.6958
 1547SOL     OW16102   3.383   1.100  10.463 -0.2685  0.5924  0.1548
 1547SOL    HW116103   3.352   1.181  10.422 -2.9924 -0.2817  0.4505
 1547SOL    HW216104   3.430   1.127  10.542 -0.9045  1.1762  0.3355
 1548SOL     OW16105   1.380   2.298   9.322 -0.0714  0.0958 -0.1137
 1548SOL    HW116106   1.446   2.233   9.348  1.1620  0.8188 -1.4366
 1548SOL    HW216107   1.433   2.377   9.324  1.7392 -1.1662  1.2932
 1549SOL     OW16108   2.889   0.310   2.105 -0.7527 -0.3398 -0.3993
 1549SOL    HW116109   2.879   0.255   2.027 -0.0618 -1.7266  0.4905
 1549SOL    HW216110   2.808   0.296   2.154 -0.8314  1.9065  0.1114
 1550SOL     OW16111   1.308   2.571   5.460 -0.8944  0.0267 -0.3190
 1550SOL    HW116112   1.286   2.480   5.440  0.7938  0.1976 -2.9331
 1550SOL    HW216113   1.250   2.615   5.397  1.6343  0.9213 -2.0056
 1551SOL     OW16114   4.648   3.538   4.473 -0.0430 -0.7947  0.0155
 1551SOL    HW116115   4.697   3.468   4.517 -0.4747 -0.8837  0.3629
 1551SOL    HW216116   4.716   3.591   4.432 -0.9223  0.5640  0.3043
 1552SOL     OW16117   2.675   4.051   2.599 -0.0210 -0.3472 -0.1292
 1552SOL    HW116118   2.756   4.048   2.549  0.7024  2.6440  0.8907
 1552SOL    HW216119   2.680   3.977   2.659  2.6772  0.2908  0.4294
 1553SOL     OW16120   3.287   4.717  13.943  0.3637 -0.4616  0.2974
 1553SOL    HW116121   3.305   4.644  13.883 -2.3435  0.5671 -1.7516
 1553SOL    HW216122   3.216   0.038  13.894  1.5571 -0.0047 -1.0525
 1554SOL     OW16123   3.730   1.077   3.275 -0.3608 -0.3785  0.5775
 1554SOL    HW116124   3.661   1.011   3.284 -0.2985 -0.6887 -1.2392
 1554SOL    HW216125   3.790   1.040   3.340  0.9740  0.7700 -0.0147
 1555SOL     OW16126   1.302   0.136  16.564 -0.2625 -0.1342  0.0544
 1555SOL    HW116127   1.259   0.113  16.482 -0.5516 -1.5250  0.6082
 1555SOL    HW216128   1.237   0.198  16.597  0.3419 -0.8214  2.5398
 1556SOL     OW16129   3.833   3.358  11.848 -0.4645  0.9532  0.3902
 1556SOL    HW116130   3.748   3.318  11.866 -0.5942  0.3576 -1.5707
 1556SOL    HW216131   3.892   3.312  11.908  0.2696 -0.7283 -1.6339
 1557SOL     OW16132   2.170   2.977  11.674  0.3500 -0.2739 -0.0884
 1557SOL    HW116133   2.191   2.884  11.689 -0.6206  0.2404  4.5361
 1557SOL    HW216134   2.076   2.982  11.692  0.6286 -0.1750  1.3729
 1558SOL     OW16135   4.498   3.342   3.637 -0.4036  0.1077 -0.3553
 1558SOL    HW116136   4.530   3.281   3.571  1.7927  1.4464 -0.5294
 1558SOL    HW216137   4.565   3.345   3.706 -0.4113 -1.1691 -0.2916
 1559SOL     OW16138   3.767   4.388   5.425  0.1064  0.0030  0.1137
 1559SOL    HW116139   3.706   4.389   5.499 -0.8948  1.7643 -0.7268
 1559SOL    HW216140   3.835   4.335   5.467  0.8125  0.2958 -0.6701
 1560SOL     OW16141   2.797   1.213  12.256  0.0454 -0.6023  0.1995
 1560SOL    HW116142   2.768   1.305  12.259 -1.9994 -1.1893 -2.0708
 1560SOL    HW216143   2.741   1.180  12.186  0.5044 -0.7405 -0.1004
 1561SOL     OW16144   2.119   1.075   8.092  0.0239 -0.3570  0.3735
 1561SOL    HW116145   2.173   1.032   8.025  0.9445 -2.2056  2.3026
 1561SOL    HW216146   2.034   1.031   8.082 -0.2063  0.0397  0.5882
 1562SOL     OW16147   2.026   2.891   9.400 -0.3808  0.3032  0.0912
 1562SOL    HW116148   1.942   2.936   9.397 -1.0613 -1.0096 -0.5096
 1562SOL    HW216149   1.992   2.803   9.411  0.0969 -0.0387 -1.1780
 1563SOL     OW16150   2.757   3.023   0.321 -0.4398  0.0502 -0.2407
 1563SOL    HW116151   2.796   2.995   0.404  1.3645 -0.9105 -1.4032
 1563SOL    HW216152   2.713   3.105   0.340  0.1985  0.3320  0.0475
 1564SOL     OW16153   3.405   2.287   1.185 -0.1278  0.0875 -0.2395
 1564SOL    HW116154   3.372   2.366   1.226  2.0455  0.8853 -0.0776
 1564SOL    HW216155   3.334   2.257   1.128 -0.3007 -1.2247  0.6588
 1565SOL     OW16156   0.222   0.285   6.987  0.0821  0.1201  0.1846
 1565SOL    HW116157   0.243   0.192   6.978 -0.5277 -0.0881  0.9151
 1565SOL    HW216158   0.250   0.302   7.077 -0.6056  0.6741  0.2965
 1566SOL     OW16159   0.479   0.321   9.352 -0.8007  0.1282  0.3229
 1566SOL    HW116160   0.506   0.396   9.404 -1.2143 -0.2034  1.0057
 1566SOL    HW216161   0.458   0.261   9.424 -1.2003 -1.4124 -1.0612
 1567SOL     OW16162   0.741   1.289  11.860 -0.5784 -0.0667 -0.4246
 1567SOL    HW116163   0.782   1.317  11.778  0.8196 -2.1521 -0.4229
 1567SOL    HW216164   0.650   1.311  11.839 -1.1290 -0.7200  1.2741
 1568SOL     OW16165   4.590   2.988   7.384 -0.2721  0.7899  0.1570
 1568SOL    HW116166   4.497   3.010   7.386  0.1032  2.2685  1.1791
 1568SOL    HW216167   4.590   2.948   7.297 -1.5886 -0.2128  0.6191
 1569SOL     OW16168   4.670   1.221   5.523  0.1513 -0.1816 -0.3721
 1569SOL    HW116169   4.575   1.208   5.516 -0.2704  1.6475  1.9486
 1569SOL    HW216170   4.699   1.133   5.499  1.0407  0.6424 -2.2878
 1570SOL     OW16171   2.401   4.691   7.438  0.1275 -0.0625 -0.0548
 1570SOL    HW116172   2.386   0.057   7.402 -0.0833  0.3763  1.1168
 1570SOL    HW216173   2.465   4.704   7.507 -0.0660 -1.0457  0.3144
 1571SOL     OW16174   1.754   3.266  14.258 -0.2366  0.2563 -0.2177
 1571SOL    HW116175   1.676   3.230  14.215 -0.9005  1.2409  0.1715
 1571SOL    HW216176   1.718   3.328  14.321 -0.1126  1.2783 -1.1599
 1572SOL     OW16177   0.629   4.255  15.458  0.9063  0.2204  0.6220
 1572SOL    HW116178   0.695   4.322  15.441 -0.6910  1.6266 -0.0611
 1572SOL    HW216179   0.659   4.175  15.414  0.5312  1.9050 -2.6594
 1573SOL     OW16180   3.707   1.331   2.918  0.8668  0.5039  0.6663
 1573SOL    HW116181   3.701   1.263   2.985 -0.9744 -0.0087  0.0082
 1573SOL    HW216182   3.792   1.310   2.879  1.0272  2.7795 -0.1924
 1574SOL     OW16183   2.214   4.031   8.673  0.4786 -0.2565  0.1685
 1574SOL    HW116184   2.206   4.127   8.676  0.6702 -0.1871 -1.6595
 1574SOL    HW216185   2.264   4.020   8.754  0.6105  0.7141  0.2175
 1575SOL     OW16186   3.306   2.178   5.633  0.1755  0.3558 -0.2366
 1575SOL    HW116187   3.390   2.150   5.597  1.6207  2.7691  1.3378
 1575SOL    HW216188   3.250   2.175   5.555 -0.7684  1.1160  0.4209
 1576SOL     OW16189   2.915   1.163   2.364 -0.5480  0.1337  1.1011
 1576SOL    HW116190   2.925   1.070   2.343 -0.4088  0.2709  0.5785
 1576SOL    HW216191   3.001   1.197   2.342 -0.9722  0.2411 -0.3512
 1577SOL     OW16192   2.853   0.824   7.005  0.1231 -0.0225 -0.2528
 1577SOL    HW116193   2.941   0.807   6.972  0.0883  0.6737 -0.7076
 1577SOL    HW216194   2.823   0.734   7.005 -1.1345  0.3971  0.8029
 1578SOL     OW16195   1.558   2.145   1.865  0.5448 -0.2101  0.2485
 1578SOL    HW116196   1.574   2.069   1.808 -1.8178 -0.0688 -0.6010
 1578SOL    HW216197   1.603   2.210   1.811  0.6371 -0.4803  0.0005
 1579SOL     OW16198   0.999   0.238   3.551 -0.3737 -0.4308 -0.4475
 1579SOL    HW116199   1.061   0.173   3.586 -0.7708  0.4815  1.9431
 1579SOL    HW216200   1.042   0.253   3.467 -0.4716 -2.8137 -0.9164
 1580SOL     OW16201   4.642   2.492   5.151  0.6115 -0.2757  0.4912
 1580SOL    HW116202   4.700   2.417   5.167 -2.3045 -2.6758 -0.2704
 1580SOL    HW216203   4.567   2.435   5.137  0.7230 -0.3772  0.3119
 1581SOL     OW16204   1.281   2.462   8.666 -0.2358  0.1272  0.3031
 1581SOL    HW116205   1.246   2.550   8.678 -0.7955  0.0414 -0.6966
 1581SOL    HW216206   1.368   2.471   8.706 -0.5504  1.2930  0.7226
 1582SOL     OW16207   1.936   2.852   5.177  0.0693  0.5352 -0.0123
 1582SOL    HW116208   1.872   2.805   5.124  1.6080  0.4007 -1.7402
 1582SOL    HW216209   2.021   2.817   5.151 -0.4989 -0.4705 -0.5286
 1583SOL     OW16210   3.080   4.065   4.766  0.1932  0.1980 -0.2051
 1583SOL    HW116211   3.117   4.146   4.801  0.9378  0.7292 -2.2305
 1583SOL    HW216212   3.128   4.008   4.825 -0.2736  2.0415  1.9725
 1584SOL     OW16213   1.618   0.511   3.013  0.0267  0.0746  0.6561
 1584SOL    HW116214   1.603   0.595   3.056 -1.8806 -0.6700  1.4965
 1584SOL    HW216215   1.706   0.512   2.978  0.1986 -0.5886  1.0590
 1585SOL     OW16216   1.055   0.315  10.814 -0.1254 -0.0247  0.0611
 1585SOL    HW116217   1.129   0.372  10.794 -1.2537  0.4683 -2.7438
 1585SOL    HW216218   1.042   0.325  10.908 -0.3568  0.5046 -0.0276
 1586SOL     OW16219   2.223   1.580   4.402  0.1810 -0.0843 -0.2482
 1586SOL    HW116220   2.153   1.517   4.383 -1.3326  0.9420  1.9269
 1586SOL    HW216221   2.298   1.520   4.405  0.8843  0.7556 -1.4812
 1587SOL     OW16222   4.197   0.101   8.930 -0.5933 -0.1196 -0.6132
 1587SOL    HW116223   4.242   0.018   8.946  1.3985  0.8272 -1.3278
 1587SOL    HW216224   4.106   0.076   8.945 -0.1512 -0.6582  1.1304
 1588SOL     OW16225   2.025   1.963  12.428 -0.4706 -0.4927  0.4251
 1588SOL    HW116226   2.019   2.059  12.427 -2.1674 -0.5844  1.5711
 1588SOL    HW216227   2.103   1.951  12.375 -0.7523  2.0948 -0.5806
 1589SOL     OW16228   0.511   3.485   0.405 -0.2396  0.3948 -0.1950
 1589SOL    HW116229   0.435   3.542   0.413 -1.9681 -1.6130 -2.4808
 1589SOL    HW216230   0.552   3.526   0.329  0.7984 -2.6938 -1.3230
 1590SOL     OW16231   2.714   1.523   7.065 -0.1487  0.0355 -0.8919
 1590SOL    HW116232   2.742   1.473   7.142 -1.0861  0.7152 -0.1079
 1590SOL    HW216233   2.623   1.493   7.060 -1.2025  3.2627 -1.0187
 1591SOL     OW16234   3.863   3.848   2.222  0.0276 -0.0222  0.4970
 1591SOL    HW116235   3.842   3.758   2.247  0.8737 -0.2627  0.3442
 1591SOL    HW216236   3.832   3.894   2.300 -1.5668  1.7168 -1.1344
 1592SOL     OW16237   3.936   1.470   5.851  0.6469 -0.0701  0.3474
 1592SOL    HW116238   4.014   1.526   5.846  0.5116  0.0290 -0.5127
 1592SOL    HW216239   3.871   1.532   5.886  2.0231  1.5699  0.0301
 1593SOL     OW16240   4.662   0.774  10.580  0.2226 -0.2037 -0.0516
 1593SOL    HW116241   4.567   0.759  10.583  0.0846  0.4577 -0.9316
 1593SOL    HW216242   4.666   0.863  10.544  0.8718  0.3823  1.4578
 1594SOL     OW16243   1.767   0.602   3.708 -0.4055 -0.1272  0.5347
 1594SOL    HW116244   1.784   0.686   3.751  1.0706  0.0660 -0.4436
 1594SOL    HW216245   1.852   0.559   3.710 -1.6812 -2.6849 -0.1969
 1595SOL     OW16246   4.152   1.691  17.648 -0.2436 -0.2161  0.2857
 1595SOL    HW116247   4.212   1.696  17.573  0.1770 -0.5582  0.6013
 1595SOL    HW216248   4.170   1.775   0.003 -2.3115  0.9180 -1.1145
 1596SOL     OW16249   1.984   3.789   3.247  0.1100 -0.5523 -0.2176
 1596SOL    HW116250   1.892   3.811   3.235 -0.8729 -3.6913  1.6805
 1596SOL    HW216251   2.022   3.877   3.248 -3.2256  0.7981  3.5682
 1597SOL     OW16252   3.974   3.709   4.236  0.0364  0.0487 -0.4321
 1597SOL    HW116253   3.979   3.759   4.318  2.1916 -2.8042  1.1850
 1597SOL    HW216254   4.049   3.745   4.190 -0.4772 -0.6433 -1.7900
 1598SOL     OW16255   1.006   2.303  11.682 -0.8180  0.0407 -0.0546
 1598SOL    HW116256   0.965   2.253  11.611 -2.4143 -0.6699  1.3690
 1598SOL    HW216257   1.062   2.370  11.643  0.0083 -1.9635 -2.2303
 1599SOL     OW16258   1.366   4.352   2.628  0.3667  0.5031 -0.0000
 1599SOL    HW116259   1.299   4.390   2.684  0.1015  1.6972 -1.1270
 1599SOL    HW216260   1.327   4.332   2.543 -1.3381  1.3612  0.5805
 1600SOL     OW16261   2.508   0.534   9.885  0.1168 -0.0198 -0.2104
 1600SOL    HW116262   2.522   0.558   9.793  0.2461 -0.7273 -0.3746
 1600SOL    HW216263   2.439   0.590   9.920  0.7515  1.0552 -0.6809
 1601SOL     OW16264   3.910   2.901  12.998  0.7719  0.0511  0.0501
 1601SOL    HW116265   3.830   2.880  13.045 -0.4668  1.3896 -1.4776
 1601SOL    HW216266   3.900   2.839  12.925 -0.0048  0.0154  0.1951
 1602SOL     OW16267   1.801   4.107  14.890  0.0804  0.1064 -0.5342
 1602SOL    HW116268   1.870   4.112  14.824  1.3389  1.9383  0.9376
 1602SOL    HW216269   1.759   4.192  14.879 -0.4149  0.0102  0.5585
 1603SOL     OW16270   2.882   4.313  10.865 -0.3771  0.0015 -0.2060
 1603SOL    HW116271   2.953   4.362  10.823 -1.1740 -0.0812 -1.6457
 1603SOL    HW216272   2.811   4.315  10.801  1.4715 -0.2161 -2.2489
 1604SOL     OW16273   3.495   2.145  16.704  0.9987  0.4646 -0.1098
 1604SOL    HW116274   3.429   2.081  16.678  2.7116 -1.2766 -0.2140
 1604SOL    HW216275   3.465   2.231  16.675 -0.7516  0.2410  1.0727
 1605SOL     OW16276   4.558   3.941  15.980  0.4030 -0.3956 -0.5871
 1605SOL    HW116277   4.518   3.909  15.900  0.0360 -1.5311  0.0396
 1605SOL    HW216278   4.616   3.997  15.929  0.1929  1.0051  0.7159
 1606SOL     OW16279   0.461   2.773  14.583  0.0778 -0.3558  0.0042
 1606SOL    HW116280   0.505   2.704  14.534 -3.0996 -1.2343 -1.6496
 1606SOL    HW216281   0.465   2.740  14.673 -1.3656  0.4832  0.3857
 1607SOL     OW16282   2.420   1.429   4.451  0.0832 -0.3696  0.4675
 1607SOL    HW116283   2.503   1.471   4.425 -0.2066  0.5361  1.0018
 1607SOL    HW216284   2.430   1.340   4.417 -1.4788  0.4752 -2.2377
 1608SOL     OW16285   2.154   1.132  16.237 -0.1375 -0.6845  0.9206
 1608SOL    HW116286   2.143   1.143  16.331  0.3023  1.8819  0.6725
 1608SOL    HW216287   2.204   1.213  16.227  0.0803 -1.4296 -4.0164
 1609SOL     OW16288   3.117   2.522   8.967 -0.0132  0.1132 -0.1495
 1609SOL    HW116289   3.122   2.500   8.874 -0.2660 -0.0733 -0.1166
 1609SOL    HW216290   3.025   2.545   8.963 -0.4292 -1.5512 -0.1319
 1610SOL     OW16291   1.755   4.003  11.760 -0.2708  0.2207 -0.2042
 1610SOL    HW116292   1.828   3.941  11.765  0.7029  1.3307 -0.7040
 1610SOL    HW216293   1.680   3.947  11.740 -0.0375 -1.0511  2.3770
 1611SOL     OW16294   4.690   0.920   8.531  0.0137 -0.3241  0.2635
 1611SOL    HW116295   4.654   0.922   8.620 -1.7381 -2.0970 -0.3961
 1611SOL    HW216296   4.673   1.009   8.502 -0.7598 -0.0195  1.6172
 1612SOL     OW16297   0.412   2.015  17.290 -0.0508  0.4269  0.2907
 1612SOL    HW116298   0.360   1.935  17.286  0.2092  0.1489  2.4620
 1612SOL    HW216299   0.478   2.003  17.221  2.5124 -0.8880  2.9448
 1613SOL     OW16300   2.708   0.106  12.925  0.5988  0.0945 -0.4143
 1613SOL    HW116301   2.664   0.188  12.904  0.3362 -0.1278 -0.7414
 1613SOL    HW216302   2.796   0.139  12.909  1.9066 -3.1918 -0.0998
 1614SOL     OW16303   2.658   0.968  13.194 -0.3156  0.3343  0.0428
 1614SOL    HW116304   2.670   1.020  13.114  2.0250  0.2028  0.2983
 1614SOL    HW216305   2.581   1.008  13.235  0.7921  2.2437  0.2415
 1615SOL     OW16306   1.735   1.996   5.537 -0.2885  0.1254 -0.0427
 1615SOL    HW116307   1.710   1.984   5.629 -1.8951  0.9394 -0.3819
 1615SOL    HW216308   1.762   1.907   5.513  1.3288  0.7777 -0.6426
 1616SOL     OW16309   1.386   1.596   7.843 -0.1192 -0.4867 -0.0452
 1616SOL    HW116310   1.386   1.683   7.882  0.4743  0.3591 -1.8976
 1616SOL    HW216311   1.295   1.592   7.813 -0.5644 -1.1813  1.4115
 1617SOL     OW16312   1.873   2.245   8.688 -0.2951 -0.0345  0.2091
 1617SOL    HW116313   1.895   2.190   8.613  0.4757  2.2791 -1.2614
 1617SOL    HW216314   1.831   2.312   8.635 -1.1931  1.0689  2.2877
 1618SOL     OW16315   4.389   2.637   6.311  0.6648 -0.1793  0.1087
 1618SOL    HW116316   4.479   2.604   6.309  0.9477  0.3720  3.6886
 1618SOL    HW216317   4.342   2.566   6.267  1.3005 -0.8698  0.5343
 1619SOL     OW16318   0.208   4.462   6.809 -0.1797  0.0064  0.2329
 1619SOL    HW116319   0.126   4.509   6.793 -0.2497  0.1249  0.9159
 1619SOL    HW216320   0.176   4.406   6.880 -1.9933  1.5813  0.6692
 1620SOL     OW16321   2.583   3.240  13.075  0.0328 -0.1395 -0.5347
 1620SOL    HW116322   2.629   3.197  13.146  1.3414 -0.2160 -1.4178
 1620SOL    HW216323   2.612   3.331  13.082 -1.6193  0.2421  1.1316
 1621SOL     OW16324   1.195   4.672   4.673 -0.0192  0.1392  0.2850
 1621SOL    HW116325   1.168   0.039   4.648  2.1104  1.3161  2.2777
 1621SOL    HW216326   1.224   4.681   4.763 -0.3203  1.8345  0.2044
 1622SOL     OW16327   2.972   0.895   2.353  0.4585  0.3384  0.4480
 1622SOL    HW116328   3.059   0.856   2.340 -0.6526 -1.9182 -0.1906
 1622SOL    HW216329   2.922   0.826   2.309  0.9976 -0.4654  1.0940
 1623SOL     OW16330   2.994   1.367   8.295  0.1904 -0.4014  0.2249
 1623SOL    HW116331   3.067   1.378   8.357 -0.7649  3.5302  0.6665
 1623SOL    HW216332   2.987   1.443   8.238  1.0359  0.7745  1.6960
 1624SOL     OW16333   4.205   3.591   4.462  0.0313 -0.6782  0.7919
 1624SOL    HW116334   4.151   3.521   4.500  1.4317 -1.6796  0.9202
 1624SOL    HW216335   4.173   3.670   4.505 -0.9252  0.1329 -1.4055
 1625SOL     OW16336   4.445   1.985   3.785 -0.5326 -1.0080  0.0412
 1625SOL    HW116337   4.410   1.899   3.764  0.6612 -1.2204 -1.1018
 1625SOL    HW216338   4.508   1.997   3.713  0.0796 -3.6940  0.1409
 1626SOL     OW16339   0.768   0.407   1.753 -0.3174  0.3249  0.1325
 1626SOL    HW116340   0.727   0.480   1.707  0.8949 -0.6979 -2.5853
 1626SOL    HW216341   0.854   0.446   1.765  0.1778 -0.4192 -1.0578
 1627SOL     OW16342   3.744   4.272   1.988  0.6009 -0.1115  0.0894
 1627SOL    HW116343   3.793   4.217   2.049 -0.4133  2.0936  2.9143
 1627SOL    HW216344   3.704   4.216   1.921  0.3310 -0.4869  0.5705
 1628SOL     OW16345   3.065   1.839   5.089 -0.4367  0.0801  0.0618
 1628SOL    HW116346   3.078   1.825   4.995 -0.7934  0.6164 -0.0687
 1628SOL    HW216347   3.012   1.918   5.086 -0.9081 -0.3313 -2.1489
 1629SOL     OW16348   4.624   3.059   9.086 -0.1065 -0.1857 -0.1914
 1629SOL    HW116349   4.567   3.137   9.088  1.0617  0.6624 -0.1337
 1629SOL    HW216350   4.703   3.100   9.121  0.6442 -1.5412 -0.3234
 1630SOL     OW16351   3.950   1.230  12.305  0.2905 -0.2674 -0.0963
 1630SOL    HW116352   3.997   1.199  12.228  0.8042 -1.2634  0.6188
 1630SOL    HW216353   3.999   1.313  12.309  1.2389 -0.8419  0.2013
 1631SOL     OW16354   1.433   1.544   1.046 -0.7373 -0.4199  0.1783
 1631SOL    HW116355   1.366   1.488   1.085 -0.1782 -1.6280 -0.6060
 1631SOL    HW216356   1.421   1.624   1.097  2.6878 -1.6339  2.9015
 1632SOL     OW16357   3.306   4.500  13.759  0.3537 -0.2671  0.4844
 1632SOL    HW116358   3.270   4.422  13.799  0.2433  0.7012  2.2890
 1632SOL    HW216359   3.259   4.491  13.676  0.5590  2.0987  0.0858
 1633SOL     OW16360   1.330   3.116  12.031  0.0521  0.3015  0.3471
 1633SOL    HW116361   1.394   3.060  11.988 -0.4795 -1.0305  1.2900
 1633SOL    HW216362   1.271   3.050  12.066  1.6958 -1.6418 -0.5152
 1634SOL     OW16363   1.309   2.209   7.395  0.3208  0.5904  0.2755
 1634SOL    HW116364   1.350   2.174   7.316 -0.0000  1.1924 -0.1566
 1634SOL    HW216365   1.316   2.130   7.448  0.3205 -0.6564 -1.6080
 1635SOL     OW16366   4.439   1.183   6.641  0.5022  0.3358 -0.4372
 1635SOL    HW116367   4.370   1.240   6.608 -2.0792 -2.2051  0.6152
 1635SOL    HW216368   4.472   1.233   6.715 -0.2562  0.1819 -0.0026
 1636SOL     OW16369   0.174   1.137   7.912 -0.8186 -0.1141  0.1355
 1636SOL    HW116370   0.114   1.072   7.949 -1.1713  1.5648  2.4855
 1636SOL    HW216371   0.166   1.216   7.966  2.2055  0.1462  0.1659
 1637SOL     OW16372   3.593   2.632  13.187 -0.0584 -0.0331  0.3216
 1637SOL    HW116373   3.600   2.571  13.261 -1.1259  1.6874  1.8495
 1637SOL    HW216374   3.538   2.582  13.127  0.9810 -1.2202  0.3634
 1638SOL     OW16375   3.519   3.553   2.737  0.3081  0.0230 -0.4351
 1638SOL    HW116376   3.596   3.609   2.730  0.5915 -0.5205 -1.8741
 1638SOL    HW216377   3.519   3.524   2.645  0.5284 -1.6368  0.0847
 1639SOL     OW16378   1.763   0.838  11.803 -0.4463  0.3478  0.4623
 1639SOL    HW116379   1.853   0.846  11.836 -0.3825  0.6196  0.2235
 1639SOL    HW216380   1.727   0.770  11.860 -0.6523 -0.5208 -0.7226
 1640SOL     OW16381   1.239   2.595  16.129 -0.8579 -0.1410 -0.1103
 1640SOL    HW116382   1.205   2.604  16.040  1.6900 -1.8006 -1.2505
 1640SOL    HW216383   1.324   2.554  16.113 -0.2504  0.0229  2.7577
 1641SOL     OW16384   3.914   1.636   7.898 -0.4997  0.1348  0.1397
 1641SOL    HW116385   3.869   1.718   7.877 -1.1838 -0.3156 -0.1707
 1641SOL    HW216386   3.853   1.623   7.971  1.5782  1.4855  2.1249
 1642SOL     OW16387   0.896   0.712  10.755 -0.1766  0.1873 -0.2084
 1642SOL    HW116388   0.843   0.635  10.734  1.6056 -1.1589  0.2069
 1642SOL    HW216389   0.824   0.761  10.796 -0.0415 -0.9122  1.3227
 1643SOL     OW16390   3.635   4.454  14.712 -0.4523 -0.5659  0.6613
 1643SOL    HW116391   3.593   4.530  14.753 -1.4017  0.1617 -1.6567
 1643SOL    HW216392   3.603   4.380  14.764 -1.2952 -0.1507  0.7212
 1644SOL     OW16393   2.107   2.828   1.437 -0.1464 -0.0313 -0.3887
 1644SOL    HW116394   2.029   2.883   1.429 -0.6315 -0.5127  1.1186
 1644SOL    HW216395   2.091   2.795   1.525  0.7224 -1.1567 -0.6558
 1645SOL     OW16396   1.222   3.948  14.893  0.0146 -0.0115  0.1822
 1645SOL    HW116397   1.308   3.917  14.864 -0.2190 -0.7404  0.2785
 1645SOL    HW216398   1.202   4.008  14.820 -1.9426 -0.7516  0.0995
 1646SOL     OW16399   2.051   1.229  15.200 -0.4479 -0.7272 -0.0424
 1646SOL    HW116400   2.014   1.221  15.112 -0.6705  0.8016 -0.0885
 1646SOL    HW216401   2.077   1.139  15.219  0.3387 -0.7545 -1.2309
 1647SOL     OW16402   3.366   0.558  14.959  0.1965 -0.0529  0.3709
 1647SOL    HW116403   3.449   0.530  14.997  0.1340  1.2204  1.4456
 1647SOL    HW216404   3.392   0.593  14.874 -1.3695  1.1497  0.3708
 1648SOL     OW16405   4.090   2.774  14.091  0.4972 -0.2664  0.4645
 1648SOL    HW116406   4.022   2.840  14.099 -1.0088 -1.2226 -4.7053
 1648SOL    HW216407   4.043   2.705  14.046 -0.2498  0.5944 -0.0518
 1649SOL     OW16408   1.654   3.028  14.548 -0.1183  0.1309  0.5869
 1649SOL    HW116409   1.621   3.063  14.466  0.1814  0.0620  0.4377
 1649SOL    HW216410   1.569   3.000  14.582 -1.3715  1.5875 -1.3662
 1650SOL     OW16411   2.519   1.685   8.817  0.0154 -0.5178 -0.3801
 1650SOL    HW116412   2.441   1.639   8.786  0.1897 -0.0564 -1.5072
 1650SOL    HW216413   2.565   1.617   8.866 -0.8007 -0.0369  1.0399
 1651SOL     OW16414   0.152   2.794   2.412  0.1476  0.0284 -0.2693
 1651SOL    HW116415   0.099   2.716   2.431 -0.0755  1.1107  3.5312
 1651SOL    HW216416   0.080   2.858   2.414 -0.9214 -1.2204  1.4509
 1652SOL     OW16417   3.876   4.685   7.360 -0.2649 -0.2252 -0.0323
 1652SOL    HW116418   3.889   4.654   7.271  4.5823 -0.6791  0.8247
 1652SOL    HW216419   3.935   0.039   7.365  1.3879 -1.3674 -2.2697
 1653SOL     OW16420   3.109   4.684   4.093 -0.6571  0.3749 -0.5229
 1653SOL    HW116421   3.046   4.625   4.051 -1.3660 -0.3258  1.5235
 1653SOL    HW216422   3.092   4.671   4.187 -0.7515 -0.7046 -0.6920
 1654SOL     OW16423   0.786   2.754  16.142  0.0126  0.0325  0.4807
 1654SOL    HW116424   0.843   2.677  16.141  1.6855  1.2586  0.1619
 1654SOL    HW216425   0.813   2.795  16.224 -0.9307  3.1509 -0.7821
 1655SOL     OW16426   3.578   3.752  16.131  0.0089 -0.0638 -0.3282
 1655SOL    HW116427   3.508   3.688  16.138 -2.1285  2.4872  1.5195
 1655SOL    HW216428   3.614   3.724  16.046 -0.1186 -0.7069 -0.1719
 1656SOL     OW16429   3.277   4.026   1.478 -0.1414 -0.2347  0.5650
 1656SOL    HW116430   3.291   4.046   1.385 -0.9563 -1.7235  0.1222
 1656SOL    HW216431   3.358   4.063   1.511 -1.3080  0.8267  2.2613
 1657SOL     OW16432   1.899   2.536   0.578  0.6411 -0.4668  0.2278
 1657SOL    HW116433   1.898   2.468   0.511 -1.2669  1.0361 -1.2894
 1657SOL    HW216434   1.808   2.566   0.573  1.1276  0.7679 -1.4890
 1658SOL     OW16435   2.077   3.042   5.406  0.8564 -0.0687 -0.1940
 1658SOL    HW116436   2.159   3.006   5.439 -0.3223 -0.8601  1.9319
 1658SOL    HW216437   2.090   3.031   5.312 -2.5621 -0.9772 -0.5665
 1659SOL     OW16438   0.199   3.785   1.213  0.0389 -0.3234 -0.2256
 1659SOL    HW116439   0.240   3.811   1.130 -2.1582 -0.8921 -1.4956
 1659SOL    HW216440   0.275   3.803   1.267 -1.0941  1.1417  0.8993
 1660SOL     OW16441   0.092   1.368   2.877 -1.2566  0.0844 -0.8786
 1660SOL    HW116442   0.063   1.435   2.815 -0.0656  1.7583  0.3596
 1660SOL    HW216443   0.169   1.404   2.922 -1.2622  0.8966 -1.5179
 1661SOL     OW16444   3.369   3.981   2.864 -0.0421  0.1188 -0.3992
 1661SOL    HW116445   3.366   3.898   2.817 -0.2580  0.4670 -0.9940
 1661SOL    HW216446   3.329   4.049   2.809 -0.7070  0.5858  0.6606
 1662SOL     OW16447   3.131   0.862   0.990 -0.3876  0.2872  0.1140
 1662SOL    HW116448   3.195   0.911   0.938 -0.7775 -1.4059 -2.0053
 1662SOL    HW216449   3.135   0.773   0.953  2.0126  1.2045 -1.8398
 1663SOL     OW16450   2.894   4.652   9.314  0.3795 -0.1159 -0.3843
 1663SOL    HW116451   2.810   4.668   9.356 -0.2702 -1.0153 -1.3411
 1663SOL    HW216452   2.956   4.703   9.366  0.0403 -1.9625  1.7884
 1664SOL     OW16453   3.585   2.863   3.367 -0.1382 -0.3341 -0.9093
 1664SOL    HW116454   3.674   2.829   3.376  0.6235  1.1575 -2.8542
 1664SOL    HW216455   3.600   2.914   3.288 -1.3723  2.6584  0.8103
 1665SOL     OW16456   1.376   2.839   6.338 -0.3457  0.1747 -0.2886
 1665SOL    HW116457   1.415   2.773   6.395  3.0522  0.4169 -2.2782
 1665SOL    HW216458   1.450   2.894   6.312  1.5775 -0.5385  3.6462
 1666SOL     OW16459   3.355   1.154   7.590 -0.1917  0.0361  0.1131
 1666SOL    HW116460   3.371   1.096   7.515  0.9980 -1.4293  1.5029
 1666SOL    HW216461   3.260   1.156   7.601 -0.4581 -3.3177 -1.6143
 1667SOL     OW16462   1.814   2.706   7.229 -0.1513 -0.2771 -0.6304
 1667SOL    HW116463   1.824   2.674   7.139  0.0923  2.3835 -1.5402
 1667SOL    HW216464   1.893   2.758   7.237  0.7519 -1.8099  0.3484
 1668SOL     OW16465   1.824   3.815   6.534 -0.2633 -0.1273 -0.0462
 1668SOL    HW116466   1.846   3.729   6.499 -0.0564 -0.7024  1.4973
 1668SOL    HW216467   1.908   3.843   6.570 -1.0928  1.2823  0.7625
 1669SOL     OW16468   4.049   3.404   5.186  0.5049 -0.1439 -0.2119
 1669SOL    HW116469   4.133   3.401   5.141  0.4933 -0.8524 -0.1885
 1669SOL    HW216470   4.058   3.347   5.263 -0.6852  0.5395  0.4317
 1670SOL     OW16471   2.268   3.056   7.161  0.0886  0.2807  0.5448
 1670SOL    HW116472   2.207   3.112   7.208 -0.1226 -0.8917  1.6762
 1670SOL    HW216473   2.328   3.020   7.227 -0.8191  1.0936  1.8134
 1671SOL     OW16474   3.709   4.508   0.973 -0.5665  0.2038  0.2436
 1671SOL    HW116475   3.747   4.498   0.886 -1.2051 -1.5037  0.1737
 1671SOL    HW216476   3.620   4.517   0.939  0.6515  0.4054 -2.9413
 1672SOL     OW16477   3.628   2.955   3.693 -0.1677  0.1721 -0.4463
 1672SOL    HW116478   3.684   2.971   3.770  1.9028 -0.4800 -1.8231
 1672SOL    HW216479   3.699   2.951   3.629 -0.5787 -4.2434 -0.6706
 1673SOL     OW16480   4.488   3.374   4.144  0.2418 -0.2251 -0.2224
 1673SOL    HW116481   4.490   3.406   4.234 -0.5978 -0.2651 -0.1922
 1673SOL    HW216482   4.400   3.383   4.106  0.3569 -2.1977 -0.9607
 1674SOL     OW16483   2.483   0.726  13.794 -0.3546 -0.5753  0.1673
 1674SOL    HW116484   2.444   0.810  13.817  2.9616  1.4276 -1.6389
 1674SOL    HW216485   2.492   0.746  13.701  0.9956  1.7874  0.8214
 1675SOL     OW16486   4.649   1.903   6.601  0.7117 -0.0699  0.8330
 1675SOL    HW116487   0.014   1.937   6.622  0.1524  0.4450  2.2717
 1675SOL    HW216488   4.667   1.827   6.544 -0.1116 -1.5855  2.5803
 1676SOL     OW16489   1.358   1.029   7.950 -0.0025 -0.0956 -0.3902
 1676SOL    HW116490   1.376   1.047   7.858  1.8193 -2.3251 -0.4645
 1676SOL    HW216491   1.281   1.085   7.961 -0.1513 -0.3775  0.0274
 1677SOL     OW16492   0.293   2.014  10.903  0.3079  0.2765 -0.2368
 1677SOL    HW116493   0.382   2.051  10.901  0.0896  0.9087  1.5295
 1677SOL    HW216494   0.314   1.923  10.923 -1.3919  0.5333  2.6716
 1678SOL     OW16495   0.636   1.341   7.168  0.6573  0.4181  0.4753
 1678SOL    HW116496   0.661   1.417   7.114  1.2314 -0.8835 -1.0732
 1678SOL    HW216497   0.574   1.308   7.103 -0.3140  0.9655  1.1229
 1679SOL     OW16498   0.057   3.962   7.453  0.0022  0.0036 -0.0075
 1679SOL    HW116499   0.002   3.891   7.420  2.2149 -0.5071 -2.5388
 1679SOL    HW216500   0.055   3.945   7.548  1.9990  1.1856  0.2498
 1680SOL     OW16501   1.903   2.750   2.862  0.4771  0.0820 -0.4915
 1680SOL    HW116502   1.885   2.700   2.783  0.4741 -1.6587  0.6079
 1680SOL    HW216503   1.819   2.796   2.862 -0.3601 -1.4644 -1.9632
 1681SOL     OW16504   2.010   1.511   3.379  0.2080 -0.4047  0.5443
 1681SOL    HW116505   2.081   1.541   3.322  0.6107  0.6398  1.5900
 1681SOL    HW216506   1.967   1.594   3.399 -0.5514 -0.5280 -0.6252
 1682SOL     OW16507   3.067   3.809   6.214 -0.3133 -0.7485  0.1823
 1682SOL    HW116508   3.087   3.848   6.129 -1.1639 -1.3129 -0.2862
 1682SOL    HW216509   3.108   3.723   6.222  1.6112  0.1907  0.3444
 1683SOL     OW16510   3.150   2.306   5.077 -0.6669 -0.0432 -0.6648
 1683SOL    HW116511   3.097   2.260   5.143 -0.0859  0.0303 -0.1496
 1683SOL    HW216512   3.134   2.398   5.100 -1.8964 -0.5887  0.7368
 1684SOL     OW16513   4.224   1.034   6.953  0.2988 -0.1531 -0.4200
 1684SOL    HW116514   4.212   0.956   7.008 -0.9229 -0.5215 -1.2021
 1684SOL    HW216515   4.250   1.092   7.024 -0.1120 -1.4260  0.7900
 1685SOL     OW16516   4.555   1.401   1.582  0.9385  0.0773  0.2289
 1685SOL    HW116517   4.515   1.471   1.531  0.7709 -0.0880  0.1317
 1685SOL    HW216518   4.483   1.339   1.594  1.2696 -1.2021 -4.3022
 1686SOL     OW16519   2.918   4.080   4.301 -0.3829 -0.2821  0.1533
 1686SOL    HW116520   2.851   4.065   4.367 -1.0145  1.2155 -0.1476
 1686SOL    HW216521   2.862   4.104   4.227 -1.7140 -2.4345  0.4757
 1687SOL     OW16522   1.599   2.651  11.491  0.6161 -0.2066 -0.5265
 1687SOL    HW116523   1.511   2.638  11.456  0.0219 -0.4469  1.0577
 1687SOL    HW216524   1.593   2.594  11.569  0.4583 -0.4620 -0.7260
 1688SOL     OW16525   0.780   3.094   3.652 -0.0775  0.7270 -0.3974
 1688SOL    HW116526   0.778   2.999   3.663 -1.0473  0.7369 -0.5101
 1688SOL    HW216527   0.777   3.100   3.557 -0.5739  3.1794 -0.2284
 1689SOL     OW16528   0.529   1.019   2.745 -0.1708  0.2549 -0.4337
 1689SOL    HW116529   0.474   0.962   2.692  0.0339 -0.4341  0.1006
 1689SOL    HW216530   0.562   1.076   2.675  2.8858  0.9908  1.5823
 1690SOL     OW16531   4.366   4.651   6.850  0.9218  0.2738  0.1908
 1690SOL    HW116532   4.349   4.610   6.766  0.0539 -0.8979  0.9340
 1690SOL    HW216533   4.432   4.718   6.830  1.4170  0.5502  2.7445
 1691SOL     OW16534   2.167   2.936   4.461  0.6466 -0.3815 -0.2086
 1691SOL    HW116535   2.101   2.867   4.468  1.3446 -0.9066  1.2159
 1691SOL    HW216536   2.215   2.900   4.387  1.9531  1.4740 -0.2572
 1692SOL     OW16537   1.926   2.274   5.784  0.0184  0.4053  0.0909
 1692SOL    HW116538   1.904   2.365   5.805 -0.2769  0.5138 -0.6810
 1692SOL    HW216539   1.856   2.251   5.722 -0.2696  0.9789  0.2057
 1693SOL     OW16540   2.234   4.283   3.689 -0.0525 -0.3352  0.0403
 1693SOL    HW116541   2.302   4.250   3.630  0.9143  0.3003  0.8081
 1693SOL    HW216542   2.160   4.228   3.662 -0.8081  0.7987 -0.1687
 1694SOL     OW16543   4.597   2.947   7.126  0.2223  0.1811 -0.4398
 1694SOL    HW116544   4.636   2.941   7.038 -0.4605  2.4466 -0.9066
 1694SOL    HW216545   4.599   2.853   7.141 -0.9787 -0.1060 -2.0000
 1695SOL     OW16546   1.382   0.256   6.044 -0.0056  0.1730  0.0400
 1695SOL    HW116547   1.416   0.247   6.134 -0.4248  0.4129  0.2211
 1695SOL    HW216548   1.390   0.351   6.034 -0.2546 -0.0388 -2.1225
 1696SOL     OW16549   3.061   1.012  16.933  0.3664 -0.1263  0.4255
 1696SOL    HW116550   3.067   1.042  17.024  0.3298  0.8270  0.1102
 1696SOL    HW216551   2.966   0.998  16.931  0.5042 -1.1536  0.7398
 1697SOL     OW16552   0.369   4.146   4.512  0.4745 -0.4017  0.1223
 1697SOL    HW116553   0.373   4.215   4.445 -1.7069  1.3554  1.8154
 1697SOL    HW216554   0.444   4.170   4.566  1.1606  1.8719 -1.8180
 1698SOL     OW16555   2.254   0.725   2.249 -0.0573 -0.0452  0.1335
 1698SOL    HW116556   2.263   0.809   2.293  0.0506  0.0875 -0.1415
 1698SOL    HW216557   2.174   0.723   2.196  1.0744 -2.9349 -1.4674
 1699SOL     OW16558   4.492   4.062   9.312 -0.9923 -0.2884  0.5830
 1699SOL    HW116559   4.519   4.138   9.262 -0.1193 -0.2220  1.1768
 1699SOL    HW216560   4.533   4.077   9.396 -0.6151  2.7966 -0.1691
 1700SOL     OW16561   4.602   0.379   9.387  0.7631  0.4802 -0.1057
 1700SOL    HW116562   4.553   0.442   9.438 -0.3647  0.7785 -1.5528
 1700SOL    HW216563   4.606   0.418   9.300 -0.3928  2.4817  0.7381
 1701SOL     OW16564   3.066   2.984   3.245  1.1613  0.1763  0.0404
 1701SOL    HW116565   3.014   3.014   3.320  0.0719 -0.1172 -0.6043
 1701SOL    HW216566   3.009   2.992   3.169 -1.3959 -2.6191  1.6733
 1702SOL     OW16567   0.307   0.367   6.729 -0.2820  0.0218  0.1569
 1702SOL    HW116568   0.278   0.351   6.818  1.3421  1.1454  0.8993
 1702SOL    HW216569   0.322   0.277   6.701 -0.5872 -0.5598  1.8977
 1703SOL     OW16570   2.580   3.513   2.086 -0.0220  0.1369 -0.8205
 1703SOL    HW116571   2.523   3.510   2.163  1.4583 -0.6874  0.2437
 1703SOL    HW216572   2.527   3.559   2.021 -1.8397  2.1096  2.0363
 1704SOL     OW16573   0.980   4.561  12.851  0.2058 -0.4934 -0.2791
 1704SOL    HW116574   1.046   4.524  12.793  0.2715  0.5709 -0.8973
 1704SOL    HW216575   0.908   4.498  12.844  0.1918 -0.3431 -1.5761
 1705SOL     OW16576   3.601   0.435  14.990 -0.2386  0.0742  0.1418
 1705SOL    HW116577   3.668   0.502  15.002 -0.6106  0.7649 -1.6607
 1705SOL    HW216578   3.639   0.378  14.924  0.9158 -0.5821  1.3749
 1706SOL     OW16579   2.382   3.270   2.350 -0.4043  0.0990 -0.4223
 1706SOL    HW116580   2.338   3.348   2.384  1.1085  0.7450  0.0360
 1706SOL    HW216581   2.359   3.272   2.257 -1.9381 -0.2856 -0.0501
 1707SOL     OW16582   1.578   3.510  15.803  0.0930  0.0771  0.0952
 1707SOL    HW116583   1.611   3.470  15.723 -0.9938  1.2092 -0.9277
 1707SOL    HW216584   1.638   3.583  15.817  0.9713  0.0079 -3.3601
 1708SOL     OW16585   0.645   4.212   2.122 -0.1350 -0.0831 -0.2379
 1708SOL    HW116586   0.680   4.129   2.090 -0.0961 -0.6320  1.2430
 1708SOL    HW216587   0.725   4.253   2.156  0.0547 -0.9641  0.3845
 1709SOL     OW16588   3.503   0.845   1.672 -0.0067 -0.8570 -0.1430
 1709SOL    HW116589   3.418   0.867   1.710  0.7995  0.3386  0.9653
 1709SOL    HW216590   3.539   0.933   1.665 -0.1314 -0.8674 -0.9825
 1710SOL     OW16591   2.934   2.215   5.731 -0.9485  0.3254  0.2617
 1710SOL    HW116592   2.942   2.262   5.648 -1.1244 -0.3340 -0.1244
 1710SOL    HW216593   2.895   2.129   5.712  0.0310 -0.8003  3.2406
 1711SOL     OW16594   2.956   2.680   3.167  0.4242 -0.0125  0.6842
 1711SOL    HW116595   3.031   2.647   3.217  1.5102  0.0350 -0.9109
 1711SOL    HW216596   2.891   2.664   3.236 -0.6885  1.1384 -0.0924
 1712SOL     OW16597   0.949   1.440   0.844 -0.4735  0.3701  0.4276
 1712SOL    HW116598   0.909   1.360   0.812 -0.0419  0.1352  0.4720
 1712SOL    HW216599   1.026   1.405   0.888  0.4228  2.3777  0.4967
 1713SOL     OW16600   4.258   1.657   1.990 -0.5729  0.0109  0.2661
 1713SOL    HW116601   4.243   1.750   2.010  1.7873  0.0878  1.7409
 1713SOL    HW216602   4.350   1.662   1.966 -0.4635 -1.7787  0.3436
 1714SOL     OW16603   3.221   3.273  12.983 -0.5513 -0.3519 -0.4683
 1714SOL    HW116604   3.240   3.333  12.911 -0.9829  0.9208  0.4748
 1714SOL    HW216605   3.199   3.195  12.932  1.2565  0.7483 -2.9660
 1715SOL     OW16606   4.612   2.284   8.327 -0.7076  0.3222  0.2555
 1715SOL    HW116607   4.706   2.299   8.338 -0.2082 -1.2637 -1.8973
 1715SOL    HW216608   4.583   2.258   8.415 -0.1391 -1.9443 -0.2083
 1716SOL     OW16609   3.019   3.525   9.955  0.8551  0.0563 -0.4625
 1716SOL    HW116610   3.056   3.496   9.871  0.1128 -0.6577 -0.5470
 1716SOL    HW216611   2.938   3.474   9.964  1.0038  0.1189  1.2729
 1717SOL     OW16612   0.331   2.286   8.534 -0.1939  0.3203 -0.5306
 1717SOL    HW116613   0.283   2.217   8.579 -2.3685  0.7805 -2.1089
 1717SOL    HW216614   0.316   2.355   8.598 -1.2665 -1.9767  1.7067
 1718SOL     OW16615   1.965   1.956  10.541 -0.4487 -0.1069  0.5615
 1718SOL    HW116616   1.992   2.005  10.463  1.7430  1.7502  2.4952
 1718SOL    HW216617   1.979   1.866  10.511  1.2644 -0.0040  1.0412
 1719SOL     OW16618   0.362   4.055   8.420  0.7152 -0.3592 -0.4033
 1719SOL    HW116619   0.317   4.020   8.343  0.8094  1.1729 -1.1717
 1719SOL    HW216620   0.428   4.117   8.387  0.1383  0.6861  0.4019
 1720SOL     OW16621   2.920   3.628  13.490  0.5489  0.0639  0.4109
 1720SOL    HW116622   2.966   3.659  13.568 -0.2473 -0.8489  1.2416
 1720SOL    HW216623   2.961   3.542  13.481  1.4842  0.4951  0.5382
 1721SOL     OW16624   1.466   2.868  17.166 -0.4105  0.3363  0.0861
 1721SOL    HW116625   1.400   2.876  17.235  0.5399  0.0335  1.0306
 1721SOL    HW216626   1.445   2.943  17.110 -3.1908 -1.8032 -1.7447
 1722SOL     OW16627   4.291   0.211   9.266  0.0029  1.0437  0.5513
 1722SOL    HW116628   4.316   0.126   9.229 -1.2250  0.3754  1.2484
 1722SOL    HW216629   4.327   0.274   9.203  2.0826 -0.4055  0.3015
 1723SOL     OW16630   3.182   1.483   5.189 -0.6733  0.2020 -0.1191
 1723SOL    HW116631   3.181   1.564   5.241  0.5052 -1.6333  2.7764
 1723SOL    HW216632   3.262   1.499   5.140  0.0374 -2.0274  0.3368
 1724SOL     OW16633   3.628   3.679  17.025 -0.1430 -0.5291  0.2804
 1724SOL    HW116634   3.535   3.687  17.007 -0.1750 -1.1239  0.1738
 1724SOL    HW216635   3.653   3.626  16.949 -0.9747  0.0406 -0.3778
 1725SOL     OW16636   0.786   2.482  15.144 -0.2854 -0.2205  0.4163
 1725SOL    HW116637   0.815   2.446  15.228 -1.7604 -0.2542  0.9133
 1725SOL    HW216638   0.869   2.490  15.097  1.0800 -0.9092  2.6614
 1726SOL     OW16639   4.320   2.805  10.055  0.4807  0.0005  0.3328
 1726SOL    HW116640   4.305   2.856   9.975  0.4673  2.1789  1.7293
 1726SOL    HW216641   4.273   2.725  10.030  0.3457 -0.2078  1.2626
 1727SOL     OW16642   4.310   1.156   3.219  0.2527  0.0281 -0.2789
 1727SOL    HW116643   4.287   1.102   3.295  0.0990 -0.0928 -0.4109
 1727SOL    HW216644   4.310   1.091   3.149  2.0544  0.6305 -0.8303
 1728SOL     OW16645   1.449   4.030   2.285 -0.0245 -0.0419  0.2296
 1728SOL    HW116646   1.533   4.062   2.320 -0.8196  2.0790  0.2264
 1728SOL    HW216647   1.475   4.005   2.197 -2.3826 -1.6537  0.0175
 1729SOL     OW16648   4.332   2.247  13.807  0.0266  0.3793 -0.1642
 1729SOL    HW116649   4.279   2.253  13.728  0.0872 -0.7014 -0.2915
 1729SOL    HW216650   4.281   2.302  13.866 -2.3695 -0.1869 -1.7329
 1730SOL     OW16651   0.640   0.348   3.362 -0.0102  0.0685  0.0493
 1730SOL    HW116652   0.549   0.368   3.340 -0.2605  0.2840  1.2311
 1730SOL    HW216653   0.640   0.388   3.450 -0.8303  0.6897 -0.2285
 1731SOL     OW16654   3.971   3.428   8.716 -0.2218  0.3799 -0.5556
 1731SOL    HW116655   3.914   3.354   8.738  1.3833 -0.3265  1.2096
 1731SOL    HW216656   4.016   3.428   8.800  0.1301 -2.3767 -0.7376
 1732SOL     OW16657   3.351   2.759   5.519  0.3232  0.2199 -0.7544
 1732SOL    HW116658   3.361   2.742   5.612  1.6231 -0.0343 -0.9404
 1732SOL    HW216659   3.299   2.838   5.520 -0.2181 -0.1383 -0.7579
 1733SOL     OW16660   2.848   3.118   8.647  0.5982  0.0446 -0.2133
 1733SOL    HW116661   2.814   3.197   8.605  0.3399  0.3437  0.5614
 1733SOL    HW216662   2.792   3.119   8.725 -1.1487 -4.8836 -1.3942
 1734SOL     OW16663   4.577   3.425  16.083 -0.2788 -0.1739 -0.3879
 1734SOL    HW116664   4.666   3.416  16.049  0.5125  2.2186  1.0768
 1734SOL    HW216665   4.532   3.357  16.032  0.5215 -0.9977 -0.0057
 1735SOL     OW16666   0.504   0.002   4.699 -0.0752 -0.8276 -0.0078
 1735SOL    HW116667   0.513   4.636   4.661  0.5884  0.3159 -2.4944
 1735SOL    HW216668   0.531   4.706   4.789  1.7331 -0.2420 -0.4219
 1736SOL     OW16669   4.714   1.407   1.788 -0.0869 -0.2763 -0.4582
 1736SOL    HW116670   0.079   1.388   1.750  0.4265  0.7590  0.1906
 1736SOL    HW216671   4.653   1.364   1.729 -0.5537 -1.6561  1.0262
 1737SOL     OW16672   3.530   2.789   5.938 -0.3729  0.4277 -0.7505
 1737SOL    HW116673   3.516   2.801   6.032  1.3780  0.4933 -0.4825
 1737SOL    HW216674   3.576   2.705   5.946  1.2552  1.4083  0.0900
 1738SOL     OW16675   3.199   3.461  13.199  0.0588  0.7506  0.1530
 1738SOL    HW116676   3.254   3.525  13.155 -2.6937  3.0891  0.1387
 1738SOL    HW216677   3.190   3.401  13.125  0.1939 -1.7954  2.1966
 1739SOL     OW16678   4.488   4.636   0.243  0.4136  0.7130  0.0270
 1739SOL    HW116679   4.422   4.590   0.192  0.4145 -0.9018  1.4772
 1739SOL    HW216680   4.463   4.621   0.334  0.3331  1.5049  0.1385
 1740SOL     OW16681   4.109   3.098   1.370  0.5922 -0.2376  0.1442
 1740SOL    HW116682   4.143   3.186   1.386  0.1397 -0.0773  0.2428
 1740SOL    HW216683   4.050   3.094   1.446 -1.2894 -3.7414 -1.4887
 1741SOL     OW16684   4.176   0.257   7.572 -0.2111 -0.2169 -0.0295
 1741SOL    HW116685   4.153   0.246   7.479  2.3265  0.2950 -0.7193
 1741SOL    HW216686   4.268   0.280   7.560 -0.1700  0.0133  0.7554
 1742SOL     OW16687   1.350   0.108   7.388  0.3417 -0.1409  0.5752
 1742SOL    HW116688   1.288   0.043   7.422 -0.8569  1.4931  1.5187
 1742SOL    HW216689   1.386   0.050   7.321  2.1957 -0.8041  2.1617
 1743SOL     OW16690   1.925   4.657   4.796  0.4114  0.6527 -0.4973
 1743SOL    HW116691   2.002   4.659   4.853  1.4375 -0.7612 -1.8020
 1743SOL    HW216692   1.959   4.682   4.710  2.6269  0.0115  0.1836
 1744SOL     OW16693   1.991   3.725   5.485 -0.0360  0.8208 -0.2261
 1744SOL    HW116694   2.020   3.728   5.394 -0.2857  1.8248 -0.2747
 1744SOL    HW216695   1.938   3.804   5.494  2.4948  2.7671 -2.4057
 1745SOL     OW16696   1.593   3.462   3.432  0.2138 -0.2207  0.0826
 1745SOL    HW116697   1.621   3.492   3.346 -2.3880 -0.2807 -0.7919
 1745SOL    HW216698   1.510   3.510   3.438  0.5317  0.2864  0.3836
 1746SOL     OW16699   2.074   2.739   4.662  0.4325  0.4667 -0.3962
 1746SOL    HW116700   2.004   2.804   4.668  2.1342  2.3516 -1.0705
 1746SOL    HW216701   2.033   2.680   4.599  1.2670 -0.0085 -0.5064
 1747SOL     OW16702   3.746   4.274  15.533  0.6688  0.2794 -0.7072
 1747SOL    HW116703   3.769   4.203  15.473  1.9615 -1.8978  2.3857
 1747SOL    HW216704   3.651   4.281  15.519  0.3026 -3.8348 -0.2976
 1748SOL     OW16705   3.957   4.188   5.463  0.0036  0.7138  0.1981
 1748SOL    HW116706   3.999   4.107   5.492 -0.0949  1.0231  1.2333
 1748SOL    HW216707   3.958   4.167   5.370 -0.8650  0.3864  0.2678
 1749SOL     OW16708   3.591   4.701   8.923 -0.2462  0.3451 -0.4640
 1749SOL    HW116709   3.611   0.048   8.987 -0.3566  0.0696 -0.1344
 1749SOL    HW216710   3.679   4.676   8.895 -1.3236 -2.0799 -1.6298
 1750SOL     OW16711   1.586   0.755   3.144  0.1810 -0.0744 -0.7929
 1750SOL    HW116712   1.677   0.785   3.155  0.0968  0.2449 -0.9527
 1750SOL    HW216713   1.548   0.829   3.097 -1.7024 -0.4706  0.1120
 1751SOL     OW16714   4.290   0.480   8.683 -0.4790  0.6142 -0.1315
 1751SOL    HW116715   4.334   0.456   8.602 -0.5302 -3.0672  0.9373
 1751SOL    HW216716   4.200   0.494   8.654 -0.3060  0.6314 -0.6465
 1752SOL     OW16717   2.499   3.081  12.729 -0.4882  0.1012 -0.4467
 1752SOL    HW116718   2.446   3.058  12.805 -1.1673  2.1170 -0.3236
 1752SOL    HW216719   2.558   3.006  12.719 -0.0589  0.0913  2.4104
 1753SOL     OW16720   3.636   0.507   4.997 -0.0865 -0.2931 -0.3281
 1753SOL    HW116721   3.686   0.489   5.076 -1.6305 -0.5780  0.5630
 1753SOL    HW216722   3.674   0.590   4.966  1.2367 -1.0106 -0.6378
 1754SOL     OW16723   0.058   1.846   8.658 -0.1667  0.1883 -0.1706
 1754SOL    HW116724   0.060   1.783   8.729 -0.5103  1.3146  0.8387
 1754SOL    HW216725   0.026   1.917   8.713 -0.1737  0.1828 -0.1675
 1755SOL     OW16726   2.798   1.286   1.864 -0.0322 -0.2695 -0.5197
 1755SOL    HW116727   2.774   1.258   1.952  0.4309  2.2462  0.4057
 1755SOL    HW216728   2.738   1.360   1.849  0.2437  0.2981  1.2442
 1756SOL     OW16729   4.684   3.782   3.457 -0.3824 -0.3614 -0.1429
 1756SOL    HW116730   0.014   3.808   3.381 -2.0182  1.4923 -0.6260
 1756SOL    HW216731   4.712   3.691   3.465  1.3325  0.3481  1.6740
 1757SOL     OW16732   4.514   2.212   1.488  0.1398 -0.2361  0.1222
 1757SOL    HW116733   4.504   2.176   1.400  1.9352  2.8804 -1.3367
 1757SOL    HW216734   4.588   2.160   1.519  1.7303  0.4640 -2.5767
 1758SOL     OW16735   2.843   2.553   3.889 -0.1285  0.5459  0.3454
 1758SOL    HW116736   2.930   2.537   3.853 -0.0975  3.0525 -0.6945
 1758SOL    HW216737   2.871   2.593   3.971  2.5501 -3.0018  1.1359
 1759SOL     OW16738   0.775   2.060   9.938  0.7257  0.4364  0.1451
 1759SOL    HW116739   0.848   2.081   9.996  1.0573 -3.0585  0.9455
 1759SOL    HW216740   0.816   2.016   9.863  2.1098 -1.8051  2.2478
 1760SOL     OW16741   3.634   2.431   4.151 -0.0285 -0.4788 -0.3001
 1760SOL    HW116742   3.567   2.446   4.219 -0.2952  2.6317 -1.2588
 1760SOL    HW216743   3.662   2.521   4.140 -3.0942  0.1209 -3.2909
 1761SOL     OW16744   4.132   0.516   5.038  0.3377 -0.1780  0.1785
 1761SOL    HW116745   4.104   0.482   4.953 -0.0104  0.2623  0.1219
 1761SOL    HW216746   4.152   0.434   5.084  0.1834 -1.1669 -1.5014
 1762SOL     OW16747   1.340   1.404   3.721 -0.2815 -0.0756  0.1747
 1762SOL    HW116748   1.269   1.357   3.676  0.7003 -2.0752  0.7357
 1762SOL    HW216749   1.403   1.334   3.739 -0.2488  0.3131  1.5801
 1763SOL     OW16750   2.680   2.161  10.473 -0.4718 -0.4148  0.1686
 1763SOL    HW116751   2.615   2.186  10.539 -2.4226  0.0229 -1.8753
 1763SOL    HW216752   2.618   2.143  10.402 -0.1313  0.2748 -0.2991
 1764SOL     OW16753   2.322   0.593  15.230  0.2859 -0.3397  0.3810
 1764SOL    HW116754   2.330   0.526  15.162 -0.6496  0.8231 -0.8551
 1764SOL    HW216755   2.273   0.661  15.185  0.7465  0.0853  0.5238
 1765SOL     OW16756   1.644   4.280   0.831  0.1406  0.6541  0.4980
 1765SOL    HW116757   1.686   4.193   0.834  0.3851  0.7873  0.9794
 1765SOL    HW216758   1.723   4.329   0.852 -1.2021  1.6434  3.2018
 1766SOL     OW16759   0.523   2.362   4.508  0.7497  0.3023  0.0917
 1766SOL    HW116760   0.566   2.311   4.577 -3.0409 -0.2858  2.0190
 1766SOL    HW216761   0.536   2.299   4.437  1.5849 -1.2662  1.6177
 1767SOL     OW16762   4.323   0.049   4.128 -0.1764 -0.1669  0.0078
 1767SOL    HW116763   4.327   4.695   4.070 -1.5832  0.6095 -1.0833
 1767SOL    HW216764   4.261   0.106   4.084 -1.0786 -1.9194 -0.9820
 1768SOL     OW16765   4.092   1.403   2.399  0.4017 -0.1167 -0.4584
 1768SOL    HW116766   4.091   1.456   2.319  1.2487  1.1238  0.3693
 1768SOL    HW216767   4.178   1.364   2.380  1.2041  1.1130  0.7036
 1769SOL     OW16768   3.386   2.515   5.392  0.5029  0.2802 -0.5469
 1769SOL    HW116769   3.377   2.593   5.447 -2.1407 -0.9965  0.8555
 1769SOL    HW216770   3.339   2.547   5.314  1.0603 -1.0322 -1.4226
 1770SOL     OW16771   1.912   3.205   8.208 -0.5188  0.3785 -0.1182
 1770SOL    HW116772   1.853   3.130   8.212  0.7174 -0.4961  1.6095
 1770SOL    HW216773   1.865   3.283   8.239 -2.4401 -1.3765  1.3860
 1771SOL     OW16774   0.414   3.342  14.654 -0.4806 -0.1679  0.3296
 1771SOL    HW116775   0.475   3.395  14.706  0.3742 -0.7135 -0.1220
 1771SOL    HW216776   0.472   3.266  14.650 -0.8378 -0.4478  0.5589
 1772SOL     OW16777   2.902   2.975  10.717 -0.1096 -0.3324  0.4746
 1772SOL    HW116778   2.978   3.022  10.752  0.6485 -2.0231  1.0940
 1772SOL    HW216779   2.943   2.917  10.653 -0.5495 -1.6155  1.3496
 1773SOL     OW16780   2.977   3.289   0.439  0.1543 -0.2518 -0.4694
 1773SOL    HW116781   3.025   3.349   0.496 -0.5659  0.6319 -0.7964
 1773SOL    HW216782   2.980   3.343   0.360 -0.1886  1.6247  0.7844
 1774SOL     OW16783   2.904   1.102   4.721  0.1134 -0.4642 -0.4031
 1774SOL    HW116784   2.950   1.177   4.683  3.4053 -2.8645 -1.1333
 1774SOL    HW216785   2.937   1.023   4.679 -0.2295  0.7793 -3.0241
 1775SOL     OW16786   2.525   4.441   4.095 -1.1346 -0.0316 -0.5786
 1775SOL    HW116787   2.491   4.357   4.125  1.7113 -0.2243  2.0936
 1775SOL    HW216788   2.493   4.436   4.005 -1.5307  1.3924 -0.5189
 1776SOL     OW16789   2.346   3.017  13.921  0.1347  0.1345  0.1281
 1776SOL    HW116790   2.333   3.102  13.879  0.1228 -0.5243 -1.1953
 1776SOL    HW216791   2.261   2.973  13.924  0.7828 -1.3462 -3.0965
 1777SOL     OW16792   2.337   2.612   6.173  0.1572  0.2566  0.0362
 1777SOL    HW116793   2.390   2.686   6.203  2.1189 -1.0992 -0.1055
 1777SOL    HW216794   2.405   2.545   6.184  0.4569  0.9606  2.4076
 1778SOL     OW16795   4.614   3.897   5.763 -0.4158  0.2971 -0.2388
 1778SOL    HW116796   4.588   3.824   5.706 -0.5581 -0.1548  0.4086
 1778SOL    HW216797   4.689   3.940   5.721 -0.1951 -0.8507 -1.0227
 1779SOL     OW16798   4.527   3.639  16.950 -0.5610 -0.2508  0.1306
 1779SOL    HW116799   4.566   3.552  16.948  1.3378  0.6439 -0.9871
 1779SOL    HW216800   4.586   3.682  16.889  1.6962 -0.7757  1.9406
 1780SOL     OW16801   1.550   0.793   4.401 -0.1575  0.2399 -0.1181
 1780SOL    HW116802   1.616   0.755   4.344  0.3850  2.8159 -1.2523
 1780SOL    HW216803   1.499   0.837   4.332  2.0376 -0.4303 -2.1570
 1781SOL     OW16804   0.259   2.510   8.674 -0.1320 -0.0221  0.0554
 1781SOL    HW116805   0.209   2.456   8.736 -0.3160  0.1251  0.0363
 1781SOL    HW216806   0.183   2.521   8.617  1.0996 -1.5770 -1.8537
 1782SOL     OW16807   3.121   0.116   4.667 -0.5482 -0.7593 -0.1551
 1782SOL    HW116808   3.153   0.037   4.711 -0.1436 -1.5704 -1.8913
 1782SOL    HW216809   3.205   0.156   4.643  1.6680 -4.6883  0.8388
 1783SOL     OW16810   3.524   2.796   9.656 -0.5711  0.2132  0.5731
 1783SOL    HW116811   3.600   2.823   9.605  0.4115  0.4631  2.1686
 1783SOL    HW216812   3.538   2.701   9.653  0.3580  0.3705 -0.0189
 1784SOL     OW16813   2.410   4.652  15.920  0.7396 -0.1591  0.4866
 1784SOL    HW116814   2.327   4.642  15.968  0.5426 -0.6100  0.0504
 1784SOL    HW216815   2.406   0.025  15.904 -0.7078 -0.5531 -1.4856
 1785SOL     OW16816   2.854   0.499  14.785 -0.0664  0.3123  0.2787
 1785SOL    HW116817   2.916   0.569  14.807 -0.2995  0.1085  1.6202
 1785SOL    HW216818   2.900   0.423  14.822 -0.4298 -0.4878 -0.9067
 1786SOL     OW16819   4.384   4.373   8.127 -0.6750  0.2711 -0.2292
 1786SOL    HW116820   4.448   4.410   8.188 -0.1971 -2.2474  0.7752
 1786SOL    HW216821   4.389   4.281   8.152 -1.9666  0.2685  0.0039
 1787SOL     OW16822   3.328   2.553  17.634  0.4412 -0.8540  0.0178
 1787SOL    HW116823   3.358   2.644  17.640 -1.2873 -0.2974  0.2310
 1787SOL    HW216824   3.413   2.511  17.619  0.8651  0.4192 -1.1368
 1788SOL     OW16825   4.623   0.081   5.712 -0.3655 -0.7389  0.2781
 1788SOL    HW116826   4.667   0.043   5.788  2.2242 -0.2143 -0.9749
 1788SOL    HW216827   4.696   0.135   5.683 -0.4814  0.0281  1.4157
 1789SOL     OW16828   1.586   1.310   0.912 -0.6324 -0.2318  0.0442
 1789SOL    HW116829   1.522   1.279   0.977 -0.8659  0.8598  0.3408
 1789SOL    HW216830   1.663   1.286   0.964  0.4773  2.8797 -0.1409
 1790SOL     OW16831   4.068   1.365  13.657  0.1168  0.5073 -0.0514
 1790SOL    HW116832   4.090   1.279  13.621  0.0995  0.3771  0.2472
 1790SOL    HW216833   3.976   1.369  13.629  0.8053  0.7536 -2.2194
 1791SOL     OW16834   0.624   3.419  16.811  0.3745  0.7185  0.2510
 1791SOL    HW116835   0.624   3.513  16.796 -2.1191  0.7614  0.6635
 1791SOL    HW216836   0.693   3.419  16.878 -0.5448 -1.0967  1.2108
 1792SOL     OW16837   1.928   0.591   5.716  0.2909  0.9001  0.1622
 1792SOL    HW116838   1.945   0.576   5.810  1.7453  0.2716 -0.1940
 1792SOL    HW216839   1.869   0.516   5.708  1.2420  0.2197 -0.4597
 1793SOL     OW16840   0.329   4.122   6.537  0.4227  0.4426 -0.2106
 1793SOL    HW116841   0.267   4.152   6.470 -0.6568  0.2517  0.6912
 1793SOL    HW216842   0.346   4.206   6.580 -1.8166  1.1830 -0.7795
 1794SOL     OW16843   2.674   1.197  15.771  0.1218  0.7746 -0.5834
 1794SOL    HW116844   2.659   1.272  15.713  0.6428  0.3859 -1.2136
 1794SOL    HW216845   2.586   1.159  15.779 -0.9977  3.0718 -1.8460
 1795SOL     OW16846   0.239   2.856  11.215  0.1897 -0.0572  0.6130
 1795SOL    HW116847   0.192   2.803  11.279 -1.4656 -0.0321 -0.5725
 1795SOL    HW216848   0.173   2.924  11.204  0.4541 -0.1949 -1.8551
 1796SOL     OW16849   2.702   1.017  11.924  0.1271 -0.4502  0.1466
 1796SOL    HW116850   2.726   1.028  11.832 -0.6685  2.2728  0.2622
 1796SOL    HW216851   2.749   0.937  11.946  0.9221 -0.0340 -0.0353
 1797SOL     OW16852   2.234   2.752  12.548 -0.8208  0.1043 -0.1498
 1797SOL    HW116853   2.143   2.735  12.574 -0.8970  1.2171  0.3504
 1797SOL    HW216854   2.231   2.822  12.482 -1.7008  0.5643  0.3726
 1798SOL     OW16855   4.688   1.530   3.355 -0.2888 -0.3697  0.3436
 1798SOL    HW116856   0.012   1.554   3.274 -0.2630  0.9469  0.7312
 1798SOL    HW216857   4.630   1.464   3.318  0.7694  0.5165 -2.9600
 1799SOL     OW16858   2.268   0.575   8.482 -0.2906  0.0641  0.1371
 1799SOL    HW116859   2.287   0.501   8.424 -0.3673  0.4793 -0.4203
 1799SOL    HW216860   2.275   0.541   8.571 -0.7444  0.8663  0.4818
 1800SOL     OW16861   1.180   2.456   7.112 -0.4153  0.0882  0.0896
 1800SOL    HW116862   1.096   2.462   7.158 -0.1990  1.4432  0.3069
 1800SOL    HW216863   1.196   2.550   7.102 -1.4505  0.3425  0.7608
 1801SOL     OW16864   3.381   4.403   5.957  0.8082 -0.5096 -0.4197
 1801SOL    HW116865   3.346   4.491   5.940 -0.7106 -0.6929  1.7325
 1801SOL    HW216866   3.333   4.355   5.890 -0.8272  1.2601 -0.5129
 1802SOL     OW16867   0.081   1.969   5.591 -0.0621  0.7691 -0.1740
 1802SOL    HW116868   0.007   1.924   5.550 -0.8537  1.0547  0.9250
 1802SOL    HW216869   0.040   1.986   5.676  0.8543  0.0901  0.4071
 1803SOL     OW16870   0.341   1.501   5.325  0.1991 -0.0662 -0.1924
 1803SOL    HW116871   0.255   1.485   5.364  0.2778  0.7639  0.3233
 1803SOL    HW216872   0.407   1.513   5.394 -0.4147 -1.1879  0.5868
 1804SOL     OW16873   1.568   0.362   3.268 -0.6473  0.3392  0.2002
 1804SOL    HW116874   1.549   0.272   3.240 -1.6771  0.9592 -1.1166
 1804SOL    HW216875   1.609   0.407   3.194  1.7667  0.9352  1.9029
 1805SOL     OW16876   4.670   2.547   6.349  0.1852 -0.3089 -0.6931
 1805SOL    HW116877   4.656   2.467   6.400  2.3713 -0.6777 -0.6461
 1805SOL    HW216878   0.001   2.499   6.284 -2.8870 -0.5484 -2.9735
 1806SOL     OW16879   2.211   0.586   1.502  0.2152 -0.0743  1.0698
 1806SOL    HW116880   2.293   0.632   1.517  0.1695  0.2361  0.3749
 1806SOL    HW216881   2.145   0.634   1.552 -1.9976 -0.6643 -1.2535
 1807SOL     OW16882   2.844   1.714   3.734  0.2643 -0.1747 -0.4017
 1807SOL    HW116883   2.793   1.757   3.666 -1.5867  0.5659  1.4619
 1807SOL    HW216884   2.812   1.627   3.714 -1.2396 -0.2279  2.2361
 1808SOL     OW16885   0.496   4.619   4.954  0.4291 -0.1338 -0.3700
 1808SOL    HW116886   0.557   4.546   4.946  0.4386 -0.0541 -1.0241
 1808SOL    HW216887   0.531   4.642   5.040  0.3325  1.8494 -0.8593
 1809SOL     OW16888   0.248   1.878   5.104 -0.0809 -0.4092  0.0984
 1809SOL    HW116889   0.253   1.821   5.181 -1.5623 -1.2261 -0.4140
 1809SOL    HW216890   0.163   1.860   5.065  0.6407 -2.5696 -0.5050
 1810SOL     OW16891   2.556   0.261   7.390  0.7718  0.0980 -0.4185
 1810SOL    HW116892   2.581   0.227   7.304  0.5041 -0.4167 -0.2909
 1810SOL    HW216893   2.591   0.349   7.379 -1.4047  1.2510  1.7163
 1811SOL     OW16894   4.555   2.518  17.522  0.5231  0.1358 -0.0425
 1811SOL    HW116895   4.593   2.473  17.447 -0.4277 -0.7959  0.0369
 1811SOL    HW216896   4.616   2.590  17.538  0.1552  0.3097  0.5882
 1812SOL     OW16897   4.310   1.870   6.114  0.5617 -0.2156  0.1238
 1812SOL    HW116898   4.402   1.853   6.137  0.3564 -1.2500  0.1692
 1812SOL    HW216899   4.308   1.937   6.046 -0.7281  2.1629  2.5136
 1813SOL     OW16900   3.671   2.638   8.649  0.2390  0.1397  0.3190
 1813SOL    HW116901   3.719   2.657   8.730 -0.2152 -1.6382  1.0030
 1813SOL    HW216902   3.606   2.577   8.683  0.8667 -0.1375  1.0301
 1814SOL     OW16903   2.740   0.002   0.643  0.0123  0.0550  0.0308
 1814SOL    HW116904   2.783   0.006   0.729  0.0740 -2.9901  0.1498
 1814SOL    HW216905   2.675   4.656   0.664  1.3616 -1.0814  0.6091
 1815SOL     OW16906   0.847   1.342   4.271 -0.6439 -0.2757  0.3366
 1815SOL    HW116907   0.895   1.349   4.353  1.8457  0.5887 -1.2152
 1815SOL    HW216908   0.907   1.298   4.211  2.1618 -0.1216  3.0622
 1816SOL     OW16909   2.613   0.965   2.444 -0.0387 -0.0959 -0.3114
 1816SOL    HW116910   2.578   1.053   2.460 -0.9804 -0.6649  0.8164
 1816SOL    HW216911   2.706   0.977   2.463 -0.2519  0.8144  0.1269
 1817SOL     OW16912   2.903   1.855   8.211 -0.2367  0.8173 -0.1839
 1817SOL    HW116913   2.858   1.874   8.293  0.1833  2.9590 -0.4690
 1817SOL    HW216914   2.895   1.944   8.177 -0.3616  1.0332  0.4119
 1818SOL     OW16915   2.482   0.252  14.114 -0.0760  0.1494 -0.3526
 1818SOL    HW116916   2.494   0.186  14.046 -2.3939 -0.8105  0.1774
 1818SOL    HW216917   2.545   0.318  14.085  0.9518 -1.4310 -1.7227
 1819SOL     OW16918   4.000   3.674  17.287 -0.6563 -1.1058 -0.1482
 1819SOL    HW116919   4.061   3.625  17.344  1.3317  0.1611 -1.1786
 1819SOL    HW216920   4.055   3.752  17.284 -2.4720  0.2154  1.1411
 1820SOL     OW16921   1.614   3.462   7.557  0.1072 -0.4732 -0.2413
 1820SOL    HW116922   1.604   3.557   7.561 -0.2183 -0.4893 -0.7003
 1820SOL    HW216923   1.679   3.445   7.489 -0.3344 -1.6101 -0.3897
 1821SOL     OW16924   4.268   0.361  16.644 -0.5805  0.2656 -0.2806
 1821SOL    HW116925   4.306   0.309  16.716 -1.5694  3.3247  2.4653
 1821SOL    HW216926   4.218   0.297  16.593 -2.3662  0.7088  0.9225
 1822SOL     OW16927   2.002   4.440  12.309 -0.1789  0.0128  0.4675
 1822SOL    HW116928   1.982   4.350  12.335  1.1164 -0.9662 -1.8258
 1822SOL    HW216929   2.002   4.432  12.213  1.0472 -1.6916  0.6092
 1823SOL     OW16930   4.639   3.078   8.230 -0.2452 -0.4671  0.7744
 1823SOL    HW116931   4.618   3.148   8.168  1.1419  0.3292  1.2070
 1823SOL    HW216932   0.012   3.087   8.241  0.0528  0.1547 -2.1257
 1824SOL     OW16933   0.350   3.624   7.283 -0.9039  0.2066 -0.6789
 1824SOL    HW116934   0.336   3.537   7.244  0.7342  0.2772 -1.3952
 1824SOL    HW216935   0.330   3.601   7.374 -0.4079 -0.4937 -0.7484
 1825SOL     OW16936   1.995   4.663  10.513  0.3600  0.4464 -0.6491
 1825SOL    HW116937   2.057   0.012  10.529 -2.7118  3.1311 -0.5641
 1825SOL    HW216938   1.928   4.708  10.461  0.7444 -0.0143 -1.5456
 1826SOL     OW16939   2.365   2.303  13.584 -0.5983 -0.1243  0.4439
 1826SOL    HW116940   2.330   2.219  13.615  0.6568 -0.7442  0.1919
 1826SOL    HW216941   2.425   2.269  13.518 -2.2360  0.8709 -1.5318
 1827SOL     OW16942   1.243   4.031   5.908  0.0809  0.3802  0.0711
 1827SOL    HW116943   1.250   3.981   5.827  1.1151  1.3349 -0.4359
 1827SOL    HW216944   1.328   4.016   5.947  0.8904 -1.0397 -2.2205
 1828SOL     OW16945   2.147   0.748   3.249  0.4459 -0.4969  0.1828
 1828SOL    HW116946   2.071   0.768   3.194 -0.6164 -0.1164  1.7575
 1828SOL    HW216947   2.206   0.704   3.188 -0.8199 -0.7119 -0.8871
 1829SOL     OW16948   0.162   4.458   7.985  0.5412 -0.3263  0.5677
 1829SOL    HW116949   0.107   4.490   8.057  2.3791  1.5015  1.1420
 1829SOL    HW216950   0.196   4.540   7.951 -0.1876 -0.5244 -0.6288
 1830SOL     OW16951   3.270   0.012   0.082 -0.2584 -0.4344  0.6775
 1830SOL    HW116952   3.317   0.004   0.165 -0.5345  0.1177  0.8837
 1830SOL    HW216953   3.176   4.721   0.098 -0.2812 -2.7090 -1.0917
 1831SOL     OW16954   0.628   4.268  15.068 -0.4646 -0.2313 -0.6297
 1831SOL    HW116955   0.582   4.198  15.113  1.0886 -0.2178  0.9454
 1831SOL    HW216956   0.713   4.233  15.042 -0.2585  0.6796 -1.2130
 1832SOL     OW16957   0.058   4.260  11.273  0.1121 -0.2221 -0.0853
 1832SOL    HW116958   0.068   4.307  11.356  0.8630 -2.8712  1.3131
 1832SOL    HW216959   0.140   4.284  11.230  0.4748  0.3461  0.8948
 1833SOL     OW16960   3.569   0.959  12.005  0.4725  0.1145 -0.5165
 1833SOL    HW116961   3.517   0.996  12.077 -2.1626 -2.3411 -1.1712
 1833SOL    HW216962   3.556   1.030  11.942 -1.0463 -0.6649 -1.0786
 1834SOL     OW16963   4.499   3.919  11.002  0.1347  0.0713  0.0412
 1834SOL    HW116964   4.567   3.865  11.042 -1.3194 -1.2295  0.7500
 1834SOL    HW216965   4.541   3.928  10.917 -2.1286 -0.8684 -1.1749
 1835SOL     OW16966   3.840   0.890  10.587  0.1648 -0.2398 -0.3697
 1835SOL    HW116967   3.860   0.979  10.616  0.4917 -1.1585  2.1662
 1835SOL    HW216968   3.757   0.910  10.544 -0.5933 -0.9334  0.7852
 1836SOL     OW16969   3.184   2.095  13.819 -0.2641 -0.3052 -0.0276
 1836SOL    HW116970   3.159   2.175  13.867 -3.0654 -0.5298 -1.0959
 1836SOL    HW216971   3.130   2.099  13.740 -0.1065  1.4590 -0.0458
 1837SOL     OW16972   1.384   2.863   9.413  0.2160  0.8433 -0.3495
 1837SOL    HW116973   1.446   2.933   9.395 -0.7287  1.6596 -0.4743
 1837SOL    HW216974   1.398   2.804   9.339  1.3305  1.0798 -0.3238
 1838SOL     OW16975   0.709   1.066   7.665  0.2322 -0.3255  0.4675
 1838SOL    HW116976   0.678   0.978   7.648  0.8117 -0.1293 -1.5916
 1838SOL    HW216977   0.625   1.112   7.673  0.4135 -0.1732  1.4889
 1839SOL     OW16978   0.984   4.158   6.380 -0.0902  1.1058 -0.0691
 1839SOL    HW116979   1.035   4.081   6.355 -2.4427 -0.9252  1.4456
 1839SOL    HW216980   0.921   4.129   6.445  0.8610  0.8052  0.7109
 1840SOL     OW16981   2.251   4.157   2.778 -0.1868  0.7698 -0.5261
 1840SOL    HW116982   2.288   4.089   2.835 -1.4865  1.0988  0.7263
 1840SOL    HW216983   2.228   4.110   2.698 -2.0188  1.2734 -0.3000
 1841SOL     OW16984   0.345   3.225   7.713  0.4566 -0.0569 -0.2887
 1841SOL    HW116985   0.344   3.307   7.762 -0.4500 -0.6577  0.6929
 1841SOL    HW216986   0.389   3.254   7.633 -3.5791  2.1597 -1.7351
 1842SOL     OW16987   1.138   0.668   4.210  0.3879  0.6420  0.1222
 1842SOL    HW116988   1.180   0.740   4.164 -0.4741  0.9806 -0.1354
 1842SOL    HW216989   1.073   0.712   4.265 -0.5599  0.6358 -1.0011
 1843SOL     OW16990   1.954   3.182   6.408  0.5201 -0.1659 -0.2302
 1843SOL    HW116991   2.022   3.209   6.346  0.0997  1.5185  0.0493
 1843SOL    HW216992   1.911   3.114   6.357  2.1744 -0.4472 -1.2813
 1844SOL     OW16993   0.665   3.870   7.083 -0.2161  0.2053 -0.2907
 1844SOL    HW116994   0.731   3.851   7.016  0.0454 -1.2462  0.3778
 1844SOL    HW216995   0.722   3.897   7.155 -0.0641  0.0992 -0.3715
 1845SOL     OW16996   0.688   1.099   3.597 -0.2225 -0.4611 -0.2162
 1845SOL    HW116997   0.673   1.189   3.627 -2.4006 -1.1401  0.7120
 1845SOL    HW216998   0.774   1.079   3.634 -0.7547  3.3057  2.9652
 1846SOL     OW16999   2.601   4.441   7.580 -0.3397 -0.1986 -0.6900
 1846SOL    HW117000   2.603   4.536   7.593  1.8961 -0.6166  2.0452
 1846SOL    HW217001   2.638   4.421   7.666 -0.0038  0.9856 -0.5508
 1847SOL     OW17002   3.382   1.589   8.268  0.1738  0.4531 -0.0550
 1847SOL    HW117003   3.294   1.609   8.302  1.1427  1.8262  1.6444
 1847SOL    HW217004   3.378   1.493   8.263 -0.9300  0.4498  0.8145
 1848SOL     OW17005   0.285   2.555   4.981 -0.0858  0.5246 -0.1182
 1848SOL    HW117006   0.348   2.484   4.995 -0.1805  0.6203  0.7987
 1848SOL    HW217007   0.341   2.630   4.960 -0.3119  0.9256  0.7344
 1849SOL     OW17008   4.386   1.019   6.304 -0.4733  0.0482  0.0668
 1849SOL    HW117009   4.311   1.071   6.332 -0.6632 -0.3967  0.3813
 1849SOL    HW217010   4.425   1.001   6.389 -0.2931  1.1707  0.2169
 1850SOL     OW17011   0.445   4.088   6.130  0.0998  0.1388 -0.2115
 1850SOL    HW117012   0.483   4.165   6.172  1.3795 -0.8114  0.3664
 1850SOL    HW217013   0.409   4.140   6.058  0.3439 -0.3700 -0.6972
 1851SOL     OW17014   0.021   4.001   7.730 -0.0437 -0.6184  0.5350
 1851SOL    HW117015   0.049   4.086   7.762 -0.8169  0.2688 -1.1487
 1851SOL    HW217016   0.027   3.952   7.812  0.7993  0.1449  0.9366
 1852SOL     OW17017   2.595   3.496   9.596 -0.3650 -0.1964  0.7807
 1852SOL    HW117018   2.526   3.560   9.612  0.4351  0.7820  0.3308
 1852SOL    HW217019   2.579   3.482   9.502 -2.4195  0.2202  1.0620
 1853SOL     OW17020   0.185   0.376  17.284  0.1981 -0.3417  0.0073
 1853SOL    HW117021   0.184   0.472  17.294  2.6311 -0.4050  0.7357
 1853SOL    HW217022   0.158   0.352  17.373 -1.6504  1.6018  0.0036
 1854SOL     OW17023   0.102   3.940   2.449 -1.0383 -0.0584 -0.6415
 1854SOL    HW117024   0.032   3.921   2.387 -1.6427  1.6186 -0.4530
 1854SOL    HW217025   0.096   4.035   2.457  0.9298 -0.0967  1.2738
 1855SOL     OW17026   0.196   3.516   7.011 -0.2670  0.0422 -0.4456
 1855SOL    HW117027   0.220   3.463   7.087 -0.3285 -0.2050 -0.5983
 1855SOL    HW217028   0.266   3.582   7.012  0.5026 -0.8299  3.1853
 1856SOL     OW17029   3.797   1.977   0.652 -0.7161  0.2048  0.0266
 1856SOL    HW117030   3.746   1.896   0.663 -0.1061 -0.2251 -0.3400
 1856SOL    HW217031   3.871   1.940   0.700 -1.5559  0.8377  1.8009
 1857SOL     OW17032   2.774   1.076   5.501 -0.0391  0.0047  0.4183
 1857SOL    HW117033   2.679   1.074   5.513 -0.2928 -1.2394 -1.7885
 1857SOL    HW217034   2.794   0.998   5.552 -1.1402 -1.1135 -0.8403
 1858SOL     OW17035   3.859   1.254  14.094  0.1772  0.6714 -0.3995
 1858SOL    HW117036   3.832   1.329  14.041 -0.1821  0.6896 -0.1920
 1858SOL    HW217037   3.804   1.185  14.059  0.4021 -0.4249  1.4468
 1859SOL     OW17038   1.713   1.983   6.698  0.0511 -0.3418  0.0911
 1859SOL    HW117039   1.719   1.933   6.780  0.7724 -0.5479 -0.0923
 1859SOL    HW217040   1.622   2.012   6.690  0.4125  1.1918  1.6858
 1860SOL     OW17041   1.790   3.441  17.270 -0.4322 -0.1228 -0.0836
 1860SOL    HW117042   1.759   3.529  17.250 -0.8022 -0.1826  0.2324
 1860SOL    HW217043   1.856   3.435  17.201 -1.4247 -1.0824 -0.9593
 1861SOL     OW17044   4.292   0.607  12.354 -0.0509  0.3331 -0.3476
 1861SOL    HW117045   4.238   0.598  12.276  2.3494 -2.0356 -1.7233
 1861SOL    HW217046   4.268   0.531  12.407 -2.7719  0.9024 -0.7486
 1862SOL     OW17047   4.012   4.049   2.516  0.3548  0.4121 -0.4260
 1862SOL    HW117048   3.993   4.120   2.577  1.2073  2.1113 -2.1058
 1862SOL    HW217049   3.930   4.039   2.468 -0.0665 -0.5094  0.5028
 1863SOL     OW17050   4.584   2.195  10.686  0.7594 -0.2042 -0.2845
 1863SOL    HW117051   4.630   2.190  10.770 -0.3690 -2.4629  0.2090
 1863SOL    HW217052   4.514   2.131  10.699  0.9398 -0.1463  1.0219
 1864SOL     OW17053   0.536   1.912   5.092 -0.4178  0.2302  0.3641
 1864SOL    HW117054   0.536   1.834   5.148  0.0530 -0.6723 -0.9008
 1864SOL    HW217055   0.443   1.921   5.074 -0.2453  0.9476 -0.1537
 1865SOL     OW17056   4.002   2.696  15.871 -0.0819  0.2783  0.6436
 1865SOL    HW117057   3.972   2.730  15.786  1.0913  0.7179  0.4012
 1865SOL    HW217058   4.089   2.734  15.880  0.5892 -1.0176 -0.5840
 1866SOL     OW17059   1.420   0.368   8.322  0.1635  0.1665 -0.1824
 1866SOL    HW117060   1.437   0.409   8.406  2.1999  1.1644 -1.0905
 1866SOL    HW217061   1.439   0.435   8.256 -1.1991 -1.0789 -1.8610
 1867SOL     OW17062   0.450   0.043   8.477 -0.4844 -0.3777  0.6665
 1867SOL    HW117063   0.457   0.138   8.487  2.0109 -0.3503 -1.2970
 1867SOL    HW217064   0.502   0.024   8.555 -0.0773 -3.8717 -0.4568
 1868SOL     OW17065   3.693   0.624   5.652  0.5324  0.0111 -0.1866
 1868SOL    HW117066   3.778   0.588   5.676 -0.7092 -3.4678 -1.0696
 1868SOL    HW217067   3.642   0.620   5.733 -0.1877  1.2893 -0.5739
 1869SOL     OW17068   4.353   1.928   7.119  0.1373 -0.1385  1.0659
 1869SOL    HW117069   4.394   1.875   7.050  1.5227 -0.4693  2.1538
 1869SOL    HW217070   4.292   1.860   7.150 -0.9837  0.3015 -0.1641
 1870SOL     OW17071   3.704   4.223   7.534 -0.2751 -0.1492 -0.5096
 1870SOL    HW117072   3.730   4.134   7.512 -0.9097 -0.8216  1.5042
 1870SOL    HW217073   3.771   4.237   7.601 -0.2314  1.0278 -0.7854
 1871SOL     OW17074   3.643   3.721  10.291 -0.0635 -0.3520 -0.0421
 1871SOL    HW117075   3.599   3.805  10.303 -0.9411 -0.5205 -2.0645
 1871SOL    HW217076   3.735   3.747  10.296 -0.1942 -0.2759  1.6498
 1872SOL     OW17077   3.239   3.333   7.387 -0.4064  0.1953 -0.5354
 1872SOL    HW117078   3.298   3.401   7.419 -1.3347  0.4779  0.5396
 1872SOL    HW217079   3.258   3.262   7.448 -1.1117  2.3398  2.1398
 1873SOL     OW17080   3.067   0.554   8.115  0.3242 -0.7629 -0.0810
 1873SOL    HW117081   3.071   0.462   8.138  0.8184 -0.1156  2.4019
 1873SOL    HW217082   3.156   0.582   8.138  0.0025  1.2232 -1.2130
 1874SOL     OW17083   1.446   1.863   3.359 -0.2832  0.3302  0.0395
 1874SOL    HW117084   1.492   1.946   3.370 -0.5511  0.4747  0.0530
 1874SOL    HW217085   1.469   1.818   3.441  1.7299  0.6230 -0.3606
 1875SOL     OW17086   0.159   1.663   3.502 -0.6134  0.1039 -0.0270
 1875SOL    HW117087   0.085   1.614   3.468 -0.5043  0.0376 -0.1685
 1875SOL    HW217088   0.188   1.711   3.424  2.0383  1.0794  1.5455
 1876SOL     OW17089   1.721   0.301  17.575 -0.3494 -0.0698  0.0581
 1876SOL    HW117090   1.785   0.279  17.642  0.2684 -0.0580 -0.5247
 1876SOL    HW217091   1.652   0.344  17.625  0.4274 -0.9071  1.8439
 1877SOL     OW17092   2.407   0.672   2.883  0.5074 -0.1576  0.2327
 1877SOL    HW117093   2.368   0.659   2.796 -1.1862 -2.2441  1.2935
 1877SOL    HW217094   2.484   0.725   2.867  1.0702 -0.8696  0.6114
 1878SOL     OW17095   0.168   4.147   2.831 -0.0405 -0.1412 -0.2624
 1878SOL    HW117096   0.093   4.099   2.796 -0.8433  1.1133 -0.2673
 1878SOL    HW217097   0.220   4.080   2.874  0.4847 -0.4706 -1.4243
 1879SOL     OW17098   2.773   4.662   5.287 -0.1929 -0.3707  0.3633
 1879SOL    HW117099   2.846   4.644   5.346  0.3095 -1.3617 -0.5620
 1879SOL    HW217100   2.749   0.026   5.323 -2.6462 -0.7400 -0.3770
 1880SOL     OW17101   0.644   3.440   5.789 -0.1679  0.2975  0.5146
 1880SOL    HW117102   0.683   3.496   5.722 -1.5758 -0.4888 -0.9706
 1880SOL    HW217103   0.566   3.493   5.803 -1.7858 -2.3534  1.5802
 1881SOL     OW17104   1.600   2.080   2.538  0.1058 -0.5487 -0.2588
 1881SOL    HW117105   1.505   2.070   2.547  0.1565 -1.2176 -0.4183
 1881SOL    HW217106   1.596   2.119   2.450 -1.1020 -0.7767 -0.3061
 1882SOL     OW17107   3.992   0.084   9.483 -0.5576 -0.2743  0.1241
 1882SOL    HW117108   4.079   0.049   9.465 -0.8727 -1.1315  0.2417
 1882SOL    HW217109   3.953   4.718   9.492  0.0282 -0.4759  0.6943
 1883SOL     OW17110   1.535   2.901   8.046 -0.0001  0.4235 -0.5065
 1883SOL    HW117111   1.592   2.849   7.990 -0.3179  2.1577 -2.4545
 1883SOL    HW217112   1.458   2.845   8.059  1.4850 -1.4619  0.0464
 1884SOL     OW17113   3.135   0.163   2.769 -0.0199 -0.4589  0.4123
 1884SOL    HW117114   3.215   0.130   2.727  0.6863  0.9707  0.6205
 1884SOL    HW217115   3.174   0.174   2.856 -0.9319 -0.9413  0.8841
 1885SOL     OW17116   1.866   3.668   8.957  0.1778  0.2520 -0.6514
 1885SOL    HW117117   1.833   3.757   8.962 -0.1556  0.2333 -2.2912
 1885SOL    HW217118   1.798   3.619   9.003  0.4902  0.5645  0.1319
 1886SOL     OW17119   3.562   4.529   0.165  0.0821 -0.3579  0.3965
 1886SOL    HW117120   3.509   4.472   0.221  0.8182  1.5311  3.0031
 1886SOL    HW217121   3.648   4.503   0.197 -0.1327  0.0405  1.2931
 1887SOL     OW17122   1.609   3.807   1.047  0.7269 -0.3367 -0.6724
 1887SOL    HW117123   1.654   3.861   0.982 -0.7390  1.3549 -0.2947
 1887SOL    HW217124   1.581   3.739   0.986  1.5239 -0.1183 -1.2797
 1888SOL     OW17125   2.577   1.788   8.159  0.0033  0.5247 -0.2022
 1888SOL    HW117126   2.604   1.877   8.138  1.5560  0.3530  1.0493
 1888SOL    HW217127   2.483   1.793   8.181  1.0138  3.5400  3.4227
 1889SOL     OW17128   0.808   0.302   8.061 -0.3676 -0.4585  0.0974
 1889SOL    HW117129   0.723   0.325   8.024 -0.2976 -0.7825 -0.2666
 1889SOL    HW217130   0.810   0.319   8.155  1.5334  0.1695 -0.0420
 1890SOL     OW17131   0.135   4.291   6.995 -0.0507 -0.2536 -0.8348
 1890SOL    HW117132   0.138   4.199   7.020 -0.7292  0.1299  0.6217
 1890SOL    HW217133   0.041   4.304   6.999  0.3955  2.5890  0.2457
 1891SOL     OW17134   2.509   4.596   3.127 -0.1328  0.1893 -0.1797
 1891SOL    HW117135   2.597   4.627   3.148  0.5448 -2.7272  1.2520
 1891SOL    HW217136   2.472   4.560   3.208 -1.1029  1.9187  0.1479
 1892SOL     OW17137   3.461   0.805  10.514 -0.4276  0.2992  0.0138
 1892SOL    HW117138   3.378   0.847  10.538 -1.3020 -0.8139 -1.1123
 1892SOL    HW217139   3.503   0.873  10.462 -2.5284  1.0513 -0.7251
 1893SOL     OW17140   0.301   1.830   5.495  0.0075 -0.0585 -0.3511
 1893SOL    HW117141   0.249   1.880   5.558 -0.0655 -0.2816 -0.2367
 1893SOL    HW217142   0.229   1.796   5.443  0.3294  0.0685 -0.8818
 1894SOL     OW17143   1.951   0.677   6.847 -0.1595  0.3225  0.1091
 1894SOL    HW117144   2.003   0.688   6.767  1.8369  0.5272  1.4461
 1894SOL    HW217145   1.869   0.661   6.799  1.7686 -1.2584 -2.6676
 1895SOL     OW17146   2.324   4.273   5.626  0.3826  0.5675 -0.5822
 1895SOL    HW117147   2.240   4.238   5.654  1.7816 -2.6589 -0.4277
 1895SOL    HW217148   2.390   4.254   5.693 -1.1977  0.7549  1.0098
 1896SOL     OW17149   0.624   2.776  11.613 -0.3956  0.1397 -0.0213
 1896SOL    HW117150   0.636   2.871  11.605 -0.6122  0.4112  3.0166
 1896SOL    HW217151   0.580   2.764  11.529  3.7255 -0.0781 -2.0987
 1897SOL     OW17152   2.759   0.010   0.026 -0.0529  0.1637  0.0590
 1897SOL    HW117153   2.714   0.001   0.110  0.5490 -0.0078  0.3691
 1897SOL    HW217154   2.729   0.099   0.011 -1.4157  0.2018  2.9231
 1898SOL     OW17155   0.648   2.118  15.609  0.3038 -0.1835  0.6155
 1898SOL    HW117156   0.720   2.076  15.562  0.5152  0.1713  0.6225
 1898SOL    HW217157   0.613   2.176  15.542 -0.8276 -0.6690  0.7896
 1899SOL     OW17158   0.588   4.275   4.671 -0.1606 -0.9115  0.1734
 1899SOL    HW117159   0.653   4.205   4.673  1.1550  0.1812 -3.5988
 1899SOL    HW217160   0.606   4.323   4.753 -0.0842  0.6116 -0.7321
 1900SOL     OW17161   4.479   1.723   9.790  0.6514 -0.0251  0.6042
 1900SOL    HW117162   4.394   1.697   9.754  1.0779  1.1511 -1.2372
 1900SOL    HW217163   4.526   1.642   9.769  1.1226  0.2769  0.4954
 1901SOL     OW17164   4.066   1.080   1.155 -0.2174 -0.6419 -0.2420
 1901SOL    HW117165   4.159   1.060   1.166  0.0452 -0.2305 -1.7843
 1901SOL    HW217166   4.059   1.142   1.228  0.6637 -0.4816 -0.2927
 1902SOL     OW17167   4.242   4.092  12.040 -0.2158  0.0518  0.3529
 1902SOL    HW117168   4.332   4.095  12.072  0.1948  0.7275 -0.8363
 1902SOL    HW217169   4.222   4.186  12.040 -0.9737 -0.0934 -1.4769
 1903SOL     OW17170   2.944   0.644   6.355  0.7904 -0.0269  0.1964
 1903SOL    HW117171   3.006   0.587   6.308  0.3088 -0.2757 -0.1381
 1903SOL    HW217172   2.953   0.628   6.449 -1.4772  0.9413  0.5688
 1904SOL     OW17173   4.204   1.203   9.563  0.3047 -0.3421  0.2950
 1904SOL    HW117174   4.242   1.129   9.611 -1.7835 -0.4523  1.7438
 1904SOL    HW217175   4.187   1.265   9.634  0.9786 -0.9242  0.9623
 1905SOL     OW17176   4.060   4.563  16.753  0.0275  0.5214 -0.2150
 1905SOL    HW117177   4.014   4.529  16.829 -0.1301 -1.3613 -1.1604
 1905SOL    HW217178   4.020   4.513  16.682  0.1668 -1.6457  1.2332
 1906SOL     OW17179   3.480   0.635  13.033  0.4188 -0.3130 -0.1998
 1906SOL    HW117180   3.511   0.683  12.956 -1.7238 -0.2326 -1.0118
 1906SOL    HW217181   3.564   0.601  13.064 -1.6886 -4.0913  1.3983
 1907SOL     OW17182   1.596   4.015   9.048  0.0424 -0.4721  0.5479
 1907SOL    HW117183   1.684   3.988   9.074  0.8137  1.2347 -0.2638
 1907SOL    HW217184   1.559   3.929   9.028  2.7445 -1.8015  1.1574
 1908SOL     OW17185   4.161   1.948   0.020  0.9549 -0.5483 -0.4470
 1908SOL    HW117186   4.097   1.962  17.638 -0.3957 -0.9310  0.7148
 1908SOL    HW217187   4.195   2.035   0.041  1.7758 -1.3610  1.5490
 1909SOL     OW17188   3.936   1.865  11.158 -0.1843  0.2237 -0.1816
 1909SOL    HW117189   3.929   1.961  11.157 -0.1195  0.2000 -3.6399
 1909SOL    HW217190   4.007   1.858  11.095 -1.1604  1.9749 -1.4903
 1910SOL     OW17191   2.493   1.695   9.503 -0.1792 -0.4215  0.2960
 1910SOL    HW117192   2.449   1.680   9.587 -0.2339 -0.0796  0.3289
 1910SOL    HW217193   2.545   1.618   9.481  1.0133  0.3255  0.5015
 1911SOL     OW17194   2.629   1.274   5.732 -0.6181 -0.0486 -0.0421
 1911SOL    HW117195   2.563   1.295   5.666 -0.9256 -0.9897 -0.0268
 1911SOL    HW217196   2.714   1.262   5.689 -0.5373  1.3963 -0.2852
 1912SOL     OW17197   1.835   2.255   0.797 -0.1117 -0.5297 -0.5709
 1912SOL    HW117198   1.789   2.265   0.881  0.5267  0.1751 -0.2951
 1912SOL    HW217199   1.891   2.332   0.812 -2.6385  0.9081  1.5523
 1913SOL     OW17200   3.513   2.738   9.129  0.0508 -0.0434  0.0691
 1913SOL    HW117201   3.436   2.793   9.138  0.2032  0.0358  0.9335
 1913SOL    HW217202   3.476   2.668   9.074 -1.4157  0.6395  0.2118
 1914SOL     OW17203   2.408   3.234   2.783 -0.0367  0.0044 -0.0041
 1914SOL    HW117204   2.401   3.329   2.798 -0.0207 -0.3239  2.0277
 1914SOL    HW217205   2.363   3.210   2.864 -1.2575 -2.7003 -1.4807
 1915SOL     OW17206   3.484   2.520   7.825  0.1287 -0.5317  0.3483
 1915SOL    HW117207   3.517   2.430   7.832  1.2637 -0.2299 -1.2649
 1915SOL    HW217208   3.399   2.523   7.780 -0.3034  1.3291  1.3057
 1916SOL     OW17209   4.300   3.473  15.767 -0.0387 -0.1002  0.0089
 1916SOL    HW117210   4.395   3.476  15.783  0.1474  0.5762 -1.2422
 1916SOL    HW217211   4.294   3.415  15.692 -0.2931  0.6686 -0.5633
 1917SOL     OW17212   0.365   2.760   7.323 -0.2147  0.1815 -0.7553
 1917SOL    HW117213   0.355   2.854   7.336 -2.1479 -0.0719 -0.3215
 1917SOL    HW217214   0.339   2.755   7.231 -1.0840  3.1882 -0.6738
 1918SOL     OW17215   4.569   3.281  11.035 -0.1897 -0.1592 -0.2956
 1918SOL    HW117216   4.482   3.242  11.037 -0.3245  0.1670  0.1121
 1918SOL    HW217217   4.635   3.214  11.017 -1.5464 -2.3213  2.6302
 1919SOL     OW17218   0.984   2.309  10.769  0.2968  0.2173 -0.2190
 1919SOL    HW117219   0.941   2.275  10.690 -0.7238 -1.0985  0.9008
 1919SOL    HW217220   1.071   2.274  10.749  0.0064 -1.3983  1.3088
 1920SOL     OW17221   3.254   1.804   3.425  0.1495 -0.3258  0.1211
 1920SOL    HW117222   3.269   1.723   3.376  2.4586  0.4857 -0.4639
 1920SOL    HW217223   3.323   1.861   3.393 -1.3778  0.1023 -2.4040
 1921SOL     OW17224   3.557   4.097   8.868 -0.3212 -0.3764  0.1519
 1921SOL    HW117225   3.557   4.078   8.775  0.5690 -0.3183  0.1416
 1921SOL    HW217226   3.466   4.070   8.883 -1.0160  2.1544  0.4474
 1922SOL     OW17227   4.213   4.083  13.370 -0.3845 -0.2631 -0.5467
 1922SOL    HW117228   4.197   4.051  13.459  1.1473  0.7945  0.1135
 1922SOL    HW217229   4.122   4.093  13.340  0.2854  0.0954 -2.4128
 1923SOL     OW17230   0.853   1.276  11.139 -0.2406  0.2665 -0.4649
 1923SOL    HW117231   0.891   1.192  11.164  0.7785  1.0234  0.5495
 1923SOL    HW217232   0.827   1.299  11.228  1.8415  0.9874 -0.0240
 1924SOL     OW17233   0.150   3.305   5.028  0.0877 -0.2709  0.2466
 1924SOL    HW117234   0.187   3.237   4.972 -0.9471 -0.9783  0.4126
 1924SOL    HW217235   0.223   3.318   5.089  0.7905  0.8546 -0.8348
 1925SOL     OW17236   1.630   2.298  16.610  0.2290  0.0982  0.0821
 1925SOL    HW117237   1.597   2.252  16.687  0.4879  0.9109  0.6792
 1925SOL    HW217238   1.557   2.359  16.596 -0.9895 -1.4967 -0.4089
 1926SOL     OW17239   2.107   3.230   2.516 -0.1828 -0.4749  0.3406
 1926SOL    HW117240   2.132   3.319   2.489 -0.7521 -0.0223  1.2891
 1926SOL    HW217241   2.147   3.186   2.441 -0.8000 -0.7775  0.1894
 1927SOL     OW17242   0.526   4.239  12.840 -0.1203 -0.3655  0.4098
 1927SOL    HW117243   0.436   4.238  12.872 -0.6164  1.1342 -0.9012
 1927SOL    HW217244   0.512   4.175  12.770  1.0184  2.6829 -2.6190
 1928SOL     OW17245   3.476   0.697   7.590 -0.1880 -0.4345 -0.2332
 1928SOL    HW117246   3.556   0.711   7.641 -0.8565 -0.5673  0.8480
 1928SOL    HW217247   3.518   0.664   7.510 -0.6642  1.8429 -1.3932
 1929SOL     OW17248   0.529   0.673  12.729  0.2779 -0.2877  0.6501
 1929SOL    HW117249   0.445   0.668  12.683 -0.0039 -1.9866  1.3551
 1929SOL    HW217250   0.578   0.733  12.673 -0.7677  0.1087  0.1481
 1930SOL     OW17251   3.836   2.499   2.163 -0.2347 -0.1089 -0.3679
 1930SOL    HW117252   3.868   2.505   2.073 -1.0255  3.5450 -0.3796
 1930SOL    HW217253   3.741   2.502   2.150  0.0029 -0.2047 -2.1411
 1931SOL     OW17254   1.573   3.796   6.023 -0.4228 -0.1868 -0.2844
 1931SOL    HW117255   1.538   3.713   5.991  2.7936 -1.9065  0.6727
 1931SOL    HW217256   1.667   3.778   6.030 -0.3551  0.3610  0.2108
 1932SOL     OW17257   0.858   1.039  12.671  0.0401 -0.5222 -0.6588
 1932SOL    HW117258   0.833   1.120  12.626 -0.3727  0.1988  0.9046
 1932SOL    HW217259   0.947   1.066  12.695  0.4294 -0.6246 -1.9375
 1933SOL     OW17260   0.728   1.470   4.698 -0.0867  0.3916 -0.2226
 1933SOL    HW117261   0.779   1.416   4.758 -1.2463 -1.5562 -1.0073
 1933SOL    HW217262   0.640   1.478   4.733  0.1440 -0.4071  0.5205
 1934SOL     OW17263   1.969   2.100   1.611 -0.2810 -0.3465  0.7709
 1934SOL    HW117264   1.978   2.181   1.661 -0.6885  0.0426  0.2110
 1934SOL    HW217265   1.937   2.133   1.527 -0.8729 -2.5657  0.0984
 1935SOL     OW17266   3.661   4.145   5.716  0.2862  0.4311 -0.1247
 1935SOL    HW117267   3.704   4.165   5.799  0.5872 -0.7715  0.0075
 1935SOL    HW217268   3.625   4.231   5.694 -2.3638 -0.5426  0.3424
 1936SOL     OW17269   1.249   2.329   1.546 -0.1460 -0.8204 -0.0470
 1936SOL    HW117270   1.156   2.324   1.526  0.0714 -0.7887 -1.0612
 1936SOL    HW217271   1.259   2.395   1.615  1.2479 -0.5899 -0.4730
 1937SOL     OW17272   1.406   3.103   1.346 -0.0899 -0.2379  0.2187
 1937SOL    HW117273   1.430   3.194   1.361  1.3920 -0.6770  0.5324
 1937SOL    HW217274   1.456   3.082   1.267  1.4644  0.5565  0.9887
 1938SOL     OW17275   4.220   0.375   4.734 -0.3944 -0.0154  0.0548
 1938SOL    HW117276   4.291   0.382   4.671 -0.0782 -0.6359  0.3379
 1938SOL    HW217277   4.270   0.348   4.812 -2.0101  1.6370  1.6820
 1939SOL     OW17278   3.785   2.978   8.331 -0.4183 -0.2479 -0.0867
 1939SOL    HW117279   3.804   2.894   8.375 -0.1106 -0.4611 -0.6363
 1939SOL    HW217280   3.689   2.982   8.333 -0.3701  1.3721 -2.2284
 1940SOL     OW17281   4.609   0.832   4.527  0.5849  0.1636 -0.1733
 1940SOL    HW117282   4.569   0.751   4.559  0.7100 -0.0090 -0.4490
 1940SOL    HW217283   4.625   0.877   4.610  0.8607 -1.1368  0.4846
 1941SOL     OW17284   1.225   1.656  14.946 -0.4583 -0.0472  0.3743
 1941SOL    HW117285   1.215   1.603  15.025 -1.3207 -0.7110 -0.1733
 1941SOL    HW217286   1.315   1.687  14.952 -0.9868  1.5143  0.5186
 1942SOL     OW17287   2.199   0.825   8.380 -0.0787 -0.2363 -0.1028
 1942SOL    HW117288   2.112   0.790   8.361 -0.1322 -0.6907  0.9844
 1942SOL    HW217289   2.226   0.747   8.429 -0.1757  0.0978  0.4799
 1943SOL     OW17290   0.637   4.676   5.235 -0.4094  0.0726  0.5012
 1943SOL    HW117291   0.712   4.659   5.292 -1.0042  0.0334  1.2695
 1943SOL    HW217292   0.650   0.049   5.244  2.9290 -0.0761 -2.3566
 1944SOL     OW17293   0.525   2.852   3.547 -0.9880 -0.2840 -0.5920
 1944SOL    HW117294   0.520   2.789   3.476  1.9116  1.3011 -2.2136
 1944SOL    HW217295   0.611   2.833   3.585 -0.7785  0.9300 -0.4636
 1945SOL     OW17296   4.320   4.493   0.091 -0.4973 -0.0144 -0.3727
 1945SOL    HW117297   4.331   4.434   0.016  2.3423 -0.7231  0.5942
 1945SOL    HW217298   4.255   4.439   0.135  0.8365 -0.0019  1.5962
 1946SOL     OW17299   2.225   4.607   6.060  0.0971  0.1777  0.1565
 1946SOL    HW117300   2.156   4.605   5.994  0.5572 -0.9955 -0.2842
 1946SOL    HW217301   2.308   4.640   6.026 -0.7518  1.5353 -0.5625
 1947SOL     OW17302   0.181   0.405  14.113 -0.1089 -0.3996  0.6571
 1947SOL    HW117303   0.220   0.403  14.025  1.4139  3.4442  1.2529
 1947SOL    HW217304   0.119   0.333  14.099  0.7738 -0.9215 -0.6280
 1948SOL     OW17305   3.023   2.362   6.244  0.2622  0.0159  0.7696
 1948SOL    HW117306   3.066   2.430   6.193 -1.8181  1.4418  0.9255
 1948SOL    HW217307   2.990   2.302   6.177 -1.0765  1.1638  0.3967
 1949SOL     OW17308   0.931   1.843   5.364 -0.1795 -0.0929  0.3126
 1949SOL    HW117309   0.876   1.903   5.413  1.1692  0.8430  0.6812
 1949SOL    HW217310   1.022   1.863   5.385 -0.0015  0.7088 -1.2040
 1950SOL     OW17311   4.312   0.462   4.295 -0.2719 -0.2141  0.4464
 1950SOL    HW117312   4.385   0.458   4.234 -0.7526 -1.6997 -0.0274
 1950SOL    HW217313   4.318   0.377   4.337 -2.0408 -1.4862 -1.8738
 1951SOL     OW17314   2.298   1.895   2.044  0.0195  0.0293 -0.0461
 1951SOL    HW117315   2.250   1.832   2.097 -1.6793  0.4002 -1.1485
 1951SOL    HW217316   2.382   1.904   2.090  0.8306  3.1688 -2.1592
 1952SOL     OW17317   2.197   1.224   4.398 -1.2532  0.5643 -0.4581
 1952SOL    HW117318   2.285   1.195   4.423 -1.7994  0.0370  0.8497
 1952SOL    HW217319   2.162   1.151   4.346  0.8257 -0.1408 -0.8715
 1953SOL     OW17320   1.238   1.691   2.414  0.2208 -0.3030  0.2792
 1953SOL    HW117321   1.226   1.641   2.333 -0.1694 -4.2312  2.7618
 1953SOL    HW217322   1.263   1.627   2.481  1.9002 -0.5537 -0.5951
 1954SOL     OW17323   0.594   1.441   6.915 -0.3362  0.2082 -0.9424
 1954SOL    HW117324   0.679   1.447   6.872 -0.5164  1.5894 -1.1205
 1954SOL    HW217325   0.554   1.526   6.895 -0.5729  0.1656 -0.6527
 1955SOL     OW17326   3.374   1.647  10.966 -0.0352 -0.1900  0.3862
 1955SOL    HW117327   3.462   1.608  10.970  0.0482 -0.0628 -0.3711
 1955SOL    HW217328   3.351   1.665  11.058  0.1434 -1.0362  0.5974
 1956SOL     OW17329   3.503   0.893   2.919  0.1187  0.3815  0.3412
 1956SOL    HW117330   3.579   0.836   2.931 -0.8996 -0.7849  1.3142
 1956SOL    HW217331   3.454   0.856   2.992 -0.8164  0.1778 -0.3794
 1957SOL     OW17332   3.890   3.878  16.194  0.3785 -0.1774  0.2729
 1957SOL    HW117333   3.968   3.933  16.199 -0.7737  1.4881 -0.1275
 1957SOL    HW217334   3.872   3.879  16.100 -1.7601  0.6183  0.7021
 1958SOL     OW17335   3.063   3.546   9.679 -0.4000 -0.6260 -0.1481
 1958SOL    HW117336   3.117   3.556   9.600  1.4886  1.2471  1.3593
 1958SOL    HW217337   2.975   3.574   9.652  1.0597  2.6360 -1.5971
 1959SOL     OW17338   3.487   0.515   3.953  0.3644 -0.0745  0.3275
 1959SOL    HW117339   3.407   0.508   4.004  1.0520 -0.9701  1.2901
 1959SOL    HW217340   3.477   0.451   3.882  1.4326  2.2591 -1.9049
 1960SOL     OW17341   2.978   2.672  15.053  0.3353  0.0263 -0.2018
 1960SOL    HW117342   3.029   2.669  15.135  0.3474 -1.6461 -0.2649
 1960SOL    HW217343   2.997   2.760  15.023 -0.1229 -0.0893 -0.8109
 1961SOL     OW17344   0.819   0.566  16.503  0.5556 -0.0132 -0.1627
 1961SOL    HW117345   0.882   0.609  16.445 -3.3364 -0.3463 -4.6490
 1961SOL    HW217346   0.838   0.476  16.476  1.3131  1.1551 -3.5098
 1962SOL     OW17347   1.993   3.278   5.970  0.2153  0.7582 -0.3523
 1962SOL    HW117348   1.980   3.372   5.965 -1.1436  0.5470 -0.9007
 1962SOL    HW217349   2.025   3.266   6.060 -0.4668  2.6280  0.1342
 1963SOL     OW17350   4.111   1.809   7.585 -0.1510  0.3020  0.2242
 1963SOL    HW117351   4.164   1.855   7.520  0.1136 -1.8335 -1.0916
 1963SOL    HW217352   4.031   1.861   7.585 -0.0514  0.4098  2.5763
 1964SOL     OW17353   4.422   4.605  16.508  0.1670 -0.0052  0.8248
 1964SOL    HW117354   4.403   4.698  16.523 -0.1582  0.0397  0.1200
 1964SOL    HW217355   4.513   4.600  16.477  0.1900 -4.2589  1.6311
 1965SOL     OW17356   2.354   0.758  17.218  0.9665  0.3513  0.3030
 1965SOL    HW117357   2.414   0.799  17.281 -1.9584  2.3364  1.7654
 1965SOL    HW217358   2.273   0.763  17.269  0.4879 -1.9233 -0.2381
 1966SOL     OW17359   2.587   0.910  11.298  0.4868  0.0109 -0.5029
 1966SOL    HW117360   2.496   0.933  11.319  1.3125  0.7816  2.2205
 1966SOL    HW217361   2.575   0.826  11.253  0.9865 -1.1753  1.6068
 1967SOL     OW17362   3.787   2.765   7.374  0.4783 -0.0728  0.1957
 1967SOL    HW117363   3.793   2.670   7.365  0.4215 -0.0480 -0.1072
 1967SOL    HW217364   3.733   2.779   7.452 -0.7639  1.2174 -0.8803
 1968SOL     OW17365   3.757   0.063   9.338 -0.3176  0.3649 -0.1393
 1968SOL    HW117366   3.734   4.702   9.295  0.5393 -0.5721  1.1950
 1968SOL    HW217367   3.818   0.027   9.404  0.7709  0.0107 -1.3407
 1969SOL     OW17368   0.305   0.244  12.886  0.5196  0.1766 -0.3052
 1969SOL    HW117369   0.376   0.180  12.875  0.4307 -0.0866  0.6713
 1969SOL    HW217370   0.358   0.323  12.893  1.2944 -0.3104 -0.6383
 1970SOL     OW17371   1.418   4.607  13.851  0.1868  0.5902  0.2608
 1970SOL    HW117372   1.501   4.590  13.896  1.2205 -1.2154 -2.2873
 1970SOL    HW217373   1.426   4.542  13.780 -0.6783  0.1211  0.5886
 1971SOL     OW17374   3.551   0.786   7.945 -0.0188  0.1146  0.2639
 1971SOL    HW117375   3.611   0.804   8.018  0.1386 -0.0283  0.1700
 1971SOL    HW217376   3.566   0.861   7.888 -1.0235  0.7124  0.8024
 1972SOL     OW17377   4.574   1.019  11.208 -0.1441  0.4213  0.7931
 1972SOL    HW117378   4.645   1.052  11.153  0.3594 -0.3146  1.0031
 1972SOL    HW217379   4.616   1.008  11.293  1.9090 -2.5420 -0.6230
 1973SOL     OW17380   0.518   2.689   3.331 -0.5566  0.4313  0.2244
 1973SOL    HW117381   0.561   2.608   3.358  1.1201  0.7821 -1.4032
 1973SOL    HW217382   0.549   2.694   3.241  0.8803  1.0313  0.7494
 1974SOL     OW17383   4.059   3.351  17.236  0.4250  0.1876  0.0749
 1974SOL    HW117384   4.116   3.423  17.209  0.7793  0.1804  0.8123
 1974SOL    HW217385   4.114   3.321  17.308 -0.3802  1.0602  1.0570
 1975SOL     OW17386   3.648   3.939   2.968 -0.2656 -0.0438  0.0801
 1975SOL    HW117387   3.715   4.008   2.969 -0.4016  0.0829  0.6028
 1975SOL    HW217388   3.583   3.974   2.908 -1.8656 -3.2386 -0.0518
 1976SOL     OW17389   1.232   0.589   6.757  0.1738 -0.0519  0.2221
 1976SOL    HW117390   1.154   0.598   6.811  0.3094 -0.8751  0.5497
 1976SOL    HW217391   1.278   0.673   6.765 -1.5850  1.0816 -1.6062
 1977SOL     OW17392   4.298   2.491   2.294 -0.2939 -0.2398  0.0809
 1977SOL    HW117393   4.306   2.446   2.378 -0.4509 -0.1273  0.1568
 1977SOL    HW217394   4.386   2.527   2.280  0.1721 -1.7097 -0.7110
 1978SOL     OW17395   2.796   3.056   4.305  0.0987 -0.4988  0.2210
 1978SOL    HW117396   2.716   3.090   4.344  1.4019  2.4816  0.3083
 1978SOL    HW217397   2.763   3.053   4.215 -1.3411 -0.6786  0.7598
 1979SOL     OW17398   3.612   1.615   3.944 -0.1330  0.2603  0.2136
 1979SOL    HW117399   3.571   1.595   3.860 -2.1242  0.9553  1.0165
 1979SOL    HW217400   3.681   1.671   3.907  1.9116 -2.2260  0.2488
 1980SOL     OW17401   3.259   1.047   6.579 -0.0620 -0.4240  1.2445
 1980SOL    HW117402   3.186   0.996   6.615 -1.1754 -0.8572 -1.6211
 1980SOL    HW217403   3.251   1.130   6.626  0.3681  1.3701 -1.8736
 1981SOL     OW17404   1.104   1.861   9.077  0.1266  0.0525 -0.1564
 1981SOL    HW117405   1.127   1.943   9.034 -1.6156 -0.8502 -2.7848
 1981SOL    HW217406   1.024   1.892   9.119  1.0690 -1.1754  2.5220
 1982SOL     OW17407   3.158   1.360  10.996  0.4896  0.0701 -0.1288
 1982SOL    HW117408   3.103   1.392  10.924 -0.2788 -0.9523  0.0024
 1982SOL    HW217409   3.104   1.360  11.074  0.7915  0.5955  0.0769
 1983SOL     OW17410   3.697   1.353   7.329  0.4944 -0.2113 -0.1579
 1983SOL    HW117411   3.725   1.351   7.421  0.7721  0.4847 -0.2311
 1983SOL    HW217412   3.607   1.381   7.346  0.8875 -0.1086  1.7163
 1984SOL     OW17413   0.063   0.127   8.460  0.0486  0.1951  0.4551
 1984SOL    HW117414   0.113   0.141   8.380  0.3946  1.4029  0.8783
 1984SOL    HW217415   0.036   0.218   8.474 -0.7112  0.0729 -0.2060
 1985SOL     OW17416   2.371   0.579   6.433 -0.1930 -0.0878  0.6073
 1985SOL    HW117417   2.377   0.670   6.464  1.5724 -0.4410  1.3381
 1985SOL    HW217418   2.448   0.552   6.383 -1.0648 -1.9789  0.3067
 1986SOL     OW17419   0.126   1.743   5.299  0.1265 -0.1684  0.1089
 1986SOL    HW117420   0.048   1.795   5.319 -0.7515 -1.3362 -0.2949
 1986SOL    HW217421   0.100   1.651   5.305  1.9607 -0.6635  0.4245
 1987SOL     OW17422   2.537   3.641   5.358  0.0261  0.0590 -0.3724
 1987SOL    HW117423   2.491   3.637   5.442  1.7015  0.1770  0.5521
 1987SOL    HW217424   2.619   3.632   5.407  0.6293  1.1847 -1.1739
 1988SOL     OW17425   3.853   2.572   8.149 -0.3533  0.3759 -0.5962
 1988SOL    HW117426   3.811   2.618   8.221 -1.9055 -1.2816 -0.4375
 1988SOL    HW217427   3.917   2.641   8.131  0.4605 -0.5433 -1.2460
 1989SOL     OW17428   2.475   1.609   6.404  0.1983  0.1668 -0.6811
 1989SOL    HW117429   2.503   1.535   6.458 -0.0560  2.1440  2.1635
 1989SOL    HW217430   2.483   1.575   6.315  1.7779 -2.5562  0.5135
 1990SOL     OW17431   0.190   2.356   8.318 -0.4869  0.0838  0.2125
 1990SOL    HW117432   0.248   2.349   8.394 -0.9607 -0.3676  0.5315
 1990SOL    HW217433   0.225   2.426   8.262 -1.9100 -0.3307 -1.1696
 1991SOL     OW17434   3.539   1.854   5.529 -0.2299  0.3893 -0.2800
 1991SOL    HW117435   3.452   1.863   5.568 -0.5902 -0.4229 -0.8857
 1991SOL    HW217436   3.570   1.942   5.548  0.3576 -0.3547  2.1638
 1992SOL     OW17437   1.379   2.878   4.555  0.1012 -0.3003  0.4453
 1992SOL    HW117438   1.393   2.900   4.463 -1.0241 -2.4106 -0.2106
 1992SOL    HW217439   1.291   2.842   4.554 -0.1156  0.2388  0.0867
 1993SOL     OW17440   3.838   4.236   5.219  0.0193  0.1731 -0.5347
 1993SOL    HW117441   3.819   4.293   5.294  0.2523 -0.3965 -0.0377
 1993SOL    HW217442   3.772   4.166   5.218 -0.0850  0.3224 -2.8397
 1994SOL     OW17443   0.769   2.136   8.750 -0.2101  0.0480 -0.3084
 1994SOL    HW117444   0.743   2.223   8.719  3.8207  1.2109 -0.3400
 1994SOL    HW217445   0.700   2.125   8.816  0.1877  0.3619  0.1651
 1995SOL     OW17446   1.161   3.195   8.357  0.6994  0.2857 -0.0675
 1995SOL    HW117447   1.212   3.275   8.361  1.2433 -0.1226  1.1655
 1995SOL    HW217448   1.162   3.181   8.263 -2.8256  0.8937 -0.2080
 1996SOL     OW17449   3.927   0.852   7.102 -0.5625  0.2403  0.1152
 1996SOL    HW117450   3.894   0.762   7.094  0.8434 -0.2940  0.4451
 1996SOL    HW217451   3.991   0.838   7.171 -0.7586  1.8529  0.6320
 1997SOL     OW17452   1.401   0.890  11.741  0.3691  0.2544  0.0517
 1997SOL    HW117453   1.347   0.968  11.727  1.0302  0.6305 -0.4143
 1997SOL    HW217454   1.444   0.921  11.820  1.3522 -2.3102  0.5232
 1998SOL     OW17455   3.502   2.368   8.443  0.2085 -0.2437 -0.1516
 1998SOL    HW117456   3.478   2.400   8.530 -0.9084 -1.5013 -0.0001
 1998SOL    HW217457   3.597   2.381   8.438  0.1788 -0.4432 -1.3963
 1999SOL     OW17458   2.081   2.560  11.893  0.0788  0.0913  0.2403
 1999SOL    HW117459   2.156   2.518  11.935  1.0101  0.8355 -0.6963
 1999SOL    HW217460   2.030   2.604  11.961 -2.5772 -0.8039 -1.1585
 2000SOL     OW17461   3.076   4.178   1.044  0.5635 -0.2229 -0.3344
 2000SOL    HW117462   3.069   4.270   1.017  1.6487 -0.1643 -0.3851
 2000SOL    HW217463   3.099   4.143   0.958 -1.0496 -0.6340 -0.5979
 2001SOL     OW17464   0.518   4.042  15.678  0.6269  0.3440  0.2418
 2001SOL    HW117465   0.598   4.005  15.640  0.2634  0.6921 -0.8827
 2001SOL    HW217466   0.534   4.135  15.663  0.2628  0.7302  2.2303
 2002SOL     OW17467   1.564   3.951  14.029  0.2023 -0.3283 -0.3629
 2002SOL    HW117468   1.481   3.925  13.989  0.7304 -1.0579 -0.9773
 2002SOL    HW217469   1.631   3.943  13.961 -0.6362 -1.1749 -1.0837
 2003SOL     OW17470   4.357   2.157   3.527 -0.2375 -0.3191  0.0054
 2003SOL    HW117471   4.368   2.250   3.550 -1.2188  0.1206 -1.2570
 2003SOL    HW217472   4.403   2.148   3.444  0.5711  0.1388  0.4008
 2004SOL     OW17473   2.276   3.575   4.862 -0.1860  0.1038 -0.5009
 2004SOL    HW117474   2.183   3.571   4.885  0.0752  1.3818  0.7737
 2004SOL    HW217475   2.304   3.484   4.850 -3.7322 -1.1035  0.4198
 2005SOL     OW17476   1.098   4.211   1.569  0.4637  0.6161 -0.3620
 2005SOL    HW117477   1.181   4.233   1.528  1.5765  0.6162  1.9242
 2005SOL    HW217478   1.037   4.278   1.537  0.0270  0.4066  0.0313
 2006SOL     OW17479   2.862   4.355   5.395  0.1690 -0.0974 -0.0810
 2006SOL    HW117480   2.898   4.278   5.351  0.2849  0.4404 -0.9158
 2006SOL    HW217481   2.770   4.339   5.373  0.3328 -0.1078 -0.7561
 2007SOL     OW17482   0.198   4.466   2.034 -0.3902 -0.6302  0.3902
 2007SOL    HW117483   0.272   4.517   2.002 -0.2450  0.3189  2.2753
 2007SOL    HW217484   0.236   4.428   2.113  0.1775  0.9720  0.8814
 2008SOL     OW17485   4.509   1.266   0.881  0.4247  0.2059 -0.9985
 2008SOL    HW117486   4.570   1.211   0.931  0.7373  0.4516 -1.1090
 2008SOL    HW217487   4.548   1.269   0.793 -0.5789  2.6401 -1.3466
 2009SOL     OW17488   2.050   0.513   3.549 -0.1741 -0.7652  0.0482
 2009SOL    HW117489   1.985   0.457   3.506 -0.9747 -1.7160  2.5327
 2009SOL    HW217490   2.134   0.470   3.535 -0.2313 -0.3625 -1.5276
 2010SOL     OW17491   0.867   1.764  10.299 -0.0552 -0.1802  0.0796
 2010SOL    HW117492   0.893   1.813  10.377 -0.8347 -1.0067  0.8621
 2010SOL    HW217493   0.775   1.746  10.314 -0.0697 -0.7246 -0.6479
 2011SOL     OW17494   2.404   4.015   3.802  0.2782  0.3876 -0.0433
 2011SOL    HW117495   2.347   4.047   3.732 -1.6674 -2.6587  0.1774
 2011SOL    HW217496   2.483   3.981   3.760 -0.1493 -0.6354 -0.0086
 2012SOL     OW17497   3.247   0.161   3.026  0.5509  0.2869  0.6724
 2012SOL    HW117498   3.341   0.149   3.014  0.7806  1.1955  1.6202
 2012SOL    HW217499   3.245   0.218   3.103 -0.3721  1.1035  0.0564
 2013SOL     OW17500   1.576   1.178   5.608  0.3569  0.1362 -0.0592
 2013SOL    HW117501   1.649   1.196   5.666  0.0860  1.4299 -0.1349
 2013SOL    HW217502   1.539   1.096   5.641 -0.1994  0.2479 -0.3857
 2014SOL     OW17503   0.444   3.776   1.349  0.2450  0.3817 -0.1168
 2014SOL    HW117504   0.537   3.794   1.334  0.2759  1.0486  0.8765
 2014SOL    HW217505   0.455   3.737   1.435  1.9206  2.7364  0.7651
 2015SOL     OW17506   1.123   3.750   0.727  0.4674  0.6882 -0.3647
 2015SOL    HW117507   1.074   3.810   0.671 -0.7787 -0.9313 -1.0263
 2015SOL    HW217508   1.046   3.708   0.765  0.0173  1.7606 -0.0972
 2016SOL     OW17509   0.236   0.949  11.958 -0.6396  0.3365  0.1962
 2016SOL    HW117510   0.168   0.883  11.968 -1.3702  1.3674  1.9752
 2016SOL    HW217511   0.272   0.949  12.047 -0.0023  0.9346 -0.0590
 2017SOL     OW17512   4.685   0.294  16.048 -0.2689  0.5696  0.4237
 2017SOL    HW117513   0.016   0.375  16.047  0.1046  0.2797 -2.9466
 2017SOL    HW217514   0.021   0.232  16.003 -0.0761  0.6532  0.5525
 2018SOL     OW17515   0.168   1.363   4.591  0.6868  0.0925 -0.2252
 2018SOL    HW117516   0.183   1.400   4.678  0.7413 -1.5892  0.4691
 2018SOL    HW217517   0.201   1.275   4.608  1.6763  1.0842  2.8943
 2019SOL     OW17518   0.485   2.630   2.366 -0.4133 -0.1764 -0.5192
 2019SOL    HW117519   0.430   2.556   2.390 -0.3606  0.2338  0.8667
 2019SOL    HW217520   0.430   2.689   2.315 -0.7355 -0.2792 -0.2919
 2020SOL     OW17521   0.148   2.875   0.867  0.2029 -0.1543  0.0411
 2020SOL    HW117522   0.082   2.810   0.842 -0.3645  0.3432  0.2385
 2020SOL    HW217523   0.122   2.903   0.955 -2.0921  0.8729 -0.9681
 2021SOL     OW17524   1.724   3.726  15.815 -0.5656  0.0958  0.2964
 2021SOL    HW117525   1.784   3.784  15.863  1.3760 -3.6347  2.3268
 2021SOL    HW217526   1.708   3.775  15.734  2.0640  0.2369 -0.1577
 2022SOL     OW17527   2.338   1.131  11.034 -0.1125  0.6038  0.1861
 2022SOL    HW117528   2.415   1.120  11.089 -0.8744  0.4690  1.2254
 2022SOL    HW217529   2.368   1.151  10.945 -0.3799  0.0959 -0.0245
 2023SOL     OW17530   4.389   3.856   7.830  0.2538  0.2073 -0.2168
 2023SOL    HW117531   4.388   3.836   7.924  1.8972 -0.1856 -0.2845
 2023SOL    HW217532   4.481   3.884   7.822  0.5554 -0.9827 -0.7751
 2024SOL     OW17533   4.155   3.978  16.087  0.0135  0.3131 -0.4728
 2024SOL    HW117534   4.165   4.067  16.054 -0.3072  1.1101  1.5589
 2024SOL    HW217535   4.238   3.962  16.132  0.6805  0.0744 -1.7960
 2025SOL     OW17536   4.244   3.321  10.143 -0.7598 -0.4194  0.7872
 2025SOL    HW117537   4.334   3.292  10.151 -0.3526  0.7778  0.6222
 2025SOL    HW217538   4.224   3.252  10.080 -0.4139 -0.0127  0.2303
 2026SOL     OW17539   2.599   0.926   8.540  0.0332 -0.5732 -0.3133
 2026SOL    HW117540   2.591   0.832   8.526 -0.1978 -0.6558  0.3639
 2026SOL    HW217541   2.565   0.941   8.629  1.2166 -0.9030  0.1839
 2027SOL     OW17542   0.468   1.683   1.811  0.8457  0.6424 -0.1426
 2027SOL    HW117543   0.443   1.618   1.745  0.9148  0.6778 -0.2034
 2027SOL    HW217544   0.426   1.761   1.775  2.0114 -0.2559 -3.4597
 2028SOL     OW17545   2.892   3.458  16.900  0.0148  0.3731 -0.1636
 2028SOL    HW117546   2.810   3.424  16.937 -1.3630  2.7232 -1.0920
 2028SOL    HW217547   2.922   3.372  16.868 -1.8296  0.0345 -0.9807
 2029SOL     OW17548   0.213   4.319  12.861  0.7075 -0.0406  0.3198
 2029SOL    HW117549   0.156   4.280  12.927 -1.5352  0.4331 -1.3186
 2029SOL    HW217550   0.153   4.330  12.788  0.8031 -2.9619 -0.1656
 2030SOL     OW17551   0.041   0.617   6.190 -0.3264 -0.2915  0.1511
 2030SOL    HW117552   0.002   0.677   6.253  0.3939 -0.3393  0.6341
 2030SOL    HW217553   4.693   0.556   6.166  1.1309 -1.5970 -0.7703
 2031SOL     OW17554   0.725   1.237  14.314  0.5921  0.5074 -0.2034
 2031SOL    HW117555   0.691   1.299  14.250  0.1636  1.3418  0.8324
 2031SOL    HW217556   0.761   1.168  14.259 -0.3125 -0.4401  0.3813
 2032SOL     OW17557   4.393   2.070   4.205  0.1552  0.0908  0.1604
 2032SOL    HW117558   4.301   2.066   4.177  0.1159  2.0439 -0.0242
 2032SOL    HW217559   4.397   2.164   4.222  0.7530 -0.3207  2.3034
 2033SOL     OW17560   0.098   1.104  11.032  0.7447 -0.3591 -0.4082
 2033SOL    HW117561   0.161   1.081  11.101  0.7580 -0.7582 -0.5533
 2033SOL    HW217562   0.134   1.190  11.012  2.3136 -0.3958  2.1703
 2034SOL     OW17563   1.754   2.066   7.235  0.7502 -0.1642  0.3346
 2034SOL    HW117564   1.785   2.066   7.144  0.7597 -4.2981  0.3352
 2034SOL    HW217565   1.813   2.006   7.280  0.0245 -1.9424 -1.1040
 2035SOL     OW17566   3.668   1.088   2.446 -0.2492 -0.1560  0.0889
 2035SOL    HW117567   3.666   1.052   2.535 -0.6719 -0.8101 -0.1897
 2035SOL    HW217568   3.734   1.157   2.453  0.9784 -1.3514  0.2819
 2036SOL     OW17569   2.934   2.638   7.165  0.4965 -0.0637 -0.5914
 2036SOL    HW117570   3.023   2.673   7.174  0.7928 -0.4579 -1.9000
 2036SOL    HW217571   2.909   2.689   7.088  0.4728 -0.0428 -0.5699
 2037SOL     OW17572   0.496   2.529  16.884 -0.6312 -0.1934 -0.4450
 2037SOL    HW117573   0.443   2.606  16.904 -1.6210 -1.1562  0.6193
 2037SOL    HW217574   0.431   2.467  16.853 -0.2688 -1.6292  1.6654
 2038SOL     OW17575   2.137   3.678   9.450 -0.7650  0.2562 -0.0137
 2038SOL    HW117576   2.144   3.768   9.417  1.1933  0.9414  2.2504
 2038SOL    HW217577   2.060   3.684   9.506 -0.3759 -2.6826  0.8324
 2039SOL     OW17578   3.349   2.217   3.171  0.2312  0.4773  0.1360
 2039SOL    HW117579   3.380   2.221   3.262  0.8136 -3.1939  0.0623
 2039SOL    HW217580   3.285   2.147   3.180  1.6129 -0.7248  0.5594
 2040SOL     OW17581   0.498   2.194  16.568 -0.2063 -0.2781  0.1581
 2040SOL    HW117582   0.573   2.139  16.593 -0.0118 -0.2670 -0.3942
 2040SOL    HW217583   0.510   2.201  16.473  1.4490 -3.4928  0.1118
 2041SOL     OW17584   0.520   3.589   4.344  0.2160  0.0864 -0.1120
 2041SOL    HW117585   0.558   3.579   4.432  0.2964 -0.5677 -0.2220
 2041SOL    HW217586   0.483   3.677   4.354  5.1970  1.9481  2.1303
 2042SOL     OW17587   1.919   1.960   6.173 -0.2026  0.2953 -0.7098
 2042SOL    HW117588   1.913   1.865   6.181 -1.2058  0.2459 -1.9106
 2042SOL    HW217589   1.928   1.978   6.079  3.0078  0.4084 -0.3842
 2043SOL     OW17590   2.161   4.170   6.493  0.1147 -0.0269  0.0486
 2043SOL    HW117591   2.068   4.182   6.513 -0.0808  0.6284 -1.2259
 2043SOL    HW217592   2.197   4.257   6.512 -0.4799  0.3416 -0.4754
 2044SOL     OW17593   1.163   1.805   6.121 -0.3007  0.1544 -0.2193
 2044SOL    HW117594   1.225   1.848   6.181  0.2267  0.3287 -0.8939
 2044SOL    HW217595   1.120   1.747   6.184  1.1908 -0.9728 -0.2279
 2045SOL     OW17596   3.884   4.228   3.319 -0.3508 -0.5478  0.6271
 2045SOL    HW117597   3.888   4.272   3.404  0.9366 -0.5362  0.5711
 2045SOL    HW217598   3.943   4.153   3.322  1.3918  0.7580 -0.5647
 2046SOL     OW17599   3.146   0.518   5.795 -0.2604 -0.1634  0.1525
 2046SOL    HW117600   3.205   0.585   5.829  0.0553 -0.9599  1.1540
 2046SOL    HW217601   3.190   0.436   5.815 -1.5167 -0.5278  1.4141
 2047SOL     OW17602   3.838   4.316   4.541 -0.0227  0.1967 -0.3119
 2047SOL    HW117603   3.744   4.298   4.542 -0.0870  0.7662  2.6621
 2047SOL    HW217604   3.863   4.346   4.453 -1.2693  0.8363 -0.4432
 2048SOL     OW17605   3.269   0.689   8.384 -0.2507 -0.0376 -0.2890
 2048SOL    HW117606   3.269   0.612   8.441  1.1651 -1.3238 -2.0230
 2048SOL    HW217607   3.280   0.650   8.297  0.5537  1.4239 -0.8462
 2049SOL     OW17608   3.649   2.742   4.725 -0.1058 -0.3478 -0.3400
 2049SOL    HW117609   3.660   2.651   4.699 -1.1578 -0.5606 -0.0558
 2049SOL    HW217610   3.647   2.728   4.820  0.7363 -1.8778 -0.5398
 2050SOL     OW17611   3.719   4.537   9.217 -0.0046 -0.1542 -0.0088
 2050SOL    HW117612   3.721   4.476   9.291  0.5556  0.5250  0.5353
 2050SOL    HW217613   3.795   4.495   9.177  0.9522 -0.9469  2.6644
 2051SOL     OW17614   2.855   4.052   8.860 -0.2235 -0.0184 -0.1603
 2051SOL    HW117615   2.821   4.106   8.931 -0.1781  1.4969 -1.2857
 2051SOL    HW217616   2.840   4.102   8.780  0.5207  2.8532  1.4671
 2052SOL     OW17617   0.290   1.832  17.579 -0.3036  0.2980 -0.2221
 2052SOL    HW117618   0.290   1.927  17.572 -2.9675  0.4212  1.2898
 2052SOL    HW217619   0.256   1.816  17.491  0.8269 -1.7464 -0.2844
 2053SOL     OW17620   0.893   3.910   5.399 -0.2161 -0.0350  0.2678
 2053SOL    HW117621   0.809   3.915   5.445 -1.4257 -1.0943 -1.8125
 2053SOL    HW217622   0.856   3.938   5.315  0.0215  2.6543  1.0718
 2054SOL     OW17623   0.441   1.340   0.892 -0.3625  0.0032  0.4373
 2054SOL    HW117624   0.434   1.373   0.982 -0.0674  1.8213 -0.2031
 2054SOL    HW217625   0.351   1.334   0.858  0.2603 -0.3405 -1.1377
 2055SOL     OW17626   0.074   0.563   4.121  0.1386 -0.5782 -0.3409
 2055SOL    HW117627   0.162   0.600   4.128 -1.1052  1.8792  2.1956
 2055SOL    HW217628   0.079   0.553   4.026  0.6219  3.7705 -0.8113
 2056SOL     OW17629   1.579   2.506   9.412 -0.1772  0.0985  1.0521
 2056SOL    HW117630   1.641   2.573   9.386  0.2268 -0.1666  1.3386
 2056SOL    HW217631   1.631   2.426   9.404  0.7841  1.0840 -2.2713
 2057SOL     OW17632   0.552   2.923   2.269 -0.3469  0.1738 -0.4641
 2057SOL    HW117633   0.593   2.894   2.188 -0.2980 -1.9010  0.3171
 2057SOL    HW217634   0.462   2.924   2.236  0.0529 -1.0066 -1.5754
 2058SOL     OW17635   3.712   2.696   7.794 -0.5557  0.2259  0.2116
 2058SOL    HW117636   3.750   2.622   7.745 -0.7863  0.7909 -0.8201
 2058SOL    HW217637   3.621   2.668   7.802 -0.1474 -0.7513  1.4491
 2059SOL     OW17638   3.400   1.967   4.916  0.2805  0.2985  0.3450
 2059SOL    HW117639   3.476   1.979   4.973  0.2667 -0.1126  0.4508
 2059SOL    HW217640   3.360   2.053   4.934 -0.0083 -0.0602  1.4737
 2060SOL     OW17641   2.672   3.876   7.121  0.9983 -0.8094  0.4318
 2060SOL    HW117642   2.673   3.921   7.037  2.0323 -0.6625  0.5223
 2060SOL    HW217643   2.730   3.928   7.178  0.5035  1.6728 -1.3019
 2061SOL     OW17644   3.724   1.525   6.341 -0.0321 -0.0448  0.4494
 2061SOL    HW117645   3.750   1.617   6.332 -0.0186 -0.0833  0.0950
 2061SOL    HW217646   3.812   1.490   6.357 -0.1913 -1.4275 -1.7624
 2062SOL     OW17647   1.112   2.249   2.079 -0.6754 -0.4090 -0.1338
 2062SOL    HW117648   1.061   2.320   2.119  0.8459  1.5576 -1.6697
 2062SOL    HW217649   1.194   2.292   2.056 -1.1005 -0.7434 -2.3257
 2063SOL     OW17650   3.164   4.450   3.125 -0.3807 -0.1464  0.4152
 2063SOL    HW117651   3.225   4.500   3.179 -1.7518  0.2355  1.6212
 2063SOL    HW217652   3.147   4.511   3.053  0.4432  0.4445  0.7194
 2064SOL     OW17653   1.010   4.641   7.790  0.0540 -0.1332 -0.7825
 2064SOL    HW117654   0.916   4.654   7.799  0.0567 -0.4753 -0.2592
 2064SOL    HW217655   1.013   4.545   7.795 -1.0085  0.0187  2.1277
 2065SOL     OW17656   0.027   3.721  13.673  0.2355 -0.2011  0.3249
 2065SOL    HW117657   0.097   3.773  13.713 -0.6047  0.8051  0.4767
 2065SOL    HW217658   4.674   3.745  13.728  0.5607 -0.5252  0.9024
 2066SOL     OW17659   3.827   3.876  12.346 -0.0601 -0.2073  0.2914
 2066SOL    HW117660   3.899   3.910  12.293  0.3400  0.0188  0.9905
 2066SOL    HW217661   3.774   3.955  12.351  0.0005 -0.1388 -0.1599
 2067SOL     OW17662   1.127   3.617   7.230  0.2604  0.1183  0.0142
 2067SOL    HW117663   1.101   3.525   7.223  0.3566  0.1675 -0.9686
 2067SOL    HW217664   1.097   3.641   7.142 -0.4053  0.2066  0.2648
 2068SOL     OW17665   0.549   2.795  17.561  0.3817 -0.0042 -0.1710
 2068SOL    HW117666   0.456   2.776  17.547  0.5978 -0.2708 -1.2410
 2068SOL    HW217667   0.585   2.708  17.581  0.5840 -0.1723 -1.2715
 2069SOL     OW17668   0.001   1.283   3.920  0.2336  0.3197 -0.1620
 2069SOL    HW117669   4.684   1.370   3.913  1.9016  0.9888 -1.0765
 2069SOL    HW217670   0.021   1.267   3.827 -0.2796  2.3369 -0.6144
 2070SOL     OW17671   2.944   4.143   6.080  0.0579 -0.1026  0.0430
 2070SOL    HW117672   2.976   4.216   6.133  0.7898  0.9140 -1.7852
 2070SOL    HW217673   3.029   4.122   6.041 -0.4464  1.5467 -1.9593
 2071SOL     OW17674   3.828   2.833   1.986 -0.1854 -0.8482  0.3655
 2071SOL    HW117675   3.782   2.789   2.058 -0.2734 -0.6819  0.4108
 2071SOL    HW217676   3.781   2.916   2.000 -0.0876 -0.5216 -1.2192
 2072SOL     OW17677   4.495   2.089   2.247  0.1838 -0.1730  0.5814
 2072SOL    HW117678   4.584   2.121   2.262  0.5606 -0.3450 -1.2791
 2072SOL    HW217679   4.485   2.117   2.156  0.8051  2.2506  1.2498
 2073SOL     OW17680   0.885   3.475   8.353  0.4218 -0.3996  0.7914
 2073SOL    HW117681   0.902   3.568   8.335  1.6730 -1.2392 -2.4287
 2073SOL    HW217682   0.834   3.441   8.280  1.5391  1.1614 -0.7288
 2074SOL     OW17683   2.331   0.083   3.269  0.3635 -0.4011 -0.0340
 2074SOL    HW117684   2.418   0.101   3.305 -0.3598  2.5124  0.2116
 2074SOL    HW217685   2.325   0.139   3.192  0.4344 -0.4207 -0.0534
 2075SOL     OW17686   2.401   3.768   2.613  0.5379  0.2526  0.1691
 2075SOL    HW117687   2.368   3.816   2.536  1.5882 -0.4697 -0.7224
 2075SOL    HW217688   2.332   3.796   2.673  0.0869 -0.1816 -0.1404
 2076SOL     OW17689   2.010   2.884   7.253 -0.7442 -0.1292 -0.0545
 2076SOL    HW117690   1.971   2.962   7.214 -1.8925 -0.4637  0.4287
 2076SOL    HW217691   2.044   2.838   7.176  0.9490 -1.1111  1.2690
 2077SOL     OW17692   0.586   2.373   9.355  0.5221 -0.3065  0.0506
 2077SOL    HW117693   0.653   2.394   9.420  0.0883 -0.7370  0.6336
 2077SOL    HW217694   0.633   2.400   9.276 -0.9473 -2.9829 -1.7300
 2078SOL     OW17695   4.520   2.158   6.255 -0.1460 -0.4069  0.1349
 2078SOL    HW117696   4.581   2.093   6.221  1.0683  2.4521 -3.1051
 2078SOL    HW217697   4.495   2.114   6.336  0.0427  1.5023  1.2547
 2079SOL     OW17698   1.414   3.062  14.689 -0.4327  0.0025  0.1168
 2079SOL    HW117699   1.333   3.066  14.638  0.5163 -0.8429 -1.4725
 2079SOL    HW217700   1.383   3.004  14.758 -0.3577  1.6886  1.5508
 2080SOL     OW17701   3.041   2.147   4.241 -0.2133 -0.0841 -0.0665
 2080SOL    HW117702   2.991   2.184   4.169 -0.3178 -0.9105 -0.4105
 2080SOL    HW217703   2.980   2.092   4.290  0.1059  0.1193  0.5685
 2081SOL     OW17704   2.661   0.966  10.905  0.3677 -0.0119 -0.0431
 2081SOL    HW117705   2.726   0.919  10.957  3.0658  3.3557 -0.4012
 2081SOL    HW217706   2.677   0.918  10.823 -0.9339 -0.9650  0.2469
 2082SOL     OW17707   1.494   2.652   4.946 -0.3425  0.4093  0.0637
 2082SOL    HW117708   1.476   2.597   4.871 -0.8449  2.2181 -1.1487
 2082SOL    HW217709   1.461   2.593   5.013 -0.9501  1.0561  0.3288
 2083SOL     OW17710   3.485   1.970   1.844 -0.5977  0.2554  0.2286
 2083SOL    HW117711   3.550   1.968   1.914  0.1133 -0.5605 -0.4587
 2083SOL    HW217712   3.448   1.883   1.859 -0.1914  0.0774  0.1893
 2084SOL     OW17713   4.707   1.701   2.462 -0.4530 -0.0315 -0.2333
 2084SOL    HW117714   4.622   1.737   2.489  0.7522  2.7688 -0.2150
 2084SOL    HW217715   4.717   1.718   2.369  3.1378 -0.0448  0.1726
 2085SOL     OW17716   0.548   4.481  17.281  0.0661 -0.1762 -0.1569
 2085SOL    HW117717   0.459   4.448  17.268 -0.1933  0.1060  0.9352
 2085SOL    HW217718   0.594   4.397  17.277  2.4127  1.2144 -2.2605
 2086SOL     OW17719   0.743   0.546   5.217 -0.8027 -0.2930 -0.1745
 2086SOL    HW117720   0.703   0.596   5.146  0.4214  0.3404 -0.4010
 2086SOL    HW217721   0.798   0.488   5.164 -0.8902 -0.7987  0.2805
 2087SOL     OW17722   1.531   3.349   4.190 -0.6102  0.7356  0.0010
 2087SOL    HW117723   1.442   3.359   4.154 -1.2729 -0.1196  1.4218
 2087SOL    HW217724   1.566   3.267   4.155 -1.7659  0.1966  0.0780
 2088SOL     OW17725   4.315   4.120   8.665 -0.1788 -0.0495  0.6117
 2088SOL    HW117726   4.335   4.128   8.758  0.0620  0.2625  0.5308
 2088SOL    HW217727   4.267   4.038   8.655 -2.0006  0.9416  1.1041
 2089SOL     OW17728   2.466   1.542   8.331  0.2521  0.0643 -0.1998
 2089SOL    HW117729   2.550   1.496   8.329 -0.4385 -1.2698  1.0005
 2089SOL    HW217730   2.412   1.463   8.339  0.7062 -0.3515 -1.2683
 2090SOL     OW17731   1.865   4.355  14.783 -0.1032  0.6628 -0.4366
 2090SOL    HW117732   1.941   4.411  14.798 -0.4709  0.5525  1.7664
 2090SOL    HW217733   1.814   4.432  14.757 -0.0784 -0.0321 -2.6020
 2091SOL     OW17734   2.950   3.507   5.158  0.0177 -0.0916 -0.4869
 2091SOL    HW117735   2.894   3.584   5.146 -1.5166 -1.5231 -2.6149
 2091SOL    HW217736   2.879   3.444   5.147  1.1686 -1.6341  0.9538
 2092SOL     OW17737   1.707   4.038   1.507 -0.0347 -0.3225  0.2369
 2092SOL    HW117738   1.665   4.087   1.577 -1.1910 -2.9647  1.3779
 2092SOL    HW217739   1.657   3.958   1.523  2.9775 -2.7044 -2.2552
 2093SOL     OW17740   1.859   0.600  15.134 -0.1022 -0.2019  0.5129
 2093SOL    HW117741   1.919   0.623  15.205  1.8370 -1.9672 -0.5577
 2093SOL    HW217742   1.868   0.666  15.066  0.4734 -1.0627 -0.2512
 2094SOL     OW17743   4.216   4.097   2.332 -0.4203  0.1535  0.4562
 2094SOL    HW117744   4.272   4.025   2.359 -0.6546  0.2576  1.2107
 2094SOL    HW217745   4.153   4.090   2.404  0.1280 -1.3144  0.7885
 2095SOL     OW17746   1.886   3.731   1.754  0.2876  0.4598  0.2104
 2095SOL    HW117747   1.921   3.818   1.738 -0.9030  0.3878 -2.7442
 2095SOL    HW217748   1.845   3.702   1.672 -0.0005  1.9138 -0.1473
 2096SOL     OW17749   1.049   0.970  10.312 -0.2200  0.4780 -0.0909
 2096SOL    HW117750   0.992   0.950  10.386  0.1734  1.5432  0.5060
 2096SOL    HW217751   0.985   1.003  10.248 -1.8477 -1.1760  0.7154
 2097SOL     OW17752   2.225   0.432   3.337  0.6828 -0.9761 -0.1556
 2097SOL    HW117753   2.275   0.513   3.319 -0.2453  0.1224  2.3242
 2097SOL    HW217754   2.295   0.382   3.379  0.0046 -0.9154  1.0135
 2098SOL     OW17755   4.011   0.517   7.680 -0.8555 -0.6090 -0.2889
 2098SOL    HW117756   4.028   0.548   7.591 -0.7374  0.4614  0.1118
 2098SOL    HW217757   4.007   0.596   7.733  0.5939 -0.6603 -0.1215
 2099SOL     OW17758   2.902   3.967   1.029  0.1991  0.4037 -0.6002
 2099SOL    HW117759   2.925   4.053   1.064 -1.9123 -0.3602  2.6701
 2099SOL    HW217760   2.947   3.906   1.089 -0.8485 -1.1985 -1.4315
 2100SOL     OW17761   2.887   0.620   6.692  0.2790 -0.4335 -0.5753
 2100SOL    HW117762   2.838   0.674   6.630  0.9082 -2.1034 -2.5259
 2100SOL    HW217763   2.817   0.576   6.741 -0.9409  1.5471 -0.5306
 2101SOL     OW17764   2.980   2.082   7.642 -0.3010 -0.2490  0.1592
 2101SOL    HW117765   3.051   2.137   7.610 -0.1790 -0.2972  0.3493
 2101SOL    HW217766   3.029   2.019   7.694  0.3477 -0.4579 -0.7250
 2102SOL     OW17767   1.396   0.952  15.605 -0.0016 -0.6508  0.3871
 2102SOL    HW117768   1.417   0.864  15.572  1.3011  0.0982 -0.7627
 2102SOL    HW217769   1.459   0.957  15.677  1.5515 -2.0188 -0.8861
 2103SOL     OW17770   0.098   2.967   3.589  0.5317  0.7627  0.0335
 2103SOL    HW117771   0.111   2.875   3.564 -0.5048  0.3250  1.0897
 2103SOL    HW217772   0.182   2.979   3.633  0.3812  2.8849 -0.2610
 2104SOL     OW17773   0.996   3.167   5.710 -0.2559  0.3731 -0.0187
 2104SOL    HW117774   0.946   3.186   5.789  0.8689 -0.1881  0.8292
 2104SOL    HW217775   0.928   3.108   5.677 -2.1969  1.2536  2.4123
 2105SOL     OW17776   3.169   4.589   5.820  0.1101 -0.0955 -0.4775
 2105SOL    HW117777   3.111   4.621   5.888  0.1122 -1.7099  0.2663
 2105SOL    HW217778   3.109   4.549   5.756 -0.7276  0.4560 -0.0289
 2106SOL     OW17779   2.438   1.079  10.789 -0.4179 -0.3219 -0.3186
 2106SOL    HW117780   2.486   1.146  10.740 -0.3138  0.2666  0.5982
 2106SOL    HW217781   2.513   1.050  10.841  0.0276 -1.5883 -1.6708
 2107SOL     OW17782   2.909   0.567   7.066 -0.6531 -0.6508  0.0781
 2107SOL    HW117783   2.924   0.587   7.159  1.4643  1.0335 -0.6389
 2107SOL    HW217784   2.960   0.487   7.060 -1.3531 -1.2645  2.0113
 2108SOL     OW17785   2.822   3.062  15.807 -0.6273 -0.6359  0.0495
 2108SOL    HW117786   2.786   3.087  15.722 -1.1403  0.2823  0.5294
 2108SOL    HW217787   2.779   3.119  15.871  0.6054  1.8741 -1.3252
 2109SOL     OW17788   4.302   0.970   1.190  0.1903  0.5945 -0.3589
 2109SOL    HW117789   4.340   0.885   1.167 -1.4339 -0.0841 -0.5154
 2109SOL    HW217790   4.292   0.959   1.285  2.1123  0.6857 -0.1390
 2110SOL     OW17791   0.003   1.344   6.182  0.2256  0.5830  0.0222
 2110SOL    HW117792   4.703   1.358   6.275 -0.5005  1.3101 -0.2623
 2110SOL    HW217793   4.691   1.255   6.171 -0.1302  0.6459  0.5824
 2111SOL     OW17794   0.340   2.011  13.508 -0.2521 -0.3369 -0.0270
 2111SOL    HW117795   0.317   1.990  13.599  1.0039  0.4852  0.4806
 2111SOL    HW217796   0.257   2.058  13.492  0.6691  1.3387  0.1011
 2112SOL     OW17797   0.738   0.903  14.691  0.2049 -0.5638  0.0072
 2112SOL    HW117798   0.701   0.923  14.605 -1.4241 -0.8858  0.6385
 2112SOL    HW217799   0.666   0.852  14.727  0.5450 -0.0900  1.3477
 2113SOL     OW17800   2.927   0.905   6.249 -0.6166 -0.0202 -0.5246
 2113SOL    HW117801   2.922   0.816   6.284 -0.6352 -0.4002 -1.5052
 2113SOL    HW217802   2.867   0.952   6.309 -0.4033 -0.2670 -0.1159
 2114SOL     OW17803   1.802   3.543  10.825  0.6675  0.0032  0.0084
 2114SOL    HW117804   1.783   3.604  10.754 -1.5033  0.4091  0.9307
 2114SOL    HW217805   1.816   3.599  10.901  0.1618  0.6618 -0.3818
 2115SOL     OW17806   0.477   3.225  14.349 -0.4664 -0.3301 -0.6052
 2115SOL    HW117807   0.452   3.208  14.258 -1.2093 -0.5802 -0.3470
 2115SOL    HW217808   0.457   3.142  14.393  0.4977 -0.9017 -1.2329
 2116SOL     OW17809   2.258   2.774  13.678  0.4572 -0.3224 -0.0556
 2116SOL    HW117810   2.281   2.692  13.722  0.8675 -0.1305  0.0883
 2116SOL    HW217811   2.307   2.769  13.596 -1.6482 -0.4135 -1.3046
 2117SOL     OW17812   0.066   0.170   2.468  0.4296 -0.7822 -0.7911
 2117SOL    HW117813   0.082   0.198   2.378  1.4131 -1.2812 -0.7714
 2117SOL    HW217814   0.075   0.247   2.524  0.4758 -0.3561 -1.3824
 2118SOL     OW17815   1.042   0.713   0.519 -0.3764 -0.2273 -0.1558
 2118SOL    HW117816   1.006   0.638   0.566  2.7822  0.4506  3.2903
 2118SOL    HW217817   1.111   0.732   0.582  0.6938 -0.5882 -1.2279
 2119SOL     OW17818   2.605   1.157  11.147 -0.3465  0.2341 -0.1541
 2119SOL    HW117819   2.602   1.080  11.204  2.1452  1.5880  1.8064
 2119SOL    HW217820   2.692   1.139  11.111  0.3736  1.9740  0.7218
 2120SOL     OW17821   1.168   2.235   8.782 -0.0056  0.2595 -0.2906
 2120SOL    HW117822   1.222   2.314   8.778 -0.0756  0.1988 -2.1044
 2120SOL    HW217823   1.085   2.280   8.797  0.2343  0.7532 -0.4565
 2121SOL     OW17824   3.199   0.757   7.437  0.0592 -0.2606 -0.5220
 2121SOL    HW117825   3.266   0.719   7.493  0.0818  0.7507  0.1377
 2121SOL    HW217826   3.123   0.743   7.493  0.2998 -0.3277 -0.2140
 2122SOL     OW17827   0.388   2.173   2.944 -0.4223  0.0325  0.6523
 2122SOL    HW117828   0.411   2.131   2.861 -1.2775  0.3621  0.2516
 2122SOL    HW217829   0.366   2.262   2.917  0.0431  0.1714  0.7340
 2123SOL     OW17830   4.124   4.210   0.961 -0.3446  0.6662 -0.5318
 2123SOL    HW117831   4.109   4.221   1.055  0.7184  1.7203 -0.4980
 2123SOL    HW217832   4.152   4.300   0.947 -1.5745  0.9791 -1.0424
 2124SOL     OW17833   1.437   1.397   0.006  0.1608 -0.0209  0.2213
 2124SOL    HW117834   1.408   1.464  17.632  2.9627  0.0377 -1.0301
 2124SOL    HW217835   1.531   1.417   0.005  0.3092 -0.6074  2.3429
 2125SOL     OW17836   1.540   0.911  15.835 -0.0195  0.4185  0.1935
 2125SOL    HW117837   1.512   0.832  15.881  0.1518  0.5391  0.5062
 2125SOL    HW217838   1.574   0.973  15.900  1.5465 -0.2594  0.0082
 2126SOL     OW17839   3.805   2.808  14.981 -0.6865  0.1922  0.2386
 2126SOL    HW117840   3.801   2.715  14.959 -2.2199  1.0099 -2.9909
 2126SOL    HW217841   3.733   2.821  15.043  1.3237 -0.9620  2.7981
 2127SOL     OW17842   4.625   1.310   8.211  0.0490  0.3239 -0.3889
 2127SOL    HW117843   4.657   1.400   8.203  0.0622  0.4132  0.5658
 2127SOL    HW217844   4.682   1.289   8.285  0.6847 -2.0345 -1.5723
 2128SOL     OW17845   4.357   2.564   4.220  0.5655 -0.0978 -0.0809
 2128SOL    HW117846   4.432   2.574   4.161 -0.4640  0.9402 -1.2121
 2128SOL    HW217847   4.314   2.494   4.171 -1.5700  1.0261  0.1933
 2129SOL     OW17848   4.554   3.642   7.024  0.2500  0.1332 -0.4731
 2129SOL    HW117849   4.578   3.592   6.945  1.0019 -1.3399  0.6787
 2129SOL    HW217850   4.589   3.574   7.081 -0.0876 -0.3414 -0.8333
 2130SOL     OW17851   3.257   0.264   4.919  0.6641  0.2762  0.2201
 2130SOL    HW117852   3.301   0.187   4.883  1.4167  0.8047 -0.0116
 2130SOL    HW217853   3.177   0.239   4.965  3.1608 -1.3195  3.6943
 2131SOL     OW17854   0.610   3.451   2.718  0.5111 -0.1673 -0.2060
 2131SOL    HW117855   0.579   3.471   2.629 -2.9502 -0.1757  0.9771
 2131SOL    HW217856   0.638   3.359   2.714 -0.4079 -0.4803  0.5590
 2132SOL     OW17857   3.874   0.951   8.973  0.2971 -0.0732 -0.3673
 2132SOL    HW117858   3.885   0.856   8.982  2.5505  0.2435  0.0896
 2132SOL    HW217859   3.884   0.968   8.880  0.3066 -1.6644 -0.6597
 2133SOL     OW17860   2.081   0.415   3.083  0.6136  0.5119 -0.8616
 2133SOL    HW117861   2.120   0.430   3.170 -1.3177  0.9348 -0.0594
 2133SOL    HW217862   2.143   0.366   3.030 -0.5169 -1.4202 -0.3897
 2134SOL     OW17863   1.857   4.646   6.193  0.2065  0.7577  0.0092
 2134SOL    HW117864   1.941   4.633   6.237  0.4019 -1.8585 -1.1097
 2134SOL    HW217865   1.836   4.553   6.199  1.2424  0.4835 -0.5581
 2135SOL     OW17866   2.048   2.966   6.757  0.3644 -0.2383  0.0628
 2135SOL    HW117867   2.057   2.927   6.670 -0.8101 -3.1792  1.2414
 2135SOL    HW217868   1.955   2.956   6.780  0.0044  0.0636 -1.3141
 2136SOL     OW17869   0.434   0.754   2.995  0.5695  0.0953  0.1083
 2136SOL    HW117870   0.397   0.697   3.062  0.5554  0.5842  0.5173
 2136SOL    HW217871   0.392   0.718   2.918 -2.8344 -1.9489  2.9618
 2137SOL     OW17872   1.748   1.240   7.046 -0.1357  0.4238  0.0198
 2137SOL    HW117873   1.691   1.281   7.111 -2.2318 -0.2912 -1.3741
 2137SOL    HW217874   1.768   1.155   7.085 -0.5784  0.4218  0.2438
 2138SOL     OW17875   2.724   4.527  17.181  0.0633 -0.3514 -0.2846
 2138SOL    HW117876   2.686   4.595  17.236  0.2819  1.0183 -1.8194
 2138SOL    HW217877   2.687   4.537  17.093  0.9180  0.6819 -0.5406
 2139SOL     OW17878   2.275   0.030   4.373  0.5031  0.1498 -0.2498
 2139SOL    HW117879   2.204   0.091   4.353 -0.6867 -1.3064 -0.5057
 2139SOL    HW217880   2.289   4.712   4.287  0.4837  1.4731 -0.8538
 2140SOL     OW17881   3.504   2.191   2.537 -0.2197 -0.0841 -0.4322
 2140SOL    HW117882   3.471   2.128   2.601  2.2769  0.4021  1.3473
 2140SOL    HW217883   3.576   2.239   2.578  0.0777 -1.2587  0.4241
 2141SOL     OW17884   4.378   3.853  17.319  1.0451 -0.7375  0.1438
 2141SOL    HW117885   4.404   3.804  17.398 -1.1342 -1.0874  0.6534
 2141SOL    HW217886   4.447   3.812  17.266  3.2003  2.2132  0.6914
 2142SOL     OW17887   3.355   1.712  11.606 -0.5773 -0.2514  0.0659
 2142SOL    HW117888   3.425   1.724  11.542  0.1304 -0.5898  0.7809
 2142SOL    HW217889   3.299   1.644  11.568 -0.4801  0.1090 -0.7162
 2143SOL     OW17890   2.291   1.127   6.490 -0.0880  0.1638  0.3769
 2143SOL    HW117891   2.234   1.203   6.502 -0.3591 -0.1678  1.1849
 2143SOL    HW217892   2.301   1.120   6.395  2.6248 -2.5952  0.8609
 2144SOL     OW17893   0.888   1.040  15.409  0.5869 -0.8328 -0.2593
 2144SOL    HW117894   0.888   1.133  15.433 -0.5794 -0.8489 -0.1886
 2144SOL    HW217895   0.971   1.021  15.452  1.4047  2.1111 -0.5397
 2145SOL     OW17896   3.185   4.472   1.370  0.0697 -0.5727  0.7156
 2145SOL    HW117897   3.140   4.528   1.306 -0.9714  0.0729  2.0049
 2145SOL    HW217898   3.246   4.427   1.312 -0.7380  0.0412 -0.6098
 2146SOL     OW17899   0.927   2.624   8.243  0.4879 -0.1343  0.1443
 2146SOL    HW117900   0.983   2.701   8.255 -1.1490  0.9518  0.8237
 2146SOL    HW217901   0.969   2.594   8.162 -0.4738 -0.0539 -0.3812
 2147SOL     OW17902   1.631   2.692   2.461 -0.0144  0.4522 -0.1075
 2147SOL    HW117903   1.566   2.670   2.394 -3.0950 -0.6301  3.2396
 2147SOL    HW217904   1.601   2.767   2.512  1.1040  0.1373  1.0080
 2148SOL     OW17905   0.652   0.445   5.442 -0.3405 -0.4554 -0.9085
 2148SOL    HW117906   0.671   0.499   5.366  1.3269 -0.7731 -0.7056
 2148SOL    HW217907   0.688   0.492   5.517 -3.1624  0.9536 -0.4375
 2149SOL     OW17908   0.841   2.348   7.699  0.4504 -0.4687  0.1537
 2149SOL    HW117909   0.904   2.353   7.770 -0.5825 -1.0631  1.1130
 2149SOL    HW217910   0.841   2.438   7.667 -0.5181 -0.3854  0.3804
 2150SOL     OW17911   1.391   1.140   3.329  0.2895 -0.6190 -0.2561
 2150SOL    HW117912   1.313   1.121   3.277  1.1198  2.7049 -2.7205
 2150SOL    HW217913   1.447   1.067   3.302 -0.9530 -0.6802 -2.7016
 2151SOL     OW17914   1.126   1.582   7.781  0.0797 -0.0156  0.2692
 2151SOL    HW117915   1.094   1.545   7.863 -0.1077  0.9669  0.6332
 2151SOL    HW217916   1.048   1.626   7.748 -0.7045 -1.7445 -0.1758
 2152SOL     OW17917   2.393   0.251   6.618  0.3950 -0.0155 -0.2221
 2152SOL    HW117918   2.450   0.189   6.664 -0.1647 -1.1900 -1.1080
 2152SOL    HW217919   2.329   0.264   6.689  2.7807  3.1599  1.3490
 2153SOL     OW17920   2.805   3.044   7.342 -0.0772 -0.0812  0.0728
 2153SOL    HW117921   2.772   2.963   7.304  0.7436 -0.3336 -0.1051
 2153SOL    HW217922   2.901   3.041   7.349 -0.1084 -0.4339  0.4032
 2154SOL     OW17923   3.971   1.496   0.125  0.1751  0.2876  0.9087
 2154SOL    HW117924   3.888   1.481   0.079  1.3651 -0.3390 -1.0323
 2154SOL    HW217925   4.027   1.543   0.063  3.3980 -1.7760  2.2136
 2155SOL     OW17926   4.070   1.093   2.488 -0.2784 -0.0825  0.7731
 2155SOL    HW117927   4.048   1.173   2.439  0.6707  0.7781  1.7531
 2155SOL    HW217928   4.094   1.032   2.418  2.4804  1.7760  0.1173
 2156SOL     OW17929   0.986   0.523  12.657 -0.9876 -0.2059  0.0375
 2156SOL    HW117930   0.979   0.428  12.668  1.2061 -0.6417 -2.3300
 2156SOL    HW217931   1.049   0.549  12.724 -1.0280 -0.0749  0.0241
 2157SOL     OW17932   3.810   2.387   5.645 -0.0395  0.0438  0.2348
 2157SOL    HW117933   3.831   2.347   5.730 -0.0974  0.0446  0.2494
 2157SOL    HW217934   3.718   2.412   5.653 -0.0322 -0.2120  1.1324
 2158SOL     OW17935   1.655   3.365   0.776 -0.1704  0.2218 -0.0574
 2158SOL    HW117936   1.647   3.441   0.719 -0.8848  0.9392  1.0026
 2158SOL    HW217937   1.710   3.411   0.839 -0.3618  1.9714 -1.1735
 2159SOL     OW17938   0.307   4.331  11.168  0.2469  0.9586 -0.2368
 2159SOL    HW117939   0.296   4.375  11.084  1.2929  0.4856 -0.6256
 2159SOL    HW217940   0.396   4.307  11.141  0.4245  1.1752  0.1576
 2160SOL     OW17941   3.652   3.920   6.826  0.2620 -0.5972 -0.0119
 2160SOL    HW117942   3.558   3.903   6.832 -0.1943  1.3953 -1.3279
 2160SOL    HW217943   3.661   4.000   6.878  0.0676  0.0956 -1.0466
 2161SOL     OW17944   4.515   0.095   8.599  0.1467  0.5673  0.2260
 2161SOL    HW117945   4.490   0.133   8.683 -3.4307 -0.4542 -0.3714
 2161SOL    HW217946   4.608   0.118   8.602  0.7090 -1.8191  1.5458
 2162SOL     OW17947   4.545   2.192   6.788  0.7517 -0.4165 -0.2334
 2162SOL    HW117948   4.638   2.211   6.782  0.1631  2.4804 -0.2184
 2162SOL    HW217949   4.518   2.270   6.837 -0.1204 -0.1680 -1.0977
 2163SOL     OW17950   2.042   2.596  14.659 -0.0656 -0.5806  0.1715
 2163SOL    HW117951   2.069   2.687  14.648  0.9719 -0.5739  2.9344
 2163SOL    HW217952   1.954   2.605  14.621  0.2577  0.7686 -0.2847
 2164SOL     OW17953   1.957   2.221  14.436  0.1775  0.1694 -0.4273
 2164SOL    HW117954   2.037   2.237  14.486 -0.4583  3.9842 -0.5969
 2164SOL    HW217955   1.942   2.132  14.467  0.7121  0.4319  0.6066
 2165SOL     OW17956   0.272   0.297   3.982 -0.4577  0.2141 -0.1602
 2165SOL    HW117957   0.333   0.341   4.042 -0.6362 -0.1172  0.2660
 2165SOL    HW217958   0.333   0.245   3.929  0.7460  0.1031  1.3063
 2166SOL     OW17959   1.263   1.587   5.274 -0.0145  0.1639 -0.4121
 2166SOL    HW117960   1.222   1.556   5.193 -1.6183  0.6254  0.2341
 2166SOL    HW217961   1.273   1.680   5.255  2.2889  0.4108  1.9489
 2167SOL     OW17962   0.499   3.160   8.388 -0.3193  0.1316  1.0157
 2167SOL    HW117963   0.467   3.095   8.325  1.5884 -2.0557  2.3177
 2167SOL    HW217964   0.564   3.210   8.340 -0.9348  0.1410  0.1785
 2168SOL     OW17965   0.815   0.638  11.711  0.1200 -0.2981 -0.0689
 2168SOL    HW117966   0.797   0.644  11.805  0.4195  3.3431 -0.2140
 2168SOL    HW217967   0.907   0.613  11.719  0.0520 -0.1054  1.3740
 2169SOL     OW17968   4.269   3.103   3.635  0.2605 -0.2263  0.4567
 2169SOL    HW117969   4.350   3.063   3.666  0.7719  2.3885  2.5095
 2169SOL    HW217970   4.302   3.144   3.556  0.3899  0.8524  1.0776
 2170SOL     OW17971   4.172   1.372   3.284 -0.1315 -0.1738 -0.1162
 2170SOL    HW117972   4.110   1.377   3.211 -1.9455  2.7790  1.5986
 2170SOL    HW217973   4.209   1.284   3.273  0.5865  0.1347 -0.1522
 2171SOL     OW17974   2.066   3.568  12.445 -0.4900  0.1658 -0.2702
 2171SOL    HW117975   2.044   3.516  12.368 -0.9709 -0.8188  0.5384
 2171SOL    HW217976   2.133   3.624  12.405  0.1053 -0.6207 -0.3685
 2172SOL     OW17977   3.000   1.302  15.555 -0.0502  0.3608 -0.1055
 2172SOL    HW117978   2.930   1.256  15.509  1.8604 -3.1799  0.5946
 2172SOL    HW217979   3.028   1.356  15.481  0.7172  1.8695  1.2819
 2173SOL     OW17980   0.027   4.261  13.085  0.0501 -0.3364 -0.1225
 2173SOL    HW117981   0.090   4.216  13.142  1.1435  0.4414 -0.7129
 2173SOL    HW217982   0.006   4.338  13.136  3.4471 -0.0739  0.8951
 2174SOL     OW17983   3.714   4.252  10.241 -0.0267 -0.1783  0.7163
 2174SOL    HW117984   3.654   4.211  10.178 -1.4394  2.4361  0.3789
 2174SOL    HW217985   3.796   4.221  10.201 -0.7919 -1.1919 -0.0885
 2175SOL     OW17986   2.782   3.279   6.896  0.5280  0.1855 -0.3504
 2175SOL    HW117987   2.826   3.266   6.980  1.2042  2.7161 -0.2998
 2175SOL    HW217988   2.712   3.333   6.933  3.5667  3.0194  1.1853
 2176SOL     OW17989   0.670   2.352   8.953  0.0447  0.1116 -0.2749
 2176SOL    HW117990   0.720   2.394   8.883  0.9767  0.3845  0.5667
 2176SOL    HW217991   0.670   2.412   9.027  1.1295  1.6395 -1.5134
 2177SOL     OW17992   3.158   3.111   8.191  0.3438  0.4936 -0.5266
 2177SOL    HW117993   3.186   3.177   8.254  0.7993  0.3195 -0.5490
 2177SOL    HW217994   3.104   3.061   8.253  0.9804 -0.1187 -0.4623
 2178SOL     OW17995   1.109   2.507   4.700  0.0056 -0.5591 -0.4893
 2178SOL    HW117996   1.062   2.566   4.759 -2.0100 -1.8343 -0.8273
 2178SOL    HW217997   1.201   2.529   4.714 -1.1636  3.5252  0.7679
 2179SOL     OW17998   2.155   0.168   8.123 -0.6250  0.5441 -0.4821
 2179SOL    HW117999   2.182   0.251   8.161  2.7254 -0.3235 -0.9765
 2179SOL    HW218000   2.133   0.125   8.206  0.5764  0.6862 -0.0973
 2180SOL     OW18001   2.593   0.229  11.553 -0.5567 -0.1381  0.0541
 2180SOL    HW118002   2.681   0.244  11.589 -0.4514  0.1679 -0.3322
 2180SOL    HW218003   2.538   0.290  11.602 -1.6664  0.5335 -2.0420
 2181SOL     OW18004   4.243   0.894   0.719 -0.2183  0.8961  0.1182
 2181SOL    HW118005   4.252   0.988   0.707 -0.9338  0.9247 -0.2195
 2181SOL    HW218006   4.202   0.894   0.806  0.2301  0.2251  0.3302
 2182SOL     OW18007   0.537   3.923   5.831 -0.0964  0.0680 -0.0761
 2182SOL    HW118008   0.476   3.996   5.843 -0.9393 -0.7280  0.6007
 2182SOL    HW218009   0.622   3.953   5.864 -1.8473  3.4925  1.3701
 2183SOL     OW18010   3.042   3.661  11.746 -0.1287 -0.5118 -0.1817
 2183SOL    HW118011   3.044   3.585  11.806 -1.2995 -2.0106 -2.0645
 2183SOL    HW218012   2.970   3.709  11.786  1.5563  2.0927 -0.2856
 2184SOL     OW18013   0.641   2.422  17.129 -0.3933 -0.3670 -0.4071
 2184SOL    HW118014   0.693   2.380  17.061 -0.4317  2.4570 -2.1777
 2184SOL    HW218015   0.555   2.410  17.090 -0.2697 -1.5545 -0.3045
 2185SOL     OW18016   0.548   4.461  10.288 -0.3266  0.4133 -0.1726
 2185SOL    HW118017   0.626   4.488  10.336 -0.7997  1.8731 -0.2187
 2185SOL    HW218018   0.508   4.400  10.350  1.7163 -0.1639  0.5614
 2186SOL     OW18019   0.110   3.470   8.444 -0.2709  0.2899  0.1856
 2186SOL    HW118020   0.073   3.424   8.519 -0.1130  1.3501  0.9048
 2186SOL    HW218021   0.120   3.392   8.388  0.0717 -0.3284  1.1115
 2187SOL     OW18022   3.706   1.953   9.479  0.5064 -0.6060 -0.6379
 2187SOL    HW118023   3.784   1.937   9.424  0.7879  0.3401 -0.5151
 2187SOL    HW218024   3.636   1.945   9.415 -2.0612  0.3908  2.0900
 2188SOL     OW18025   2.005   3.583  15.517  0.5937 -0.0826  0.4531
 2188SOL    HW118026   2.044   3.654  15.466 -0.5143  1.2905  1.5131
 2188SOL    HW218027   1.912   3.606  15.512  0.8328  0.3199 -2.0870
 2189SOL     OW18028   2.148   0.450   2.198  0.2140  0.2694  0.1498
 2189SOL    HW118029   2.088   0.503   2.251 -0.9473  0.5396 -1.4441
 2189SOL    HW218030   2.095   0.457   2.119  2.0349  1.2959 -0.9848
 2190SOL     OW18031   3.881   0.735   7.445  0.2951 -0.4369 -0.3364
 2190SOL    HW118032   3.903   0.819   7.405  2.3294 -1.7093 -1.9295
 2190SOL    HW218033   3.968   0.698   7.459  0.5450 -0.0204 -0.8251
 2191SOL     OW18034   1.166   0.034   3.632 -0.2527 -0.0338 -0.2483
 2191SOL    HW118035   1.247   0.024   3.582  0.3579  2.0108  0.3270
 2191SOL    HW218036   1.161   4.666   3.667  1.0480 -0.2057 -0.4909
 2192SOL     OW18037   2.172   0.873  11.114 -0.1583 -0.2090  0.1783
 2192SOL    HW118038   2.177   0.890  11.208  1.5177 -0.6446  0.1634
 2192SOL    HW218039   2.225   0.944  11.077  1.4808 -0.5638  1.8561
 2193SOL     OW18040   4.036   3.699  15.987  0.1566  0.8413  0.0488
 2193SOL    HW118041   3.979   3.743  15.924  0.1352  1.8629  0.7832
 2193SOL    HW218042   4.094   3.770  16.013  1.2555 -0.1842  0.4118
 2194SOL     OW18043   0.115   1.325   6.977  0.4134 -0.5840 -0.3846
 2194SOL    HW118044   0.122   1.243   7.026  0.6401 -0.4359 -0.1639
 2194SOL    HW218045   0.173   1.387   7.022 -2.1402  1.0535  0.6583
 2195SOL     OW18046   4.513   2.538  10.996 -0.5625 -0.2538 -0.4951
 2195SOL    HW118047   4.591   2.566  11.044  0.4014 -0.6782 -1.8188
 2195SOL    HW218048   4.512   2.446  11.023  1.3608  0.3902  1.7822
 2196SOL     OW18049   2.235   1.558   7.257  0.0371  0.1341 -0.4972
 2196SOL    HW118050   2.145   1.552   7.225 -0.2881  0.2865  0.3814
 2196SOL    HW218051   2.227   1.521   7.345  0.5621  0.2216 -0.4137
 2197SOL     OW18052   0.560   3.161  14.829  0.1403  0.3272 -0.5010
 2197SOL    HW118053   0.642   3.128  14.865 -0.1145  0.7800  0.4996
 2197SOL    HW218054   0.542   3.220  14.903  1.6211  1.4512 -1.0360
 2198SOL     OW18055   4.692   2.380   2.581  0.0385  0.7839  0.3009
 2198SOL    HW118056   0.004   2.290   2.588  0.3143  0.8348 -0.4422
 2198SOL    HW218057   4.598   2.362   2.573  0.0391  0.9181  0.0207
 2199SOL     OW18058   3.425   4.335   1.303 -0.4100 -0.1694 -0.1722
 2199SOL    HW118059   3.478   4.272   1.351  0.4222  1.0214  0.4761
 2199SOL    HW218060   3.489   4.406   1.301  2.2421 -2.5767  0.3392
 2200SOL     OW18061   2.541   3.918   8.077 -0.3125 -0.0138 -0.9844
 2200SOL    HW118062   2.636   3.931   8.075  0.0864 -2.6239  1.8612
 2200SOL    HW218063   2.531   3.845   8.138 -0.9337  0.8912 -0.0083
 2201SOL     OW18064   4.282   1.208  13.389 -0.1599 -0.3377  0.2469
 2201SOL    HW118065   4.284   1.113  13.385  0.8055 -0.2913 -0.3079
 2201SOL    HW218066   4.188   1.229  13.385 -0.1784 -0.7185 -1.0204
 2202SOL     OW18067   2.309   0.831  10.779 -0.8042  0.4829  0.0030
 2202SOL    HW118068   2.368   0.900  10.811 -3.8762  1.9335  2.6177
 2202SOL    HW218069   2.325   0.833  10.685 -0.3999  0.9484  0.0820
 2203SOL     OW18070   3.631   3.277   1.606  0.0916 -0.3046 -0.2391
 2203SOL    HW118071   3.552   3.228   1.581 -0.6706 -0.0448  1.6588
 2203SOL    HW218072   3.663   3.319   1.526 -0.7655 -1.6744 -1.3251
 2204SOL     OW18073   1.782   3.059   1.482 -0.0003 -0.5713 -0.6318
 2204SOL    HW118074   1.851   3.047   1.548 -0.7189  1.6810  0.5402
 2204SOL    HW218075   1.708   3.084   1.536  0.3249  1.3582 -1.0833
 2205SOL     OW18076   1.137   0.439  12.901 -0.1873  0.0387 -0.1456
 2205SOL    HW118077   1.164   0.466  12.989 -2.1598 -1.1866  0.8476
 2205SOL    HW218078   1.219   0.419  12.857 -0.2170  1.5110 -0.8576
 2206SOL     OW18079   2.824   4.675  16.358  0.5838 -0.0611  0.3043
 2206SOL    HW118080   2.815   0.038  16.314 -1.0704  0.2852  1.2950
 2206SOL    HW218081   2.753   4.625  16.317 -0.2254 -0.4432  2.1711
 2207SOL     OW18082   2.955   1.952  13.428  0.6850 -0.6175  0.0790
 2207SOL    HW118083   2.883   2.016  13.422  0.5688 -0.6398  1.1471
 2207SOL    HW218084   2.936   1.926  13.518  0.4103  0.8712  0.4601
 2208SOL     OW18085   3.287   2.917   5.092 -0.3410  0.0541 -0.0056
 2208SOL    HW118086   3.248   2.847   5.039 -2.6319  1.4546 -0.1423
 2208SOL    HW218087   3.342   2.970   5.034  0.0578  0.4847  0.7632
 2209SOL     OW18088   3.527   1.042   7.788 -0.7318  0.1195 -0.4581
 2209SOL    HW118089   3.542   1.137   7.789 -0.0663  0.0212 -1.3927
 2209SOL    HW218090   3.453   1.044   7.728 -0.6928  0.5240 -0.4901
 2210SOL     OW18091   3.264   0.479  12.595  0.2442 -0.4386  0.0793
 2210SOL    HW118092   3.350   0.448  12.620 -0.1866 -0.8821  1.0212
 2210SOL    HW218093   3.286   0.549  12.534  0.1989 -1.3044 -0.9297
 2211SOL     OW18094   2.048   0.758   6.188  0.0810 -0.3804 -0.2150
 2211SOL    HW118095   2.038   0.729   6.279  1.2300  1.6396  0.5570
 2211SOL    HW218096   2.143   0.770   6.185 -0.0472 -0.1179 -3.0065
 2212SOL     OW18097   3.709   3.611   8.271  0.1977 -0.3335 -0.0597
 2212SOL    HW118098   3.732   3.564   8.352  0.0928  1.5999  1.0977
 2212SOL    HW218099   3.690   3.698   8.305  2.0067 -0.8028  2.2412
 2213SOL     OW18100   0.487   1.108   6.544  0.1583 -0.4321  0.1747
 2213SOL    HW118101   0.426   1.082   6.614  0.7853  0.7127  1.1579
 2213SOL    HW218102   0.442   1.090   6.462 -2.3115 -1.9223  1.8782
 2214SOL     OW18103   3.025   0.333  12.663 -0.6719 -0.1561 -0.1966
 2214SOL    HW118104   2.970   0.381  12.601 -0.0506  1.2658  0.3559
 2214SOL    HW218105   3.112   0.371  12.649 -0.4287  0.0586  1.8683
 2215SOL     OW18106   4.060   1.763   4.331 -0.4474  0.6297  0.5411
 2215SOL    HW118107   3.968   1.775   4.306 -0.6057 -2.8815 -0.5989
 2215SOL    HW218108   4.058   1.772   4.427  1.3491 -0.1488  0.6375
 2216SOL     OW18109   1.234   0.710   0.709 -0.4485 -0.0283  0.0219
 2216SOL    HW118110   1.293   0.780   0.737  0.1207 -0.3440 -0.3742
 2216SOL    HW218111   1.212   0.667   0.791 -0.8600 -0.7662 -0.4711
 2217SOL     OW18112   1.968   1.097   6.854 -0.0496  0.0080  0.4441
 2217SOL    HW118113   1.925   1.041   6.789  0.1314  0.2321  0.1296
 2217SOL    HW218114   1.904   1.166   6.839 -1.2853 -1.2590 -0.1164
 2218SOL     OW18115   3.226   4.306  14.045  0.1130  0.7315 -0.9494
 2218SOL    HW118116   3.204   4.272  14.131  0.3998  1.0700 -0.7435
 2218SOL    HW218117   3.203   4.229  13.994 -1.2462  0.5573 -0.0630
 2219SOL     OW18118   2.841   2.675   5.648 -0.6460 -0.2407 -0.0633
 2219SOL    HW118119   2.808   2.758   5.683 -1.0706 -0.5863  0.3508
 2219SOL    HW218120   2.897   2.705   5.576  0.7215 -0.3148  0.9603
 2220SOL     OW18121   0.947   3.131   3.104 -0.1430  0.5069  0.1964
 2220SOL    HW118122   0.885   3.159   3.036  0.2407 -2.4351 -1.3550
 2220SOL    HW218123   0.974   3.041   3.084 -1.5535  0.4895 -1.5476
 2221SOL     OW18124   2.562   3.630   3.144 -0.2228  0.6039 -0.2114
 2221SOL    HW118125   2.637   3.678   3.109 -1.2893  1.0540 -1.8830
 2221SOL    HW218126   2.554   3.554   3.085  1.5751 -0.6125  1.0962
 2222SOL     OW18127   2.228   2.693   6.817  0.1416  0.1643 -0.2004
 2222SOL    HW118128   2.271   2.610   6.838 -0.5699 -0.2371 -0.3460
 2222SOL    HW218129   2.257   2.699   6.726  0.2753 -0.1896 -0.1838
 2223SOL     OW18130   4.514   1.399   3.209  0.4473  0.1301  0.1313
 2223SOL    HW118131   4.427   1.365   3.229  0.3485 -0.1740 -0.7921
 2223SOL    HW218132   4.544   1.354   3.130 -3.3929 -0.8526 -0.7657
 2224SOL     OW18133   2.556   3.660   3.629 -0.5610  0.1947  0.0884
 2224SOL    HW118134   2.601   3.581   3.598 -0.6568  0.5632 -0.9601
 2224SOL    HW218135   2.558   3.712   3.549 -0.0865  0.2580  0.1414
 2225SOL     OW18136   1.629   2.642   0.519 -0.4493 -0.0243 -0.0853
 2225SOL    HW118137   1.647   2.688   0.436 -1.7673 -0.5319 -0.6645
 2225SOL    HW218138   1.558   2.693   0.559  0.0224  0.3091  0.3283
 2226SOL     OW18139   1.621   1.628   5.257  0.0761  0.1535 -0.6545
 2226SOL    HW118140   1.547   1.597   5.308 -0.0916  1.7045  0.0500
 2226SOL    HW218141   1.610   1.587   5.171 -0.6299 -0.9369 -0.0342
 2227SOL     OW18142   3.504   1.923   3.383  0.1710  0.2531  0.1845
 2227SOL    HW118143   3.569   1.990   3.365 -1.8048  1.3738 -2.7772
 2227SOL    HW218144   3.562   1.849   3.399  0.6485  0.5483 -0.2102
 2228SOL     OW18145   2.762   1.515   9.222 -0.0901  0.4574 -0.1640
 2228SOL    HW118146   2.851   1.520   9.257  0.4922 -1.3358 -1.4141
 2228SOL    HW218147   2.714   1.512   9.305  0.1108  1.9323 -0.0034
 2229SOL     OW18148   1.351   2.753   8.412  0.3001  0.2819 -0.5647
 2229SOL    HW118149   1.348   2.767   8.318 -3.4859  0.6078 -0.3845
 2229SOL    HW218150   1.273   2.706   8.440  0.4987  1.7839  2.5463
 2230SOL     OW18151   3.613   2.293   2.931  0.2991  0.6929  0.0342
 2230SOL    HW118152   3.645   2.339   3.009 -0.6543 -0.3645  1.0552
 2230SOL    HW218153   3.530   2.334   2.906  0.4456  1.2105  0.4066
 2231SOL     OW18154   0.299   3.287   0.688  0.0934 -0.6740 -0.0226
 2231SOL    HW118155   0.284   3.264   0.596 -1.9492 -0.6483  0.3084
 2231SOL    HW218156   0.357   3.220   0.723 -0.6149 -0.5717  1.3578
 2232SOL     OW18157   1.483   0.127  13.046  0.1673  0.5897 -0.2306
 2232SOL    HW118158   1.446   0.216  13.051  0.4063  0.7308 -0.8897
 2232SOL    HW218159   1.576   0.144  13.031  0.4201  1.1059  1.9252
 2233SOL     OW18160   3.841   4.183  16.102  0.0911  0.0805  0.9142
 2233SOL    HW118161   3.895   4.242  16.050 -2.4071 -1.2116 -3.1862
 2233SOL    HW218162   3.787   4.244  16.153 -0.9508  0.5284 -0.6867
 2234SOL     OW18163   3.145   1.350   8.526  0.5659  0.1291  0.1681
 2234SOL    HW118164   3.093   1.382   8.599  0.4736  1.1687 -0.3417
 2234SOL    HW218165   3.227   1.389   8.556 -0.1843  1.3783  0.6184
 2235SOL     OW18166   4.044   4.067   4.204 -0.5289 -0.1492  0.3753
 2235SOL    HW118167   4.049   3.976   4.233  0.6413 -0.3857 -0.5895
 2235SOL    HW218168   3.956   4.090   4.233 -0.3061  0.6022  0.4551
 2236SOL     OW18169   2.493   0.741  11.794  0.1660  0.0814  0.7278
 2236SOL    HW118170   2.498   0.798  11.871  0.6226  0.1540  0.6402
 2236SOL    HW218171   2.459   0.803  11.729  0.0119 -0.3016  0.4416
 2237SOL     OW18172   0.425   1.499   0.095 -0.1917 -0.0803 -0.1577
 2237SOL    HW118173   0.488   1.556   0.139  0.7080 -1.0541 -0.1877
 2237SOL    HW218174   0.397   1.456   0.175 -1.7705 -0.4833 -0.9229
 2238SOL     OW18175   2.773   4.188   9.072 -0.2654  0.6530  0.1742
 2238SOL    HW118176   2.820   4.264   9.106 -2.5068  1.9446  0.4327
 2238SOL    HW218177   2.706   4.173   9.140 -1.7536 -0.8575 -1.6228
 2239SOL     OW18178   2.364   1.953   7.098 -0.3573 -0.1949 -0.3342
 2239SOL    HW118179   2.346   1.864   7.070  2.2535 -0.5108 -1.0126
 2239SOL    HW218180   2.456   1.958   7.070 -0.4394  0.8035 -0.4471
 2240SOL     OW18181   0.163   2.798   6.738  0.3029 -0.0239 -0.2020
 2240SOL    HW118182   0.150   2.705   6.723  0.4813 -0.2204  0.8418
 2240SOL    HW218183   0.254   2.800   6.767 -0.7493 -0.1046  3.2217
 2241SOL     OW18184   1.114   0.524  15.964 -0.1746 -0.0581  0.0998
 2241SOL    HW118185   1.108   0.453  15.900 -0.7156  0.2421 -0.1735
 2241SOL    HW218186   1.189   0.575  15.933 -0.3625 -0.1084 -0.4374
 2242SOL     OW18187   0.102   2.401   9.610  0.2161 -0.0725 -0.3550
 2242SOL    HW118188   0.172   2.415   9.547  1.8123 -0.2866  1.3544
 2242SOL    HW218189   0.115   2.473   9.672  0.3228 -0.3065 -0.1054
 2243SOL     OW18190   3.066   0.049   4.368 -0.0181  0.1229  0.0266
 2243SOL    HW118191   3.062   0.038   4.463 -2.1624  1.2145  0.0499
 2243SOL    HW218192   3.160   0.068   4.362  0.8023 -2.8128  3.4339
 2244SOL     OW18193   3.950   3.658   6.603 -0.1514  0.4366 -0.4397
 2244SOL    HW118194   4.027   3.660   6.546 -0.8741 -0.7391 -1.4558
 2244SOL    HW218195   3.916   3.746   6.587 -1.0566  0.3106  0.7922
 2245SOL     OW18196   4.299   3.367   1.340 -0.4033  0.7622  0.2413
 2245SOL    HW118197   4.216   3.406   1.313 -0.5067  0.3614 -0.0187
 2245SOL    HW218198   4.353   3.446   1.333  2.8375 -1.5721 -1.1902
 2246SOL     OW18199   3.233   1.439   4.172  0.2167  0.2971  0.5016
 2246SOL    HW118200   3.144   1.460   4.144 -0.2852 -2.1336  0.2467
 2246SOL    HW218201   3.251   1.521   4.217 -1.2404  0.0148  1.5812
 2247SOL     OW18202   0.402   3.813   5.552 -0.0436 -0.6821  0.0244
 2247SOL    HW118203   0.364   3.808   5.465  1.4814 -0.1992 -0.6631
 2247SOL    HW218204   0.472   3.877   5.541 -2.3488  0.9801 -4.5600
 2248SOL     OW18205   0.700   4.654  16.887 -0.1620 -0.3535 -1.2650
 2248SOL    HW118206   0.720   4.689  16.974  0.3211  0.0029 -1.5186
 2248SOL    HW218207   0.682   4.563  16.908 -0.1703 -0.0444  0.1100
 2249SOL     OW18208   0.476   0.731   3.827 -0.0449 -0.3508 -0.2680
 2249SOL    HW118209   0.434   0.666   3.770  0.3102 -1.4570  0.7274
 2249SOL    HW218210   0.474   0.810   3.774  1.1041 -0.0095  0.2014
 2250SOL     OW18211   3.265   1.565   8.667 -0.5270  0.1610  0.1048
 2250SOL    HW118212   3.277   1.512   8.746 -0.2997  0.0787  0.0157
 2250SOL    HW218213   3.175   1.589   8.687  0.0559 -0.2844  3.3598
 2251SOL     OW18214   4.448   1.749   0.605  0.6732 -0.4266  0.2381
 2251SOL    HW118215   4.510   1.818   0.628 -0.3314 -0.4677  3.0300
 2251SOL    HW218216   4.379   1.757   0.671  2.6288  0.2667  2.2329
 2252SOL     OW18217   3.475   4.519   4.945  0.1560 -0.0566  0.0790
 2252SOL    HW118218   3.559   4.474   4.950  0.8356  1.0740 -1.1394
 2252SOL    HW218219   3.417   4.445   4.962 -2.2872  2.5841  3.0622
 2253SOL     OW18220   2.600   2.584   9.770  0.1780  0.3486 -0.1140
 2253SOL    HW118221   2.613   2.494   9.800  3.1268  1.2608  1.3692
 2253SOL    HW218222   2.690   2.605   9.745  0.9764 -2.0744  0.6818
 2254SOL     OW18223   0.380   0.786  14.220  0.0489  0.3029 -0.0528
 2254SOL    HW118224   0.394   0.757  14.310 -0.5118  1.1617  0.3016
 2254SOL    HW218225   0.445   0.855  14.204  2.6517 -1.4800  2.8153
 2255SOL     OW18226   1.139   1.279   2.754  0.2758 -0.0893  0.1982
 2255SOL    HW118227   1.122   1.357   2.807 -3.3086  0.2212 -1.3648
 2255SOL    HW218228   1.068   1.271   2.689  0.4215  0.8366 -0.0769
 2256SOL     OW18229   4.296   0.323   9.993 -0.6755  0.0383  0.3637
 2256SOL    HW118230   4.212   0.289  10.023 -0.4131  1.0327  2.2023
 2256SOL    HW218231   4.282   0.396   9.932 -1.8228 -1.3078 -0.9876
 2257SOL     OW18232   2.392   3.975   2.964  0.5656 -0.6105  0.2525
 2257SOL    HW118233   2.375   4.037   3.036  0.6138 -1.2310  0.7997
 2257SOL    HW218234   2.488   3.977   2.968  0.4082  2.6068  3.1034
 2258SOL     OW18235   2.211   0.775  17.005 -0.4068  0.2594  0.1785
 2258SOL    HW118236   2.263   0.765  17.085  1.5179  2.5784 -0.7637
 2258SOL    HW218237   2.134   0.817  17.043 -2.6064 -1.3513 -2.5609
 2259SOL     OW18238   3.425   2.385   6.495  0.4413 -0.0668  0.3802
 2259SOL    HW118239   3.377   2.405   6.415 -1.4347 -1.1188  1.2509
 2259SOL    HW218240   3.395   2.464   6.540  1.9613  0.5499  0.3365
 2260SOL     OW18241   2.003   0.315   8.994 -0.0183 -0.0552 -0.0721
 2260SOL    HW118242   2.089   0.273   8.999 -0.4075 -0.6934  1.3176
 2260SOL    HW218243   1.994   0.342   8.903  0.3907 -0.3686 -0.2039
 2261SOL     OW18244   4.230   0.956   2.159 -0.1010  0.2767  0.3814
 2261SOL    HW118245   4.146   0.962   2.204 -0.5035  0.2031 -0.3593
 2261SOL    HW218246   4.228   1.029   2.096  0.9861  0.8637  1.0266
 2262SOL     OW18247   2.474   4.079   5.387 -0.1713  0.2121 -0.5969
 2262SOL    HW118248   2.423   4.139   5.332  0.9684  0.7373 -1.0882
 2262SOL    HW218249   2.407   4.053   5.450  0.8394  0.3948  0.5486
 2263SOL     OW18250   4.272   1.562   9.585 -0.1772  1.3600  0.0268
 2263SOL    HW118251   4.299   1.604   9.504 -1.7110 -0.3545 -1.3549
 2263SOL    HW218252   4.182   1.543   9.561 -0.2610 -0.6963  1.9916
 2264SOL     OW18253   2.140   2.931   9.153 -0.3559 -0.0440 -0.1988
 2264SOL    HW118254   2.219   2.882   9.133 -1.0812 -1.6168  0.7343
 2264SOL    HW218255   2.120   2.889   9.236  2.5177 -0.8099  0.0863
 2265SOL     OW18256   1.759   2.252  12.575 -0.1242  0.0252 -0.4566
 2265SOL    HW118257   1.751   2.183  12.641  0.2985  0.0738 -0.3532
 2265SOL    HW218258   1.667   2.252  12.548  0.2182 -1.0152 -1.6388
 2266SOL     OW18259   2.744   0.525  10.028  0.4456 -0.5401  0.3204
 2266SOL    HW118260   2.794   0.603  10.004  0.9959 -0.9871 -0.0021
 2266SOL    HW218261   2.672   0.529   9.966  1.1530  1.9228 -0.3302
 2267SOL     OW18262   4.198   3.250   5.435 -0.0697 -0.0131 -0.1497
 2267SOL    HW118263   4.152   3.257   5.519  0.4779  0.0676  0.1456
 2267SOL    HW218264   4.262   3.318   5.455 -0.6732 -0.1829  2.3722
 2268SOL     OW18265   2.719   2.478   4.333  0.5266  0.0427 -0.0430
 2268SOL    HW118266   2.643   2.421   4.334 -1.3167  2.5185  1.1121
 2268SOL    HW218267   2.680   2.564   4.351  2.2157  0.9379 -0.5761
 2269SOL     OW18268   3.370   4.110   2.379 -0.1989 -0.2731  0.1177
 2269SOL    HW118269   3.378   4.191   2.431  0.1679 -0.6588  0.6588
 2269SOL    HW218270   3.415   4.045   2.432  0.5427 -0.5350 -0.8467
 2270SOL     OW18271   0.556   3.680   4.602 -0.3317  0.1534 -0.0529
 2270SOL    HW118272   0.591   3.765   4.631 -0.3465 -0.2659  1.1945
 2270SOL    HW218273   0.622   3.615   4.625 -0.5513  0.8017  2.4359
 2271SOL     OW18274   1.858   0.847   3.788  0.2930  0.0634  0.4329
 2271SOL    HW118275   1.938   0.889   3.820  1.4144  0.3601 -2.7371
 2271SOL    HW218276   1.856   0.892   3.703 -0.8334  0.5854  0.7460
 2272SOL     OW18277   0.032   2.730   3.783 -0.4825 -0.0981 -0.0051
 2272SOL    HW118278   0.099   2.736   3.714  1.4749 -0.7355  1.8365
 2272SOL    HW218279   0.051   2.805   3.838 -0.9824  0.2482 -0.3045
 2273SOL     OW18280   2.804   0.721  13.268  0.0208  0.9950 -1.1428
 2273SOL    HW118281   2.887   0.731  13.221  1.2760  0.2593  0.9188
 2273SOL    HW218282   2.753   0.793  13.230 -2.3079  0.5689  1.1891
 2274SOL     OW18283   3.787   0.612  14.797 -0.4921 -0.6916 -0.3512
 2274SOL    HW118284   3.821   0.589  14.883 -0.4479  1.3659  0.1747
 2274SOL    HW218285   3.745   0.695  14.818  2.2518  0.9936 -1.4560
 2275SOL     OW18286   3.768   2.996   9.316  0.4291 -0.5188  0.3701
 2275SOL    HW118287   3.777   2.933   9.245 -1.4706 -1.7759  1.2395
 2275SOL    HW218288   3.698   3.052   9.283 -0.0655 -1.1418  0.3569
 2276SOL     OW18289   2.429   0.263   7.630 -0.1479 -0.1667  0.3018
 2276SOL    HW118290   2.479   0.269   7.548 -3.0764  2.0132 -1.3097
 2276SOL    HW218291   2.394   0.352   7.630 -1.2634 -0.6120  1.2621
 2277SOL     OW18292   2.434   3.715  16.183 -0.3541  0.4675  0.6044
 2277SOL    HW118293   2.386   3.786  16.224 -1.8663  0.5957 -1.3599
 2277SOL    HW218294   2.396   3.717  16.095  0.6017 -1.3609  0.1436
 2278SOL     OW18295   2.833   2.405   8.958  0.4409 -0.4958 -0.0503
 2278SOL    HW118296   2.739   2.387   8.960  0.5212 -0.8155  1.1534
 2278SOL    HW218297   2.835   2.500   8.952  0.9754 -0.4212  1.1499
 2279SOL     OW18298   2.503   0.345  11.308 -0.3607  0.3429 -0.3233
 2279SOL    HW118299   2.546   0.350  11.393  0.2776 -0.0125 -0.6251
 2279SOL    HW218300   2.433   0.410  11.319 -0.1427  0.2270  1.6798
 2280SOL     OW18301   2.172   2.351   0.636 -0.5751 -0.3245 -0.7004
 2280SOL    HW118302   2.180   2.423   0.573  1.3321 -0.2691 -0.4152
 2280SOL    HW218303   2.111   2.374   0.706 -0.4195 -0.3500 -0.5564
 2281SOL     OW18304   4.004   0.714  14.622 -0.1498 -0.6756  0.6376
 2281SOL    HW118305   3.994   0.750  14.710  0.4742 -2.3229  1.3821
 2281SOL    HW218306   3.994   0.621  14.641  0.2446 -0.4434  2.0321
 2282SOL     OW18307   0.662   0.778   3.518  0.0532  0.1552 -0.4517
 2282SOL    HW118308   0.660   0.854   3.460 -0.7495  1.7609  1.6634
 2282SOL    HW218309   0.578   0.783   3.564 -0.2064 -1.8615 -0.7368
 2283SOL     OW18310   1.604   1.119   0.704 -0.5188  0.5028 -0.5280
 2283SOL    HW118311   1.583   1.194   0.760  0.6763 -0.6282  1.4389
 2283SOL    HW218312   1.618   1.160   0.619  0.1242 -1.2149 -1.2298
 2284SOL     OW18313   3.219   1.224  13.944 -0.7484 -0.2130 -0.5660
 2284SOL    HW118314   3.207   1.164  14.018  3.1187  0.7125  0.7937
 2284SOL    HW218315   3.274   1.160  13.898 -0.6143  0.7606 -1.7578
 2285SOL     OW18316   3.811   2.912   4.490  0.4169 -0.8177  0.2817
 2285SOL    HW118317   3.779   3.002   4.493  1.3609 -0.4871  0.2831
 2285SOL    HW218318   3.736   2.854   4.474 -1.1191  1.5811 -1.1421
 2286SOL     OW18319   0.575   0.565  15.736  0.1644  0.3195  0.1070
 2286SOL    HW118320   0.643   0.524  15.683 -1.6789  0.3725 -2.3158
 2286SOL    HW218321   0.495   0.515  15.716 -0.1657 -0.0669  2.4269
 2287SOL     OW18322   4.329   3.175  11.067 -0.9286  0.0059  0.6743
 2287SOL    HW118323   4.272   3.098  11.072 -0.6303 -0.2906 -0.6821
 2287SOL    HW218324   4.266   3.246  11.083 -0.7546  0.2795  0.1122
 2288SOL     OW18325   0.281   4.152  12.011 -0.0404  0.4871  0.6427
 2288SOL    HW118326   0.262   4.073  12.062 -1.5554 -1.0473 -2.3276
 2288SOL    HW218327   0.368   4.179  12.039  0.3013  0.6647 -0.6074
 2289SOL     OW18328   0.701   2.924  17.185 -0.5021  0.6719 -0.5185
 2289SOL    HW118329   0.656   2.841  17.200  1.6136 -0.3782  0.0852
 2289SOL    HW218330   0.715   2.954  17.275  2.3080 -0.2342 -0.6479
 2290SOL     OW18331   3.489   3.605  11.187  0.8474 -0.0403 -0.4545
 2290SOL    HW118332   3.456   3.610  11.276 -1.1216 -1.0657 -1.1477
 2290SOL    HW218333   3.492   3.698  11.165 -1.0811  0.5460  1.8522
 2291SOL     OW18334   1.328   0.900   8.299 -0.1028 -0.1902 -0.4542
 2291SOL    HW118335   1.280   0.919   8.218 -0.0695  2.1565  0.0745
 2291SOL    HW218336   1.399   0.961   8.282  0.3763 -0.7865 -0.6051
 2292SOL     OW18337   0.979   3.913   2.390 -1.0867 -0.0101 -0.3281
 2292SOL    HW118338   0.998   3.936   2.481 -1.6731  1.5988 -0.6045
 2292SOL    HW218339   1.018   3.988   2.344  0.3350 -0.7181 -0.2919
 2293SOL     OW18340   2.971   0.387   9.821 -0.4428  0.4133 -0.2509
 2293SOL    HW118341   2.923   0.307   9.842 -1.6545  0.9084 -1.1665
 2293SOL    HW218342   2.993   0.362   9.731 -1.6315  0.2794 -0.4963
 2294SOL     OW18343   1.569   3.141   7.232 -0.5330  0.1236 -0.3938
 2294SOL    HW118344   1.569   3.107   7.322  0.7548  0.1000 -0.4005
 2294SOL    HW218345   1.575   3.234   7.257 -0.7124  0.1470 -0.4429
 2295SOL     OW18346   4.389   2.193   0.686  0.2419 -0.4402 -0.4710
 2295SOL    HW118347   4.374   2.282   0.655  0.0550 -0.1187  0.5334
 2295SOL    HW218348   4.348   2.144   0.615 -0.0024 -2.2465  0.9011
 2296SOL     OW18349   1.929   3.857  12.610 -0.1331  0.0883 -0.3032
 2296SOL    HW118350   2.006   3.910  12.633  1.7512 -2.3463 -0.9466
 2296SOL    HW218351   1.977   3.775  12.626 -1.1581 -0.0173  2.2095
 2297SOL     OW18352   4.390   1.437   4.859  0.2323 -0.0823  0.1766
 2297SOL    HW118353   4.298   1.438   4.833 -0.4382 -0.4635  2.5383
 2297SOL    HW218354   4.392   1.507   4.924  1.9504  0.7140 -0.7494
 2298SOL     OW18355   2.039   2.359   5.207  0.0821  0.0413 -0.1769
 2298SOL    HW118356   2.116   2.398   5.248  0.8637  1.3371 -2.9271
 2298SOL    HW218357   2.021   2.298   5.279 -0.5181  0.4204 -0.0099
 2299SOL     OW18358   1.247   1.760  15.238  0.5248 -0.8223 -0.5352
 2299SOL    HW118359   1.180   1.810  15.192 -2.0332 -2.3934  1.5079
 2299SOL    HW218360   1.225   1.667  15.229 -1.1745 -0.4911  0.2418
 2300SOL     OW18361   0.430   0.632   1.488 -0.5828 -0.2103  0.0173
 2300SOL    HW118362   0.341   0.633   1.522 -0.4058 -1.8660  0.5369
 2300SOL    HW218363   0.428   0.552   1.434 -1.4569  0.6445 -1.2211
 2301SOL     OW18364   4.187   3.314  17.494  0.5914  0.3748  0.3287
 2301SOL    HW118365   4.249   3.256  17.539  0.5421  1.3797  1.6965
 2301SOL    HW218366   4.106   3.291  17.540 -0.4771 -0.5262 -1.9929
 2302SOL     OW18367   3.388   0.851   4.242 -0.0398 -0.6290  0.1139
 2302SOL    HW118368   3.469   0.883   4.202 -0.3783  0.1645  0.0776
 2302SOL    HW218369   3.422   0.826   4.328  1.1461  1.1925  0.1668
 2303SOL     OW18370   4.588   3.409   6.880  0.9660  0.0393 -0.4858
 2303SOL    HW118371   4.569   3.325   6.921  0.2512  0.1673 -0.5477
 2303SOL    HW218372   4.653   3.378   6.817  1.5017 -0.5653  0.3727
 2304SOL     OW18373   4.407   0.919  10.036 -0.2914  0.2070 -0.5588
 2304SOL    HW118374   4.341   0.944   9.971  0.0321 -1.5435 -1.5578
 2304SOL    HW218375   4.455   0.856   9.982 -0.4553 -1.0501  0.7386
 2305SOL     OW18376   4.094   4.074   6.034  0.0632  0.0345 -0.2853
 2305SOL    HW118377   4.148   4.132   5.980  2.8220 -1.9016  0.3863
 2305SOL    HW218378   4.144   3.993   6.028  1.5400  0.9886 -1.0632
 2306SOL     OW18379   0.342   3.106   8.139  0.5587 -0.1189 -0.2838
 2306SOL    HW118380   0.292   3.168   8.086  1.6007 -1.5303 -2.8897
 2306SOL    HW218381   0.423   3.121   8.091  0.3468  0.7268 -0.3886
 2307SOL     OW18382   0.613   2.783   6.220  0.3884 -0.5145 -0.3274
 2307SOL    HW118383   0.553   2.730   6.168 -0.6865  0.1772  0.1967
 2307SOL    HW218384   0.682   2.725   6.252  0.6634  0.0000  0.0060
 2308SOL     OW18385   3.607   3.808   7.335  0.4983 -0.0657  0.2808
 2308SOL    HW118386   3.520   3.846   7.346  0.8580  0.9943 -0.4795
 2308SOL    HW218387   3.593   3.733   7.277 -0.5515 -0.6895  1.3454
 2309SOL     OW18388   3.777   4.119   6.455 -0.2836 -0.7076 -0.5896
 2309SOL    HW118389   3.865   4.127   6.419  0.5166  2.4353  2.0575
 2309SOL    HW218390   3.788   4.029   6.485 -2.3150 -0.4616  0.8519
 2310SOL     OW18391   1.501   4.201  10.008 -0.1411 -0.0809 -0.5876
 2310SOL    HW118392   1.418   4.164   9.979 -2.4237  3.4792  1.4031
 2310SOL    HW218393   1.489   4.291   9.976  1.1848  0.7341  1.2674
 2311SOL     OW18394   3.631   3.994  10.930 -0.2546  0.3582  0.1729
 2311SOL    HW118395   3.607   4.033  10.847 -1.5344  1.6378  1.1422
 2311SOL    HW218396   3.704   3.941  10.897 -1.3727  0.3477 -2.2512
 2312SOL     OW18397   3.332   0.181   7.796  0.5188  1.1790 -0.1960
 2312SOL    HW118398   3.367   0.151   7.712 -0.2537 -0.4451  0.0624
 2312SOL    HW218399   3.346   0.275   7.787  0.8479  1.0421 -1.0985
 2313SOL     OW18400   2.923   3.055   9.991 -0.6738 -0.2063 -0.4334
 2313SOL    HW118401   3.011   3.045   9.956 -0.0496 -1.7037  1.5580
 2313SOL    HW218402   2.906   3.149   9.988  1.7079  0.1809 -1.5843
 2314SOL     OW18403   2.450   4.159   7.202  0.2144  0.0975 -0.2317
 2314SOL    HW118404   2.447   4.063   7.203  0.8026  0.0924  3.0390
 2314SOL    HW218405   2.470   4.175   7.294 -2.3220 -0.8588  0.4912
 2315SOL     OW18406   1.334   0.737   5.040 -0.3888 -0.3922 -0.1349
 2315SOL    HW118407   1.241   0.749   5.059 -0.3965 -0.9639  0.2074
 2315SOL    HW218408   1.344   0.794   4.964  3.8543 -1.0437 -0.0751
 2316SOL     OW18409   2.097   2.568   7.258  0.5536 -0.1344  0.2877
 2316SOL    HW118410   2.184   2.571   7.218  1.8038 -2.9924  2.7377
 2316SOL    HW218411   2.124   2.550   7.349  0.0728 -0.7372  0.3151
 2317SOL     OW18412   3.285   4.667   3.566  0.2079 -0.7898 -0.3863
 2317SOL    HW118413   3.347   4.665   3.638  1.6245 -0.2520 -1.5780
 2317SOL    HW218414   3.278   0.040   3.553  2.3453 -0.6169 -0.2008
 2318SOL     OW18415   4.436   3.785   5.579 -0.1287  0.0425 -0.6944
 2318SOL    HW118416   4.364   3.806   5.520 -1.1024  0.0712  0.5072
 2318SOL    HW218417   4.389   3.737   5.647 -1.3035  3.5095  0.9318
 2319SOL     OW18418   2.386   0.879   7.596  0.1724 -0.4223  0.7292
 2319SOL    HW118419   2.291   0.884   7.595  0.2203  0.4928  0.4369
 2319SOL    HW218420   2.394   0.890   7.690  3.9323  1.3604  0.2179
 2320SOL     OW18421   0.421   1.547   5.593  0.2596  0.2837 -0.5643
 2320SOL    HW118422   0.513   1.573   5.601  0.8745 -2.4352  0.9813
 2320SOL    HW218423   0.381   1.633   5.606 -1.4391 -0.3931 -1.3813
 2321SOL     OW18424   1.712   2.037   9.112  0.0730 -0.2396  0.4107
 2321SOL    HW118425   1.676   1.970   9.169  0.5577  0.5808  1.6951
 2321SOL    HW218426   1.776   1.980   9.070 -0.0431  0.2673 -0.4702
 2322SOL     OW18427   0.011   1.376  13.983  0.1770  0.2291  0.0187
 2322SOL    HW118428   4.712   1.441  14.051  2.2286  0.6351  0.2584
 2322SOL    HW218429   0.004   1.295  14.033  0.5424  0.0927 -0.1521
 2323SOL     OW18430   3.666   4.492   2.562 -0.1135  0.2387 -0.0463
 2323SOL    HW118431   3.756   4.478   2.535  0.5592  0.0869  2.2315
 2323SOL    HW218432   3.677   4.564   2.625 -3.2451 -0.5473  1.4179
 2324SOL     OW18433   4.365   0.016  13.707  0.5245  0.0656  0.3193
 2324SOL    HW118434   4.390   4.662  13.761  0.6234 -0.9895 -1.1894
 2324SOL    HW218435   4.407   4.709  13.626  1.3686 -1.3644  1.2452
 2325SOL     OW18436   0.294   3.289   3.268  0.0672  0.0827  0.7379
 2325SOL    HW118437   0.323   3.358   3.207  2.8277 -2.5897 -0.9418
 2325SOL    HW218438   0.298   3.218   3.205  3.4425 -1.1620  2.4024
 2326SOL     OW18439   3.599   0.507   6.107 -0.5697 -0.1792 -0.1223
 2326SOL    HW118440   3.587   0.505   6.202  1.5617  0.7028  0.1474
 2326SOL    HW218441   3.517   0.539   6.068 -1.8392 -1.6419  1.3298
 2327SOL     OW18442   3.152   2.724   4.959  0.7742  0.6925  0.6893
 2327SOL    HW118443   3.173   2.711   4.866  0.8761 -0.6824  0.9161
 2327SOL    HW218444   3.057   2.726   4.947  0.9618  1.8316 -0.7202
 2328SOL     OW18445   2.800   1.592   5.979 -0.6259 -0.6928  0.0158
 2328SOL    HW118446   2.782   1.575   5.887 -1.2150  2.4925 -0.4504
 2328SOL    HW218447   2.808   1.499   6.000 -1.0423 -0.8776 -0.6514
 2329SOL     OW18448   3.195   0.887  16.724  0.6600  0.6603  0.2866
 2329SOL    HW118449   3.219   0.805  16.768  0.9520  0.6287  0.0701
 2329SOL    HW218450   3.152   0.940  16.791  1.8632  1.4107  0.4559
 2330SOL     OW18451   1.429   2.157  13.569 -0.4666  0.0070 -0.4655
 2330SOL    HW118452   1.378   2.203  13.503 -0.8016  0.3469  0.0254
 2330SOL    HW218453   1.520   2.186  13.558 -0.6563 -0.3360 -2.8560
 2331SOL     OW18454   1.423   0.068   8.303 -0.4717 -0.5421  0.3977
 2331SOL    HW118455   1.399   0.161   8.308  0.9883  0.0372 -3.3736
 2331SOL    HW218456   1.338   0.032   8.276 -0.1470 -1.0355  0.0438
 2332SOL     OW18457   2.493   1.945   3.172  0.5315  0.1212 -0.9102
 2332SOL    HW118458   2.555   2.008   3.210  1.8805 -1.3726 -0.6271
 2332SOL    HW218459   2.451   1.934   3.257 -0.9024  2.3453 -1.3327
 2333SOL     OW18460   4.417   0.305   7.479  0.7679  0.2974 -0.4622
 2333SOL    HW118461   4.414   0.390   7.435  3.2627  0.0728 -1.0979
 2333SOL    HW218462   4.497   0.318   7.530  0.1188 -0.5109  0.7524
 2334SOL     OW18463   3.376   4.408  15.325 -0.6243 -0.3887  0.5289
 2334SOL    HW118464   3.290   4.448  15.321 -0.8655 -0.8299  1.1943
 2334SOL    HW218465   3.416   4.477  15.273  0.5403 -0.5865  1.1379
 2335SOL     OW18466   2.852   4.606   1.486  0.1914 -0.3223 -0.5510
 2335SOL    HW118467   2.779   4.640   1.537  0.4688  0.9159 -0.9799
 2335SOL    HW218468   2.915   4.678   1.486  0.9312 -0.9637  1.6709
 2336SOL     OW18469   2.332   4.268  12.592  0.2796  0.6502 -0.1402
 2336SOL    HW118470   2.306   4.296  12.504  2.3944  1.0221 -0.6450
 2336SOL    HW218471   2.415   4.315  12.602 -0.3222  1.5138  0.9087
 2337SOL     OW18472   1.389   1.865  14.761 -0.5706 -0.1613  0.0595
 2337SOL    HW118473   1.300   1.829  14.760  0.2335 -2.1392  0.6040
 2337SOL    HW218474   1.382   1.954  14.728 -3.5814  0.6932  2.9978
 2338SOL     OW18475   4.324   4.306   3.709  0.4917  0.0111  0.1315
 2338SOL    HW118476   4.356   4.263   3.629 -0.4053 -0.0305 -0.2097
 2338SOL    HW218477   4.283   4.227   3.743  0.3431 -0.3246 -0.8080
 2339SOL     OW18478   3.021   3.007   7.842 -0.3130 -0.8872 -0.2071
 2339SOL    HW118479   3.062   2.924   7.868 -3.1639 -2.2031  0.0031
 2339SOL    HW218480   3.092   3.068   7.864 -0.8468 -0.4986  0.4242
 2340SOL     OW18481   0.452   2.632   8.824  0.0511 -0.1016 -0.2483
 2340SOL    HW118482   0.525   2.642   8.763  0.2673  1.0500  0.2003
 2340SOL    HW218483   0.395   2.591   8.759  1.9040 -0.0220 -1.9226
 2341SOL     OW18484   2.663   4.207   4.506  0.1002  0.0886 -1.0907
 2341SOL    HW118485   2.577   4.227   4.468 -0.7567 -0.7457  0.4250
 2341SOL    HW218486   2.711   4.278   4.464 -1.4288  1.1779 -1.0333
 2342SOL     OW18487   4.385   3.653   3.196  0.0468 -0.1922  0.2826
 2342SOL    HW118488   4.460   3.670   3.140 -0.2167  1.7137  0.5077
 2342SOL    HW218489   4.324   3.723   3.170 -0.2113 -1.1134 -1.6591
 2343SOL     OW18490   0.186   1.914   4.158 -0.1687 -0.2537 -0.2156
 2343SOL    HW118491   0.176   2.007   4.179 -3.3445 -1.0666  1.9506
 2343SOL    HW218492   0.097   1.882   4.178  0.8382 -2.9011  0.0024
 2344SOL     OW18493   1.745   1.980   0.665  0.1844  1.1907  0.6419
 2344SOL    HW118494   1.778   1.901   0.623  0.6520  1.0747  1.2269
 2344SOL    HW218495   1.719   1.936   0.746 -1.6535 -1.8171 -1.5981
 2345SOL     OW18496   1.021   4.714   2.996  0.4313 -0.0908  0.1534
 2345SOL    HW118497   0.934   4.679   3.016  0.5148 -0.2098  0.2992
 2345SOL    HW218498   0.992   0.071   2.949 -1.4675 -2.2862 -2.3091
 2346SOL     OW18499   1.866   3.769   7.758 -0.3083 -0.3648  0.0981
 2346SOL    HW118500   1.904   3.828   7.823 -1.0725  0.7164 -0.4458
 2346SOL    HW218501   1.879   3.686   7.805  3.8590 -0.1438 -0.6788
 2347SOL     OW18502   0.895   4.562  13.570 -0.2110 -0.3536 -0.0325
 2347SOL    HW118503   0.875   4.468  13.576 -1.2042 -0.3171 -3.0291
 2347SOL    HW218504   0.945   4.549  13.489 -0.8726  1.1090 -0.6668
 2348SOL     OW18505   0.233   0.752   4.364 -0.0751 -0.6685  0.6619
 2348SOL    HW118506   0.290   0.797   4.301 -0.5849  0.3665  0.9451
 2348SOL    HW218507   0.157   0.810   4.359  1.5652  1.4154 -0.6129
 2349SOL     OW18508   3.764   4.657  13.666 -0.5284  0.8735 -0.3092
 2349SOL    HW118509   3.840   4.635  13.719 -0.5393  1.3026 -0.1197
 2349SOL    HW218510   3.806   4.663  13.580  1.4060 -2.1057  0.4094
 2350SOL     OW18511   4.426   4.345   4.055 -0.3089  0.0752 -0.4083
 2350SOL    HW118512   4.438   4.255   4.027  0.0335  0.1028 -0.3464
 2350SOL    HW218513   4.444   4.339   4.149  0.7167  1.7822 -0.4972
 2351SOL     OW18514   1.534   0.846   7.986  0.1724  0.0977 -0.0720
 2351SOL    HW118515   1.464   0.910   7.995 -0.1442 -0.1225 -1.0048
 2351SOL    HW218516   1.524   0.828   7.893 -2.1326  0.3595  0.1231
 2352SOL     OW18517   3.654   2.940   8.614  0.0510  0.2816  0.1431
 2352SOL    HW118518   3.711   2.911   8.686  0.4676  0.6418 -0.0411
 2352SOL    HW218519   3.639   2.851   8.583 -0.3319 -0.6275  2.9144
 2353SOL     OW18520   0.225   4.628   8.404 -0.2430 -0.0027  0.4548
 2353SOL    HW118521   0.162   4.663   8.467  0.0479 -0.6279  1.0942
 2353SOL    HW218522   0.310   4.665   8.428 -0.1853  0.3832 -0.3545
 2354SOL     OW18523   1.928   2.009  11.020  0.2965 -0.5663 -0.0823
 2354SOL    HW118524   2.010   2.039  11.059 -0.3162  0.4179  0.4294
 2354SOL    HW218525   1.864   2.049  11.079  1.9249  2.0154 -0.0847
 2355SOL     OW18526   2.546   2.082   5.996 -0.0155  0.2702  0.2182
 2355SOL    HW118527   2.571   2.049   6.082 -2.2464  0.1396  0.8074
 2355SOL    HW218528   2.564   2.176   6.004 -2.7201  0.7443  0.5762
 2356SOL     OW18529   4.265   1.640   3.330  0.2025 -0.1449 -0.2206
 2356SOL    HW118530   4.266   1.558   3.281  0.9270  0.1444 -0.6950
 2356SOL    HW218531   4.199   1.616   3.395  0.3507  2.2608  0.8202
 2357SOL     OW18532   1.867   0.243   2.733 -0.0471 -0.4732  0.1265
 2357SOL    HW118533   1.960   0.241   2.758 -0.4626 -2.8029  1.4923
 2357SOL    HW218534   1.838   0.274   2.819 -0.3055 -1.1877  0.2970
 2358SOL     OW18535   2.137   3.213  11.107  0.3214 -0.2832 -0.3950
 2358SOL    HW118536   2.092   3.175  11.182  0.3708 -1.4308 -0.9529
 2358SOL    HW218537   2.060   3.249  11.063 -0.6613 -1.0784  0.6569
 2359SOL     OW18538   3.179   3.602   3.213 -1.3352  0.7516  0.1293
 2359SOL    HW118539   3.204   3.628   3.302  1.2941 -0.2307 -0.3132
 2359SOL    HW218540   3.226   3.662   3.155 -1.3825  0.0590 -0.6263
 2360SOL     OW18541   2.996   0.273  11.275 -0.3120 -0.5324  0.1997
 2360SOL    HW118542   2.955   0.357  11.254  0.7749  0.0045  0.2142
 2360SOL    HW218543   2.921   0.236  11.323  1.0152 -0.9148  2.0012
 2361SOL     OW18544   2.890   4.668  16.010 -0.3253 -0.0406 -0.7386
 2361SOL    HW118545   2.798   4.642  16.009  0.4837 -2.8543 -1.6584
 2361SOL    HW218546   2.931   4.585  16.032 -0.3125  0.2013  0.1569
 2362SOL     OW18547   2.746   3.743   1.984  0.1194 -0.3561  0.2120
 2362SOL    HW118548   2.683   3.710   2.048 -0.7374 -1.3601 -1.1541
 2362SOL    HW218549   2.733   3.838   1.983 -1.7773 -0.6357 -0.9714
 2363SOL     OW18550   3.677   1.964   4.046  0.3019 -0.0406 -0.0423
 2363SOL    HW118551   3.688   1.886   3.992  1.4759 -0.2542  0.4953
 2363SOL    HW218552   3.675   2.026   3.973  1.1581 -0.8116 -0.7204
 2364SOL     OW18553   3.744   2.189   7.872 -1.0464 -0.6751 -0.9684
 2364SOL    HW118554   3.827   2.204   7.825 -0.7378  2.0842  0.4478
 2364SOL    HW218555   3.782   2.175   7.959 -0.0191  1.6387 -1.0416
 2365SOL     OW18556   2.953   3.592  16.112 -0.4545 -0.3574 -0.0364
 2365SOL    HW118557   2.860   3.595  16.134 -0.5586 -0.5882 -0.4397
 2365SOL    HW218558   2.955   3.584  16.017  2.0325  1.4739 -0.1383
 2366SOL     OW18559   1.985   2.202   1.112 -0.4711 -0.0002 -0.0737
 2366SOL    HW118560   2.048   2.254   1.162 -0.4974  1.7092 -1.8621
 2366SOL    HW218561   1.902   2.246   1.129 -0.8472 -0.1313 -1.5686
 2367SOL     OW18562   4.138   3.092  10.008 -0.2104 -0.2157 -0.8926
 2367SOL    HW118563   4.107   3.001  10.013 -0.8069 -0.1490 -3.2268
 2367SOL    HW218564   4.088   3.119  10.085  0.2581 -0.7239 -0.4038
 2368SOL     OW18565   3.447   1.812   5.239  0.0711 -0.0574 -0.3797
 2368SOL    HW118566   3.495   1.783   5.316 -1.4660 -0.1267  0.5543
 2368SOL    HW218567   3.507   1.876   5.199 -1.8959  0.8072 -1.9841
 2369SOL     OW18568   0.319   3.535   7.565  0.3183 -0.1829  0.4133
 2369SOL    HW118569   0.237   3.503   7.604 -1.6155  1.4681 -2.2939
 2369SOL    HW218570   0.364   3.455   7.540 -1.5781 -0.9125 -0.7052
 2370SOL     OW18571   1.735   3.705   2.769 -1.2163 -0.3170 -0.5433
 2370SOL    HW118572   1.691   3.783   2.801  1.9507  0.4257  2.0185
 2370SOL    HW218573   1.707   3.701   2.678  0.3809 -1.2631 -1.0070
 2371SOL     OW18574   1.700   2.570   6.287 -0.6133  0.2805 -0.1544
 2371SOL    HW118575   1.683   2.653   6.243 -2.0275  0.1689  0.1638
 2371SOL    HW218576   1.793   2.560   6.267 -0.5905  1.2732 -0.5455
 2372SOL     OW18577   3.647   0.438  11.101  0.1016  0.6384 -0.0855
 2372SOL    HW118578   3.627   0.520  11.146  0.2329 -1.0275  2.9793
 2372SOL    HW218579   3.579   0.374  11.122 -2.3251  2.8660 -1.1176
 2373SOL     OW18580   1.660   0.214   0.453 -0.1131 -0.5271 -0.1772
 2373SOL    HW118581   1.724   0.157   0.412  1.1118  1.0734 -0.4642
 2373SOL    HW218582   1.645   0.280   0.385  0.5227  1.0681  1.2125
 2374SOL     OW18583   3.270   3.737   8.688 -0.5615 -0.3030 -0.3258
 2374SOL    HW118584   3.317   3.749   8.770 -0.4023 -0.4486 -0.3967
 2374SOL    HW218585   3.194   3.795   8.698 -0.0413  0.3828 -0.4067
 2375SOL     OW18586   1.926   3.005   1.218  0.3366 -0.0246  0.4347
 2375SOL    HW118587   1.835   3.013   1.245  0.3955 -0.6954  0.8351
 2375SOL    HW218588   1.941   3.099   1.207 -2.4888  0.1342 -1.8116
 2376SOL     OW18589   3.214   4.590   7.761  1.0392 -0.1304 -0.2214
 2376SOL    HW118590   3.256   4.635   7.834  0.4538  0.3067 -0.1512
 2376SOL    HW218591   3.144   4.649   7.732  0.4505 -1.1065 -0.7776
 2377SOL     OW18592   1.500   4.517   4.226 -0.1127 -0.4311  0.6413
 2377SOL    HW118593   1.443   4.513   4.304  0.2307 -3.4391  0.7368
 2377SOL    HW218594   1.459   4.461   4.160 -1.0109 -1.7953  2.3439
 2378SOL     OW18595   4.184   4.566  15.900  0.7769  0.1699 -0.9381
 2378SOL    HW118596   4.243   4.640  15.912  0.3420  0.2672  0.6184
 2378SOL    HW218597   4.148   4.563  15.989 -0.9400 -2.0516 -1.7030
 2379SOL     OW18598   1.761   4.425   4.196 -0.2105  0.4167 -0.4500
 2379SOL    HW118599   1.687   4.485   4.187  1.3447  2.8288  2.7329
 2379SOL    HW218600   1.715   4.363   4.253  2.9144 -2.2489 -0.8438
 2380SOL     OW18601   3.154   1.024   8.653 -0.2794 -0.0938  0.6056
 2380SOL    HW118602   3.073   1.009   8.605  1.3507 -2.0828 -1.5675
 2380SOL    HW218603   3.126   1.062   8.736  1.6703  1.9925  0.3380
 2381SOL     OW18604   1.613   3.819   6.346 -0.4138 -0.3839 -0.2078
 2381SOL    HW118605   1.672   3.814   6.422 -0.3319  0.3274 -0.2245
 2381SOL    HW218606   1.660   3.797   6.266 -0.0758 -1.5338  0.3098
 2382SOL     OW18607   1.439   2.560   3.902 -0.3813  0.3094  0.4989
 2382SOL    HW118608   1.344   2.573   3.905 -0.8657 -3.3628  0.8092
 2382SOL    HW218609   1.477   2.648   3.910  0.5928 -0.0389 -0.3019
 2383SOL     OW18610   4.608   3.058   1.924  0.0440 -0.4130  0.8187
 2383SOL    HW118611   4.608   2.984   1.863  1.2767 -1.9275  2.6569
 2383SOL    HW218612   4.513   3.067   1.932  0.0507  1.1126 -1.1239
 2384SOL     OW18613   3.469   3.870  11.128 -0.9283  0.4208 -0.7347
 2384SOL    HW118614   3.535   3.910  11.070  0.8175 -0.5246  0.6032
 2384SOL    HW218615   3.386   3.908  11.100  0.5521  2.5734 -2.2623
 2385SOL     OW18616   2.872   3.961   4.595  0.2543 -0.0993  0.7292
 2385SOL    HW118617   2.881   3.895   4.663 -3.7689 -1.1363  0.2772
 2385SOL    HW218618   2.943   4.024   4.605  0.2589 -0.1324  0.8974
 2386SOL     OW18619   0.369   3.863   1.023  0.3112 -0.5161 -0.2023
 2386SOL    HW118620   0.388   3.956   1.034  0.5127 -0.5963  0.1256
 2386SOL    HW218621   0.454   3.827   1.000  1.6793  3.8108 -1.8266
 2387SOL     OW18622   0.489   1.434  10.580  0.3265  0.1208 -0.1814
 2387SOL    HW118623   0.492   1.513  10.527 -0.1365 -0.4411 -1.0405
 2387SOL    HW218624   0.447   1.370  10.523  0.0239  0.0362  0.1385
 2388SOL     OW18625   4.242   3.257   2.994  0.0080  0.0434  0.2568
 2388SOL    HW118626   4.280   3.308   3.065  0.9270 -1.2773  0.6959
 2388SOL    HW218627   4.313   3.193   2.990 -1.0723 -1.0787 -0.9742
 2389SOL     OW18628   2.732   3.464   6.691  0.9601 -0.2194  0.1978
 2389SOL    HW118629   2.819   3.481   6.655  1.7495 -0.2742  2.0684
 2389SOL    HW218630   2.754   3.394   6.753 -1.3345 -0.2101  1.0502
 2390SOL     OW18631   3.843   3.223   2.115 -0.0677  0.0818  0.5586
 2390SOL    HW118632   3.838   3.309   2.158  1.2189 -0.0504  0.9754
 2390SOL    HW218633   3.831   3.164   2.190 -1.1452 -0.4209 -0.0237
 2391SOL     OW18634   0.921   2.608  11.450  0.1403 -0.2317  0.3335
 2391SOL    HW118635   0.943   2.663  11.525  0.5914 -0.5241  0.4166
 2391SOL    HW218636   0.982   2.535  11.459  0.5810 -0.0872 -1.4042
 2392SOL     OW18637   3.826   3.824   3.287 -0.0348 -0.1132  0.6866
 2392SOL    HW118638   3.761   3.870   3.340 -0.9394  0.0575 -0.5563
 2392SOL    HW218639   3.907   3.815   3.337  1.0349 -2.2968 -1.4317
 2393SOL     OW18640   3.789   0.752   4.814  0.0440  0.1968  0.4735
 2393SOL    HW118641   3.781   0.803   4.895  0.4098 -0.3575  0.8545
 2393SOL    HW218642   3.875   0.790   4.795  0.2254  0.7855  2.4563
 2394SOL     OW18643   0.603   0.851   1.823  0.2245 -0.2458 -0.0631
 2394SOL    HW118644   0.599   0.947   1.817 -1.0591 -0.2382  0.7492
 2394SOL    HW218645   0.569   0.839   1.911 -1.4987  0.1642 -0.6577
 2395SOL     OW18646   1.842   2.034  11.287 -0.1776 -0.0758  0.0653
 2395SOL    HW118647   1.834   2.101  11.355  0.7792 -0.5611  0.6535
 2395SOL    HW218648   1.907   1.971  11.317  0.0265 -0.4853 -1.2189
 2396SOL     OW18649   2.311   2.211   4.012  0.5173 -0.5672  0.2137
 2396SOL    HW118650   2.402   2.182   4.001  0.4159 -0.7629 -0.1361
 2396SOL    HW218651   2.284   2.121   4.032 -1.6605  0.6828  2.8064
 2397SOL     OW18652   3.953   4.243   6.916  0.4601  0.1548  0.0590
 2397SOL    HW118653   3.867   4.267   6.950  0.9287 -0.3049  1.5590
 2397SOL    HW218654   4.005   4.231   6.995  0.0064 -1.4639  0.1136
 2398SOL     OW18655   2.952   0.274   7.005 -0.1038  0.1441 -0.0445
 2398SOL    HW118656   2.907   0.299   6.924 -1.1280  0.7347  0.7145
 2398SOL    HW218657   3.036   0.260   6.962 -1.0217 -1.4654 -1.2921
 2399SOL     OW18658   4.435   4.195   3.477 -0.3285  0.8762  0.0177
 2399SOL    HW118659   4.520   4.235   3.459 -1.5704  1.2470 -5.0073
 2399SOL    HW218660   4.454   4.113   3.430 -0.6937  0.4555  0.6022
 2400SOL     OW18661   0.659   0.501   6.651  0.0493  0.5979  0.0454
 2400SOL    HW118662   0.747   0.481   6.618  0.5509  0.3735  1.5343
 2400SOL    HW218663   0.657   0.455   6.735 -0.8728  0.8520  0.1579
 2401SOL     OW18664   3.849   3.476   5.848  0.2083 -0.1210  0.0289
 2401SOL    HW118665   3.785   3.419   5.890  0.2655 -0.0724  0.1812
 2401SOL    HW218666   3.906   3.500   5.921 -0.4331  1.5868 -0.0352
 2402SOL     OW18667   2.121   1.805   4.939  0.2696  0.2130  0.1708
 2402SOL    HW118668   2.111   1.725   4.887 -3.2551  1.0651 -0.4823
 2402SOL    HW218669   2.205   1.791   4.982  0.4881  0.1124 -0.2834
 2403SOL     OW18670   3.862   3.411   1.131  0.0240 -0.3583 -0.1989
 2403SOL    HW118671   3.813   3.331   1.114  1.0749 -0.9485 -0.4665
 2403SOL    HW218672   3.796   3.476   1.153  0.1766 -0.1804 -0.2608
 2404SOL     OW18673   0.896   3.311   3.771  0.1344 -0.5919 -0.1754
 2404SOL    HW118674   0.855   3.243   3.718 -2.4054  0.0950  0.8885
 2404SOL    HW218675   0.986   3.278   3.772 -0.3306 -1.8683 -0.8155
 2405SOL     OW18676   0.352   1.671   4.832 -0.1752  0.0922 -0.3221
 2405SOL    HW118677   0.392   1.654   4.918  0.6063  0.2579 -0.6505
 2405SOL    HW218678   0.268   1.626   4.830  1.4014 -2.8131 -1.4101
 2406SOL     OW18679   0.625   4.508  17.556  0.2160 -0.1033 -0.2659
 2406SOL    HW118680   0.649   4.535  17.644  1.1037  0.1585 -0.5885
 2406SOL    HW218681   0.610   4.417  17.579 -0.4114  0.2248  0.6255
 2407SOL     OW18682   0.386   1.972   3.986  0.2509 -0.3872 -0.0426
 2407SOL    HW118683   0.328   1.953   4.060  2.1188 -0.5088  1.3730
 2407SOL    HW218684   0.422   1.884   3.971 -3.8495 -2.4629  2.1638
 2408SOL     OW18685   2.843   3.810  11.893 -0.0488  0.3136  0.1044
 2408SOL    HW118686   2.755   3.804  11.930  1.0637  1.1246  2.9198
 2408SOL    HW218687   2.835   3.896  11.852 -1.9944 -0.6937 -1.6317
 2409SOL     OW18688   4.548   3.015  16.313 -0.5874 -0.1096  0.0931
 2409SOL    HW118689   4.610   3.087  16.326 -0.0889 -0.5204 -0.0267
 2409SOL    HW218690   4.503   3.047  16.234  0.3221  0.0359 -0.3612
 2410SOL     OW18691   0.148   4.279   6.306  0.5096 -0.0296  0.0779
 2410SOL    HW118692   0.111   4.222   6.374 -0.2626 -0.4144 -0.6760
 2410SOL    HW218693   0.071   4.292   6.250  0.6626 -1.8406 -0.5502
 2411SOL     OW18694   0.809   0.384  15.641  0.2196  0.0397 -0.2569
 2411SOL    HW118695   0.830   0.441  15.567 -0.1664  2.3868  1.4302
 2411SOL    HW218696   0.779   0.301  15.603  0.7343  0.2875 -1.1818
 2412SOL     OW18697   1.150   3.526   9.392 -0.1047 -0.0523 -0.2108
 2412SOL    HW118698   1.115   3.466   9.458 -0.0318  0.1011 -0.0344
 2412SOL    HW218699   1.239   3.495   9.377 -0.0461 -0.3942  0.8593
 2413SOL     OW18700   2.870   0.931   3.001  0.3117 -0.2433 -0.5818
 2413SOL    HW118701   2.806   0.889   3.059  0.5149  0.6471  0.2839
 2413SOL    HW218702   2.938   0.936   3.069  0.2657 -1.1404 -0.4683
 2414SOL     OW18703   3.057   1.095  12.946 -0.4257  0.2599  0.0619
 2414SOL    HW118704   3.007   1.162  12.993  1.0868 -0.2467  2.4577
 2414SOL    HW218705   3.143   1.136  12.942  0.9476 -2.2158  3.5650
 2415SOL     OW18706   4.638   0.136   5.138  0.1715  0.7452  0.3298
 2415SOL    HW118707   4.640   0.132   5.234  0.9112  0.1580  0.2867
 2415SOL    HW218708   4.712   0.189   5.110  0.7661 -0.4096 -0.2590
 2416SOL     OW18709   2.033   3.532   4.667  0.6980  0.6045 -0.3201
 2416SOL    HW118710   2.108   3.498   4.618 -1.0427  0.3652 -2.8223
 2416SOL    HW218711   1.971   3.538   4.594  0.4795  1.6635 -0.0448
 2417SOL     OW18712   0.479   2.759   4.968  0.5591 -0.1447 -0.0606
 2417SOL    HW118713   0.422   2.829   4.999  1.5605  0.7495 -0.2220
 2417SOL    HW218714   0.542   2.805   4.913  0.8842 -0.1127  0.3351
 2418SOL     OW18715   2.584   2.853   9.999  0.0116  0.2265  0.4375
 2418SOL    HW118716   2.530   2.775   9.998  2.8266 -1.7011 -3.0596
 2418SOL    HW218717   2.662   2.808  10.031 -0.4602 -0.8819  0.0138
 2419SOL     OW18718   2.749   1.949   4.748  0.2114  0.1979  0.4822
 2419SOL    HW118719   2.829   1.940   4.800  0.2160 -2.0128  0.1138
 2419SOL    HW218720   2.699   1.877   4.786  1.9266 -0.8586  0.7507
 2420SOL     OW18721   1.262   3.805   5.238 -0.1994  0.2408 -0.4960
 2420SOL    HW118722   1.215   3.769   5.313 -0.1655 -1.0768 -1.1027
 2420SOL    HW218723   1.301   3.722   5.209  0.9709  0.8909 -0.8179
 2421SOL     OW18724   2.475   1.810  15.851 -0.1243  0.2036 -0.0573
 2421SOL    HW118725   2.390   1.812  15.895  0.2740 -1.8115  0.8218
 2421SOL    HW218726   2.479   1.719  15.820  2.3679 -0.3531  1.9543
 2422SOL     OW18727   0.393   4.362  15.339  0.4059  0.1798 -0.1473
 2422SOL    HW118728   0.469   4.310  15.368  0.2699  0.0039 -0.1062
 2422SOL    HW218729   0.425   4.450  15.361 -2.1773  1.0810 -0.0315
 2423SOL     OW18730   0.662   1.476   6.507 -0.2805  0.4458  0.6764
 2423SOL    HW118731   0.721   1.457   6.579 -0.1029  0.4403  0.5294
 2423SOL    HW218732   0.581   1.428   6.523  2.1665 -3.8006  0.4908
 2424SOL     OW18733   2.983   2.334   5.484 -0.2042 -0.0342  0.0154
 2424SOL    HW118734   3.076   2.321   5.465 -0.4332 -0.7113 -0.6530
 2424SOL    HW218735   2.949   2.308   5.399  0.7411 -1.2043  0.0041
 2425SOL     OW18736   4.588   1.907   4.440  0.0941  0.4205 -0.9525
 2425SOL    HW118737   4.577   1.993   4.479  0.2999 -0.0726  0.2037
 2425SOL    HW218738   4.532   1.916   4.363 -0.4051 -0.1702 -0.6620
 2426SOL     OW18739   1.290   2.109   1.882  0.1684  0.8542 -0.5672
 2426SOL    HW118740   1.382   2.131   1.891 -0.2270  1.4262  2.2621
 2426SOL    HW218741   1.301   2.018   1.855  0.0784  0.2886  1.3036
 2427SOL     OW18742   1.598   2.226   2.919 -0.6296  0.0615 -0.1713
 2427SOL    HW118743   1.645   2.189   2.994 -1.0592 -1.2474 -0.5441
 2427SOL    HW218744   1.638   2.311   2.900  2.3974 -0.9484  1.6762
 2428SOL     OW18745   4.283   0.524   9.256 -0.7382 -0.0800  0.2855
 2428SOL    HW118746   4.360   0.487   9.212 -2.0010 -2.7382  0.3251
 2428SOL    HW218747   4.328   0.607   9.269  1.3499 -1.2529  0.7073
 2429SOL     OW18748   1.612   4.367   3.863  0.2315 -0.5765  0.5853
 2429SOL    HW118749   1.670   4.300   3.897  0.4744  0.2890  1.8837
 2429SOL    HW218750   1.535   4.348   3.918  0.7288  0.6187  1.7050
 2430SOL     OW18751   4.430   1.902  10.009 -0.3790  0.0264 -0.0018
 2430SOL    HW118752   4.422   1.821   9.960  0.2061 -1.1018  1.7507
 2430SOL    HW218753   4.433   1.971   9.943  1.7762  0.7952  0.8810
 2431SOL     OW18754   4.576   0.762   7.132 -0.4950 -0.3594  0.2606
 2431SOL    HW118755   4.666   0.780   7.108 -0.8252  1.0045  0.0354
 2431SOL    HW218756   4.578   0.688   7.072  0.0047  1.3157 -1.7723
 2432SOL     OW18757   4.139   1.037  10.709  0.5161  0.2473  0.4166
 2432SOL    HW118758   4.170   0.961  10.660 -4.5447 -2.1402  0.9719
 2432SOL    HW218759   4.064   1.001  10.757 -0.0778 -1.1438 -1.5776
 2433SOL     OW18760   2.143   3.606   6.905  0.4910 -0.0483  0.0463
 2433SOL    HW118761   2.070   3.598   6.844 -2.9395 -0.0412  4.2074
 2433SOL    HW218762   2.179   3.517   6.905  0.3286 -0.1166 -1.9588
 2434SOL     OW18763   3.587   0.657   4.688  0.3043  0.1019  0.4154
 2434SOL    HW118764   3.655   0.703   4.739 -0.6452  1.5340  0.3859
 2434SOL    HW218765   3.612   0.569   4.714  0.3062  0.1635  0.6204
 2435SOL     OW18766   3.318   2.186   4.160  0.3389 -0.1689 -0.2532
 2435SOL    HW118767   3.243   2.132   4.135 -0.0851 -0.2083  1.1569
 2435SOL    HW218768   3.350   2.210   4.072  0.2613  0.9145  0.0176
 2436SOL     OW18769   1.678   2.734   8.917  0.8682 -0.1446 -0.0581
 2436SOL    HW118770   1.728   2.676   8.860  2.9863  1.6772 -0.0904
 2436SOL    HW218771   1.736   2.736   8.994  0.0557  1.6870  0.5125
 2437SOL     OW18772   3.818   1.322   2.448 -0.9109 -0.1806  0.1297
 2437SOL    HW118773   3.818   1.387   2.518 -2.8174 -0.5821  0.5014
 2437SOL    HW218774   3.901   1.338   2.403 -2.1686  1.4180 -1.6668
 2438SOL     OW18775   3.753   4.572  16.739  0.6067  0.3808 -0.0228
 2438SOL    HW118776   3.680   4.511  16.740  0.5269  0.4601 -1.2576
 2438SOL    HW218777   3.798   4.544  16.659  1.0449 -0.8899  0.6791
 2439SOL     OW18778   4.578   0.371  13.242  0.0079  0.7174 -0.3124
 2439SOL    HW118779   4.638   0.352  13.170 -1.6543 -3.4498 -0.5928
 2439SOL    HW218780   4.596   0.463  13.263 -1.2051  0.9745 -0.3992
 2440SOL     OW18781   1.408   2.970   4.923 -0.3691  0.3072  0.1685
 2440SOL    HW118782   1.315   2.959   4.907 -0.6864  1.5467  1.1633
 2440SOL    HW218783   1.434   2.881   4.948 -3.3641  0.4048  3.6281
 2441SOL     OW18784   1.415   4.190   2.840  0.1088  0.0526 -0.2990
 2441SOL    HW118785   1.405   4.261   2.903 -0.5728 -1.1105  0.9045
 2441SOL    HW218786   1.404   4.238   2.758 -2.1940  2.2441  1.3016
 2442SOL     OW18787   3.803   0.445   2.467  0.2379 -0.7820  0.3437
 2442SOL    HW118788   3.858   0.456   2.390 -3.7764  1.0398 -2.2557
 2442SOL    HW218789   3.788   0.532   2.505 -2.9245 -0.9556 -0.4796
 2443SOL     OW18790   1.217   4.166  13.517  0.1890 -0.2088 -0.4716
 2443SOL    HW118791   1.257   4.241  13.473  4.7087 -1.7788  0.9629
 2443SOL    HW218792   1.241   4.091  13.462  1.7263 -0.7936  0.9809
 2444SOL     OW18793   0.926   1.248   2.582  0.2973 -0.0315 -0.4726
 2444SOL    HW118794   0.927   1.291   2.496 -0.2792  0.4345 -0.2455
 2444SOL    HW218795   0.882   1.165   2.564  1.7576 -0.8681 -0.2114
 2445SOL     OW18796   1.246   2.820  13.364 -0.6123  0.4525  0.3324
 2445SOL    HW118797   1.289   2.808  13.448  1.2919  2.6918 -0.3547
 2445SOL    HW218798   1.176   2.754  13.367 -0.1406 -0.0817 -0.2878
 2446SOL     OW18799   2.295   3.557  12.798  0.2764  0.6740  0.3746
 2446SOL    HW118800   2.365   3.617  12.824  0.4979  0.4231  0.3588
 2446SOL    HW218801   2.350   3.479  12.800  0.0368  0.4282 -2.6902
 2447SOL     OW18802   1.159   4.523   0.434  0.6068 -0.5666 -0.0242
 2447SOL    HW118803   1.239   4.471   0.431  3.0320  3.2015 -0.7795
 2447SOL    HW218804   1.112   4.470   0.369 -0.3492 -2.7593  2.4809
 2448SOL     OW18805   2.441   4.604   1.355 -0.1933  0.1208 -0.0875
 2448SOL    HW118806   2.346   4.612   1.346  0.1133  0.9908 -2.4862
 2448SOL    HW218807   2.446   4.518   1.397  0.1723  1.2023  2.0660
 2449SOL     OW18808   0.733   0.496  10.777 -0.1518 -0.2016  0.4815
 2449SOL    HW118809   0.641   0.470  10.771 -0.3517  0.1041  2.1524
 2449SOL    HW218810   0.772   0.433  10.838  1.4789  0.6170  0.2938
 2450SOL     OW18811   3.309   1.563   3.301 -0.3327 -0.5463  0.4362
 2450SOL    HW118812   3.394   1.589   3.265  0.1569 -0.9162  1.3415
 2450SOL    HW218813   3.338   1.497   3.364 -1.1234 -2.0033 -0.7441
 2451SOL     OW18814   2.413   0.666   6.874  0.4650 -0.1377 -0.3063
 2451SOL    HW118815   2.328   0.628   6.897 -0.2410  1.3446 -0.5233
 2451SOL    HW218816   2.406   0.761   6.882  0.4105 -0.1403 -0.3203
 2452SOL     OW18817   2.314   3.373   6.878  0.3820  0.1143 -0.1046
 2452SOL    HW118818   2.389   3.384   6.820 -0.1179 -1.3990 -1.0369
 2452SOL    HW218819   2.306   3.280   6.900 -0.6554  0.7896  2.4100
 2453SOL     OW18820   2.381   4.159  16.884 -0.2623 -0.1369  0.0831
 2453SOL    HW118821   2.469   4.196  16.886 -1.3523  2.5666 -1.8444
 2453SOL    HW218822   2.353   4.149  16.975 -1.2320 -0.4568 -0.2583
 2454SOL     OW18823   1.304   2.853   1.974  0.2583 -0.2317  0.7262
 2454SOL    HW118824   1.384   2.810   1.944  0.1900 -0.4908  0.9228
 2454SOL    HW218825   1.279   2.806   2.053 -1.3643 -2.8505 -1.3495
 2455SOL     OW18826   3.327   3.131   6.461  0.2548  0.0626  0.3731
 2455SOL    HW118827   3.279   3.087   6.391 -0.5899  1.4531  0.0830
 2455SOL    HW218828   3.282   3.113   6.544  1.4742  1.9837  1.4481
 2456SOL     OW18829   3.830   1.009   7.608  0.5045 -0.5733  0.0035
 2456SOL    HW118830   3.909   0.958   7.594 -0.2980 -1.2576 -1.9582
 2456SOL    HW218831   3.768   0.955   7.657 -0.3833  1.3002  0.9591
 2457SOL     OW18832   1.387   3.100   1.998  0.0562 -0.7450  0.7877
 2457SOL    HW118833   1.313   3.138   2.045 -0.2612  0.7676 -0.9173
 2457SOL    HW218834   1.365   3.007   1.989 -2.4249 -0.0545 -0.3018
 2458SOL     OW18835   1.411   1.962   0.473 -0.5981 -0.3010 -0.4424
 2458SOL    HW118836   1.353   1.959   0.549  0.7070  2.0320  0.6410
 2458SOL    HW218837   1.352   1.999   0.407  0.5528  1.2856 -0.5800
 2459SOL     OW18838   3.684   0.689   9.954  0.0950  0.1167 -0.0523
 2459SOL    HW118839   3.619   0.740  10.003 -2.1556 -1.7414 -1.1153
 2459SOL    HW218840   3.677   0.612  10.009 -1.7775  0.8773  0.7932
 2460SOL     OW18841   4.484   4.467   1.551 -0.7795 -0.2458  0.1104
 2460SOL    HW118842   4.498   4.561   1.540  0.2948 -0.3223  0.8094
 2460SOL    HW218843   4.493   4.435   1.462  0.7961  0.1770  0.1208
 2461SOL     OW18844   1.877   3.467   1.853 -0.1788 -0.3416 -0.3639
 2461SOL    HW118845   1.882   3.458   1.758 -3.2187 -2.0393 -0.3707
 2461SOL    HW218846   1.892   3.560   1.866 -2.0387 -0.0844 -0.0182
 2462SOL     OW18847   2.024   1.173   1.819  0.4550  0.4112  0.1086
 2462SOL    HW118848   2.051   1.084   1.842 -2.9782 -0.5318  0.6055
 2462SOL    HW218849   1.952   1.180   1.883 -0.6347  0.9316 -1.1882
 2463SOL     OW18850   3.806   3.455  17.283  0.2093  0.0750 -1.1824
 2463SOL    HW118851   3.834   3.514  17.353 -0.5297  0.8937 -1.5732
 2463SOL    HW218852   3.888   3.408  17.268  2.3620  2.9292  1.7312
 2464SOL     OW18853   2.612   1.162   5.064  0.0973 -0.0955 -0.0879
 2464SOL    HW118854   2.552   1.087   5.061  1.4585 -1.2506  1.7778
 2464SOL    HW218855   2.698   1.122   5.059 -0.1790 -0.2202 -3.4720
 2465SOL     OW18856   0.733   1.073   4.727  0.1169  0.3075  0.3336
 2465SOL    HW118857   0.644   1.100   4.751  0.4257  0.8030  0.9092
 2465SOL    HW218858   0.788   1.147   4.752  0.2838 -0.2476  1.6260
 2466SOL     OW18859   1.435   0.386  13.060 -0.4970 -0.4446 -0.1017
 2466SOL    HW118860   1.460   0.389  13.152 -2.7007 -1.6663  0.5233
 2466SOL    HW218861   1.469   0.468  13.023  2.3951 -0.9073  1.5284
 2467SOL     OW18862   1.890   0.491  14.507  0.0065 -0.2361 -0.3641
 2467SOL    HW118863   1.935   0.454  14.582 -0.1089 -0.4965 -0.4215
 2467SOL    HW218864   1.928   0.579  14.502  0.8722 -0.6176 -0.4891
 2468SOL     OW18865   0.103   3.444  10.948 -0.0198  0.4735 -0.3520
 2468SOL    HW118866   0.135   3.393  10.874 -0.9835 -1.8876  0.8456
 2468SOL    HW218867   0.062   3.517  10.902 -0.5430  0.6832  0.4596
 2469SOL     OW18868   2.163   4.019  12.135  0.1152  0.0645  0.1543
 2469SOL    HW118869   2.073   3.991  12.117  0.2580 -0.3436  0.0855
 2469SOL    HW218870   2.165   4.035  12.230  1.5068  0.7239  0.0094
 2470SOL     OW18871   1.419   2.028   6.649  0.3505 -0.1609  0.0251
 2470SOL    HW118872   1.341   2.025   6.704 -0.3607  1.0010 -0.9295
 2470SOL    HW218873   1.393   2.064   6.564 -0.0762 -0.3273  0.0883
 2471SOL     OW18874   1.671   3.175   0.031  0.7213 -0.5326  0.0497
 2471SOL    HW118875   1.693   3.178  17.626  3.6555  1.3818  0.8012
 2471SOL    HW218876   1.608   3.105   0.046  0.9849 -1.0497 -1.3246
 2472SOL     OW18877   1.302   3.848  12.944  0.1390  0.1024 -0.2353
 2472SOL    HW118878   1.321   3.779  12.880  1.8825 -0.2955  0.7118
 2472SOL    HW218879   1.298   3.922  12.883 -1.6783 -1.2603 -1.7512
 2473SOL     OW18880   2.578   1.198  12.069  0.0676  0.9054  0.0185
 2473SOL    HW118881   2.629   1.126  12.032 -1.6221 -0.2479 -0.0819
 2473SOL    HW218882   2.511   1.153  12.121 -0.5544  0.9545 -0.7509
 2474SOL     OW18883   1.696   2.302   9.224  0.1105  0.0177  0.2323
 2474SOL    HW118884   1.724   2.321   9.135  0.8669 -0.8874  0.2781
 2474SOL    HW218885   1.714   2.208   9.234  1.4154  0.1604 -0.6927
 2475SOL     OW18886   1.239   0.194   2.025 -0.1684 -0.2089  0.4397
 2475SOL    HW118887   1.305   0.155   1.968  0.3765 -0.1066  0.9982
 2475SOL    HW218888   1.164   0.135   2.024 -0.2022 -0.2055  2.2953
 2476SOL     OW18889   2.509   1.983  12.984  0.1125 -0.2144 -0.1815
 2476SOL    HW118890   2.455   1.905  12.971  0.7915 -0.4309 -1.7329
 2476SOL    HW218891   2.512   2.017  12.894  2.1378 -0.1339 -0.0785
 2477SOL     OW18892   1.574   2.845   7.316  0.5464  0.1167  0.0074
 2477SOL    HW118893   1.594   2.867   7.407 -0.5470 -0.6808  0.4476
 2477SOL    HW218894   1.655   2.806   7.286  0.0786 -1.2840  0.5789
 2478SOL     OW18895   2.291   4.281  12.107 -0.1460 -0.0685  0.3474
 2478SOL    HW118896   2.270   4.188  12.121 -0.6248 -0.1946 -1.2866
 2478SOL    HW218897   2.202   4.314  12.095 -0.9311 -1.2249  2.8381
 2479SOL     OW18898   4.396   0.417   5.635 -0.7638  0.0638  0.2721
 2479SOL    HW118899   4.386   0.341   5.578  0.7168 -0.4347  0.6671
 2479SOL    HW218900   4.311   0.444   5.671 -1.6609 -3.8036  0.9844
 2480SOL     OW18901   1.920   3.111  11.286 -0.1399  0.4515 -0.2691
 2480SOL    HW118902   1.919   3.122  11.381  0.3491  2.2346 -0.4690
 2480SOL    HW218903   1.869   3.187  11.258  1.1646  1.3791 -0.1525
 2481SOL     OW18904   1.219   3.330   7.373  0.3140 -0.4540 -0.1571
 2481SOL    HW118905   1.128   3.300   7.373  0.2515 -0.2624 -0.9697
 2481SOL    HW218906   1.245   3.318   7.281 -1.2023 -0.1067 -0.6180
 2482SOL     OW18907   2.301   3.153   1.885 -0.2572 -0.2883 -0.1660
 2482SOL    HW118908   2.340   3.182   1.803 -0.1052  0.5852  0.2134
 2482SOL    HW218909   2.210   3.183   1.880 -0.0027  0.4215 -0.5454
 2483SOL     OW18910   0.613   4.517  12.594  0.1379 -0.6220  0.2444
 2483SOL    HW118911   0.685   4.504  12.533  0.3924  2.4794 -0.1251
 2483SOL    HW218912   0.543   4.471  12.547 -0.9286  0.8302  0.4146
 2484SOL     OW18913   0.827   4.243   7.257  0.4464  0.0357  0.0753
 2484SOL    HW118914   0.820   4.267   7.165  0.3394 -3.2007 -0.7847
 2484SOL    HW218915   0.799   4.324   7.299  1.1676 -0.6734  1.9643
 2485SOL     OW18916   2.501   0.866   3.398  0.2301  0.0168 -0.3730
 2485SOL    HW118917   2.447   0.839   3.472 -1.1639  1.6122 -0.8209
 2485SOL    HW218918   2.486   0.961   3.396 -2.0685 -0.2820  2.3725
 2486SOL     OW18919   2.170   2.385   3.853  0.1071  0.3493  0.2512
 2486SOL    HW118920   2.262   2.413   3.847  0.5893 -1.4505 -0.9696
 2486SOL    HW218921   2.186   2.296   3.886 -1.1020 -0.0903 -0.3556
 2487SOL     OW18922   0.151   2.086   2.089 -0.7220 -0.1345 -0.2029
 2487SOL    HW118923   0.198   2.141   2.151  0.5608 -0.6130 -0.7391
 2487SOL    HW218924   0.060   2.101   2.114 -1.1976  0.9624 -2.6066
 2488SOL     OW18925   0.256   1.179   4.251  0.0797 -0.2470 -0.4105
 2488SOL    HW118926   0.279   1.252   4.193  0.3695  1.3283  1.6991
 2488SOL    HW218927   0.163   1.200   4.255 -0.3494 -2.3778  0.7342
 2489SOL     OW18928   2.338   0.136   4.774  0.7562  0.1936  0.2579
 2489SOL    HW118929   2.324   0.222   4.815 -2.5059 -0.3491  0.2830
 2489SOL    HW218930   2.257   0.098   4.808  0.0709  1.0278 -0.4639
 2490SOL     OW18931   3.865   1.894   4.570  0.4984  0.3549 -0.3809
 2490SOL    HW118932   3.880   1.938   4.653  1.1910  1.8889 -1.3102
 2490SOL    HW218933   3.788   1.843   4.593 -0.0363  1.0925 -0.5592
 2491SOL     OW18934   0.283   0.447  11.142  0.3591 -0.3621 -0.0383
 2491SOL    HW118935   0.336   0.508  11.091  1.0635  1.0539  2.3964
 2491SOL    HW218936   0.264   0.508  11.213  0.2115 -0.9289  0.4047
 2492SOL     OW18937   1.585   3.271   6.343  0.1187 -0.1206  0.4428
 2492SOL    HW118938   1.636   3.334   6.393 -0.1821  0.3748  0.1178
 2492SOL    HW218939   1.498   3.293   6.375 -1.6997 -1.8984 -3.2224
 2493SOL     OW18940   3.796   0.752   8.438 -0.1001  0.2245 -0.2364
 2493SOL    HW118941   3.837   0.780   8.521 -2.1240  1.2567  0.4196
 2493SOL    HW218942   3.736   0.687   8.475  0.0344  0.5274  0.5271
 2494SOL     OW18943   1.074   0.054   6.115 -0.2961 -0.4782  0.5752
 2494SOL    HW118944   1.120   4.693   6.101  1.0089 -0.1860  3.0663
 2494SOL    HW218945   1.147   0.092   6.164  0.1005  1.1297 -1.2969
 2495SOL     OW18946   0.632   2.770  14.186 -0.1097 -0.3188 -0.5844
 2495SOL    HW118947   0.541   2.746  14.203 -0.4332  0.7521 -0.7768
 2495SOL    HW218948   0.627   2.849  14.131  0.7395  1.4176  1.8689
 2496SOL     OW18949   1.363   4.050   1.459  0.5447 -0.4542  0.1679
 2496SOL    HW118950   1.339   3.972   1.409 -1.5198  0.2490  0.0605
 2496SOL    HW218951   1.434   4.069   1.397  1.5350 -0.2983  1.3607
 2497SOL     OW18952   0.510   4.024   3.332  0.9190 -0.2345 -0.4836
 2497SOL    HW118953   0.544   4.000   3.418 -0.7858 -0.1864  0.2108
 2497SOL    HW218954   0.416   4.024   3.352  1.3185  0.2064  1.3624
 2498SOL     OW18955   0.725   3.713  13.862 -0.3780 -0.0922  0.6099
 2498SOL    HW118956   0.702   3.740  13.774 -0.7879  1.1982  1.1173
 2498SOL    HW218957   0.636   3.725  13.896 -0.6851 -0.6833  0.0015
 2499SOL     OW18958   2.184   0.221   5.865  0.5044  0.4386 -0.8265
 2499SOL    HW118959   2.095   0.197   5.890  0.1153  1.0360 -1.6176
 2499SOL    HW218960   2.228   0.239   5.948 -0.5944 -0.5808 -0.0266
 2500SOL     OW18961   3.986   4.234   5.765  0.2540  0.5167  0.9510
 2500SOL    HW118962   4.081   4.233   5.758  0.2340  1.7809  0.4058
 2500SOL    HW218963   3.968   4.202   5.676 -0.4947 -1.4277  1.8047
 2501SOL     OW18964   3.791   2.931   7.868  0.3158 -0.4616 -0.5452
 2501SOL    HW118965   3.877   2.934   7.826  0.2901 -1.7666 -0.7044
 2501SOL    HW218966   3.775   2.839   7.845  1.1277 -0.2078 -2.1670
 2502SOL     OW18967   4.649   2.954   5.206 -0.2791  0.0945  0.6865
 2502SOL    HW118968   4.697   2.878   5.172 -0.2318 -0.7731  2.6726
 2502SOL    HW218969   4.563   2.952   5.164  0.1966  0.3900 -0.3045
 2503SOL     OW18970   1.577   0.701   5.169 -0.2996 -0.2827  0.3306
 2503SOL    HW118971   1.538   0.627   5.216  2.0770 -2.4572 -1.1318
 2503SOL    HW218972   1.498   0.731   5.124  0.3121 -1.6414 -1.5944
 2504SOL     OW18973   0.554   4.272   8.409  0.3862  0.1402  0.8863
 2504SOL    HW118974   0.553   4.366   8.389  1.7556 -0.0702 -0.0990
 2504SOL    HW218975   0.582   4.275   8.500  1.0698  2.9489  0.5792
 2505SOL     OW18976   2.935   2.720   2.655  0.3593  0.2449  0.1190
 2505SOL    HW118977   2.973   2.633   2.666 -1.2730 -0.6097 -0.8301
 2505SOL    HW218978   2.966   2.762   2.735  0.2210 -0.4720  0.5546
 2506SOL     OW18979   2.497   1.375  10.339  0.6491 -1.0130  0.1329
 2506SOL    HW118980   2.437   1.310  10.377  1.1987 -2.3561 -1.2765
 2506SOL    HW218981   2.566   1.326  10.295 -0.1400 -2.5882  0.6222
 2507SOL     OW18982   1.224   3.825   4.160 -0.2539 -0.5632 -0.1098
 2507SOL    HW118983   1.205   3.768   4.235 -2.0188  2.0407  1.4149
 2507SOL    HW218984   1.167   3.776   4.101 -0.5112  0.4008 -0.6514
 2508SOL     OW18985   0.204   3.888  13.805  0.3347 -0.1821  0.7925
 2508SOL    HW118986   0.207   3.978  13.837  1.4920 -0.1372  0.5751
 2508SOL    HW218987   0.270   3.843  13.859  0.5323  0.7672  1.3394
 2509SOL     OW18988   1.422   3.292   8.597 -0.0527 -0.8300  0.5856
 2509SOL    HW118989   1.407   3.268   8.689 -0.1058 -1.2267  0.4728
 2509SOL    HW218990   1.385   3.380   8.595  0.2608 -0.7177 -0.0219
 2510SOL     OW18991   0.954   0.704   3.413  0.1589  0.6511  0.1154
 2510SOL    HW118992   0.936   0.610   3.416  0.6459  0.6543  3.4594
 2510SOL    HW218993   0.876   0.719   3.467 -0.3585  0.2698 -0.5242
 2511SOL     OW18994   2.860   4.355   0.202 -0.5985  0.4279  1.1561
 2511SOL    HW118995   2.872   4.263   0.225  2.2171  0.8012  1.1784
 2511SOL    HW218996   2.938   4.386   0.248  0.6282  0.4463 -0.8823
 2512SOL     OW18997   3.914   1.178   8.381 -0.2540  0.0600 -0.4126
 2512SOL    HW118998   3.941   1.178   8.289  2.0262  1.0742  0.2559
 2512SOL    HW218999   3.856   1.254   8.380 -1.2600 -0.7181 -1.8570
 2513SOL     OW19000   3.898   0.049  16.202 -0.1525  0.2974  0.3591
 2513SOL    HW119001   3.940   0.114  16.258  1.1969 -0.6656  0.4683
 2513SOL    HW219002   3.840   0.096  16.142 -2.4351  0.0807  2.4065
 2514SOL     OW19003   0.593   0.929  12.318 -0.0953 -0.2491  0.0906
 2514SOL    HW119004   0.614   0.963  12.231  0.1986  0.0868  0.2915
 2514SOL    HW219005   0.501   0.909  12.305 -0.5755  0.3351  2.5127
 2515SOL     OW19006   1.168   3.413   5.862  0.3686  0.3598  0.4980
 2515SOL    HW119007   1.098   3.376   5.915 -0.2399  2.7237  1.3554
 2515SOL    HW219008   1.180   3.337   5.805 -1.0303  0.6211 -0.1324
 2516SOL     OW19009   3.590   3.433  17.581  0.1485 -0.1844 -0.5510
 2516SOL    HW119010   3.644   3.506  17.554  1.3708 -0.5414  0.9091
 2516SOL    HW219011   3.606   3.432  17.676  1.3856 -0.3016 -0.7599
 2517SOL     OW19012   0.634   4.163   6.432  0.1761  0.1692 -0.0580
 2517SOL    HW119013   0.688   4.195   6.504  1.9305 -0.3615 -1.1332
 2517SOL    HW219014   0.561   4.125   6.480  0.1265  0.2168 -0.0954
 2518SOL     OW19015   3.417   1.975   6.718  0.1063 -0.1087 -0.1999
 2518SOL    HW119016   3.482   1.930   6.663  2.5035  3.4008 -0.2501
 2518SOL    HW219017   3.470   2.005   6.791  0.7440 -2.4667  0.3065
 2519SOL     OW19018   2.967   4.115   5.286  0.8696  0.5063  0.3567
 2519SOL    HW119019   2.943   4.112   5.193 -0.9936 -1.1691  0.8919
 2519SOL    HW219020   2.881   4.103   5.324  0.6332 -1.1593 -0.7024
 2520SOL     OW19021   0.347   1.677   8.465 -0.0584  0.3628  0.1591
 2520SOL    HW119022   0.278   1.635   8.516 -1.0475 -1.7945 -2.9328
 2520SOL    HW219023   0.408   1.605   8.458  0.1089  0.5568 -0.3850
 2521SOL     OW19024   2.662   1.518   3.627 -0.5613  0.1945  0.0453
 2521SOL    HW119025   2.627   1.479   3.547  1.0000  0.3017 -0.6961
 2521SOL    HW219026   2.593   1.583   3.639  0.1353  1.0266 -0.4461
 2522SOL     OW19027   2.053   2.829   6.514 -0.3992 -0.0122 -0.0250
 2522SOL    HW119028   2.015   2.742   6.502  1.7073 -1.0546  0.8944
 2522SOL    HW219029   2.053   2.862   6.424 -2.7540  2.7857  0.9670
 2523SOL     OW19030   1.937   4.113   6.868  0.3465 -0.5611  0.2909
 2523SOL    HW119031   2.023   4.071   6.877  1.3763  1.5016 -0.1191
 2523SOL    HW219032   1.895   4.081   6.949 -0.5211 -1.9145 -0.6893
 2524SOL     OW19033   1.098   4.276   1.904 -0.2476  0.7139  0.6330
 2524SOL    HW119034   1.179   4.270   1.955 -0.4665  1.0888  1.0244
 2524SOL    HW219035   1.046   4.228   1.968 -1.3525  0.4972 -0.4388
 2525SOL     OW19036   4.106   2.987   0.572  0.2337  0.6087  0.3874
 2525SOL    HW119037   4.141   3.034   0.648  1.9180 -1.3485  0.8222
 2525SOL    HW219038   4.015   3.006   0.596 -0.6109 -2.1064 -0.7138
 2526SOL     OW19039   2.983   1.872  15.242 -0.6185  0.3682  0.1994
 2526SOL    HW119040   2.907   1.930  15.239 -0.0393  1.1422  0.5953
 2526SOL    HW219041   2.973   1.815  15.165  2.0593  1.9983 -1.3486
 2527SOL     OW19042   4.132   0.165   3.908  0.5446  0.5833  0.1977
 2527SOL    HW119043   4.162   0.254   3.923 -0.5570  0.9608  0.1344
 2527SOL    HW219044   4.199   0.138   3.845 -3.2087 -2.1260 -2.6501
 2528SOL     OW19045   2.937   1.208  11.928  0.0049 -0.0814  0.1567
 2528SOL    HW119046   2.867   1.143  11.925  2.2552 -2.4597 -0.5024
 2528SOL    HW219047   2.880   1.285  11.928 -0.8793 -0.7494 -0.1763
 2529SOL     OW19048   2.546   2.866   4.127  0.3285 -0.0237 -0.6105
 2529SOL    HW119049   2.597   2.941   4.097  1.2684 -0.3647  0.1203
 2529SOL    HW219050   2.559   2.803   4.057 -0.9781 -0.9575 -0.0325
 2530SOL     OW19051   2.866   4.335   2.404 -0.3687 -0.5743  0.2730
 2530SOL    HW119052   2.882   4.314   2.496  0.1351  0.4699  0.4248
 2530SOL    HW219053   2.879   4.429   2.396 -0.2762 -0.7725 -1.9089
 2531SOL     OW19054   4.145   1.257   8.772  0.3489 -0.3261  0.1854
 2531SOL    HW119055   4.221   1.199   8.768  1.9056  1.7728 -0.4858
 2531SOL    HW219056   4.177   1.334   8.818  0.3354  0.8960 -1.8624
 2532SOL     OW19057   2.989   2.123   7.024  0.4426 -0.0776 -0.0430
 2532SOL    HW119058   3.050   2.089   7.089 -0.6275  1.1941  1.6271
 2532SOL    HW219059   2.934   2.181   7.077  0.3839  0.2485 -0.4572
 2533SOL     OW19060   0.030   2.654   3.420  0.4147 -0.2624  0.0423
 2533SOL    HW119061   0.042   2.596   3.346  0.2462  0.7218 -0.7579
 2533SOL    HW219062   4.655   2.660   3.425  0.5080  1.1618  0.2447
 2534SOL     OW19063   0.838   4.204   3.218  0.8641  0.3318  0.0661
 2534SOL    HW119064   0.848   4.230   3.310 -3.4095 -0.3100  0.7441
 2534SOL    HW219065   0.745   4.181   3.211  0.6782  1.3283 -0.7688
 2535SOL     OW19066   1.065   2.534   7.997 -0.2245  0.1531 -0.0717
 2535SOL    HW119067   1.000   2.596   7.963 -0.0021 -0.6436 -1.9058
 2535SOL    HW219068   1.099   2.499   7.915  1.3743 -0.5253  0.8903
 2536SOL     OW19069   2.855   1.683  15.060  0.0065 -0.4194 -0.4967
 2536SOL    HW119070   2.902   1.600  15.056  0.2909 -0.3505  1.4407
 2536SOL    HW219071   2.772   1.676  15.013 -0.1505  0.5322 -0.3734
 2537SOL     OW19072   4.307   0.147  15.689  0.3379  0.1856  0.2525
 2537SOL    HW119073   4.303   0.090  15.766 -1.7562 -1.3968 -1.0289
 2537SOL    HW219074   4.241   0.208  15.723 -0.3223 -0.4699  0.1575
 2538SOL     OW19075   2.936   0.236   5.349 -0.5367  0.3793  0.4517
 2538SOL    HW119076   2.886   0.188   5.415  0.2015  1.1305  1.5526
 2538SOL    HW219077   2.909   0.327   5.360  2.3878  1.4482 -1.3267
 2539SOL     OW19078   4.142   0.911   5.524  0.1636 -0.2640 -0.6020
 2539SOL    HW119079   4.198   0.838   5.549 -0.6008 -0.6786 -0.1254
 2539SOL    HW219080   4.054   0.874   5.521  0.0275 -0.1313  1.4535
 2540SOL     OW19081   2.157   3.266   3.094  0.6341  0.2919  0.0920
 2540SOL    HW119082   2.251   3.271   3.083  0.5903  0.7654 -0.0528
 2540SOL    HW219083   2.153   3.176   3.060 -0.9441  0.7537 -0.9292
 2541SOL     OW19084   3.114   2.257   3.464  0.1732 -0.4847  0.0882
 2541SOL    HW119085   3.069   2.323   3.413  2.6021  1.3403  0.2845
 2541SOL    HW219086   3.203   2.282   3.440  0.4129 -0.6896  0.7315
 2542SOL     OW19087   3.360   3.765   8.328 -0.7302  0.6730 -0.7487
 2542SOL    HW119088   3.365   3.681   8.282  2.1184 -0.4192  1.6181
 2542SOL    HW219089   3.340   3.727   8.414 -2.2632  0.3661 -1.2396
 2543SOL     OW19090   0.949   2.354   3.857  0.2251 -0.3443 -0.1689
 2543SOL    HW119091   0.960   2.271   3.904  0.3205  0.2806  0.9154
 2543SOL    HW219092   0.934   2.416   3.929  0.4576  3.2283 -3.2057
 2544SOL     OW19093   3.851   4.545   2.138 -0.0359  0.3392  0.0801
 2544SOL    HW119094   3.909   4.506   2.073  0.9787 -2.2221  2.5251
 2544SOL    HW219095   3.770   4.495   2.126 -1.6956  2.7760  1.1411
 2545SOL     OW19096   0.390   3.540  11.012 -0.3194  0.1643 -0.0580
 2545SOL    HW119097   0.296   3.522  11.020 -0.5295 -0.0276 -2.8803
 2545SOL    HW219098   0.423   3.451  11.021 -2.7685 -0.8385 -0.9524
 2546SOL     OW19099   0.299   2.443  10.834 -0.1883 -0.2688  0.4518
 2546SOL    HW119100   0.357   2.367  10.829  1.6640  1.0919  1.3661
 2546SOL    HW219101   0.360   2.504  10.793 -0.8801  0.9058  1.2079
 2547SOL     OW19102   2.199   1.249   2.328 -0.0025 -0.3310  0.4195
 2547SOL    HW119103   2.223   1.320   2.269 -1.2580 -1.1011 -1.0011
 2547SOL    HW219104   2.104   1.253   2.324  0.0172 -2.2305 -1.6907
 2548SOL     OW19105   3.095   1.402   7.094 -0.1013 -0.1186  0.2721
 2548SOL    HW119106   3.059   1.460   7.027  0.3683  2.0680  1.9241
 2548SOL    HW219107   3.182   1.434   7.117 -0.6487  1.1160  0.5923
 2549SOL     OW19108   2.234   0.045   8.914  0.4473  0.0914 -0.5495
 2549SOL    HW119109   2.317   0.000   8.926 -0.1412 -0.3046  1.9289
 2549SOL    HW219110   2.261   0.127   8.873 -3.0515  1.7336  0.3855
 2550SOL     OW19111   4.392   2.619   8.181  0.1406 -0.0181 -0.2941
 2550SOL    HW119112   4.456   2.557   8.145  0.1194  0.4440 -1.1210
 2550SOL    HW219113   4.425   2.708   8.181 -2.4468  0.9453  1.0899
 2551SOL     OW19114   1.535   0.893   9.684  0.3402  0.3587  0.1268
 2551SOL    HW119115   1.527   0.949   9.761  2.6199  1.1789 -0.2222
 2551SOL    HW219116   1.627   0.869   9.695 -0.1432 -0.7547  1.7474
 2552SOL     OW19117   0.493   0.429   4.577 -0.0528  0.2429 -0.0758
 2552SOL    HW119118   0.550   0.430   4.653  0.5715 -1.7626 -0.5142
 2552SOL    HW219119   0.444   0.508   4.599 -1.3830  0.0504 -2.2858
 2553SOL     OW19120   2.642   2.220  16.409 -0.0259 -0.0940  0.2152
 2553SOL    HW119121   2.643   2.231  16.504 -0.0729 -1.6399  0.3882
 2553SOL    HW219122   2.557   2.181  16.391  0.0748 -0.5250  0.6778
 2554SOL     OW19123   4.579   1.306   5.239  0.1698  0.3331  0.5905
 2554SOL    HW119124   4.535   1.230   5.277  0.5670 -0.0138  0.3484
 2554SOL    HW219125   4.502   1.357   5.212 -1.8954 -2.0204  2.0782
 2555SOL     OW19126   1.426   0.788  16.279  0.5145  0.0539 -0.0226
 2555SOL    HW119127   1.389   0.704  16.252 -2.1491  1.3929 -0.5149
 2555SOL    HW219128   1.488   0.766  16.348 -0.8508 -2.3421  0.4392
 2556SOL     OW19129   3.545   1.426   2.636 -0.1213  0.7392  0.6163
 2556SOL    HW119130   3.582   1.482   2.568  0.4307 -0.2214  0.1320
 2556SOL    HW219131   3.485   1.382   2.576  1.9228 -1.7208  0.3750
 2557SOL     OW19132   0.645   0.014   4.022  0.0794 -0.6159  0.2078
 2557SOL    HW119133   0.621   0.028   4.114  0.1325  2.1439 -0.1713
 2557SOL    HW219134   0.696   4.655   4.030  0.9617 -0.1878 -1.1658
 2558SOL     OW19135   0.130   1.448   7.702 -0.8431 -0.2011 -0.1377
 2558SOL    HW119136   0.152   1.357   7.723  0.6450  0.7480  2.3939
 2558SOL    HW219137   0.131   1.494   7.786 -2.8268  0.3551 -0.4134
 2559SOL     OW19138   0.759   2.668   4.805  0.0784  0.2691  0.6499
 2559SOL    HW119139   0.781   2.699   4.893  1.0640  1.3836  0.0002
 2559SOL    HW219140   0.706   2.744   4.780  0.1259  0.2300  0.4340
 2560SOL     OW19141   3.036   3.117   3.524 -0.4047 -0.8078  0.4694
 2560SOL    HW119142   3.095   3.180   3.566 -1.9302 -0.6319  2.3504
 2560SOL    HW219143   3.093   3.041   3.538  0.0872 -0.3725  0.8346
 2561SOL     OW19144   0.184   3.037   5.304 -0.2696 -0.0538 -0.5994
 2561SOL    HW119145   0.091   3.018   5.293 -0.6968  1.2059  0.8461
 2561SOL    HW219146   0.182   3.131   5.316  1.0581 -0.2063  0.9124
 2562SOL     OW19147   2.169   2.019   4.687  0.1783  0.0335 -1.1166
 2562SOL    HW119148   2.158   1.951   4.620 -2.3476 -0.8964  0.2498
 2562SOL    HW219149   2.092   2.014   4.743  0.5200  2.6509 -0.4387
 2563SOL     OW19150   4.382   2.672   9.010 -0.8419  0.2632  0.2263
 2563SOL    HW119151   4.383   2.767   8.995  1.7110 -0.0448 -1.6725
 2563SOL    HW219152   4.442   2.674   9.084 -0.5849  2.4832 -0.0426
 2564SOL     OW19153   1.650   1.223   6.795 -0.0179 -0.2917 -0.8177
 2564SOL    HW119154   1.566   1.181   6.779  0.7131 -1.9356 -0.2694
 2564SOL    HW219155   1.668   1.213   6.889 -0.6528 -0.6033 -0.7293
 2565SOL     OW19156   3.226   0.325   5.370  0.7273  0.1569 -0.4260
 2565SOL    HW119157   3.143   0.298   5.329 -0.2706  0.0565  1.6688
 2565SOL    HW219158   3.285   0.258   5.336  1.5055  0.8328 -0.4169
 2566SOL     OW19159   0.371   1.529   1.621  0.0231  0.3353 -0.4081
 2566SOL    HW119160   0.326   1.457   1.665  0.0774  0.2000 -0.5746
 2566SOL    HW219161   0.427   1.485   1.558  0.7922  0.3536  0.2598
 2567SOL     OW19162   4.653   1.934   5.364 -0.5975  0.2057 -0.9287
 2567SOL    HW119163   4.636   2.024   5.336 -0.9695  1.2394  2.6818
 2567SOL    HW219164   4.571   1.909   5.406  0.3334 -2.2610 -0.5713
 2568SOL     OW19165   0.727   2.970   7.069 -0.8213  0.4658 -0.4413
 2568SOL    HW119166   0.707   2.887   7.111  0.1331  2.0303  3.0582
 2568SOL    HW219167   0.636   3.000   7.065 -1.0805 -0.3372 -0.4208
 2569SOL     OW19168   4.199   3.756  15.704  0.2596 -0.1606 -0.0513
 2569SOL    HW119169   4.105   3.763  15.685  0.0638 -0.6638  0.7190
 2569SOL    HW219170   4.213   3.668  15.738 -1.8503  0.5809  2.7339
 2570SOL     OW19171   1.448   2.911   7.077  0.2318  0.2667 -0.1932
 2570SOL    HW119172   1.468   3.004   7.087 -1.1407  0.6840 -1.3026
 2570SOL    HW219173   1.505   2.886   7.150 -1.8873 -0.4135  1.2327
 2571SOL     OW19174   1.710   4.638   4.399 -0.1549 -0.3239 -0.0144
 2571SOL    HW119175   1.644   4.615   4.334  0.2527 -0.6416 -0.3183
 2571SOL    HW219176   1.659   4.707   4.441  0.4223 -0.6342  1.1806
 2572SOL     OW19177   2.281   1.207   5.934  0.3095 -0.1734 -0.3124
 2572SOL    HW119178   2.305   1.223   5.843  1.4810 -0.0703  0.0135
 2572SOL    HW219179   2.360   1.229   5.983 -0.2314 -0.4915  0.6989
 2573SOL     OW19180   3.198   2.801  12.898 -0.4232 -0.1300 -0.4434
 2573SOL    HW119181   3.252   2.724  12.915 -1.4224 -0.3180  1.8030
 2573SOL    HW219182   3.115   2.756  12.913 -1.3650  1.3450 -1.2231
 2574SOL     OW19183   2.531   0.260   6.397 -0.0225 -0.2750 -0.0280
 2574SOL    HW119184   2.483   0.272   6.479 -1.4138 -1.2984 -0.7116
 2574SOL    HW219185   2.576   0.177   6.410  0.9275  0.2352 -0.0478
 2575SOL     OW19186   4.037   1.416   2.815  0.3368  0.2376  0.4874
 2575SOL    HW119187   4.086   1.337   2.796  2.8189  2.1021 -0.8320
 2575SOL    HW219188   4.033   1.455   2.728  2.9753 -2.5368 -0.8468
 2576SOL     OW19189   4.173   2.473  13.941  0.1567  0.0443 -0.2523
 2576SOL    HW119190   4.176   2.560  13.903  0.5134  0.8901  1.7283
 2576SOL    HW219191   4.090   2.433  13.915 -0.9171  0.3259  2.8429
 2577SOL     OW19192   1.960   3.635   4.947  0.3984 -0.0879 -0.0642
 2577SOL    HW119193   2.007   3.716   4.969 -1.5707  1.1856 -0.4755
 2577SOL    HW219194   1.987   3.615   4.858  1.8146 -0.2973  0.4161
 2578SOL     OW19195   0.857   1.181   0.828  0.1174  0.1531 -0.1629
 2578SOL    HW119196   0.932   1.124   0.842 -1.1116 -1.1440  1.0611
 2578SOL    HW219197   0.799   1.105   0.832  0.2953  0.1385  2.0797
 2579SOL     OW19198   1.549   2.095   3.454 -0.2143 -0.2128 -0.0224
 2579SOL    HW119199   1.518   2.109   3.543 -3.5093 -2.5899 -0.7951
 2579SOL    HW219200   1.633   2.054   3.477 -0.8182  0.5532  3.5245
 2580SOL     OW19201   4.262   3.831  10.848 -0.8897 -0.2506 -0.0468
 2580SOL    HW119202   4.329   3.795  10.791  0.6527  1.9485  0.4034
 2580SOL    HW219203   4.242   3.752  10.899  1.8958 -0.0459  1.3474
 2581SOL     OW19204   1.060   1.806  13.456  0.2399 -0.4985 -0.6948
 2581SOL    HW119205   1.146   1.835  13.488  0.3782 -2.5886  0.8195
 2581SOL    HW219206   1.023   1.888  13.423  0.3166 -0.8707 -1.6994
 2582SOL     OW19207   1.844   4.048   6.344 -1.0180 -0.2905  0.5495
 2582SOL    HW119208   1.862   4.104   6.419 -0.1103 -0.7541  0.6782
 2582SOL    HW219209   1.819   3.973   6.399 -0.3127 -2.3091 -1.9022
 2583SOL     OW19210   0.047   2.638   5.468  0.3165 -0.3667  0.2329
 2583SOL    HW119211   0.074   2.724   5.436  0.4923 -0.4056  0.2783
 2583SOL    HW219212   0.133   2.620   5.505  0.6753 -0.1281 -0.4692
 2584SOL     OW19213   4.256   0.922   3.359  0.1643 -0.4435 -0.2120
 2584SOL    HW119214   4.186   0.894   3.300 -0.1962 -1.8597  0.9160
 2584SOL    HW219215   4.306   0.841   3.352 -0.4806 -0.9752  1.4183
 2585SOL     OW19216   2.466   2.274   9.692  0.3265 -0.4695 -0.3705
 2585SOL    HW119217   2.391   2.331   9.708 -0.5820 -1.9627  0.7047
 2585SOL    HW219218   2.521   2.295   9.767  0.1944 -2.0911  0.1832
 2586SOL     OW19219   2.905   4.667  15.148  0.4781  0.0531 -0.5264
 2586SOL    HW119220   2.811   4.684  15.144  0.8331  2.3314  0.6097
 2586SOL    HW219221   2.921   4.688  15.056  0.4032  2.3805 -0.0135
 2587SOL     OW19222   1.957   4.370   7.332  0.2563  0.4538 -0.2104
 2587SOL    HW119223   2.038   4.409   7.365 -0.0407  1.0607 -0.2006
 2587SOL    HW219224   1.908   4.355   7.412  0.9888 -0.0207  0.1491
 2588SOL     OW19225   0.875   4.145   3.905 -0.5699 -0.1648  0.1455
 2588SOL    HW119226   0.856   4.067   3.959 -2.3035 -0.7267 -1.2696
 2588SOL    HW219227   0.841   4.209   3.968 -1.7079  1.4975 -2.1764
 2589SOL     OW19228   0.284   1.324  11.008 -0.8919 -0.1588 -0.3947
 2589SOL    HW119229   0.310   1.269  10.933 -0.5129  0.3436 -0.6330
 2589SOL    HW219230   0.241   1.393  10.957  1.6155  1.5954 -0.1559
 2590SOL     OW19231   2.531   0.397   4.352  0.4346 -0.3713  0.2306
 2590SOL    HW119232   2.536   0.319   4.407  0.2191  0.0966  0.9243
 2590SOL    HW219233   2.608   0.374   4.301  0.0068  1.3624 -1.1748
 2591SOL     OW19234   2.508   1.521   2.328 -0.2166  0.2828  0.3198
 2591SOL    HW119235   2.544   1.550   2.412  1.0871  1.2927 -0.5661
 2591SOL    HW219236   2.581   1.553   2.274 -1.5431  1.0628 -1.0137
 2592SOL     OW19237   1.104   1.355  13.530  0.1987 -0.8980 -0.2898
 2592SOL    HW119238   1.149   1.390  13.453 -0.7800 -1.2215 -1.0083
 2592SOL    HW219239   1.115   1.427  13.592  2.9555 -2.1117  0.5872
 2593SOL     OW19240   1.683   4.652  13.289 -0.2679 -0.2328 -0.2348
 2593SOL    HW119241   1.702   4.714  13.360  1.1465  1.8011 -2.3851
 2593SOL    HW219242   1.599   4.684  13.255  0.4768  0.8749 -1.0429
 2594SOL     OW19243   3.473   0.140   3.321 -0.0388  0.2736  0.2572
 2594SOL    HW119244   3.485   0.216   3.265 -2.6410  1.5986  1.4817
 2594SOL    HW219245   3.482   0.077   3.250 -2.5782 -0.0587  0.2604
 2595SOL     OW19246   2.979   1.515   4.078 -0.1504  0.0490 -0.0971
 2595SOL    HW119247   2.946   1.600   4.051 -0.0773  0.1664  0.1847
 2595SOL    HW219248   2.897   1.473   4.105 -0.1515  0.2473  0.2070
 2596SOL     OW19249   3.521   0.781   5.936  0.0051 -0.0151  0.2231
 2596SOL    HW119250   3.615   0.773   5.918 -0.6185 -1.7923 -2.1694
 2596SOL    HW219251   3.527   0.821   6.023 -0.8232 -0.6601  0.5806
 2597SOL     OW19252   0.562   3.465   1.977  0.2284 -0.2028  0.1179
 2597SOL    HW119253   0.555   3.403   1.905 -1.2269 -0.5160  0.5288
 2597SOL    HW219254   0.654   3.491   1.977  0.7010 -1.9285 -0.7763
 2598SOL     OW19255   3.983   4.319  13.766 -0.6878 -0.6218 -0.5179
 2598SOL    HW119256   3.908   4.266  13.741  1.0364 -3.7039  0.8335
 2598SOL    HW219257   3.996   4.378  13.691 -1.7068  0.6437  0.3076
 2599SOL     OW19258   1.157   3.855   9.105 -0.2642 -0.1656  0.6477
 2599SOL    HW119259   1.220   3.825   9.040  1.0455  0.0637  1.8156
 2599SOL    HW219260   1.144   3.940   9.062  0.6125 -0.1749  0.3550
 2600SOL     OW19261   1.896   4.240  12.637  0.2861  0.3847 -0.2925
 2600SOL    HW119262   1.819   4.286  12.673  0.3757  1.3128 -1.2940
 2600SOL    HW219263   1.952   4.317  12.644  2.5463 -1.3649  0.5773
 2601SOL     OW19264   2.664   3.544  17.266  0.2760 -0.3896  0.1503
 2601SOL    HW119265   2.635   3.582  17.183 -1.8067 -0.6353  0.7683
 2601SOL    HW219266   2.757   3.564  17.263 -0.2831  2.1183 -0.5083
 2602SOL     OW19267   4.605   4.342   1.752 -0.2130 -0.5197 -0.1127
 2602SOL    HW119268   4.570   4.395   1.680 -0.9198 -2.7535 -1.3962
 2602SOL    HW219269   4.659   4.413   1.787 -1.4415  1.4182 -2.1427
 2603SOL     OW19270   3.544   4.478  16.034 -0.2417 -0.3060  0.8516
 2603SOL    HW119271   3.572   4.522  15.955 -3.1743  0.5160  0.2739
 2603SOL    HW219272   3.623   4.494  16.085  0.2768 -0.0148 -0.0529
 2604SOL     OW19273   0.687   2.550  17.601  0.9446  0.6123  0.2245
 2604SOL    HW119274   0.641   2.492  17.541  1.3737  0.7844 -0.2756
 2604SOL    HW219275   0.684   2.507  17.686 -0.3484  1.5889  0.6676
 2605SOL     OW19276   2.836   0.954   2.591  0.0060  0.7543  0.2771
 2605SOL    HW119277   2.891   0.927   2.517 -0.7250 -0.8966  0.3190
 2605SOL    HW219278   2.904   0.942   2.657 -0.0235  0.3417  0.2329
 2606SOL     OW19279   3.394   0.402   5.106 -0.4216 -0.0497 -0.2987
 2606SOL    HW119280   3.364   0.343   5.036 -0.3768 -1.5723  0.9775
 2606SOL    HW219281   3.442   0.468   5.055  0.1894  0.7482  1.3071
 2607SOL     OW19282   2.289   3.878  16.386 -0.1693  0.0390 -0.0630
 2607SOL    HW119283   2.292   3.952  16.446  1.5229 -0.0998  0.0218
 2607SOL    HW219284   2.351   3.819  16.428 -1.2771 -2.5062 -2.0112
 2608SOL     OW19285   3.153   0.994   7.948 -0.7050 -0.1769 -0.2861
 2608SOL    HW119286   3.124   0.905   7.927 -0.0409 -0.2604 -0.8393
 2608SOL    HW219287   3.226   0.981   8.008  0.1241  0.9532 -1.0367
 2609SOL     OW19288   0.492   1.997   0.372  0.2429  0.4185 -0.5877
 2609SOL    HW119289   0.543   1.967   0.296 -0.2568  1.6287 -1.4061
 2609SOL    HW219290   0.405   2.009   0.334  0.4458  0.1341 -1.1590
 2610SOL     OW19291   3.760   2.628  10.134 -0.3585 -0.2834  0.3733
 2610SOL    HW119292   3.823   2.568  10.174 -0.0848  0.2755  0.7815
 2610SOL    HW219293   3.764   2.594  10.045 -3.5287  0.2951  0.0128
 2611SOL     OW19294   0.831   2.745   1.698 -0.1851 -0.3153  0.0886
 2611SOL    HW119295   0.807   2.660   1.734  0.5951 -1.0941 -1.2378
 2611SOL    HW219296   0.897   2.771   1.762 -0.2373 -0.6381  0.2761
 2612SOL     OW19297   0.486   2.357   0.703 -0.0758 -0.1436  0.1682
 2612SOL    HW119298   0.391   2.367   0.699 -0.3341 -1.8926  1.5568
 2612SOL    HW219299   0.504   2.360   0.797 -1.1843  0.4799  0.3528
 2613SOL     OW19300   2.347   2.822  17.418 -0.3489  0.0379  0.1326
 2613SOL    HW119301   2.391   2.905  17.402  1.9577 -1.3479 -0.7333
 2613SOL    HW219302   2.423   2.771  17.446 -0.3824 -0.4117 -0.5964
 2614SOL     OW19303   0.032   2.164   2.333  1.0275 -0.2752  0.4448
 2614SOL    HW119304   0.072   2.138   2.416  1.1848  1.0561  0.7810
 2614SOL    HW219305   0.075   2.247   2.313 -0.8050  1.3351  3.0457
 2615SOL     OW19306   1.768   4.312   2.704  0.1605  0.2224 -0.0717
 2615SOL    HW119307   1.745   4.347   2.618  2.7820 -0.2080 -0.9439
 2615SOL    HW219308   1.715   4.371   2.757  1.7646 -0.4630  2.2553
 2616SOL     OW19309   1.224   1.673   6.367 -0.1916  0.5301  0.3630
 2616SOL    HW119310   1.271   1.648   6.446  0.2788 -1.7227 -0.6316
 2616SOL    HW219311   1.249   1.765   6.372  0.6295  0.3877 -1.0564
 2617SOL     OW19312   0.068   3.545   4.938 -0.8390  0.5427  0.6112
 2617SOL    HW119313   0.076   3.463   4.987  1.7894  0.5040  0.1203
 2617SOL    HW219314   4.694   3.548   4.931 -0.8138  1.0740  0.5068
 2618SOL     OW19315   2.377   1.848  16.194 -0.4495 -0.5799 -0.3802
 2618SOL    HW119316   2.436   1.773  16.188  0.4702  0.2203 -1.3186
 2618SOL    HW219317   2.327   1.827  16.116 -0.1538  2.8132 -1.5079
 2619SOL     OW19318   2.366   3.881   0.363 -0.3606 -0.4899  0.3664
 2619SOL    HW119319   2.273   3.884   0.341  0.1731  1.3895 -1.6904
 2619SOL    HW219320   2.366   3.822   0.438 -1.1272 -0.0558  0.7039
 2620SOL     OW19321   4.443   3.748  13.522  0.2895 -0.2156  0.4866
 2620SOL    HW119322   4.517   3.694  13.493  2.4186  1.7864  2.2349
 2620SOL    HW219323   4.407   3.749  13.433  1.6674 -1.6320 -0.0966
 2621SOL     OW19324   0.463   1.854   3.077  0.4340 -0.3609 -0.0913
 2621SOL    HW119325   0.467   1.907   2.998  1.3392  0.5333  0.5500
 2621SOL    HW219326   0.517   1.910   3.133  1.1855  0.6715 -1.8608
 2622SOL     OW19327   3.727   2.275   9.692  0.1752  0.1253  0.0960
 2622SOL    HW119328   3.791   2.227   9.640  0.9266  2.6175 -1.2633
 2622SOL    HW219329   3.652   2.255   9.637  1.8074 -1.5484 -1.5300
 2623SOL     OW19330   3.377   2.227   8.036  0.1579  0.2579  0.1957
 2623SOL    HW119331   3.324   2.297   8.073 -2.1605 -1.4604  0.1379
 2623SOL    HW219332   3.463   2.257   8.066 -0.0187 -0.3140  1.2699
 2624SOL     OW19333   0.655   2.928   1.554 -0.2697  0.1333  0.3764
 2624SOL    HW119334   0.578   2.874   1.535 -1.0116  0.8153  1.4699
 2624SOL    HW219335   0.716   2.864   1.592 -2.6620 -1.7802  0.9964
 2625SOL     OW19336   4.400   1.351  13.932  0.2523  0.1973  0.5289
 2625SOL    HW119337   4.305   1.353  13.919  0.1024 -1.0212  1.4310
 2625SOL    HW219338   4.419   1.291  13.859  0.4050  0.8782  0.0079
 2626SOL     OW19339   4.576   3.928   7.052 -0.2136 -0.2966 -0.1315
 2626SOL    HW119340   4.572   3.839   7.087  1.7110 -0.5141 -0.4531
 2626SOL    HW219341   4.600   3.915   6.960  2.3788 -0.2180  0.5174
 2627SOL     OW19342   1.210   2.893  17.283 -0.1389 -0.1975  0.6602
 2627SOL    HW119343   1.199   2.980  17.243  0.4012  0.3669  1.7382
 2627SOL    HW219344   1.143   2.894  17.352 -0.3143 -0.2861  0.4902
 2628SOL     OW19345   1.968   2.234   3.655  0.6073 -0.5471  0.5736
 2628SOL    HW119346   2.010   2.306   3.701  1.6537 -0.5910 -0.3116
 2628SOL    HW219347   2.048   2.200   3.615  0.0711  1.0528 -1.8785
 2629SOL     OW19348   4.425   2.134   3.246 -0.1179  0.5479  0.3813
 2629SOL    HW119349   4.462   2.146   3.159 -0.9314 -1.5713 -0.2386
 2629SOL    HW219350   4.393   2.044   3.241 -0.6512  0.6413  1.8405
 2630SOL     OW19351   3.389   1.600   5.054 -0.1851  0.3769  0.2563
 2630SOL    HW119352   3.408   1.655   5.129  1.9199 -0.2339  0.1820
 2630SOL    HW219353   3.436   1.636   4.978  0.6082 -0.4463  0.3508
 2631SOL     OW19354   3.085   2.046   8.950  0.6539  0.1737  0.0362
 2631SOL    HW119355   3.068   1.972   8.891 -1.9429  0.8412 -0.0650
 2631SOL    HW219356   3.139   1.997   9.012 -0.0069  0.6041  0.9397
 2632SOL     OW19357   2.243   3.057   5.180 -0.4145 -0.0808 -0.0519
 2632SOL    HW119358   2.236   3.150   5.200 -2.6839 -0.3382  0.3017
 2632SOL    HW219359   2.212   3.054   5.089  1.7905 -0.0939 -0.8142
 2633SOL     OW19360   2.579   1.118   6.475 -0.2825 -0.2913 -0.2590
 2633SOL    HW119361   2.544   1.108   6.387 -1.0368  3.8820 -0.4471
 2633SOL    HW219362   2.645   1.052   6.494 -0.2578 -0.0537  0.5121
 2634SOL     OW19363   4.301   2.923  12.635  0.1140  0.1146 -0.0559
 2634SOL    HW119364   4.206   2.931  12.640  0.2630  1.3439  0.6467
 2634SOL    HW219365   4.314   3.008  12.593  0.2145  0.6701  1.1034
 2635SOL     OW19366   0.177   1.168   8.638 -0.2993  0.3245 -0.2743
 2635SOL    HW119367   0.265   1.171   8.677 -0.9462 -1.0107  1.3153
 2635SOL    HW219368   0.134   1.232   8.695  0.3801  0.4463  0.1064
 2636SOL     OW19369   2.756   3.367   3.699 -0.5026 -0.1720  0.5840
 2636SOL    HW119370   2.771   3.327   3.614 -2.1944  1.9307 -0.7114
 2636SOL    HW219371   2.750   3.289   3.755 -0.2085 -0.7243 -0.1548
 2637SOL     OW19372   4.039   3.372   4.534 -0.2354 -0.0876  0.1690
 2637SOL    HW119373   4.023   3.434   4.605  1.9872 -0.4537  0.9885
 2637SOL    HW219374   4.005   3.295   4.580  1.2537 -0.5752  0.4472
 2638SOL     OW19375   0.266   2.795   7.932  0.1001  0.2494 -0.0967
 2638SOL    HW119376   0.359   2.797   7.910 -0.1555 -0.0569 -1.2016
 2638SOL    HW219377   0.233   2.878   7.897 -2.7471 -0.9248 -0.2221
 2639SOL     OW19378   0.783   2.573   4.545  0.6868 -0.0144 -0.5392
 2639SOL    HW119379   0.748   2.575   4.634  0.0527  2.7134 -0.8528
 2639SOL    HW219380   0.823   2.660   4.538 -0.9262  0.9759  2.5848
 2640SOL     OW19381   3.080   3.661   7.319  0.3443  0.6235  0.2136
 2640SOL    HW119382   3.162   3.705   7.342  0.0773  2.2208 -1.9143
 2640SOL    HW219383   3.055   3.698   7.234 -1.9774 -2.8396 -0.6046
 2641SOL     OW19384   2.576   3.455   8.029  0.2708 -0.4668  0.3232
 2641SOL    HW119385   2.634   3.449   7.954 -1.9429 -2.3423 -1.2318
 2641SOL    HW219386   2.631   3.469   8.106  2.0783 -0.6664 -0.9454
 2642SOL     OW19387   3.902   0.766  13.323  0.1882  0.1072  0.2911
 2642SOL    HW119388   3.936   0.804  13.243 -1.2425  0.9860  0.1012
 2642SOL    HW219389   3.827   0.824  13.335 -0.5056 -1.0278  1.4571
 2643SOL     OW19390   1.465   0.062  16.845 -0.0746 -0.4357 -0.0252
 2643SOL    HW119391   1.376   0.094  16.862  0.8539  1.1213  2.0891
 2643SOL    HW219392   1.511   0.074  16.929 -2.2345 -2.3386  1.4344
 2644SOL     OW19393   4.030   3.506   3.358 -0.2524  0.1506 -0.4475
 2644SOL    HW119394   4.099   3.568   3.380  0.8090 -0.7867 -1.1811
 2644SOL    HW219395   4.076   3.423   3.365 -0.1735  0.2873  0.7636
 2645SOL     OW19396   3.540   3.343   0.154 -0.1852 -0.2476 -0.6103
 2645SOL    HW119397   3.599   3.271   0.177 -0.7362 -1.2466 -2.3182
 2645SOL    HW219398   3.539   3.382   0.241 -1.1118  1.7758 -1.5282
 2646SOL     OW19399   1.134   2.710   5.885 -0.1732 -0.8066 -0.0903
 2646SOL    HW119400   1.060   2.706   5.945 -0.2362  0.4027 -0.0937
 2646SOL    HW219401   1.099   2.717   5.796 -0.6408  2.4281  0.3493
 2647SOL     OW19402   1.339   3.251   3.613 -0.1130 -0.0293  0.3065
 2647SOL    HW119403   1.323   3.287   3.526  1.8656  1.0115  0.3968
 2647SOL    HW219404   1.434   3.255   3.618 -0.0433 -0.7696 -0.4775
 2648SOL     OW19405   0.228   4.618   2.374 -0.1604  0.4437 -0.3580
 2648SOL    HW119406   0.260   4.582   2.457 -0.3381 -0.9314 -0.8832
 2648SOL    HW219407   0.283   4.696   2.366 -2.4127  1.9766 -0.6747
 2649SOL     OW19408   4.419   3.630  10.151  0.2410  0.0750  0.2215
 2649SOL    HW119409   4.403   3.550  10.101 -0.0374  1.3932 -1.7653
 2649SOL    HW219410   4.337   3.679  10.144  0.6350  0.9684  1.7082
 2650SOL     OW19411   1.291   1.135  17.433 -0.6242  0.1682  0.0994
 2650SOL    HW119412   1.354   1.199  17.399 -1.4362 -0.8529 -3.3155
 2650SOL    HW219413   1.273   1.177  17.517  0.7386 -2.1688  1.5607
 2651SOL     OW19414   2.770   4.714   3.140 -0.0918 -0.5079 -0.5743
 2651SOL    HW119415   2.810   0.061   3.087 -1.0377 -1.8184 -2.9732
 2651SOL    HW219416   2.844   4.662   3.171  1.3537  1.8372 -0.0479
 2652SOL     OW19417   4.582   0.532   6.982 -0.2620 -0.1487 -0.2613
 2652SOL    HW119418   4.633   0.454   6.958 -0.4700 -0.1560 -0.6807
 2652SOL    HW219419   4.510   0.496   7.034 -0.7160 -2.4713 -2.5070
 2653SOL     OW19420   0.066   1.128   3.432 -0.3279 -0.2322  0.8302
 2653SOL    HW119421   4.700   1.093   3.415 -0.8408  2.4942 -2.1689
 2653SOL    HW219422   0.113   1.051   3.463 -0.9621 -0.2431  1.7527
 2654SOL     OW19423   1.042   0.393   8.426 -0.3039  0.6278  0.3098
 2654SOL    HW119424   1.078   0.339   8.356  0.1312 -1.6013  2.2450
 2654SOL    HW219425   1.058   0.335   8.501 -1.5815  0.2866  0.3093
 2655SOL     OW19426   1.166   0.543   7.185 -0.9856 -0.4285  0.0324
 2655SOL    HW119427   1.181   0.590   7.267  1.9487 -0.2769 -0.5886
 2655SOL    HW219428   1.189   0.453   7.209  0.0794 -0.3518 -0.6726
 2656SOL     OW19429   1.508   2.621  14.717  0.1408  0.1710 -0.2520
 2656SOL    HW119430   1.578   2.558  14.703 -0.1876 -0.3000  0.2417
 2656SOL    HW219431   1.489   2.660  14.631  0.1091 -0.6249 -0.5983
 2657SOL     OW19432   3.654   3.834   9.057  0.1010  0.1510 -0.1812
 2657SOL    HW119433   3.711   3.784   9.115 -0.4792 -0.5422 -0.1988
 2657SOL    HW219434   3.674   3.925   9.078  1.3917 -1.2701  4.6505
 2658SOL     OW19435   1.721   0.004   3.600 -0.1260  0.0176 -0.1991
 2658SOL    HW119436   1.781   0.033   3.668  0.2787 -2.6847  0.5823
 2658SOL    HW219437   1.696   4.634   3.614  0.2891 -0.1010 -0.2348
 2659SOL     OW19438   0.287   2.786   2.199  0.0329  0.3918  0.4722
 2659SOL    HW119439   0.214   2.786   2.137  1.6430 -0.5420 -1.4217
 2659SOL    HW219440   0.243   2.796   2.284 -0.1611  0.8764  0.3146
 2660SOL     OW19441   0.887   0.431   3.003 -0.4480  0.2234 -0.1267
 2660SOL    HW119442   0.826   0.504   2.990 -0.0778  0.3653 -1.0518
 2660SOL    HW219443   0.870   0.373   2.929 -0.0111 -2.0017  1.5246
 2661SOL     OW19444   4.129   4.304   6.713 -0.6106  0.6868 -0.3955
 2661SOL    HW119445   4.213   4.278   6.751 -0.1821 -1.1293 -2.5751
 2661SOL    HW219446   4.069   4.277   6.783 -1.4320  0.7375 -1.0799
 2662SOL     OW19447   4.452   0.941   7.322 -0.1903  0.2552 -0.0846
 2662SOL    HW119448   4.487   0.885   7.253 -1.3657 -0.7597  0.1477
 2662SOL    HW219449   4.526   0.935   7.382  1.1607  1.0764 -1.6703
 2663SOL     OW19450   2.379   1.335  15.643  0.0257 -0.2798 -0.1771
 2663SOL    HW119451   2.352   1.249  15.612  0.5718 -0.5415  0.0739
 2663SOL    HW219452   2.299   1.386  15.633 -0.2894 -0.2924  2.4369
 2664SOL     OW19453   2.614   3.279   4.677  0.0169 -0.6832  0.1195
 2664SOL    HW119454   2.558   3.247   4.606  0.4026  0.3562 -0.6614
 2664SOL    HW219455   2.656   3.351   4.629 -0.7236 -0.8741 -0.8145
 2665SOL     OW19456   2.550   3.948  15.510  0.9352 -0.3996  0.3915
 2665SOL    HW119457   2.474   3.952  15.568  0.1530  0.4339 -0.6996
 2665SOL    HW219458   2.620   3.970  15.573  2.3196 -1.5604 -0.7447
 2666SOL     OW19459   3.714   0.708   4.174 -0.3131 -0.0255  0.1427
 2666SOL    HW119460   3.789   0.737   4.226  0.4891  1.0674 -1.6130
 2666SOL    HW219461   3.687   0.643   4.239  0.6558  0.8537  1.4190
 2667SOL     OW19462   2.195   2.851  13.022  0.1250  0.3280  0.5793
 2667SOL    HW119463   2.119   2.861  13.079 -0.6722  2.0002 -0.7775
 2667SOL    HW219464   2.222   2.943  13.017  0.5605  0.1935  0.4065
 2668SOL     OW19465   0.646   1.736  10.832  0.8473  0.1193  0.0343
 2668SOL    HW119466   0.690   1.711  10.750  2.2060  1.2288  0.4190
 2668SOL    HW219467   0.590   1.659  10.840  0.0153  0.6749 -0.5108
 2669SOL     OW19468   0.045   2.616   8.541  0.6445 -0.0192 -0.1052
 2669SOL    HW119469   0.035   2.653   8.454 -1.2504  0.0885  0.1549
 2669SOL    HW219470   4.683   2.647   8.578  1.0109 -1.6452  2.1019
 2670SOL     OW19471   2.643   4.695  15.137  0.2776 -0.0214  0.3789
 2670SOL    HW119472   2.558   0.007  15.109 -0.0082  0.3187  1.6601
 2670SOL    HW219473   2.618   4.611  15.177 -1.1143 -1.0876 -2.7820
 2671SOL     OW19474   0.574   2.181   4.012 -0.5067 -0.1022  0.2986
 2671SOL    HW119475   0.517   2.104   4.007 -1.8991  1.1768 -3.3850
 2671SOL    HW219476   0.622   2.182   3.929 -0.8717 -0.5002  0.0848
 2672SOL     OW19477   1.587   4.672   2.360 -0.2526 -0.8258  0.2227
 2672SOL    HW119478   1.564   4.687   2.268  1.9901  1.5611  0.0270
 2672SOL    HW219479   1.510   4.705   2.406 -0.3526  0.2089 -0.6823
 2673SOL     OW19480   1.832   3.783   8.358  0.2247 -0.1230  0.2090
 2673SOL    HW119481   1.796   3.819   8.277 -1.9615 -1.6459  0.5227
 2673SOL    HW219482   1.829   3.863   8.411 -2.5849  0.8525 -1.4066
 2674SOL     OW19483   1.722   1.030   5.364 -0.2523 -0.4885  0.3521
 2674SOL    HW119484   1.815   1.014   5.379 -0.4372 -1.7775  0.1318
 2674SOL    HW219485   1.697   1.063   5.450  1.2517  0.4327  0.4425
 2675SOL     OW19486   0.838   2.279  10.249 -0.0188 -0.1100  0.1330
 2675SOL    HW119487   0.872   2.262  10.161 -0.6542  1.8711 -0.4788
 2675SOL    HW219488   0.792   2.197  10.268  0.6567 -0.3245  0.8542
 2676SOL     OW19489   2.578   2.087  15.886 -0.4734  0.2204 -0.2593
 2676SOL    HW119490   2.601   2.040  15.966  0.1707  1.6397  0.3714
 2676SOL    HW219491   2.544   2.013  15.835 -1.2038  0.3590  0.0272
 2677SOL     OW19492   1.601   3.731   9.635 -0.3269  0.4834 -0.6278
 2677SOL    HW119493   1.603   3.639   9.659  2.9536  0.6301 -0.3756
 2677SOL    HW219494   1.673   3.759   9.692  1.6397 -3.2721 -1.2631
 2678SOL     OW19495   2.940   3.645   0.591  0.0830 -0.1192  0.0024
 2678SOL    HW119496   2.965   3.722   0.643 -0.0985 -0.9651  1.3548
 2678SOL    HW219497   2.917   3.697   0.514 -0.9390 -0.8464 -0.1778
 2679SOL     OW19498   0.826   0.852   8.538  0.1863 -0.3616 -0.5287
 2679SOL    HW119499   0.920   0.832   8.546  0.0170 -0.3328  1.5642
 2679SOL    HW219500   0.791   0.812   8.618  0.6509  1.7593  0.7473
 2680SOL     OW19501   0.759   1.891   6.669 -0.0792 -0.7340  0.0058
 2680SOL    HW119502   0.742   1.836   6.592  1.6544 -1.5934  0.2270
 2680SOL    HW219503   0.771   1.821   6.733  0.1994 -0.6834  0.0083
 2681SOL     OW19504   4.449   2.247   2.501 -0.1215 -0.1010 -0.9695
 2681SOL    HW119505   4.409   2.173   2.547 -0.7837 -1.1838 -3.3276
 2681SOL    HW219506   4.471   2.205   2.418  2.2596 -0.7468 -0.0017
 2682SOL     OW19507   3.195   4.044   6.022 -0.0845 -0.2949 -0.4182
 2682SOL    HW119508   3.242   4.090   5.952  0.7949  1.5528  1.3760
 2682SOL    HW219509   3.248   4.071   6.098  0.6343 -1.2393 -0.5898
 2683SOL     OW19510   1.360   4.280   7.447 -0.0602 -0.0631 -0.2611
 2683SOL    HW119511   1.401   4.327   7.519  0.7403 -1.4559  0.1970
 2683SOL    HW219512   1.434   4.242   7.399  0.5056 -1.0890  1.4237
 2684SOL     OW19513   1.412   2.816   2.631  0.0242  0.0376  0.0722
 2684SOL    HW119514   1.413   2.896   2.684 -1.5467 -0.0131  0.1985
 2684SOL    HW219515   1.317   2.815   2.619  0.1678 -3.3263 -0.6674
 2685SOL     OW19516   1.423   3.302   7.595 -0.7383  0.8282  0.1563
 2685SOL    HW119517   1.351   3.323   7.534 -0.0333  2.2896 -0.1884
 2685SOL    HW219518   1.486   3.374   7.590 -1.5139  1.5395  0.6854
 2686SOL     OW19519   0.075   0.279  11.897  0.1406  0.7555 -0.1852
 2686SOL    HW119520   4.707   0.282  11.863 -0.0812  1.4103  0.4550
 2686SOL    HW219521   0.129   0.284  11.819 -0.3858 -1.1162 -0.6789
 2687SOL     OW19522   4.519   3.299  17.606  0.3558 -0.4743 -0.2770
 2687SOL    HW119523   4.466   3.229  17.567  0.7400 -0.7718 -0.2657
 2687SOL    HW219524   4.532   3.277   0.010  0.5213 -0.8281 -0.3826
 2688SOL     OW19525   4.490   2.284  11.085 -0.4868 -0.4685 -0.4918
 2688SOL    HW119526   4.566   2.227  11.092 -0.4965 -0.2857  1.0585
 2688SOL    HW219527   4.420   2.218  11.078  0.6280 -1.6225 -0.7471
 2689SOL     OW19528   1.619   4.534   8.987  0.1185  0.1055  0.4339
 2689SOL    HW119529   1.617   4.630   8.992  2.1159  0.0986  1.2486
 2689SOL    HW219530   1.534   4.515   9.026  0.4703 -0.6391  0.8288
 2690SOL     OW19531   2.618   4.501   0.983  0.3590  0.1556 -0.6953
 2690SOL    HW119532   2.559   4.553   1.037  2.7300  2.1525 -0.0201
 2690SOL    HW219533   2.616   4.412   1.018  3.1781 -0.0005 -0.9307
 2691SOL     OW19534   0.902   4.638   3.566  0.3014 -0.2041  0.5363
 2691SOL    HW119535   0.960   4.714   3.572 -0.2992  0.4491 -1.9530
 2691SOL    HW219536   0.959   4.587   3.509 -1.8403 -1.4974 -0.4675
 2692SOL     OW19537   2.209   2.669  16.853  0.0803  0.0965 -0.3647
 2692SOL    HW119538   2.272   2.739  16.836 -0.2988  0.4581 -0.2922
 2692SOL    HW219539   2.270   2.604  16.887  3.5007  2.7194 -1.5033
 2693SOL     OW19540   2.444   4.356   8.735  0.7540  0.1261 -0.3562
 2693SOL    HW119541   2.522   4.402   8.707  0.5998  0.2753 -0.5400
 2693SOL    HW219542   2.457   4.284   8.673  0.2217 -0.1687 -0.1266
 2694SOL     OW19543   3.645   1.226   6.736 -0.7014  0.3416  0.4291
 2694SOL    HW119544   3.689   1.307   6.713  0.3596 -0.5982 -0.8597
 2694SOL    HW219545   3.561   1.259   6.768 -0.8362  0.7614 -0.3858
 2695SOL     OW19546   1.994   1.388   5.383  0.0156  0.1389 -0.6804
 2695SOL    HW119547   2.055   1.443   5.432  0.4133  0.7159 -1.8225
 2695SOL    HW219548   1.962   1.437   5.307 -1.2578  0.2080 -0.1076
 2696SOL     OW19549   1.778   4.361   5.185 -0.1900 -0.0917 -0.5499
 2696SOL    HW119550   1.808   4.294   5.123 -2.4336  0.0592 -1.8119
 2696SOL    HW219551   1.782   4.443   5.135 -0.0617 -0.2988 -0.8822
 2697SOL     OW19552   2.514   2.170  13.366 -0.0209  0.5390  0.1988
 2697SOL    HW119553   2.606   2.144  13.366 -0.0885  0.2835 -2.5581
 2697SOL    HW219554   2.468   2.097  13.324 -0.4899 -0.1616  1.9109
 2698SOL     OW19555   3.540   2.887   6.689  0.0688  0.3723 -0.1627
 2698SOL    HW119556   3.471   2.844   6.638  0.1887 -1.0927  0.9011
 2698SOL    HW219557   3.577   2.813   6.738 -1.0341 -0.3753 -0.4461
 2699SOL     OW19558   3.334   3.574   9.164  0.6046  0.0154 -0.4688
 2699SOL    HW119559   3.256   3.556   9.112  1.4227  0.3170 -1.8009
 2699SOL    HW219560   3.373   3.488   9.180  0.4333  0.2536  1.2334
 2700SOL     OW19561   0.260   0.086   6.764 -0.6551 -0.0689  0.3994
 2700SOL    HW119562   0.318   0.026   6.717  0.1281  2.1076 -1.3880
 2700SOL    HW219563   0.236   0.034   6.841  1.3607 -2.0021 -0.2870
 2701SOL     OW19564   2.853   2.264   6.693 -0.3063  0.4599  0.3950
 2701SOL    HW119565   2.945   2.270   6.720  0.5288 -1.4488 -2.0361
 2701SOL    HW219566   2.853   2.305   6.606 -0.8382  0.7511  0.5319
 2702SOL     OW19567   0.417   0.827  16.652 -0.3090  0.4819 -0.1798
 2702SOL    HW119568   0.405   0.736  16.626 -1.9391  0.2748  1.3028
 2702SOL    HW219569   0.406   0.817  16.746 -1.0804 -1.4672 -0.4818
 2703SOL     OW19570   1.740   1.349  16.657  0.8185  0.6555  0.7252
 2703SOL    HW119571   1.802   1.399  16.603  1.0701  2.1771  2.4390
 2703SOL    HW219572   1.777   1.354  16.745  0.0554 -0.3255  1.0998
 2704SOL     OW19573   3.284   4.438   8.042 -0.5489  0.0861  0.0048
 2704SOL    HW119574   3.379   4.428   8.052 -0.7767  0.0593  2.2069
 2704SOL    HW219575   3.259   4.432   8.134 -1.2406  1.9194 -0.0690
 2705SOL     OW19576   4.507   4.403   6.933 -0.3054  0.6037 -0.4301
 2705SOL    HW119577   4.520   4.498   6.931  1.6556  0.3532  0.9214
 2705SOL    HW219578   4.534   4.394   7.024  1.0493 -1.5861 -1.0417
 2706SOL     OW19579   4.108   3.664  11.177 -0.4112  0.3234 -0.2133
 2706SOL    HW119580   4.197   3.641  11.152 -0.0328  2.0015 -0.3667
 2706SOL    HW219581   4.096   3.609  11.254 -0.9372  0.6595 -0.0582
 2707SOL     OW19582   0.124   2.846  14.498  0.1619  0.3189 -0.4953
 2707SOL    HW119583   0.047   2.838  14.554  1.2962 -0.3654  0.9660
 2707SOL    HW219584   0.122   2.761  14.455 -0.5246  1.0763 -1.9712
 2708SOL     OW19585   0.687   2.046  15.867 -0.5822  0.0272  0.1441
 2708SOL    HW119586   0.649   2.092  15.791 -0.5196  0.5156  0.4093
 2708SOL    HW219587   0.763   2.026  15.813 -0.4348 -0.4734  0.5375
 2709SOL     OW19588   4.226   3.972  11.790 -0.1089  0.1240 -0.2122
 2709SOL    HW119589   4.190   3.899  11.842 -2.2397  0.8028 -0.7495
 2709SOL    HW219590   4.250   4.031  11.862 -0.7624  2.4505 -1.9341
 2710SOL     OW19591   2.703   1.531   4.011 -0.0436 -0.3427  0.3826
 2710SOL    HW119592   2.662   1.462   3.958  0.0508 -1.1308  1.3346
 2710SOL    HW219593   2.624   1.579   4.036 -0.8297 -1.9198  0.9569
 2711SOL     OW19594   0.788   0.780   6.978 -0.3130  0.5958  0.2350
 2711SOL    HW119595   0.803   0.873   6.960  1.5537  0.5022  1.3242
 2711SOL    HW219596   0.701   0.765   6.939 -0.6473  0.5804  0.9924
 2712SOL     OW19597   0.004   3.946   6.831 -0.7042 -0.1048  0.1364
 2712SOL    HW119598   0.062   3.906   6.766 -1.3448 -1.2990  0.3042
 2712SOL    HW219599   0.069   3.998   6.878 -0.7695 -2.5863  2.9366
 2713SOL     OW19600   3.358   2.267  14.414  0.3833 -0.4839  0.1315
 2713SOL    HW119601   3.285   2.320  14.447  0.0348 -0.2539 -0.9930
 2713SOL    HW219602   3.402   2.307  14.339  0.5735 -1.6455 -0.3750
 2714SOL     OW19603   4.456   4.483   7.391 -0.0436  0.6133  0.0617
 2714SOL    HW119604   4.362   4.472   7.377  0.3844 -2.1108 -0.6718
 2714SOL    HW219605   4.471   4.572   7.358  1.6351  0.9338  1.7142
 2715SOL     OW19606   1.098   1.540   2.949  0.0841  0.5493 -0.7322
 2715SOL    HW119607   1.007   1.564   2.934 -0.3449  0.9092  2.4745
 2715SOL    HW219608   1.132   1.625   2.976  0.5698  0.3810 -0.8127
 2716SOL     OW19609   1.152   1.943   8.254 -0.3796  0.0124 -0.0271
 2716SOL    HW119610   1.202   2.018   8.223 -0.8996 -0.1099 -1.1457
 2716SOL    HW219611   1.154   1.956   8.349 -2.0399 -0.3729  0.0603
 2717SOL     OW19612   0.085   3.970   3.269 -0.1175 -0.4149  0.2694
 2717SOL    HW119613   0.121   4.006   3.187  1.1178 -1.9167  0.1688
 2717SOL    HW219614   0.150   3.996   3.334  0.1334 -1.0828  0.2755
 2718SOL     OW19615   1.446   1.028   6.957 -0.1282 -0.4627  0.3592
 2718SOL    HW119616   1.377   0.966   6.935 -1.1214  0.5036  0.7760
 2718SOL    HW219617   1.522   0.969   6.955  0.2074 -0.0506  1.2340
 2719SOL     OW19618   2.676   3.628  13.352 -0.4367  0.2368 -0.0827
 2719SOL    HW119619   2.758   3.649  13.397  0.2516 -0.0039 -1.2194
 2719SOL    HW219620   2.671   3.681  13.272  1.2578  0.7643  0.1631
 2720SOL     OW19621   3.842   1.028   9.231  0.0366 -0.2757  0.5910
 2720SOL    HW119622   3.845   1.019   9.136  3.4844  0.6344  0.5962
 2720SOL    HW219623   3.929   1.063   9.250  1.1970 -1.7545 -2.0150
 2721SOL     OW19624   0.079   2.214   4.396 -0.0496 -0.0153  0.1955
 2721SOL    HW119625   0.159   2.180   4.356 -0.0160  2.0326 -1.4537
 2721SOL    HW219626   0.053   2.285   4.338  0.6360  0.9577  1.0828
 2722SOL     OW19627   3.839   2.223   6.298  0.2957 -0.4997 -0.0390
 2722SOL    HW119628   3.857   2.183   6.383 -1.1696  0.3413  0.6590
 2722SOL    HW219629   3.932   2.230   6.276  0.2923 -1.9117 -0.5240
 2723SOL     OW19630   3.809   0.299   7.028  0.2464  0.0980  0.4122
 2723SOL    HW119631   3.713   0.305   7.030  0.1661 -1.3077  0.8258
 2723SOL    HW219632   3.822   0.267   6.939 -1.9500  0.8731 -0.1979
 2724SOL     OW19633   3.090   3.822   9.103 -0.5191  0.4980  0.1509
 2724SOL    HW119634   3.046   3.849   9.183 -1.5777 -0.1538 -0.2127
 2724SOL    HW219635   3.094   3.727   9.109 -2.2950  0.5646  2.0195
 2725SOL     OW19636   4.136   1.955   1.760 -0.4351 -0.1007 -0.3831
 2725SOL    HW119637   4.088   1.969   1.679  2.0487 -2.5086 -2.3049
 2725SOL    HW219638   4.228   1.936   1.738 -0.4788  0.7369 -1.2602
 2726SOL     OW19639   4.134   1.404   4.821 -0.6815  0.2317 -0.0627
 2726SOL    HW119640   4.139   1.345   4.896 -0.2575  1.9601  1.2678
 2726SOL    HW219641   4.051   1.385   4.776 -0.4165 -2.0358  0.3863
 2727SOL     OW19642   3.062   0.616   5.435  0.1290  0.1310  0.2687
 2727SOL    HW119643   3.148   0.579   5.453  0.2146  1.3158  2.2836
 2727SOL    HW219644   3.073   0.687   5.372 -0.0885  0.6510  0.8129
 2728SOL     OW19645   2.217   0.869  15.791 -0.3785 -0.1316  0.1373
 2728SOL    HW119646   2.171   0.861  15.707 -1.8519  1.8885  0.7586
 2728SOL    HW219647   2.159   0.823  15.851 -0.7819  0.5094  0.2305
 2729SOL     OW19648   4.152   0.455   5.691 -0.3800  0.0757 -0.9239
 2729SOL    HW119649   4.076   0.505   5.722 -0.1365  1.1764 -2.0740
 2729SOL    HW219650   4.113   0.368   5.684  1.6365 -0.9711  0.9065
 2730SOL     OW19651   2.931   3.618   8.657 -0.5434 -0.2573  0.2091
 2730SOL    HW119652   3.003   3.654   8.708 -0.4580  1.1893 -0.9637
 2730SOL    HW219653   2.865   3.620   8.727 -0.6232  0.3431  0.1184
 2731SOL     OW19654   2.197   1.918   5.348 -0.0691  0.8024 -0.0484
 2731SOL    HW119655   2.175   1.955   5.433 -0.7257 -0.2961  0.2548
 2731SOL    HW219656   2.273   1.864   5.368 -1.5880 -0.4415  2.3385
 2732SOL     OW19657   3.756   3.380   1.862  0.7036 -0.1032 -0.4749
 2732SOL    HW119658   3.700   3.324   1.916 -1.7971  2.4475 -0.4266
 2732SOL    HW219659   3.709   3.392   1.779 -0.7223  0.1094  0.3498
 2733SOL     OW19660   3.096   1.787   2.397  0.1353  0.1937  0.0822
 2733SOL    HW119661   3.054   1.719   2.344 -0.6281  0.5159  0.2608
 2733SOL    HW219662   3.169   1.737   2.432  0.5098  1.2369  0.7962
 2734SOL     OW19663   2.087   1.627   4.130 -0.7373 -0.4550 -0.0784
 2734SOL    HW119664   2.097   1.702   4.071 -0.4805 -0.0735  0.4477
 2734SOL    HW219665   2.085   1.674   4.214 -1.9790 -0.5514 -0.0559
 2735SOL     OW19666   0.424   3.221   9.011 -0.2489  0.7150  0.3904
 2735SOL    HW119667   0.503   3.243   9.060 -0.1606  0.2943  0.4443
 2735SOL    HW219668   0.465   3.150   8.961  1.3969  1.8113  0.1903
 2736SOL     OW19669   0.012   0.975   6.825  0.0181  0.1025  0.4958
 2736SOL    HW119670   4.641   0.950   6.814 -0.3823  1.7148  0.2829
 2736SOL    HW219671   0.055   0.928   6.753 -0.8420  0.8260 -0.4911
 2737SOL     OW19672   3.184   2.769   3.527 -0.2150  0.1517  0.1186
 2737SOL    HW119673   3.251   2.836   3.512  0.0951 -0.2039 -0.0905
 2737SOL    HW219674   3.227   2.711   3.589  1.7721  2.4312  0.8992
 2738SOL     OW19675   4.361   0.683   1.879 -0.1121  0.1143  0.5633
 2738SOL    HW119676   4.364   0.590   1.901 -0.0637 -0.2144 -0.8488
 2738SOL    HW219677   4.270   0.701   1.904 -0.7665 -0.2095 -1.6196
 2739SOL     OW19678   3.447   1.891  15.224  0.5523  0.1566  0.2692
 2739SOL    HW119679   3.516   1.825  15.221  0.2343 -0.1246 -0.9425
 2739SOL    HW219680   3.374   1.839  15.258  0.2162  0.9752  0.7958
 2740SOL     OW19681   0.438   1.744   7.738  0.2223 -0.2821 -0.6238
 2740SOL    HW119682   0.414   1.808   7.805  2.3937 -0.2611  0.1345
 2740SOL    HW219683   0.526   1.722   7.768  0.0674  0.1221  0.1375
 2741SOL     OW19684   3.710   1.634   8.078 -0.5507 -0.4432  0.3070
 2741SOL    HW119685   3.637   1.675   8.031  0.5694 -0.7205 -1.6928
 2741SOL    HW219686   3.702   1.669   8.167  0.5018 -1.5043  0.8044
 2742SOL     OW19687   2.390   0.785   2.000  0.0678  0.8454  0.1628
 2742SOL    HW119688   2.446   0.860   2.022  1.1338  0.4184 -1.0978
 2742SOL    HW219689   2.361   0.765   2.089  1.5385 -0.2489  0.3967
 2743SOL     OW19690   2.470   1.789   4.720  0.1902 -0.0149 -0.5298
 2743SOL    HW119691   2.523   1.797   4.800  0.5398 -3.1231 -0.4569
 2743SOL    HW219692   2.397   1.736   4.751  0.3680  0.4243  0.6638
 2744SOL     OW19693   0.680   1.806  16.221  0.4518  0.5542 -0.2545
 2744SOL    HW119694   0.715   1.789  16.133 -1.3128 -1.6049 -0.5646
 2744SOL    HW219695   0.597   1.849  16.198 -1.0574 -1.5106  1.2736
 2745SOL     OW19696   1.153   2.889   4.793 -0.4816 -0.7251  0.7569
 2745SOL    HW119697   1.173   2.846   4.710 -2.6816  0.8283 -0.5994
 2745SOL    HW219698   1.127   2.818   4.852 -2.7318 -1.2728 -0.9000
 2746SOL     OW19699   3.956   3.935   2.001  0.2489 -0.4325  0.3444
 2746SOL    HW119700   4.043   3.975   2.003 -0.5311  1.3081 -0.8817
 2746SOL    HW219701   3.920   3.924   2.090 -2.5105  1.5358 -0.5241
 2747SOL     OW19702   1.672   2.543  14.968 -0.6458  0.1858  0.0396
 2747SOL    HW119703   1.685   2.490  15.046  0.2836 -1.4396 -1.2118
 2747SOL    HW219704   1.738   2.501  14.912 -1.9559 -1.0880 -0.5356
 2748SOL     OW19705   3.850   3.148   8.029  0.0890  0.5969  0.3114
 2748SOL    HW119706   3.936   3.108   8.036 -0.6985 -1.0080  0.7610
 2748SOL    HW219707   3.801   3.091   7.971  1.5748  0.0053 -0.3642
 2749SOL     OW19708   2.589   1.038  10.494 -0.0593  0.1450 -0.4198
 2749SOL    HW119709   2.587   1.107  10.561  0.3936  0.1979 -0.4567
 2749SOL    HW219710   2.641   0.967  10.531  1.7684 -0.0911 -3.4122
 2750SOL     OW19711   4.180   0.909  13.343 -0.1094 -0.3965  0.6000
 2750SOL    HW119712   4.197   0.835  13.285 -1.4414  1.1396 -1.7578
 2750SOL    HW219713   4.251   0.885  13.403  1.1369 -0.5802 -0.9622
 2751SOL     OW19714   4.299   2.331   8.499 -0.1851 -0.5060  0.2874
 2751SOL    HW119715   4.346   2.404   8.540 -2.3894  1.8835 -1.4414
 2751SOL    HW219716   4.300   2.271   8.574  0.0894 -0.8883 -0.0277
 2752SOL     OW19717   0.067   3.717  10.835 -0.0118  0.0157 -0.3063
 2752SOL    HW119718   0.073   3.812  10.820  0.0962 -0.1734 -1.4358
 2752SOL    HW219719   0.042   3.680  10.750 -0.2738  1.3163 -0.7958
 2753SOL     OW19720   3.195   3.544   1.855 -0.2200  0.2508 -0.3099
 2753SOL    HW119721   3.153   3.465   1.889  0.1942 -0.1202 -0.6720
 2753SOL    HW219722   3.130   3.611   1.877 -1.0513 -0.7996  0.4090
 2754SOL     OW19723   0.770   4.152   5.900 -0.2564  0.1744 -0.6996
 2754SOL    HW119724   0.780   4.127   5.991 -1.3989 -0.7576 -0.8282
 2754SOL    HW219725   0.858   4.181   5.877 -0.2700 -0.2281 -1.2775
 2755SOL     OW19726   3.259   2.603  14.648 -0.0074 -0.5030  0.3458
 2755SOL    HW119727   3.185   2.632  14.701 -1.1093 -1.4077 -0.6981
 2755SOL    HW219728   3.231   2.601  14.556 -2.6837 -0.7958  1.1751
 2756SOL     OW19729   2.746   1.678   6.696 -0.2309 -0.5469  0.5422
 2756SOL    HW119730   2.750   1.769   6.667  2.4110 -1.2639 -1.3427
 2756SOL    HW219731   2.786   1.643   6.617  0.8449  1.0745  0.3719
 2757SOL     OW19732   1.794   3.230   5.765  0.3960  0.0405 -0.3430
 2757SOL    HW119733   1.854   3.270   5.828 -2.7264  1.3656  1.8199
 2757SOL    HW219734   1.845   3.151   5.746  2.4471  1.6826 -1.5962
 2758SOL     OW19735   1.313   1.631   6.653  0.0167 -0.7314  0.1734
 2758SOL    HW119736   1.393   1.595   6.690  1.2064  1.6181 -0.1620
 2758SOL    HW219737   1.277   1.677   6.728  0.0995 -1.8910  0.9195
 2759SOL     OW19738   3.866   1.560  10.962  0.0694 -0.2277  0.1660
 2759SOL    HW119739   3.917   1.604  11.030  2.0067 -1.4108 -0.5065
 2759SOL    HW219740   3.774   1.557  10.988  0.0664 -0.5310  0.1163
 2760SOL     OW19741   4.041   0.102   6.724  0.3302  0.4952 -0.0368
 2760SOL    HW119742   4.127   0.142   6.711  0.2591  1.3116  2.0341
 2760SOL    HW219743   4.054   0.018   6.680 -0.8219 -0.8598  2.1837
 2761SOL     OW19744   0.951   0.064   4.393  0.0032 -0.6325 -0.4342
 2761SOL    HW119745   0.911   0.148   4.369  1.2985 -0.2091 -1.1247
 2761SOL    HW219746   0.917   0.003   4.328 -1.9818 -1.2626  1.1914
 2762SOL     OW19747   4.428   2.677  10.274  0.2915  0.4880 -0.0155
 2762SOL    HW119748   4.392   2.715  10.193 -1.3970 -3.0350 -0.9105
 2762SOL    HW219749   4.354   2.694  10.331  0.4912  0.4100  0.2648
 2763SOL     OW19750   2.584   4.480   7.249  0.2393  0.0298  0.3474
 2763SOL    HW119751   2.616   4.390   7.253  1.0930  0.3080 -0.1304
 2763SOL    HW219752   2.556   4.496   7.339  1.0646 -1.1987  0.8329
 2764SOL     OW19753   0.494   0.396   7.580  0.1011 -0.3210  0.5214
 2764SOL    HW119754   0.469   0.480   7.539 -3.1394 -2.1704 -1.3513
 2764SOL    HW219755   0.435   0.332   7.540  0.9684  1.4014 -3.5400
 2765SOL     OW19756   2.776   1.363   7.716  0.3619 -0.2174  0.2625
 2765SOL    HW119757   2.735   1.446   7.689 -1.4840 -1.1445  0.2521
 2765SOL    HW219758   2.754   1.351   7.808  1.0896  1.4505  0.6596
 2766SOL     OW19759   1.992   3.721   7.335 -0.2829  0.0209  0.3102
 2766SOL    HW119760   2.066   3.694   7.281 -1.3521 -0.7984 -0.7416
 2766SOL    HW219761   1.974   3.641   7.384  0.3389 -0.0966  0.3539
 2767SOL     OW19762   1.197   1.264   2.418  0.3201  0.2126 -0.3927
 2767SOL    HW119763   1.108   1.295   2.403  0.2573 -0.4246 -1.3612
 2767SOL    HW219764   1.185   1.176   2.455 -0.6647 -0.2663 -1.8516
 2768SOL     OW19765   2.695   2.809   7.215 -0.4548  0.5493  0.0967
 2768SOL    HW119766   2.667   2.797   7.124 -1.0199  1.7985  0.1024
 2768SOL    HW219767   2.753   2.735   7.230 -0.0324  0.6785 -0.8690
 2769SOL     OW19768   3.848   2.682  13.749  0.1787  0.2280 -0.4232
 2769SOL    HW119769   3.924   2.738  13.764  0.2271  0.1808 -0.4892
 2769SOL    HW219770   3.863   2.676  13.655 -0.9583  2.1060 -0.7260
 2770SOL     OW19771   0.809   2.460  15.715  0.5502  0.2833  0.5377
 2770SOL    HW119772   0.840   2.374  15.686  1.0958  1.2027 -1.6214
 2770SOL    HW219773   0.897   2.489  15.738  0.5033  0.2958  0.6986
 2771SOL     OW19774   1.321   4.073  13.877  0.0472 -0.0754 -0.3790
 2771SOL    HW119775   1.253   4.057  13.810 -0.5337  2.4546 -0.3789
 2771SOL    HW219776   1.276   4.060  13.961 -0.3174  1.1863 -0.3857
 2772SOL     OW19777   2.979   0.248   5.070  0.5006 -0.1708  0.4947
 2772SOL    HW119778   2.933   0.170   5.040 -2.4061  1.2365  1.1957
 2772SOL    HW219779   2.952   0.237   5.162  1.6771 -0.0127  0.8635
 2773SOL     OW19780   2.483   2.481   5.462 -0.5214 -0.0818  0.6909
 2773SOL    HW119781   2.479   2.545   5.532 -0.5888  1.4557 -0.7160
 2773SOL    HW219782   2.579   2.472   5.463 -0.6462 -1.9335 -2.0799
 2774SOL     OW19783   1.069   0.721  15.314  0.6682 -0.4401  0.3510
 2774SOL    HW119784   1.069   0.721  15.218 -0.7524  0.3133  0.3514
 2774SOL    HW219785   1.162   0.701  15.326  0.8556  0.2044 -0.0351
 2775SOL     OW19786   4.142   2.684   8.372 -0.0642  0.0281 -0.0990
 2775SOL    HW119787   4.235   2.704   8.360 -0.5049  2.1727  0.0655
 2775SOL    HW219788   4.108   2.723   8.291 -1.9098 -0.0697  0.6254
 2776SOL     OW19789   3.873   3.318   4.913 -0.0637  0.4484  0.2991
 2776SOL    HW119790   3.862   3.244   4.972  0.1116  0.5094  0.4058
 2776SOL    HW219791   3.829   3.383   4.969  1.1428  0.9358  0.6803
 2777SOL     OW19792   2.631   1.287   3.918  0.7065 -0.0955  0.5200
 2777SOL    HW119793   2.564   1.250   3.860  1.4982 -0.4892 -0.1446
 2777SOL    HW219794   2.711   1.245   3.887 -0.6771 -2.4361  0.0859
 2778SOL     OW19795   2.696   3.184   6.488 -0.0577 -0.5652  0.3175
 2778SOL    HW119796   2.713   3.270   6.450 -2.0077  0.1013  0.9526
 2778SOL    HW219797   2.749   3.124   6.435  2.9070  0.1122  2.5359
 2779SOL     OW19798   4.710   4.327   3.887  0.1750  0.4046 -0.2768
 2779SOL    HW119799   4.668   4.307   3.971  3.2882  0.3103  1.2424
 2779SOL    HW219800   0.056   4.391   3.911  2.9006 -1.5989 -2.6031
 2780SOL     OW19801   4.067   3.279  10.867 -0.4366 -0.4863 -0.5332
 2780SOL    HW119802   4.109   3.362  10.842 -0.6703 -0.5498 -1.1260
 2780SOL    HW219803   4.068   3.295  10.962  1.9986  0.2199 -0.6756
 2781SOL     OW19804   4.260   0.794  10.286  0.2225 -0.2924  0.9638
 2781SOL    HW119805   4.308   0.712  10.297 -0.7149 -1.1296 -1.1025
 2781SOL    HW219806   4.332   0.851  10.261  1.3270 -2.6875 -1.3687
 2782SOL     OW19807   3.318   0.706   1.939 -0.2332  0.5341  0.2187
 2782SOL    HW119808   3.397   0.753   1.965 -1.0599  1.4234  1.1022
 2782SOL    HW219809   3.268   0.778   1.901 -1.8468 -0.3350  0.6650
 2783SOL     OW19810   4.458   3.269  10.706 -0.0728 -0.0273 -0.7518
 2783SOL    HW119811   4.413   3.338  10.756  1.3237 -0.1029  0.5807
 2783SOL    HW219812   4.543   3.309  10.691  0.5281 -0.4523  1.6721
 2784SOL     OW19813   4.446   0.512   8.427 -0.9157 -0.1030 -0.0763
 2784SOL    HW119814   4.423   0.602   8.407  1.1564  0.0085 -1.9263
 2784SOL    HW219815   4.541   0.513   8.410 -0.7927 -1.8687  0.5074
 2785SOL     OW19816   3.124   2.915  10.150 -0.4078 -1.4149 -0.2331
 2785SOL    HW119817   3.145   2.987  10.090  0.7635 -0.2126  1.5940
 2785SOL    HW219818   3.036   2.945  10.176  0.5147  2.4366 -1.4602
 2786SOL     OW19819   0.199   4.138   3.723 -0.1761 -0.2342  0.0225
 2786SOL    HW119820   0.275   4.127   3.779 -0.6723 -1.1626  0.5093
 2786SOL    HW219821   0.136   4.174   3.785  2.9985  1.1133  2.4161
 2787SOL     OW19822   3.222   3.805  15.350  0.2200  0.1343 -0.1593
 2787SOL    HW119823   3.184   3.882  15.391  0.6582 -0.0464  0.5810
 2787SOL    HW219824   3.146   3.773  15.300  2.1140 -0.6221 -2.5274
 2788SOL     OW19825   3.733   1.891  13.727 -0.2446 -0.3485  0.0120
 2788SOL    HW119826   3.806   1.879  13.667 -1.2154  1.5328 -1.5491
 2788SOL    HW219827   3.702   1.978  13.700 -2.2731 -1.2739 -0.6209
 2789SOL     OW19828   4.680   2.519   7.526  0.3658  0.1184 -0.0065
 2789SOL    HW119829   4.637   2.566   7.597 -1.3445 -1.5602  0.0465
 2789SOL    HW219830   4.623   2.524   7.449  1.0241  1.9414 -0.3823
 2790SOL     OW19831   2.238   0.669   5.574  0.7166 -0.3066 -0.4028
 2790SOL    HW119832   2.248   0.594   5.633 -0.4088  1.4340  2.0035
 2790SOL    HW219833   2.299   0.730   5.615  0.2504 -1.3938  1.9336
 2791SOL     OW19834   0.724   2.105  17.236  0.1688  0.0839  0.4612
 2791SOL    HW119835   0.676   2.174  17.191  1.1021 -0.8417 -1.9659
 2791SOL    HW219836   0.777   2.153  17.300  1.4150 -1.0174  0.2533
 2792SOL     OW19837   2.051   2.766   7.007 -0.6865 -0.6896  0.8785
 2792SOL    HW119838   2.104   2.695   6.969  0.1256  0.7825 -0.7053
 2792SOL    HW219839   2.058   2.818   6.928 -1.0845 -3.4229 -0.9695
 2793SOL     OW19840   4.461   0.573   7.999 -0.1557  0.0916 -0.1079
 2793SOL    HW119841   4.407   0.652   8.009 -0.3785 -0.2691  1.4520
 2793SOL    HW219842   4.424   0.526   7.925  1.9203 -2.7734  0.6875
 2794SOL     OW19843   0.192   1.379   8.041  0.6467  0.3759  1.1265
 2794SOL    HW119844   0.197   1.467   8.002 -0.8341 -0.4447 -0.9239
 2794SOL    HW219845   0.141   1.393   8.120  0.9615 -2.5025  1.8461
 2795SOL     OW19846   3.194   3.180   2.400 -0.0493 -0.0479 -0.2065
 2795SOL    HW119847   3.102   3.173   2.374  0.2343 -2.7657 -0.4321
 2795SOL    HW219848   3.193   3.120   2.475  2.0819  0.7367  0.4599
 2796SOL     OW19849   3.077   1.999   2.882  0.1682  0.1092 -0.0970
 2796SOL    HW119850   3.039   1.923   2.926 -0.0579  1.2521  1.7131
 2796SOL    HW219851   3.113   2.041   2.960  1.0327 -0.2637 -0.2960
 2797SOL     OW19852   2.858   0.610   4.234  0.1983  0.2239 -0.5776
 2797SOL    HW119853   2.865   0.679   4.300  2.0282  0.2730 -0.8086
 2797SOL    HW219854   2.909   0.551   4.290 -2.3388 -0.2655  1.1933
 2798SOL     OW19855   4.297   3.531   0.118  0.2368 -0.2617 -0.3680
 2798SOL    HW119856   4.384   3.558   0.147 -0.3304 -0.0014  1.1205
 2798SOL    HW219857   4.258   3.598   0.175  1.6199  0.0839  0.1765
 2799SOL     OW19858   1.719   1.677   3.118 -0.2341  0.0964  0.2025
 2799SOL    HW119859   1.649   1.682   3.184 -1.4551 -0.5432 -1.0328
 2799SOL    HW219860   1.795   1.666   3.174  1.1328  2.4146 -1.2039
 2800SOL     OW19861   1.499   4.031   8.535  0.3654 -0.3728  0.4692
 2800SOL    HW119862   1.530   4.069   8.617 -1.8673  2.0144  0.2094
 2800SOL    HW219863   1.549   3.950   8.540  1.6183  0.3772  0.2628
 2801SOL     OW19864   2.498   0.708   7.343  0.3944  0.0513  0.4932
 2801SOL    HW119865   2.523   0.763   7.269 -0.2274  1.1408  1.0980
 2801SOL    HW219866   2.486   0.774   7.410 -0.8748  2.9179 -2.5754
 2802SOL     OW19867   4.657   4.423   0.512  1.2198  0.5236 -0.0189
 2802SOL    HW119868   0.014   4.474   0.532  1.2214  0.0497  1.1822
 2802SOL    HW219869   4.649   4.441   0.419 -0.6428 -0.6308 -0.0892
 2803SOL     OW19870   3.132   4.172  10.655 -0.2891  0.4723  0.3702
 2803SOL    HW119871   3.132   4.257  10.699 -0.8824  0.3800  0.5486
 2803SOL    HW219872   3.043   4.139  10.667 -0.5663  1.0019 -0.2445
 2804SOL     OW19873   0.124   0.503   4.392  0.0346  0.6071 -0.6421
 2804SOL    HW119874   0.101   0.523   4.301 -1.5358 -1.8382 -0.7743
 2804SOL    HW219875   0.157   0.589   4.420 -0.4867  0.4657  0.4079
 2805SOL     OW19876   3.261   2.547  16.788  0.0114  0.0828  0.5913
 2805SOL    HW119877   3.188   2.608  16.802  0.1516  0.6708 -1.2893
 2805SOL    HW219878   3.337   2.592  16.826 -0.6563  0.5153  1.4278
 2806SOL     OW19879   4.420   0.975   2.662 -0.7852  0.5831  0.1976
 2806SOL    HW119880   4.354   0.914   2.629 -0.1222 -0.6648  1.1830
 2806SOL    HW219881   4.486   0.970   2.593 -0.0441 -2.2881  1.1155
 2807SOL     OW19882   3.324   3.177   2.781  0.2863 -0.0305 -0.1599
 2807SOL    HW119883   3.334   3.225   2.699  1.8579  0.7261  0.4776
 2807SOL    HW219884   3.308   3.248   2.843 -2.1721 -0.0308 -0.7806
 2808SOL     OW19885   1.199   0.275   8.602 -0.3637 -0.5025  0.7012
 2808SOL    HW119886   1.183   0.278   8.696 -0.0066  0.3615  0.7301
 2808SOL    HW219887   1.221   0.184   8.579 -0.5697  0.1538 -2.1249
 2809SOL     OW19888   4.289   1.845   2.907  0.8898 -0.1065  0.0625
 2809SOL    HW119889   4.328   1.762   2.936  1.2138  1.1131  3.1042
 2809SOL    HW219890   4.349   1.901   2.957  0.0930  0.8966 -0.1202
 2810SOL     OW19891   3.526   2.804   8.346  0.4592 -0.1455  0.1196
 2810SOL    HW119892   3.489   2.744   8.282 -0.9545  0.2715  0.5394
 2810SOL    HW219893   3.450   2.858   8.368  1.2213  1.4629 -1.2010
 2811SOL     OW19894   0.511   1.805  11.218 -0.1739 -0.2092 -0.5816
 2811SOL    HW119895   0.477   1.817  11.129 -1.7089 -3.5779 -0.4535
 2811SOL    HW219896   0.535   1.712  11.220 -2.4860 -0.7832  0.2715
 2812SOL     OW19897   3.560   0.937  11.290  0.4622 -0.0606 -0.0606
 2812SOL    HW119898   3.555   0.843  11.275  1.4707  0.0211 -0.8900
 2812SOL    HW219899   3.595   0.954  11.203 -0.0967 -0.9677 -0.4585
 2813SOL     OW19900   3.292   2.030  10.357 -0.4110  0.2377 -0.2152
 2813SOL    HW119901   3.229   2.097  10.333 -1.1665 -0.3513  0.1541
 2813SOL    HW219902   3.226   1.980  10.404 -0.1171 -1.6165 -1.7704
 2814SOL     OW19903   4.345   0.388   7.064  0.3241  0.5375 -1.1387
 2814SOL    HW119904   4.388   0.317   7.110  0.5843  0.9208 -0.7863
 2814SOL    HW219905   4.307   0.342   6.990  0.3012 -0.8884 -0.2249
 2815SOL     OW19906   2.721   2.931   9.523  0.2838  0.4086 -0.2283
 2815SOL    HW119907   2.755   2.946   9.611  1.0624 -2.7546  0.0218
 2815SOL    HW219908   2.685   2.844   9.535  2.4930 -0.2627  1.5975
 2816SOL     OW19909   0.868   3.186   4.402  0.3122  0.0783 -0.1203
 2816SOL    HW119910   0.890   3.156   4.314 -0.6323  2.0565 -1.0288
 2816SOL    HW219911   0.837   3.273   4.377 -2.1062 -1.1414 -1.3918
 2817SOL     OW19912   4.506   0.223   7.224 -0.1021 -0.5075  0.1678
 2817SOL    HW119913   4.601   0.226   7.230 -0.1434  0.3523  0.3634
 2817SOL    HW219914   4.480   0.263   7.308  2.5203 -2.2774  1.8035
 2818SOL     OW19915   1.878   3.072   8.942  0.0586  0.2466 -0.1682
 2818SOL    HW119916   1.813   3.108   8.882  1.7677  1.6281 -1.2014
 2818SOL    HW219917   1.928   3.010   8.889  1.0654 -0.6806  1.8686
 2819SOL     OW19918   2.758   3.713  14.382 -0.3242  0.4426  0.0702
 2819SOL    HW119919   2.720   3.634  14.421 -0.9846  1.1886  0.9423
 2819SOL    HW219920   2.814   3.669  14.318  1.3031  0.0958  1.7176
 2820SOL     OW19921   0.664   4.626  13.079 -0.2934  0.3079  0.3955
 2820SOL    HW119922   0.677   4.600  12.988 -1.1691 -0.5641  0.5092
 2820SOL    HW219923   0.667   4.720  13.063 -0.0631  0.2610  0.1669
 2821SOL     OW19924   4.450   2.819  11.357  0.4695 -0.1818  0.2187
 2821SOL    HW119925   4.436   2.724  11.355  1.4478 -0.2955 -1.1525
 2821SOL    HW219926   4.481   2.839  11.269  0.1864  0.4465  0.2621
 2822SOL     OW19927   2.886   4.340   9.743  0.2407 -0.0076  0.5760
 2822SOL    HW119928   2.813   4.298   9.789 -0.9757  2.3210  0.8055
 2822SOL    HW219929   2.945   4.346   9.818  1.4812  0.1960 -0.4231
 2823SOL     OW19930   3.371   3.255  10.808  0.2949  0.7334  0.3779
 2823SOL    HW119931   3.355   3.217  10.895 -0.0083 -0.8432 -0.3673
 2823SOL    HW219932   3.446   3.313  10.822  1.8632 -1.1421 -0.2543
 2824SOL     OW19933   2.709   4.337  13.581 -0.5815  0.3745  0.7277
 2824SOL    HW119934   2.712   4.356  13.487  0.6784 -0.7885  0.5496
 2824SOL    HW219935   2.777   4.397  13.611 -0.3379  0.9712 -0.9844
 2825SOL     OW19936   2.676   3.627   7.247 -0.3584 -0.2151 -0.2940
 2825SOL    HW119937   2.702   3.700   7.191 -0.2004 -0.8945 -1.1014
 2825SOL    HW219938   2.595   3.658   7.288 -1.7340 -3.3213 -0.6440
 2826SOL     OW19939   0.307   3.882   6.250 -0.3943 -0.0396  0.2919
 2826SOL    HW119940   0.243   3.849   6.186 -0.5583 -0.6158  0.7521
 2826SOL    HW219941   0.336   3.960   6.203 -0.4618  1.0316  2.0709
 2827SOL     OW19942   1.126   4.365   4.316 -0.6787 -0.0181  0.0031
 2827SOL    HW119943   1.200   4.305   4.301 -1.5916 -1.2923  0.5890
 2827SOL    HW219944   1.178   4.426   4.367  0.5665 -1.0686  0.0006
 2828SOL     OW19945   2.664   1.795  12.603  0.2562  0.4308 -0.2421
 2828SOL    HW119946   2.574   1.771  12.580  0.5189  1.6643 -2.4755
 2828SOL    HW219947   2.657   1.888  12.583 -1.6426 -0.1397 -2.1882
 2829SOL     OW19948   3.435   0.927   9.896  0.3270 -1.1283  0.3001
 2829SOL    HW119949   3.349   0.969   9.888  0.6127 -0.5057  0.5891
 2829SOL    HW219950   3.475   0.922   9.810 -0.4860  2.2355 -0.2779
 2830SOL     OW19951   1.386   0.285   4.898  0.3217  0.2108 -0.0120
 2830SOL    HW119952   1.317   0.219   4.900  1.2430 -0.7642 -0.3859
 2830SOL    HW219953   1.467   0.235   4.906 -0.8884 -1.5848  1.1955
 2831SOL     OW19954   0.115   2.132  15.761  0.2198  0.4298 -0.0772
 2831SOL    HW119955   0.032   2.109  15.717 -0.8698 -1.1423  2.8268
 2831SOL    HW219956   0.114   2.226  15.743  0.3981  0.6305  0.9568
 2832SOL     OW19957   2.552   3.710  14.820 -0.4871 -0.5667  0.2074
 2832SOL    HW119958   2.572   3.753  14.903 -0.2681 -1.8277  0.8049
 2832SOL    HW219959   2.479   3.656  14.849 -0.6080  0.0192  0.9848
 2833SOL     OW19960   2.010   3.176  13.368  0.1234 -0.1823  0.6392
 2833SOL    HW119961   1.950   3.232  13.417 -0.4901  0.6098 -1.0120
 2833SOL    HW219962   2.059   3.126  13.433 -2.2204 -1.6523  1.3156
 2834SOL     OW19963   3.702   0.457  14.568 -0.3405  0.0265  0.2752
 2834SOL    HW119964   3.733   0.510  14.641  0.6380  0.9722 -0.8368
 2834SOL    HW219965   3.755   0.489  14.495 -0.8815 -1.5895 -0.8214
 2835SOL     OW19966   0.597   2.268   6.528 -0.0175  0.3004  0.6367
 2835SOL    HW119967   0.689   2.270   6.503 -0.5299  2.4930 -1.0551
 2835SOL    HW219968   0.587   2.356   6.563 -1.1809  0.1453  0.6781
 2836SOL     OW19969   2.572   2.882  13.718 -0.3763  0.4391 -0.4326
 2836SOL    HW119970   2.538   2.881  13.807  0.7111  1.1669 -0.0090
 2836SOL    HW219971   2.554   2.791  13.694  1.4024 -0.2945  1.0967
 2837SOL     OW19972   2.807   3.394   4.230 -0.0735  0.4439 -0.7517
 2837SOL    HW119973   2.723   3.426   4.198 -0.3845  0.0398 -0.3385
 2837SOL    HW219974   2.807   3.312   4.180  2.7246 -0.4821  0.7344
 2838SOL     OW19975   2.313   2.156   5.253  0.2796  0.0422  0.4751
 2838SOL    HW119976   2.266   2.073   5.248 -0.0267  0.2675 -0.3354
 2838SOL    HW219977   2.358   2.158   5.168 -0.1682  1.9825  0.2909
 2839SOL     OW19978   3.530   1.973  14.979  0.3267 -0.0122  0.6141
 2839SOL    HW119979   3.526   1.982  15.074 -1.7341  0.5629  0.4673
 2839SOL    HW219980   3.574   2.052  14.946  0.9216 -0.0846  1.2165
 2840SOL     OW19981   0.104   2.782   8.807 -0.3843  0.4669 -0.1205
 2840SOL    HW119982   0.012   2.787   8.781 -0.4055  1.8783  0.2033
 2840SOL    HW219983   0.118   2.688   8.796 -3.1586 -0.5325  4.7467
 2841SOL     OW19984   1.120   3.426  15.725 -0.1343  0.2803 -0.2047
 2841SOL    HW119985   1.029   3.457  15.725  0.4435  1.9842  3.2968
 2841SOL    HW219986   1.152   3.476  15.650  0.4789 -0.7272 -0.6072
 2842SOL     OW19987   3.397   4.328   9.614 -0.4387  0.0208 -0.1603
 2842SOL    HW119988   3.425   4.366   9.531 -0.3249  1.1840  0.4193
 2842SOL    HW219989   3.395   4.406   9.670 -0.9699  0.3381 -0.6203
 2843SOL     OW19990   2.963   1.884   3.465  0.3766  0.5282 -0.1960
 2843SOL    HW119991   2.914   1.905   3.386 -0.8319 -1.0021  0.1401
 2843SOL    HW219992   3.056   1.889   3.441  0.2657 -0.4212 -0.8334
 2844SOL     OW19993   1.448   1.214   1.381  0.3798  0.5825  0.4688
 2844SOL    HW119994   1.500   1.224   1.461 -1.4864 -2.0479  2.0413
 2844SOL    HW219995   1.456   1.120   1.362  0.5677  0.2789  2.0123
 2845SOL     OW19996   2.860   2.805   8.627  0.4111  0.4873  0.1088
 2845SOL    HW119997   2.792   2.776   8.566 -1.4968  1.2717  1.8705
 2845SOL    HW219998   2.850   2.901   8.629  0.1127  0.4929 -1.2686
 2846SOL     OW19999   4.544   3.528  10.868  0.1592 -0.6635  0.0472
 2846SOL    HW120000   4.585   3.507  10.784 -0.1202 -1.2362  0.0521
 2846SOL    HW220001   4.578   3.453  10.916 -1.9125 -1.8223 -0.3139
 2847SOL     OW20002   3.430   0.644   8.733 -0.1775 -0.3848 -0.0802
 2847SOL    HW120003   3.348   0.598   8.750 -0.6832  0.2291 -0.9030
 2847SOL    HW220004   3.401   0.703   8.664 -1.7509 -0.1459  0.7777
 2848SOL     OW20005   2.158   1.504   6.150 -0.1585 -0.0816 -0.5292
 2848SOL    HW120006   2.186   1.552   6.072  0.5641  0.6255  0.1623
 2848SOL    HW220007   2.183   1.572   6.213  0.7789 -0.3307 -0.6392
 2849SOL     OW20008   2.035   2.627  16.607 -0.4941  0.1062  0.8358
 2849SOL    HW120009   2.087   2.620  16.527 -0.3126  0.7420  0.9003
 2849SOL    HW220010   2.104   2.635  16.673 -0.2332  0.3933  0.5301
 2850SOL     OW20011   4.157   4.109   8.324  0.0489  0.7599  0.2640
 2850SOL    HW120012   4.068   4.139   8.308 -0.2544 -1.2087 -1.6719
 2850SOL    HW220013   4.195   4.189   8.359 -0.5367  2.1506 -2.3361
 2851SOL     OW20014   2.680   3.807   5.760  0.5252  0.0083 -0.3520
 2851SOL    HW120015   2.687   3.818   5.855  0.2464 -1.2867 -0.1862
 2851SOL    HW220016   2.591   3.785   5.734  0.2982 -0.3388  0.7457
 2852SOL     OW20017   3.042   0.975   3.216 -0.5462 -0.3394 -0.0483
 2852SOL    HW120018   3.037   0.898   3.273  2.8664 -0.5419 -0.0436
 2852SOL    HW220019   3.018   1.045   3.276  2.1062  0.1692  0.4223
 2853SOL     OW20020   0.135   3.799  15.700 -0.4341 -0.9314  0.4969
 2853SOL    HW120021   0.051   3.785  15.657 -1.4498  1.1786  1.7564
 2853SOL    HW220022   0.205   3.774  15.639 -1.3919 -2.0483 -0.1275
 2854SOL     OW20023   0.056   3.587   4.079 -0.1966 -0.0896  0.3680
 2854SOL    HW120024   0.080   3.581   4.172 -0.8946 -0.6344  0.5068
 2854SOL    HW220025   0.144   3.585   4.041  0.2532  0.3482  1.3692
 2855SOL     OW20026   2.747   1.609   8.051  0.7476  0.3660  0.1801
 2855SOL    HW120027   2.681   1.659   8.100 -1.7667 -1.8005 -1.0066
 2855SOL    HW220028   2.811   1.592   8.120  2.2242  0.3659 -1.1981
 2856SOL     OW20029   3.754   2.013   3.351  0.0289  0.1293 -0.4699
 2856SOL    HW120030   3.834   2.032   3.302  0.5486 -1.8768 -0.4293
 2856SOL    HW220031   3.752   1.917   3.359  0.0872  0.2785  1.2183
 2857SOL     OW20032   2.655   4.145   7.679 -0.4556  0.0961  0.2865
 2857SOL    HW120033   2.690   4.091   7.750  0.0118 -0.2235 -0.1949
 2857SOL    HW220034   2.679   4.085   7.609  1.9851  0.6628  0.6551
 2858SOL     OW20035   3.921   2.116   6.893 -0.2863  0.1816  0.4602
 2858SOL    HW120036   3.869   2.170   6.953  0.1947 -0.3255  1.3380
 2858SOL    HW220037   3.986   2.094   6.959  0.9472 -0.3194 -0.9263
 2859SOL     OW20038   2.696   1.266   8.673 -0.2986 -0.0308  0.0631
 2859SOL    HW120039   2.779   1.300   8.707 -1.1990  0.3703  1.8444
 2859SOL    HW220040   2.730   1.220   8.595 -0.3496  0.7755 -0.4312
 2860SOL     OW20041   1.513   0.163   7.036 -1.0817 -0.4506  0.5494
 2860SOL    HW120042   1.606   0.159   7.013 -1.6059  1.5982 -1.9103
 2860SOL    HW220043   1.478   0.235   6.983 -2.7215 -1.8189 -0.2344
 2861SOL     OW20044   2.217   1.377  14.876 -0.4433  0.1087 -0.2826
 2861SOL    HW120045   2.191   1.402  14.787 -0.6371 -0.0508 -0.2718
 2861SOL    HW220046   2.137   1.351  14.922  1.3123 -2.4402  1.3162
 2862SOL     OW20047   1.290   0.798  10.290  0.1835 -0.2536  0.3745
 2862SOL    HW120048   1.356   0.867  10.279  0.2234 -0.0791  1.6217
 2862SOL    HW220049   1.222   0.864  10.301  0.1194  0.1879 -2.7088
 2863SOL     OW20050   4.713   4.684   5.942  0.2389 -0.4190 -0.1365
 2863SOL    HW120051   4.672   4.640   6.017 -0.2739  0.4354  0.0916
 2863SOL    HW220052   0.086   4.670   5.946  0.4207  0.2512 -2.3998
 2864SOL     OW20053   3.599   2.645   7.058 -0.2620 -0.2909 -0.7898
 2864SOL    HW120054   3.600   2.740   7.069 -2.4437 -0.2769 -0.7264
 2864SOL    HW220055   3.505   2.630   7.059 -0.2816 -0.1765 -1.0103
 2865SOL     OW20056   0.755   3.022  15.020 -0.4097  0.3539  0.1391
 2865SOL    HW120057   0.773   2.930  15.037 -2.7858 -0.6737 -2.9788
 2865SOL    HW220058   0.696   3.052  15.089  1.9347  2.4294  1.2550
 2866SOL     OW20059   1.943   1.261   2.851  0.0680  0.1359  0.2852
 2866SOL    HW120060   1.992   1.227   2.775  0.8557 -2.5862  2.0078
 2866SOL    HW220061   1.894   1.335   2.816  0.6111  1.4910  2.4161
 2867SOL     OW20062   1.581   4.505   2.763 -0.4640 -0.1345  0.0300
 2867SOL    HW120063   1.523   4.482   2.691  0.4405 -0.6212 -0.5463
 2867SOL    HW220064   1.618   4.589   2.738 -2.0217  0.4857 -0.1923
 2868SOL     OW20065   2.451   4.698   5.951  0.7500  0.0877  0.4984
 2868SOL    HW120066   2.511   4.680   5.878  2.6326  2.2215  1.5127
 2868SOL    HW220067   2.491   0.055   5.988 -2.2047  1.9079 -0.1928
 2869SOL     OW20068   4.402   0.357  14.355  0.5303 -0.0955 -0.0364
 2869SOL    HW120069   4.395   0.304  14.276  2.3507  1.1581 -1.0336
 2869SOL    HW220070   4.472   0.407  14.313 -0.7671  1.9613  0.2624
 2870SOL     OW20071   4.687   3.181   4.465  0.2554 -0.5062 -0.2166
 2870SOL    HW120072   0.023   3.188   4.389  0.8090  2.0150  0.4306
 2870SOL    HW220073   0.012   3.221   4.539  1.2124  1.3392 -1.8200
 2871SOL     OW20074   1.014   1.492   6.437  0.1021  0.1290  0.3388
 2871SOL    HW120075   1.033   1.465   6.527  0.4092 -0.5505  0.0712
 2871SOL    HW220076   1.095   1.540   6.420  0.1219 -0.4445 -1.2059
 2872SOL     OW20077   3.742   0.446   3.868 -0.2708  0.0785  0.1365
 2872SOL    HW120078   3.815   0.501   3.896 -0.9783  0.2988  1.5361
 2872SOL    HW220079   3.665   0.489   3.904 -0.3873 -1.3807  1.6251
 2873SOL     OW20080   4.510   1.122   9.508  0.3429 -0.2086  0.1149
 2873SOL    HW120081   4.439   1.177   9.472  1.6603  2.2880  1.3363
 2873SOL    HW220082   4.541   1.075   9.431  0.0935 -2.5678  1.4514
 2874SOL     OW20083   1.682   2.261   5.471  0.5696 -0.3015  0.0577
 2874SOL    HW120084   1.696   2.166   5.476  1.9219 -0.2876 -3.0132
 2874SOL    HW220085   1.596   2.266   5.513  0.2549  0.0130 -0.6112
 2875SOL     OW20086   1.100   4.315   6.589  0.5058  0.0503  0.0471
 2875SOL    HW120087   1.054   4.262   6.524  0.5933  1.0734 -0.8509
 2875SOL    HW220088   1.173   4.349   6.536 -1.8577  3.2151 -1.2262
 2876SOL     OW20089   0.185   3.210   7.482 -0.6287 -0.0203 -0.2286
 2876SOL    HW120090   0.095   3.235   7.461 -0.6948  0.5813  0.7354
 2876SOL    HW220091   0.176   3.185   7.574  0.2587  3.1188  0.7208
 2877SOL     OW20092   2.915   0.575  10.969 -0.2776  0.4849  0.0801
 2877SOL    HW120093   2.976   0.511  10.933 -1.5673  0.3321 -1.8223
 2877SOL    HW220094   2.910   0.552  11.062  0.6258  1.5361  0.3904
 2878SOL     OW20095   1.177   3.290   6.336  0.4854  0.7918 -0.1974
 2878SOL    HW120096   1.225   3.211   6.358 -1.0133  0.1241  0.7172
 2878SOL    HW220097   1.135   3.308   6.420 -2.0659  0.7501 -1.4317
 2879SOL     OW20098   4.381   0.627   7.584  0.6059  0.2651 -0.3655
 2879SOL    HW120099   4.408   0.680   7.659  3.4162  2.9292 -3.2821
 2879SOL    HW220100   4.441   0.648   7.513  1.3605 -2.7023 -0.5848
 2880SOL     OW20101   1.302   1.126   6.394  0.0427 -0.9040 -0.3111
 2880SOL    HW120102   1.229   1.104   6.336  0.9509  0.3116 -1.9276
 2880SOL    HW220103   1.317   1.219   6.378  1.3499 -1.1291 -0.3537
 2881SOL     OW20104   3.800   0.796   5.902  0.3892 -0.0107 -0.1586
 2881SOL    HW120105   3.852   0.859   5.852  0.7701 -0.0163  0.2297
 2881SOL    HW220106   3.820   0.818   5.993  2.0993 -2.4259  0.0306
 2882SOL     OW20107   3.796   3.925  16.488 -0.4432  0.2146  0.0726
 2882SOL    HW120108   3.786   3.929  16.392 -1.1881 -1.0524  0.0942
 2882SOL    HW220109   3.776   4.017  16.499 -0.4458  0.1523  0.5617
 2883SOL     OW20110   0.732   2.537   9.130 -0.4664  0.5793  0.0049
 2883SOL    HW120111   0.798   2.568   9.192 -1.1807  0.7916  0.6571
 2883SOL    HW220112   0.678   2.613   9.109 -1.3393 -0.3341 -1.0368
 2884SOL     OW20113   1.603   2.353   6.390  0.1631  0.3189  0.2014
 2884SOL    HW120114   1.660   2.304   6.450 -0.9795  0.3145  1.2900
 2884SOL    HW220115   1.662   2.416   6.349 -0.8769  0.6729 -0.7481
 2885SOL     OW20116   2.782   1.059   7.137 -0.0056  0.2575 -0.5936
 2885SOL    HW120117   2.827   0.987   7.093 -0.0316  0.7003 -1.3416
 2885SOL    HW220118   2.696   1.016   7.144  0.8340 -1.4319 -0.6455
 2886SOL     OW20119   4.643   0.008   8.879  0.5065 -0.4113 -0.0484
 2886SOL    HW120120   4.569   4.671   8.891  0.9695 -0.5949  2.0149
 2886SOL    HW220121   4.715   4.677   8.845  0.0111 -0.3691 -1.1396
 2887SOL     OW20122   0.373   1.808   8.069 -0.5863 -0.0048  0.1684
 2887SOL    HW120123   0.421   1.891   8.073 -2.0513  0.8381  0.3059
 2887SOL    HW220124   0.450   1.752   8.071  0.9634  2.0813 -0.9082
 2888SOL     OW20125   0.700   2.690   7.180  0.5429  0.3414 -0.3070
 2888SOL    HW120126   0.675   2.637   7.257  0.3117  0.5282 -0.2545
 2888SOL    HW220127   0.655   2.643   7.110 -0.9931  1.3037  0.0603
 2889SOL     OW20128   0.984   2.400   8.973 -0.1704 -0.4169 -0.4502
 2889SOL    HW120129   0.919   2.363   8.914  1.0030  1.4948 -2.9071
 2889SOL    HW220130   0.984   2.495   8.961 -0.1596 -0.3940 -0.2723
 2890SOL     OW20131   2.023   3.233   4.831 -0.2415  0.0108 -0.2870
 2890SOL    HW120132   1.998   3.180   4.755  1.5852 -2.8291  1.0585
 2890SOL    HW220133   2.009   3.324   4.805 -0.1229  0.7947  2.3636
 2891SOL     OW20134   3.513   4.245   5.202  0.1070  0.0217 -0.4672
 2891SOL    HW120135   3.470   4.331   5.201 -0.3234 -0.1854 -0.0092
 2891SOL    HW220136   3.497   4.206   5.288 -2.3567 -2.0798 -1.8885
 2892SOL     OW20137   1.983   2.029   3.965  0.2142  0.1235  0.2103
 2892SOL    HW120138   1.929   2.107   3.977 -0.2604 -0.4399  1.7305
 2892SOL    HW220139   2.038   2.043   4.042 -0.9394 -0.4501  1.1394
 2893SOL     OW20140   2.541   1.716   9.167 -0.1223 -0.2969 -0.0560
 2893SOL    HW120141   2.547   1.755   9.080  0.5735  2.1826  1.1089
 2893SOL    HW220142   2.582   1.630   9.160 -1.8978 -1.2842  1.5781
 2894SOL     OW20143   2.541   1.407   5.507 -0.0246 -0.4774 -0.3133
 2894SOL    HW120144   2.521   1.491   5.549 -1.8561 -1.2147  0.2860
 2894SOL    HW220145   2.603   1.440   5.442 -1.4183 -0.7964 -1.7789
 2895SOL     OW20146   3.154   1.178   2.630  0.0932 -0.1308  0.4157
 2895SOL    HW120147   3.085   1.175   2.696  0.5880  0.5541  0.9725
 2895SOL    HW220148   3.159   1.084   2.616 -1.3241  0.2510 -2.5770
 2896SOL     OW20149   4.683   4.621   6.837  0.2523  0.6252  0.4868
 2896SOL    HW120150   4.622   4.689   6.809 -0.6501 -0.0830  0.7262
 2896SOL    HW220151   4.698   4.656   6.925  0.5476  2.5708 -0.3483
 2897SOL     OW20152   0.532   2.817   7.923 -0.6306  0.3072  0.2644
 2897SOL    HW120153   0.557   2.893   7.977  0.2032  0.3844 -0.2330
 2897SOL    HW220154   0.586   2.749   7.963  0.1480  2.1924  2.4985
 2898SOL     OW20155   2.572   0.215   3.022 -0.2399 -0.1467  0.0514
 2898SOL    HW120156   2.588   0.138   3.077  2.2470 -0.6831 -1.4148
 2898SOL    HW220157   2.611   0.179   2.943  0.1858 -0.7399  0.5321
 2899SOL     OW20158   3.479   1.982   2.738 -0.1729  0.0467 -0.0718
 2899SOL    HW120159   3.405   1.925   2.720  0.2901 -0.0786 -1.5820
 2899SOL    HW220160   3.511   1.939   2.818 -2.3073  0.2363  0.8716
 2900SOL     OW20161   2.521   0.111   7.165  0.6689 -0.3742 -0.4660
 2900SOL    HW120162   2.509   0.198   7.126 -0.1409 -0.3793 -0.2292
 2900SOL    HW220163   2.454   0.064   7.115 -0.4427  0.0428  0.6384
 2901SOL     OW20164   3.462   4.568   0.849 -0.2441 -0.2199 -0.6215
 2901SOL    HW120165   3.500   4.561   0.762 -1.9833 -0.3956 -1.3629
 2901SOL    HW220166   3.428   4.480   0.868  1.8184 -1.2174 -1.5531
 2902SOL     OW20167   4.512   1.930  17.404 -0.3631 -0.5942  0.0899
 2902SOL    HW120168   4.426   1.960  17.373  0.6839  1.8658 -0.3804
 2902SOL    HW220169   4.489   1.839  17.423 -0.6226 -0.8800 -1.5577
 2903SOL     OW20170   2.592   1.770   6.923  0.4056 -0.2662  0.1906
 2903SOL    HW120171   2.545   1.844   6.884  1.4601  0.3694  0.1251
 2903SOL    HW220172   2.633   1.727   6.849 -1.4681 -1.3539 -0.2134
 2904SOL     OW20173   1.344   1.753   1.192  0.8523  0.1206 -0.4461
 2904SOL    HW120174   1.254   1.783   1.207  1.1087  0.9626 -0.5793
 2904SOL    HW220175   1.394   1.800   1.258 -0.0932  0.0972  0.2858
 2905SOL     OW20176   3.708   3.464   2.947  0.4637 -0.5658 -0.2031
 2905SOL    HW120177   3.626   3.474   2.995  2.5369  1.1930  2.9887
 2905SOL    HW220178   3.772   3.424   3.006  0.1632 -0.7660 -0.0127
 2906SOL     OW20179   1.409   0.928   0.799  0.3723 -0.0004 -0.4115
 2906SOL    HW120180   1.480   0.983   0.769  1.3975 -0.6409  0.8332
 2906SOL    HW220181   1.398   0.952   0.891 -0.2758 -0.6323 -0.3239
 2907SOL     OW20182   1.122   1.555  13.721  0.1250  0.7344 -0.4729
 2907SOL    HW120183   1.183   1.625  13.744  0.6791  0.2538 -0.4953
 2907SOL    HW220184   1.130   1.489  13.789 -2.9541  0.8618  0.0090
 2908SOL     OW20185   3.497   2.514  14.766  0.7592 -0.5022  0.5455
 2908SOL    HW120186   3.554   2.591  14.759 -1.2605  1.0577  1.4981
 2908SOL    HW220187   3.420   2.557  14.730 -0.4034 -2.3939  0.8363
 2909SOL     OW20188   3.562   0.220   5.236 -0.2994 -0.3393 -0.5680
 2909SOL    HW120189   3.502   0.282   5.195  0.4889  0.8290  0.0465
 2909SOL    HW220190   3.510   0.140   5.239 -3.7228  1.8748 -0.5685
 2910SOL     OW20191   4.517   0.957   6.524 -0.0721  0.0883 -0.4752
 2910SOL    HW120192   4.493   0.899   6.596  0.2783  0.9403  0.3226
 2910SOL    HW220193   4.521   1.040   6.572 -1.0612  0.0016 -0.2483
 2911SOL     OW20194   0.098   4.574   8.755  0.2859  0.7088 -0.2703
 2911SOL    HW120195   0.046   4.495   8.743  1.7866 -0.0034 -2.0796
 2911SOL    HW220196   0.188   4.540   8.757  1.0412  2.5777 -1.5321
 2912SOL     OW20197   0.437   0.435   6.211 -0.3916 -0.2592  0.2563
 2912SOL    HW120198   0.468   0.430   6.120 -0.3525 -0.9415  0.3086
 2912SOL    HW220199   0.515   0.467   6.257  1.8848 -1.6198 -2.6503
 2913SOL     OW20200   0.930   3.749  15.377  0.5833 -0.4863 -0.4339
 2913SOL    HW120201   0.937   3.653  15.374 -1.7380 -0.7219  1.3258
 2913SOL    HW220202   1.007   3.769  15.326 -0.0961 -0.5394 -1.4783
 2914SOL     OW20203   1.112   2.543  15.732 -0.1946  0.0675  0.5758
 2914SOL    HW120204   1.120   2.575  15.642  0.2866 -2.4824 -0.2849
 2914SOL    HW220205   1.137   2.621  15.783 -1.7082  0.3042  0.9429
 2915SOL     OW20206   0.613   3.316   7.291 -0.4597 -0.4012 -0.7286
 2915SOL    HW120207   0.682   3.379   7.269 -1.5435  0.7712 -0.8438
 2915SOL    HW220208   0.601   3.271   7.207 -1.9990 -1.9749  0.3379
 2916SOL     OW20209   3.027   4.412  13.883  0.4412 -0.1749 -0.1794
 2916SOL    HW120210   3.089   4.347  13.916 -0.4746 -0.0127  1.8902
 2916SOL    HW220211   3.009   4.458  13.965 -1.0734  1.1924 -1.2914
 2917SOL     OW20212   1.793   0.615   8.149  0.4776 -0.3480 -0.4723
 2917SOL    HW120213   1.763   0.546   8.208 -0.7634 -0.4253 -1.1961
 2917SOL    HW220214   1.743   0.688   8.183  1.1235  0.0102 -0.2958
 2918SOL     OW20215   0.612   1.173   6.891  0.6778  0.4153  0.0306
 2918SOL    HW120216   0.541   1.150   6.951 -0.9262  1.5070 -1.4584
 2918SOL    HW220217   0.622   1.268   6.891 -1.4141  0.6336 -0.3705
 2919SOL     OW20218   1.821   2.508   3.092  0.1524 -0.0060 -0.0570
 2919SOL    HW120219   1.731   2.528   3.117  0.0572  0.0125 -0.4180
 2919SOL    HW220220   1.808   2.532   3.000 -0.1765  0.5280  0.1305
 2920SOL     OW20221   1.689   3.955  11.201  0.0913 -0.2219 -0.0110
 2920SOL    HW120222   1.776   3.995  11.197 -0.4394  0.8158 -1.0967
 2920SOL    HW220223   1.641   4.031  11.231  0.0254 -0.2872  0.0488
 2921SOL     OW20224   4.297   3.864  15.204  0.6318 -0.4998  0.1043
 2921SOL    HW120225   4.329   3.821  15.284 -0.4033 -1.0589  0.2207
 2921SOL    HW220226   4.370   3.836  15.150  1.1453 -0.6281  0.8582
 2922SOL     OW20227   0.276   2.386   7.315  0.2757 -0.1569  0.6332
 2922SOL    HW120228   0.333   2.415   7.386 -0.0735 -1.2779  1.3687
 2922SOL    HW220229   0.219   2.331   7.369  1.8641  0.4236  2.9172
 2923SOL     OW20230   1.489   1.653  14.510 -0.9165 -0.0664  0.2120
 2923SOL    HW120231   1.548   1.708  14.561  0.0445 -1.8942  1.0359
 2923SOL    HW220232   1.440   1.628  14.588  0.7092 -2.4165  0.4631
 2924SOL     OW20233   0.315   1.677  13.471 -0.1905  0.0046 -1.0815
 2924SOL    HW120234   0.378   1.725  13.524 -0.6598 -0.0073 -0.5137
 2924SOL    HW220235   0.325   1.585  13.496 -1.2744  0.3915  0.7361
 2925SOL     OW20236   1.398   3.376   9.264  0.3953 -0.1448 -0.2333
 2925SOL    HW120237   1.393   3.416   9.177 -0.3988 -1.1864 -0.6595
 2925SOL    HW220238   1.483   3.414   9.289  1.6222 -1.8709 -1.8444
 2926SOL     OW20239   3.573   1.566   6.656 -0.3821 -0.1439 -0.0219
 2926SOL    HW120240   3.622   1.647   6.638 -1.1541  1.2468  4.1665
 2926SOL    HW220241   3.552   1.545   6.565  1.2981 -0.7617 -0.2635
 2927SOL     OW20242   2.705   2.465   6.936 -0.5061 -0.3259 -0.3069
 2927SOL    HW120243   2.624   2.514   6.949 -0.7302 -0.5258 -0.9540
 2927SOL    HW220244   2.754   2.529   6.885 -0.4078 -0.4803 -0.4056
 2928SOL     OW20245   1.700   3.591   5.029 -0.1039  0.1177  0.1722
 2928SOL    HW120246   1.682   3.497   5.034  0.5416  0.1049  2.1304
 2928SOL    HW220247   1.789   3.607   4.998  0.0041 -0.1618  0.3387
 2929SOL     OW20248   2.837   3.692   1.638 -0.5483  0.3347  0.6048
 2929SOL    HW120249   2.823   3.767   1.580 -2.0589 -0.2353  0.2422
 2929SOL    HW220250   2.919   3.656   1.604 -0.7436  0.3895  0.0790
 2930SOL     OW20251   1.557   1.545   2.293 -0.7072  0.2404  0.4006
 2930SOL    HW120252   1.572   1.629   2.337 -0.2115  0.7692 -0.7585
 2930SOL    HW220253   1.627   1.488   2.324 -1.2116  0.2628  1.5965
 2931SOL     OW20254   0.371   4.614   5.935  0.3056  0.7582  0.1465
 2931SOL    HW120255   0.378   4.645   6.025 -1.0698 -0.8111  0.7889
 2931SOL    HW220256   0.461   4.635   5.908  0.4147  0.4555  0.2783
 2932SOL     OW20257   3.146   1.763  10.214 -0.3987  0.0877  0.2271
 2932SOL    HW120258   3.136   1.801  10.301  0.4543 -0.5823  0.6255
 2932SOL    HW220259   3.059   1.726  10.201 -0.6828  0.7715  0.2105
 2933SOL     OW20260   1.340   1.759   2.041  0.5424  0.2072 -0.3725
 2933SOL    HW120261   1.340   1.831   2.105  1.3925  1.1351 -1.4197
 2933SOL    HW220262   1.339   1.800   1.955  0.8885 -0.4411 -0.6857
 2934SOL     OW20263   0.741   2.870   7.528 -0.5209 -0.1176 -0.9578
 2934SOL    HW120264   0.664   2.917   7.559  0.3094  0.9702 -0.5317
 2934SOL    HW220265   0.733   2.854   7.434 -1.9232  1.5166 -1.1140
 2935SOL     OW20266   2.547   1.736   2.859 -0.2829  0.5930  0.0832
 2935SOL    HW120267   2.611   1.715   2.927 -2.5287 -1.2527  1.6175
 2935SOL    HW220268   2.601   1.775   2.790  2.6112 -2.3018  0.6888
 2936SOL     OW20269   4.175   4.492  15.658 -0.6803 -0.1851 -0.0651
 2936SOL    HW120270   4.194   4.535  15.741 -1.0669  0.8400 -0.5052
 2936SOL    HW220271   4.085   4.466  15.677 -1.2234  3.1762  1.9764
 2937SOL     OW20272   1.791   1.442   8.031  0.7212  0.4382 -0.3875
 2937SOL    HW120273   1.738   1.504   8.081 -0.6607 -1.3761  0.4305
 2937SOL    HW220274   1.871   1.487   8.004  1.8428 -1.6329 -0.5790
 2938SOL     OW20275   2.912   2.431   1.720  0.2528  0.4469 -0.4470
 2938SOL    HW120276   2.850   2.504   1.721 -0.8853 -0.5221 -2.0805
 2938SOL    HW220277   2.862   2.350   1.714  0.0758  0.4852  0.4128
 2939SOL     OW20278   2.985   1.859   2.634 -0.1956  0.4437 -0.1274
 2939SOL    HW120279   3.055   1.917   2.665 -0.7043  1.7114 -1.3278
 2939SOL    HW220280   3.003   1.859   2.540  0.8127  1.2820  0.0541
 2940SOL     OW20281   1.400   3.474   9.026 -0.7076 -0.3182  0.0377
 2940SOL    HW120282   1.452   3.458   8.947  0.3009  1.2707  0.3924
 2940SOL    HW220283   1.320   3.486   8.974  0.2845  1.1462 -1.1510
 2941SOL     OW20284   0.390   1.509   2.898  0.0780  0.0860 -0.3985
 2941SOL    HW120285   0.426   1.449   2.833  0.1485 -0.0179 -0.2629
 2941SOL    HW220286   0.465   1.544   2.946  0.0932 -1.1296  0.4640
 2942SOL     OW20287   3.929   4.492   2.998 -0.1714  0.4725  0.3711
 2942SOL    HW120288   3.921   4.407   3.040  0.8244 -0.2007 -0.7925
 2942SOL    HW220289   4.012   4.477   2.953 -0.0130  1.0097  0.4783
 2943SOL     OW20290   3.541   3.211   3.039  0.7142 -0.2928 -0.0933
 2943SOL    HW120291   3.624   3.187   2.998  0.3768  0.1973 -1.0555
 2943SOL    HW220292   3.511   3.283   2.983 -1.8042 -0.5431  0.9089
 2944SOL     OW20293   4.413   3.582   3.678  0.1405 -0.2029 -0.4149
 2944SOL    HW120294   4.426   3.490   3.657  1.3794 -0.7038  2.4775
 2944SOL    HW220295   4.462   3.596   3.760  3.4867  2.3295 -2.8345
 2945SOL     OW20296   0.847   1.688   4.807 -0.1182  0.4981  0.6669
 2945SOL    HW120297   0.809   1.625   4.745  1.8479  0.9217 -0.9730
 2945SOL    HW220298   0.840   1.639   4.889 -1.3576 -1.1740 -0.4299
 2946SOL     OW20299   0.549   2.294  11.366  0.9256 -0.7201 -0.4638
 2946SOL    HW120300   0.557   2.199  11.358 -0.1906 -0.8297 -0.3547
 2946SOL    HW220301   0.456   2.316  11.359  0.9772 -0.3851 -0.1009
 2947SOL     OW20302   2.187   0.512  16.825  0.0766  0.1300 -0.6592
 2947SOL    HW120303   2.113   0.560  16.863  1.5027  1.8762 -0.0939
 2947SOL    HW220304   2.263   0.537  16.878 -1.3121  1.0908  0.8945
 2948SOL     OW20305   2.618   0.497   5.119 -0.0252 -0.1001 -0.2724
 2948SOL    HW120306   2.657   0.572   5.073 -0.8268 -0.9418 -2.3337
 2948SOL    HW220307   2.562   0.459   5.051 -1.4827 -1.3706  1.6481
 2949SOL     OW20308   1.509   3.319  17.272 -0.0220  0.1132  0.2161
 2949SOL    HW120309   1.482   3.389  17.332 -1.2368  0.4560 -0.7222
 2949SOL    HW220310   1.599   3.349  17.259  0.4721 -0.1456  3.1133
 2950SOL     OW20311   1.793   4.465  17.400 -0.0778 -0.3141  0.1624
 2950SOL    HW120312   1.791   4.557  17.376  0.8961 -0.4681 -0.4807
 2950SOL    HW220313   1.876   4.466  17.447  0.4980  0.5234 -0.8882
 2951SOL     OW20314   1.251   1.614   0.799  0.0218  0.2969  0.2181
 2951SOL    HW120315   1.231   1.676   0.869  2.8140  0.5010  0.8520
 2951SOL    HW220316   1.166   1.609   0.755 -1.2977  3.7308  2.3765
 2952SOL     OW20317   3.046   4.132   0.722 -0.0394  0.3073  0.4359
 2952SOL    HW120318   3.096   4.199   0.676  0.7167 -0.2995  0.3673
 2952SOL    HW220319   2.967   4.145   0.669 -0.3921  0.8623  1.0958
 2953SOL     OW20320   2.096   2.637   2.493 -0.1030 -0.0627  0.0650
 2953SOL    HW120321   2.171   2.609   2.440 -0.5795 -0.3052 -0.4835
 2953SOL    HW220322   2.071   2.716   2.445 -0.2635 -0.4064 -0.4229
 2954SOL     OW20323   1.546   4.712  10.883  0.3046 -0.3428  0.0864
 2954SOL    HW120324   1.576   4.668  10.803  0.6761 -1.4701  0.8480
 2954SOL    HW220325   1.498   4.642  10.928  0.7181 -1.0687 -0.6024
 2955SOL     OW20326   1.400   1.149   0.127  0.0994  0.1454 -0.2777
 2955SOL    HW120327   1.317   1.159   0.080 -0.4787  0.3631  0.7859
 2955SOL    HW220328   1.429   1.240   0.117  0.3410  0.0562 -0.3818
 2956SOL     OW20329   0.290   3.598   2.357 -0.6084  0.3167  0.2431
 2956SOL    HW120330   0.212   3.632   2.313  0.0887  1.9630  0.2734
 2956SOL    HW220331   0.354   3.630   2.293 -1.2568  1.3339  0.1087
 2957SOL     OW20332   2.971   0.733   8.310 -0.3771 -1.1304 -0.5821
 2957SOL    HW120333   3.008   0.650   8.280  0.8804  0.2318 -2.7762
 2957SOL    HW220334   3.043   0.787   8.340 -1.8680  0.8791 -0.6310
 2958SOL     OW20335   1.701   3.263   5.494  0.2287  0.2483  0.3328
 2958SOL    HW120336   1.759   3.247   5.568 -0.4799 -0.0338  0.8235
 2958SOL    HW220337   1.714   3.189   5.435  2.0407 -0.0239  1.0906
 2959SOL     OW20338   0.746   0.706   2.445  0.8529  0.4166 -0.4838
 2959SOL    HW120339   0.651   0.707   2.437  0.8093 -0.4484 -0.0155
 2959SOL    HW220340   0.756   0.631   2.503  0.3021 -0.9535 -2.1626
 2960SOL     OW20341   1.591   2.224   2.320  0.8979 -0.6196 -0.0263
 2960SOL    HW120342   1.601   2.313   2.289 -0.8315 -0.4896 -0.2093
 2960SOL    HW220343   1.580   2.158   2.251 -0.4914 -1.2778  0.8024
 2961SOL     OW20344   4.671   3.932   1.970 -0.0670 -0.3355  0.3046
 2961SOL    HW120345   4.614   3.966   1.901 -2.4363 -1.6441  1.6317
 2961SOL    HW220346   4.717   4.015   1.983  0.2050 -0.4519  0.0945
 2962SOL     OW20347   1.542   3.366   6.743  0.2815 -0.5421  0.2370
 2962SOL    HW120348   1.466   3.317   6.711  0.0491 -1.9540  2.9269
 2962SOL    HW220349   1.610   3.344   6.679 -0.2626 -0.5545 -0.3408
 2963SOL     OW20350   2.170   4.276   7.617 -0.3158  0.1080 -0.0030
 2963SOL    HW120351   2.078   4.251   7.610 -0.6878  0.8326  2.0120
 2963SOL    HW220352   2.210   4.192   7.597  0.4138  0.0654  1.6133
 2964SOL     OW20353   3.692   4.479   8.694 -0.3758  0.6087 -0.2479
 2964SOL    HW120354   3.777   4.520   8.681  0.2798 -1.2825 -1.7561
 2964SOL    HW220355   3.706   4.425   8.772 -2.6056 -2.1926 -1.8264
 2965SOL     OW20356   2.416   3.994   4.279 -0.4786  0.0546  0.0658
 2965SOL    HW120357   2.354   3.996   4.205  1.9269 -0.9683 -1.9878
 2965SOL    HW220358   2.482   4.055   4.244 -0.9379 -0.9117 -2.4922
 2966SOL     OW20359   2.666   2.331   1.178 -0.2112  0.4986  0.1517
 2966SOL    HW120360   2.627   2.417   1.195 -1.7425 -0.4280  1.3410
 2966SOL    HW220361   2.691   2.344   1.086 -2.5550  1.2741 -0.3782
 2967SOL     OW20362   2.029   0.271  13.787 -0.6201  0.9631 -0.4786
 2967SOL    HW120363   1.972   0.280  13.864 -0.4105 -2.1720  0.0603
 2967SOL    HW220364   2.082   0.193  13.807  0.6561  1.6105 -1.3917
 2968SOL     OW20365   0.565   1.797   4.270 -0.0866 -0.5045  0.4262
 2968SOL    HW120366   0.570   1.728   4.336 -1.6744 -1.8205 -0.8153
 2968SOL    HW220367   0.503   1.855   4.315  1.5507  0.7690  1.0515
 2969SOL     OW20368   1.270   3.510  13.881  0.2670 -0.1288  0.3112
 2969SOL    HW120369   1.365   3.501  13.876  0.2416 -0.2531  0.0077
 2969SOL    HW220370   1.265   3.423  13.920  0.5857  0.0639  0.7747
 2970SOL     OW20371   1.240   0.194   1.490  0.1256 -0.3442 -0.0631
 2970SOL    HW120372   1.319   0.248   1.487  1.2280 -1.9235  0.5994
 2970SOL    HW220373   1.213   0.188   1.398 -3.3136 -0.1039  0.9267
 2971SOL     OW20374   1.975   2.921   8.739 -0.2202 -0.3185 -0.5833
 2971SOL    HW120375   2.055   2.953   8.699 -1.8088  1.7568 -2.1315
 2971SOL    HW220376   1.928   2.904   8.657 -2.8461  0.1438  0.8191
 2972SOL     OW20377   3.146   1.492   6.309 -0.0722  0.0910 -0.6593
 2972SOL    HW120378   3.228   1.521   6.347  0.3707 -0.1792 -1.4154
 2972SOL    HW220379   3.144   1.549   6.232 -1.1450 -0.0576 -0.7502
 2973SOL     OW20380   3.189   1.133   5.609  0.0153 -0.0224 -0.7454
 2973SOL    HW120381   3.182   1.207   5.550  0.2199  0.0300 -0.7018
 2973SOL    HW220382   3.262   1.090   5.565 -0.0120  1.7556 -2.5221
 2974SOL     OW20383   3.408   4.694   4.061  0.5733  0.4184  0.7438
 2974SOL    HW120384   3.313   4.703   4.061  0.4656 -0.7290 -3.9082
 2974SOL    HW220385   3.412   4.607   4.101  3.3296  0.1530 -0.0514
 2975SOL     OW20386   0.059   1.445  12.619  0.0773 -0.7281 -0.0552
 2975SOL    HW120387   0.068   1.402  12.534 -1.4739  2.4863 -1.8602
 2975SOL    HW220388   0.141   1.424  12.663  1.6218 -0.1297 -2.7027
 2976SOL     OW20389   4.563   1.992   0.702 -0.8181 -0.0908 -0.6186
 2976SOL    HW120390   4.651   2.030   0.707 -0.3647 -0.9436 -1.9493
 2976SOL    HW220391   4.508   2.070   0.691 -1.1985 -0.3783 -0.7429
 2977SOL     OW20392   2.129   4.279   2.343  0.1674 -0.3135 -0.4898
 2977SOL    HW120393   2.186   4.355   2.328  0.7369 -0.8027 -0.8290
 2977SOL    HW220394   2.044   4.320   2.328  0.0030 -0.3750  0.2866
 2978SOL     OW20395   2.686   1.920  15.464  0.2369 -0.1683 -0.4970
 2978SOL    HW120396   2.684   1.913  15.560 -0.5637  1.9989 -0.3654
 2978SOL    HW220397   2.613   1.979  15.448  1.3016  0.7970 -1.7329
 2979SOL     OW20398   0.549   2.871   8.287  0.0349 -0.6661  0.2606
 2979SOL    HW120399   0.621   2.889   8.227  1.5015 -0.0185  2.2306
 2979SOL    HW220400   0.491   2.807   8.246  1.1224 -1.5046  0.0365
 2980SOL     OW20401   3.766   3.318   9.869  0.2093  0.4120  0.4732
 2980SOL    HW120402   3.672   3.332   9.880 -0.3937 -1.9016 -1.8550
 2980SOL    HW220403   3.800   3.325   9.958 -1.5567 -0.6884  1.2351
 2981SOL     OW20404   4.182   2.423   5.285  0.0279  0.0465  0.0941
 2981SOL    HW120405   4.099   2.413   5.238  0.0696  0.2131 -0.0178
 2981SOL    HW220406   4.176   2.512   5.319 -1.0194 -0.5679  1.5008
 2982SOL     OW20407   3.950   2.570   1.936 -0.1312 -0.2660 -0.3558
 2982SOL    HW120408   3.940   2.664   1.950 -0.1752 -0.7141  2.5465
 2982SOL    HW220409   4.038   2.582   1.901  0.2411 -2.9718 -0.3627
 2983SOL     OW20410   2.866   3.624  17.663  0.1404 -0.0461 -0.2201
 2983SOL    HW120411   2.899   3.670   0.053 -0.1054  0.2290 -0.2804
 2983SOL    HW220412   2.948   3.585  17.633  0.6572 -2.1925  3.9270
 2984SOL     OW20413   4.058   0.212   5.570 -0.2254  0.2515 -0.5978
 2984SOL    HW120414   4.104   0.128   5.577  0.5693  0.8692  1.8364
 2984SOL    HW220415   3.977   0.172   5.603  0.0953 -0.2578 -0.4238
 2985SOL     OW20416   3.818   2.794   3.867  0.3812  0.9330 -0.1124
 2985SOL    HW120417   3.816   2.769   3.959  1.2986 -0.8796 -0.5928
 2985SOL    HW220418   3.846   2.886   3.864  0.6196  0.8800  0.4041
 2986SOL     OW20419   3.894   3.006  14.098 -0.3306  0.2262 -0.1579
 2986SOL    HW120420   3.803   3.018  14.124 -1.5620 -1.0761 -3.9665
 2986SOL    HW220421   3.915   3.085  14.049 -3.1471  1.3363  0.4495
 2987SOL     OW20422   4.504   0.182  16.698  0.2538  0.2698  0.6209
 2987SOL    HW120423   4.587   0.193  16.745 -0.1686 -0.0182  1.4286
 2987SOL    HW220424   4.443   0.156  16.767 -1.5713 -2.7738 -2.1270
 2988SOL     OW20425   3.702   3.498   7.142 -0.2045 -0.2125 -0.0170
 2988SOL    HW120426   3.727   3.569   7.082  0.1302  0.8524  1.3934
 2988SOL    HW220427   3.609   3.522   7.137 -0.6620 -1.8336  0.8721
 2989SOL     OW20428   0.234   0.789  14.947 -0.4335  0.5252 -0.0518
 2989SOL    HW120429   0.240   0.721  14.880  1.0402  2.7208 -2.1673
 2989SOL    HW220430   0.143   0.815  14.937 -0.4815  1.0672  1.7769
 2990SOL     OW20431   1.413   3.713   7.084 -0.2221 -0.3449  0.1955
 2990SOL    HW120432   1.450   3.706   7.172  0.1769  0.7869  0.1204
 2990SOL    HW220433   1.433   3.627   7.047 -2.2999 -0.6181 -0.2843
 2991SOL     OW20434   1.841   1.530   2.695  0.3140 -0.3999 -0.1216
 2991SOL    HW120435   1.849   1.624   2.677 -3.9626  0.4760  2.6747
 2991SOL    HW220436   1.751   1.530   2.727 -0.8709 -0.4020 -3.3922
 2992SOL     OW20437   3.576   1.085   0.371  0.1177  0.0720 -0.0104
 2992SOL    HW120438   3.577   1.177   0.345 -2.0968  0.3688  0.9996
 2992SOL    HW220439   3.633   1.044   0.305 -0.1133  2.6108 -1.7623
 2993SOL     OW20440   0.901   2.994   2.461 -0.7790 -0.4771 -0.4666
 2993SOL    HW120441   0.935   2.965   2.376 -2.6248 -2.2303 -0.6289
 2993SOL    HW220442   0.936   3.083   2.462  1.0506 -1.1962 -0.7035
 2994SOL     OW20443   2.640   2.939  17.568  0.3252  0.5400 -0.1232
 2994SOL    HW120444   2.621   2.887  17.646 -1.8068 -1.9594 -2.2864
 2994SOL    HW220445   2.716   2.993  17.588  0.9835 -1.3458  2.4695
 2995SOL     OW20446   2.713   3.339   8.574  0.3272  0.3862 -0.1487
 2995SOL    HW120447   2.716   3.425   8.533  0.9438  0.5406  0.2178
 2995SOL    HW220448   2.623   3.344   8.605  0.4791  0.5546  0.2686
 2996SOL     OW20449   3.827   0.611   7.134 -0.1241  0.3623 -0.4932
 2996SOL    HW120450   3.752   0.605   7.075  0.1423 -1.5651 -0.6475
 2996SOL    HW220451   3.834   0.522   7.169  0.1710 -0.1810 -1.9735
 2997SOL     OW20452   2.955   2.426   7.557  0.1945 -0.2537  0.2554
 2997SOL    HW120453   2.907   2.371   7.619  0.7321  1.4588  2.1972
 2997SOL    HW220454   3.011   2.479   7.614 -0.9500  1.0362  0.1908
 2998SOL     OW20455   0.167   2.631   1.843 -0.0058 -0.3238  0.0772
 2998SOL    HW120456   0.165   2.717   1.801 -1.6775 -0.6204 -0.4400
 2998SOL    HW220457   0.254   2.630   1.883 -0.9886  0.4681  2.2824
 2999SOL     OW20458   1.483   1.722  14.225 -0.3347  0.3781 -0.1763
 2999SOL    HW120459   1.505   1.809  14.257 -1.8759  1.5051 -2.1829
 2999SOL    HW220460   1.454   1.683  14.307  0.0530 -0.4951 -0.4527
 3000SOL     OW20461   2.324   0.097   6.989  0.1294  0.0735  0.0460
 3000SOL    HW120462   2.378   0.077   6.912 -1.3361  2.6442 -1.6692
 3000SOL    HW220463   2.281   0.180   6.965  1.7280  1.5622  2.2914
 3001SOL     OW20464   3.693   4.564   6.564  0.4924  0.3996  0.0409
 3001SOL    HW120465   3.729   4.501   6.501 -1.4401  0.5630 -1.2171
 3001SOL    HW220466   3.723   4.648   6.529  3.0601  0.0586  1.4009
 3002SOL     OW20467   3.616   1.108   8.238  0.1879  0.2247 -0.8614
 3002SOL    HW120468   3.655   1.144   8.317  1.8581  0.1586 -1.6541
 3002SOL    HW220469   3.622   1.178   8.172  0.9779  2.0225  1.1323
 3003SOL     OW20470   0.350   4.192  17.419  0.1111  0.0098  0.5396
 3003SOL    HW120471   0.337   4.250  17.494 -1.8700  1.1141 -0.6482
 3003SOL    HW220472   0.328   4.253  17.348  2.2028  0.5439  0.3287
 3004SOL     OW20473   3.493   0.768   0.935 -0.5186 -0.9098 -0.2581
 3004SOL    HW120474   3.491   0.743   0.843 -1.0656 -2.4530  0.1774
 3004SOL    HW220475   3.564   0.709   0.964 -0.7257 -0.3733  1.3566
 3005SOL     OW20476   0.683   3.271   9.089  0.0228 -0.5477 -0.0492
 3005SOL    HW120477   0.694   3.308   9.177  1.1046  1.8429 -1.1839
 3005SOL    HW220478   0.771   3.252   9.057  0.0948  0.7806 -0.6835
 3006SOL     OW20479   1.578   0.139   1.345 -0.1396 -0.0889 -0.9104
 3006SOL    HW120480   1.585   0.093   1.429  0.5550 -0.3233 -1.0960
 3006SOL    HW220481   1.574   0.223   1.390  3.4969 -1.2727  1.6398
 3007SOL     OW20482   4.174   3.242   4.346  0.1089  0.3625  0.0479
 3007SOL    HW120483   4.136   3.278   4.426  2.5315  0.8040  1.0126
 3007SOL    HW220484   4.220   3.162   4.374  0.3949  0.4514 -0.1628
 3008SOL     OW20485   4.076   3.728  11.490 -0.2735 -0.7594 -0.3231
 3008SOL    HW120486   4.082   3.817  11.454  0.7124  0.4130  2.6933
 3008SOL    HW220487   4.000   3.727  11.548  2.0406  0.6211  2.7506
 3009SOL     OW20488   1.412   1.438  11.427 -0.1118 -0.2442 -0.0070
 3009SOL    HW120489   1.489   1.481  11.390 -0.3141  1.0732  1.0844
 3009SOL    HW220490   1.435   1.345  11.432 -2.2488 -0.7952 -0.5432
 3010SOL     OW20491   4.145   3.912   8.578  0.2659  0.1633  0.7410
 3010SOL    HW120492   4.094   3.955   8.509  1.5310 -0.3854 -0.5257
 3010SOL    HW220493   4.077   3.901   8.644 -0.6279  0.5395 -0.1065
 3011SOL     OW20494   4.195   1.392  14.248 -0.0140  0.2046 -0.9106
 3011SOL    HW120495   4.186   1.350  14.333  0.3618  0.5391 -0.7069
 3011SOL    HW220496   4.192   1.486  14.266  2.8389 -0.5666  3.3537
 3012SOL     OW20497   1.404   0.484  12.469 -0.4149  0.4421 -0.5488
 3012SOL    HW120498   1.452   0.509  12.548  1.7998 -2.2806 -1.0277
 3012SOL    HW220499   1.323   0.535  12.476 -0.2874  0.6797 -0.7845
 3013SOL     OW20500   3.549   0.764   3.954 -0.0351  0.0325  0.5300
 3013SOL    HW120501   3.595   0.763   4.038  0.2589  0.1977  0.3698
 3013SOL    HW220502   3.505   0.679   3.956 -1.0969  0.6230  2.3250
 3014SOL     OW20503   4.270   3.499  10.891  0.1963  0.3299 -0.9762
 3014SOL    HW120504   4.276   3.482  10.985  0.8885 -2.0136 -1.4638
 3014SOL    HW220505   4.359   3.532  10.876  0.5147  0.4869  1.1971
 3015SOL     OW20506   2.981   1.625   6.961 -0.5809  0.5759 -0.5584
 3015SOL    HW120507   2.899   1.579   6.979 -1.6764  2.8813  0.3146
 3015SOL    HW220508   2.958   1.716   6.941  3.8438  1.5892 -1.1609
 3016SOL     OW20509   2.745   1.934   7.826  0.0249 -0.0207 -0.0646
 3016SOL    HW120510   2.680   1.944   7.756  0.8324 -0.7789 -0.9167
 3016SOL    HW220511   2.773   1.843   7.816  0.6746  0.1572  0.1336
 3017SOL     OW20512   1.659   0.771   6.988 -0.8358 -0.1217  0.3720
 3017SOL    HW120513   1.670   0.724   6.905  0.9791  0.9996 -0.0137
 3017SOL    HW220514   1.620   0.702   7.043  1.0181 -1.6762 -0.2433
 3018SOL     OW20515   1.311   4.274   8.879  0.2092 -0.1717 -0.1369
 3018SOL    HW120516   1.285   4.304   8.792  1.4931 -0.4398 -0.6055
 3018SOL    HW220517   1.342   4.353   8.923 -1.2633 -0.9568  2.3396
 3019SOL     OW20518   4.510   0.848   3.450  0.2187 -0.2951  0.3587
 3019SOL    HW120519   4.593   0.860   3.497 -0.2558  0.4053  0.9952
 3019SOL    HW220520   4.513   0.911   3.378  0.1176 -0.7128 -0.0121
 3020SOL     OW20521   2.144   0.889   7.686  0.3599 -0.2355 -0.7067
 3020SOL    HW120522   2.194   0.886   7.767 -0.6379  0.8687 -0.0353
 3020SOL    HW220523   2.058   0.899   7.728  1.0154 -0.3614  0.6818
 3021SOL     OW20524   4.192   3.935  11.189 -0.1247  0.2862  0.2115
 3021SOL    HW120525   4.119   3.990  11.160 -0.7345 -1.7219 -2.0073
 3021SOL    HW220526   4.161   3.846  11.201 -1.6155  0.8660  0.6044
 3022SOL     OW20527   0.933   0.800   4.353  0.2264 -0.2995  0.2589
 3022SOL    HW120528   0.847   0.828   4.384 -0.3866 -2.6341  0.6866
 3022SOL    HW220529   0.968   0.888   4.340 -1.6037  0.7039  2.2005
 3023SOL     OW20530   0.499   1.174   2.134  0.0113 -0.6367 -0.4607
 3023SOL    HW120531   0.405   1.190   2.147 -0.1124 -2.2709  0.7731
 3023SOL    HW220532   0.513   1.079   2.136  1.7744 -0.3270  1.3212
 3024SOL     OW20533   0.890   0.440   6.537 -0.0376 -0.1702 -0.4296
 3024SOL    HW120534   0.945   0.519   6.538  0.3403 -0.4096 -3.6603
 3024SOL    HW220535   0.880   0.432   6.443 -1.3899 -2.1232 -0.1235
 3025SOL     OW20536   2.805   4.038   7.893 -0.0076 -0.0732  0.1958
 3025SOL    HW120537   2.810   3.952   7.936  2.1156 -0.6451 -1.1575
 3025SOL    HW220538   2.879   4.083   7.934 -0.8579 -0.2455  1.9273
 3026SOL     OW20539   4.677   3.881   6.474 -0.5972 -0.0139 -0.5212
 3026SOL    HW120540   4.671   3.842   6.561 -0.7312 -1.2747 -1.1014
 3026SOL    HW220541   4.703   3.806   6.421  0.8474  1.0669 -1.3457
 3027SOL     OW20542   1.279   0.256   2.280 -0.8113 -0.1883 -0.1201
 3027SOL    HW120543   1.241   0.184   2.330  1.7481 -2.6042 -1.6657
 3027SOL    HW220544   1.265   0.231   2.189  1.6219 -1.7290 -0.0741
 3028SOL     OW20545   0.507   3.158  16.859 -0.4307  0.3833  0.3961
 3028SOL    HW120546   0.414   3.178  16.872 -0.6648 -1.0480  0.8880
 3028SOL    HW220547   0.540   3.241  16.824 -1.4052  0.8980  0.6665
 3029SOL     OW20548   2.569   3.034   4.762 -0.9003 -0.6656  0.1235
 3029SOL    HW120549   2.607   3.015   4.848 -1.8146  3.2859  1.3962
 3029SOL    HW220550   2.605   3.119   4.736  0.0646 -1.2984 -0.6350
 3030SOL     OW20551   0.406   1.505  12.593  0.4030 -0.7264  0.3932
 3030SOL    HW120552   0.362   1.585  12.565  1.1171 -0.1573  0.8798
 3030SOL    HW220553   0.470   1.489  12.523 -1.0006 -0.1025 -1.0379
 3031SOL     OW20554   0.362   1.403   0.332  0.1188 -0.1024 -0.2868
 3031SOL    HW120555   0.403   1.432   0.413  1.1874  1.8468 -1.4996
 3031SOL    HW220556   0.385   1.311   0.320 -0.5648 -0.3211  0.1074
 3032SOL     OW20557   1.969   2.595   9.297 -0.4270  0.1598 -0.1705
 3032SOL    HW120558   1.993   2.522   9.353  0.0953  1.3473  1.1561
 3032SOL    HW220559   1.984   2.549   9.214  1.4256 -0.2973  0.4292
 3033SOL     OW20560   3.272   4.179   5.806  0.5848 -0.1136  0.2821
 3033SOL    HW120561   3.329   4.163   5.731 -0.5625 -0.2907 -0.5451
 3033SOL    HW220562   3.187   4.168   5.765  1.3620 -3.4109 -0.4512
 3034SOL     OW20563   0.105   1.300   8.417  0.1149 -0.5393 -0.1477
 3034SOL    HW120564   0.093   1.386   8.456  1.3173  0.8758 -2.9081
 3034SOL    HW220565   0.123   1.250   8.496 -1.2410 -0.0700  0.4625
 3035SOL     OW20566   3.326   3.779  11.794 -0.1006  0.1625 -0.2536
 3035SOL    HW120567   3.255   3.718  11.816 -0.3763  0.3836 -0.5188
 3035SOL    HW220568   3.399   3.733  11.753 -0.3922  1.5624 -2.3705
 3036SOL     OW20569   0.490   3.338   3.461 -0.3744  0.2402  0.1092
 3036SOL    HW120570   0.540   3.411   3.425 -1.0113 -0.2721 -1.8188
 3036SOL    HW220571   0.424   3.322   3.393 -0.4267 -2.7193  0.8830
 3037SOL     OW20572   1.544   1.329   8.123  0.0388  0.6747  0.3095
 3037SOL    HW120573   1.497   1.412   8.133 -1.3729 -0.0056 -0.6734
 3037SOL    HW220574   1.635   1.351   8.141  0.8210 -2.5097  0.2580
 3038SOL     OW20575   0.937   4.251  17.261 -0.0665  0.0951  0.0321
 3038SOL    HW120576   0.848   4.251  17.225 -0.9950  3.2141  2.3256
 3038SOL    HW220577   0.934   4.162  17.296  1.9057  0.9480  2.3712
 3039SOL     OW20578   2.239   3.848   2.377  0.2051 -0.1971  0.1398
 3039SOL    HW120579   2.214   3.922   2.432  0.6661  0.7601 -0.9220
 3039SOL    HW220580   2.177   3.877   2.309  0.2087  0.0246  0.2297
 3040SOL     OW20581   4.657   0.643   5.580 -0.2876 -0.0588 -0.4376
 3040SOL    HW120582   0.001   0.609   5.518 -2.5937  1.7859 -3.8994
 3040SOL    HW220583   4.584   0.659   5.520  1.2846  0.3005 -2.2687
 3041SOL     OW20584   2.180   1.619  17.214  0.1635 -0.9547 -0.0138
 3041SOL    HW120585   2.215   1.694  17.166 -1.0220 -0.3596  0.0512
 3041SOL    HW220586   2.246   1.555  17.189 -0.4730 -1.0114 -1.5559
 3042SOL     OW20587   4.032   3.049   9.298 -0.6694 -0.4813  0.4845
 3042SOL    HW120588   3.943   3.014   9.295 -0.6521 -0.4133 -0.9174
 3042SOL    HW220589   4.081   2.966   9.296 -1.7553 -1.0623 -1.6024
 3043SOL     OW20590   0.132   0.260   7.726 -0.6559  0.0509  0.2235
 3043SOL    HW120591   0.187   0.322   7.775 -1.1812  1.3628 -0.8239
 3043SOL    HW220592   0.078   0.231   7.800 -2.4821  2.6383 -0.0924
 3044SOL     OW20593   0.916   0.126   8.562  0.0763 -0.1745 -0.2884
 3044SOL    HW120594   0.872   0.170   8.490  1.3813  1.9760  0.2046
 3044SOL    HW220595   0.903   0.173   8.645 -1.7403 -1.4345  0.1385
 3045SOL     OW20596   4.482   1.248  14.619 -0.1704 -0.4771  0.5306
 3045SOL    HW120597   4.398   1.267  14.578  0.3813  3.0441  1.0445
 3045SOL    HW220598   4.514   1.166  14.580 -0.0978  0.1490 -0.7317
 3046SOL     OW20599   2.868   0.813   5.592  0.2522  0.6051 -0.1133
 3046SOL    HW120600   2.908   0.742   5.542  1.0169  1.8696 -1.2817
 3046SOL    HW220601   2.936   0.829   5.657 -1.1815  2.4526  0.9355
 3047SOL     OW20602   3.050   0.624   3.151 -0.1052 -0.3967 -0.5034
 3047SOL    HW120603   3.001   0.673   3.217 -1.1088 -2.3366  0.2004
 3047SOL    HW220604   2.995   0.560   3.107 -0.4649 -0.3025 -0.1879
 3048SOL     OW20605   4.144   1.572   5.551  0.0210  0.1672  0.0623
 3048SOL    HW120606   4.086   1.518   5.604  0.9047  1.0968  1.9546
 3048SOL    HW220607   4.233   1.538   5.561  0.7070  2.3864  1.4545
 3049SOL     OW20608   4.273   3.732  16.995  0.2023 -0.4330  0.0315
 3049SOL    HW120609   4.353   3.712  16.947  2.1647  0.6802  2.8417
 3049SOL    HW220610   4.209   3.766  16.932  2.2450  1.7519 -0.8440
 3050SOL     OW20611   2.136   3.084   9.587 -0.0041  0.6576  0.0924
 3050SOL    HW120612   2.208   3.033   9.551 -0.3431 -0.8797  1.5678
 3050SOL    HW220613   2.072   3.034   9.537  0.7868 -0.2340 -0.0218
 3051SOL     OW20614   3.944   4.699   4.559 -0.2652  0.2378 -0.0169
 3051SOL    HW120615   3.965   0.017   4.474 -1.1013  3.3524  1.1991
 3051SOL    HW220616   4.009   0.012   4.620  0.5546 -0.6614 -0.3949
 3052SOL     OW20617   0.926   0.407   0.381 -0.2441 -0.1689  0.0803
 3052SOL    HW120618   0.939   0.501   0.366  0.6921  0.1572  2.9547
 3052SOL    HW220619   0.991   0.393   0.450  0.3868  0.8441 -0.3249
 3053SOL     OW20620   3.195   2.623  16.435 -0.0652 -0.0906 -0.1605
 3053SOL    HW120621   3.275   2.597  16.390  0.4340  0.1448  0.5906
 3053SOL    HW220622   3.191   2.718  16.423  2.8386  0.1591  0.9040
 3054SOL     OW20623   0.134   2.289  17.049 -0.4785 -0.3534 -0.1248
 3054SOL    HW120624   0.087   2.364  17.013 -0.3829 -0.6829 -0.9531
 3054SOL    HW220625   0.087   2.220  17.001 -2.6060 -1.0340  2.9553
 3055SOL     OW20626   2.958   4.342   8.606 -0.1007  0.2314  0.0640
 3055SOL    HW120627   2.892   4.274   8.607  0.1701 -0.0735 -1.4835
 3055SOL    HW220628   2.992   4.346   8.695  0.3465 -2.8013  0.0148
 3056SOL     OW20629   3.022   3.036   8.417  0.3901 -0.0683  0.7899
 3056SOL    HW120630   2.945   2.982   8.400  1.1974 -0.1853 -2.5323
 3056SOL    HW220631   2.978   3.089   8.483  0.6833 -1.3433  2.0241
 3057SOL     OW20632   1.766   0.154  12.938  0.1519 -0.1415 -0.0262
 3057SOL    HW120633   1.802   0.195  13.017 -1.0319 -0.3853  0.6331
 3057SOL    HW220634   1.760   0.238  12.894 -0.3326  0.3126  0.9104
 3058SOL     OW20635   0.737   1.490  14.689 -0.2788  0.1954 -0.3386
 3058SOL    HW120636   0.739   1.509  14.782 -1.7995 -0.7576 -0.1136
 3058SOL    HW220637   0.668   1.550  14.660 -2.4695 -2.1618 -0.0247
 3059SOL     OW20638   2.918   4.362   3.414 -0.6740 -0.3087  0.0296
 3059SOL    HW120639   2.840   4.407   3.381  0.0497  0.3733 -0.7669
 3059SOL    HW220640   2.887   4.320   3.494 -0.8477  0.6109  0.4467
 3060SOL     OW20641   3.158   3.035  12.790 -0.3386  0.1807 -0.4509
 3060SOL    HW120642   3.183   3.008  12.701  1.1399 -0.8597  0.2709
 3060SOL    HW220643   3.171   2.948  12.827 -0.7290  0.4717  0.3475
 3061SOL     OW20644   1.350   1.553  14.715  0.4257  0.7445  0.2178
 3061SOL    HW120645   1.271   1.525  14.669  0.6807  0.7158 -0.2028
 3061SOL    HW220646   1.309   1.572  14.800  0.1598  0.5430  0.1329
 3062SOL     OW20647   2.335   1.819   7.528  0.3761 -0.3322  0.1690
 3062SOL    HW120648   2.251   1.776   7.512  1.9827 -2.7772 -1.6277
 3062SOL    HW220649   2.387   1.763   7.471  0.3507 -0.1340 -0.0480
 3063SOL     OW20650   0.140   1.529   7.438 -0.4007  0.2885 -0.1816
 3063SOL    HW120651   0.138   1.511   7.532 -1.4867  0.7807 -0.1107
 3063SOL    HW220652   0.179   1.447   7.407 -1.1221 -0.5794  1.2078
 3064SOL     OW20653   3.578   1.279   9.406  0.0589 -0.0946  0.2209
 3064SOL    HW120654   3.534   1.264   9.323 -1.7600  0.6434  1.0697
 3064SOL    HW220655   3.549   1.364   9.438 -0.4762 -0.8543  1.7630
 3065SOL     OW20656   4.620   2.980   9.711 -0.1590 -0.2376  0.1707
 3065SOL    HW120657   4.605   2.962   9.618 -0.9131 -0.5102  0.3420
 3065SOL    HW220658   4.650   2.893   9.738  0.5987  0.5286  1.7946
 3066SOL     OW20659   2.326   1.766   2.362 -0.2628  0.1964 -0.0480
 3066SOL    HW120660   2.330   1.688   2.307 -1.8620  0.0626  0.0162
 3066SOL    HW220661   2.345   1.725   2.446  1.7992 -0.0547 -0.6416
 3067SOL     OW20662   1.597   3.260   3.605  0.0589  0.0842  0.6107
 3067SOL    HW120663   1.654   3.201   3.556 -0.0683  0.6143 -0.1757
 3067SOL    HW220664   1.612   3.334   3.547 -0.7019  1.9719  2.8397
 3068SOL     OW20665   4.244   0.704   4.338  0.2652 -0.8452 -0.3074
 3068SOL    HW120666   4.222   0.705   4.431 -0.8284 -1.7557 -0.5512
 3068SOL    HW220667   4.273   0.615   4.316  0.5964 -1.0323  0.9135
 3069SOL     OW20668   4.478   3.973   3.964 -0.2127 -0.7073  0.5313
 3069SOL    HW120669   4.533   3.901   3.933  0.2836  0.0353 -0.2815
 3069SOL    HW220670   4.421   3.996   3.891  1.0936 -2.1613 -0.9377
 3070SOL     OW20671   3.339   0.245   3.539  0.1213  0.3880  0.0690
 3070SOL    HW120672   3.387   0.203   3.468  0.7087  1.9304 -0.4642
 3070SOL    HW220673   3.386   0.327   3.554  0.4318  0.4527 -1.1799
 3071SOL     OW20674   1.990   2.628   7.852 -0.2224  0.2036 -0.3297
 3071SOL    HW120675   1.984   2.703   7.794 -0.4845  0.8323  0.5026
 3071SOL    HW220676   2.026   2.677   7.926  0.1137  2.4456 -1.9780
 3072SOL     OW20677   0.313   2.924   1.785 -0.1133  0.5462 -0.1612
 3072SOL    HW120678   0.242   2.986   1.801 -1.4291 -1.4527  1.7325
 3072SOL    HW220679   0.294   2.875   1.704  2.2418  0.7505 -0.8511
 3073SOL     OW20680   4.518   2.576   3.713 -0.7583 -0.1886  0.4073
 3073SOL    HW120681   4.556   2.578   3.626  0.9014 -1.6395  1.0941
 3073SOL    HW220682   4.590   2.610   3.766 -0.9293  0.6880  0.0776
 3074SOL     OW20683   0.771   4.528   8.081 -0.2853 -0.2403  0.4211
 3074SOL    HW120684   0.790   4.618   8.108 -2.3568 -0.0874  1.3553
 3074SOL    HW220685   0.856   4.509   8.040  0.5322  2.4888  0.8799
 3075SOL     OW20686   4.499   0.939  12.432  0.4120  0.2526 -0.7609
 3075SOL    HW120687   4.523   0.886  12.508 -2.8333  0.7840  0.6199
 3075SOL    HW220688   4.540   1.024  12.450  2.0397 -0.9557  1.3036
 3076SOL     OW20689   2.344   2.195  15.982 -0.6606  0.4151 -0.1364
 3076SOL    HW120690   2.270   2.138  15.964  1.2447 -1.7938 -0.8688
 3076SOL    HW220691   2.401   2.156  15.916  2.4149 -0.1855  2.8732
 3077SOL     OW20692   0.996   1.495   3.803 -0.0625 -0.6615 -0.3815
 3077SOL    HW120693   0.989   1.419   3.861 -1.1228 -0.3343 -0.0763
 3077SOL    HW220694   1.088   1.513   3.818 -0.3415 -1.5245  2.3601
 3078SOL     OW20695   4.671   4.219   7.415 -0.8717 -0.2573 -0.0061
 3078SOL    HW120696   4.645   4.257   7.499 -1.6513  1.7253 -1.1407
 3078SOL    HW220697   4.681   4.127   7.441 -0.5186 -0.0452  0.6213
 3079SOL     OW20698   4.576   0.736  12.263 -0.4892  0.6909 -0.1408
 3079SOL    HW120699   4.569   0.815  12.318  0.6499  0.6196  0.1083
 3079SOL    HW220700   4.504   0.681  12.291 -0.0903 -0.3854 -1.2558
 3080SOL     OW20701   1.220   2.558   9.211  0.3569 -0.7801 -0.3545
 3080SOL    HW120702   1.177   2.473   9.203 -0.4357 -0.3247 -0.8207
 3080SOL    HW220703   1.315   2.542   9.205  0.5292 -0.1747  0.6164
 3081SOL     OW20704   3.491   4.476   9.385 -0.3548 -0.2623 -0.1841
 3081SOL    HW120705   3.581   4.461   9.415 -0.5241 -3.0367 -1.0499
 3081SOL    HW220706   3.510   4.501   9.294 -2.0881 -1.9743 -1.0316
 3082SOL     OW20707   1.406   2.400   6.816  0.0559 -0.1369 -0.2212
 3082SOL    HW120708   1.362   2.476   6.778 -0.5273  0.3767  1.4730
 3082SOL    HW220709   1.495   2.429   6.836  0.0424  1.0074 -1.8034
 3083SOL     OW20710   3.347   2.234  14.819 -0.2728 -0.8154 -0.0851
 3083SOL    HW120711   3.312   2.177  14.887  2.8934 -2.1799  0.4204
 3083SOL    HW220712   3.325   2.320  14.856  1.2998 -0.0359 -0.9557
 3084SOL     OW20713   1.843   4.611   9.346 -0.4076  0.1723  0.3845
 3084SOL    HW120714   1.904   4.663   9.398 -0.3917  0.4950  0.0397
 3084SOL    HW220715   1.756   4.627   9.383 -0.3052  1.2753  0.1516
 3085SOL     OW20716   3.030   2.350   8.020 -0.1928  0.1013 -0.3881
 3085SOL    HW120717   3.112   2.380   8.059 -0.5569  0.5432  0.0282
 3085SOL    HW220718   2.980   2.432   8.021  0.5295  0.5374 -0.0704
 3086SOL     OW20719   0.426   0.692  14.514  0.4357 -0.4396 -0.1512
 3086SOL    HW120720   0.476   0.621  14.555 -0.6499 -1.8642 -1.2654
 3086SOL    HW220721   0.499   0.752  14.500 -0.6187  1.0983  1.0824
 3087SOL     OW20722   2.408   2.446   5.762  0.2863 -0.3135 -0.0458
 3087SOL    HW120723   2.429   2.359   5.727  0.9113 -0.1187 -0.1462
 3087SOL    HW220724   2.313   2.437   5.768  0.5311 -2.6942  0.4412
 3088SOL     OW20725   0.421   2.938   6.729  0.2491  0.4203 -0.3883
 3088SOL    HW120726   0.463   2.947   6.643  0.4084  0.1224 -0.3398
 3088SOL    HW220727   0.386   3.026   6.747 -0.0149  0.3802 -0.7098
 3089SOL     OW20728   3.086   0.901   5.750 -0.2995 -0.1111 -0.4762
 3089SOL    HW120729   3.124   0.986   5.729  0.1878 -0.1468  0.2845
 3089SOL    HW220730   3.163   0.845   5.764  0.8409  1.8901  1.1895
 3090SOL     OW20731   0.854   4.112  15.004 -0.0175  0.0574 -0.0147
 3090SOL    HW120732   0.908   4.033  15.012  1.7069  1.6117  3.6525
 3090SOL    HW220733   0.883   4.141  14.918  0.9034  0.4166  0.4186
 3091SOL     OW20734   4.295   1.511   7.679 -0.0842 -0.2637  0.1833
 3091SOL    HW120735   4.376   1.539   7.722  0.1643 -0.6301 -0.0522
 3091SOL    HW220736   4.239   1.587   7.692 -0.3662 -0.3287 -0.6379
 3092SOL     OW20737   0.562   0.734   8.122 -0.4182 -0.0059  0.1830
 3092SOL    HW120738   0.559   0.829   8.137  1.2752  0.2866 -1.3113
 3092SOL    HW220739   0.576   0.711   8.214 -1.9734 -2.5257 -0.2280
 3093SOL     OW20740   4.257   3.439   5.974  0.2426 -0.0295  0.4517
 3093SOL    HW120741   4.237   3.352   5.940  1.5317 -0.2308  0.2123
 3093SOL    HW220742   4.329   3.416   6.034 -0.6300 -0.5899  1.2804
 3094SOL     OW20743   2.635   0.128   2.156  0.0651 -0.5880 -0.5401
 3094SOL    HW120744   2.553   0.132   2.108 -0.9776 -1.3855  1.2137
 3094SOL    HW220745   2.658   0.037   2.135  2.0359 -0.8030  2.5047
 3095SOL     OW20746   3.229   2.483  14.910 -0.4488  0.2239  0.1888
 3095SOL    HW120747   3.136   2.464  14.914 -0.2125 -0.9025  0.3513
 3095SOL    HW220748   3.240   2.531  14.827 -0.4720 -0.4652 -0.2156
 3096SOL     OW20749   2.622   0.616  10.884  0.6405  0.1714  0.1787
 3096SOL    HW120750   2.583   0.531  10.907  0.2756  0.2109 -0.2984
 3096SOL    HW220751   2.715   0.594  10.888  0.4522 -0.5419  0.6383
 3097SOL     OW20752   4.454   0.271  16.425  0.4566  0.0478  0.1888
 3097SOL    HW120753   4.364   0.300  16.433  0.3205  0.1870 -1.8004
 3097SOL    HW220754   4.471   0.242  16.514  3.4815  0.9930 -0.0711
 3098SOL     OW20755   1.238   3.578   7.491  0.3278  0.2362 -0.4681
 3098SOL    HW120756   1.222   3.484   7.486 -2.5986  0.7897 -1.4913
 3098SOL    HW220757   1.192   3.602   7.411 -2.0439  0.7758  1.0373
 3099SOL     OW20758   0.284   0.490   7.802  0.4581  0.3841 -0.5975
 3099SOL    HW120759   0.373   0.489   7.838 -0.2131  1.7651  1.1241
 3099SOL    HW220760   0.255   0.572   7.843 -0.3955  0.3434 -1.1115
 3100SOL     OW20761   2.403   1.820   8.390 -0.7505 -0.2638 -0.3175
 3100SOL    HW120762   2.422   1.727   8.388  0.2991 -0.1007  1.8215
 3100SOL    HW220763   2.465   1.846   8.459 -1.4795  1.8193 -0.4265
 3101SOL     OW20764   3.829   1.771   6.338 -0.1303  0.1281 -0.3740
 3101SOL    HW120765   3.887   1.806   6.406 -1.5527  0.5491  0.6386
 3101SOL    HW220766   3.818   1.839   6.273 -1.8110 -0.6052 -0.8469
 3102SOL     OW20767   3.143   2.622   2.429 -0.2459  0.2802 -0.0133
 3102SOL    HW120768   3.202   2.593   2.358 -1.3908 -2.9273  0.3429
 3102SOL    HW220769   3.178   2.560   2.493  0.6169  1.8273  1.0339
 3103SOL     OW20770   4.556   2.914   6.070  0.0110  0.7382 -0.0265
 3103SOL    HW120771   4.556   2.836   6.014  0.5090  0.4371  0.3924
 3103SOL    HW220772   4.602   2.877   6.145 -2.4992 -2.6864 -0.1391
 3104SOL     OW20773   2.900   1.285   5.648 -0.2275  0.1324 -0.1875
 3104SOL    HW120774   2.936   1.348   5.586  0.7210  0.3360  0.5733
 3104SOL    HW220775   2.897   1.209   5.590 -0.0848  1.2444 -1.6352
 3105SOL     OW20776   2.096   1.336   6.599  0.1765 -0.0939  0.2061
 3105SOL    HW120777   2.023   1.307   6.654  1.4076 -2.1945  0.7389
 3105SOL    HW220778   2.160   1.367   6.662 -0.1683  0.3029  0.3635
 3106SOL     OW20779   1.459   2.362   0.168  0.4147 -0.1328 -0.1146
 3106SOL    HW120780   1.500   2.299   0.108  0.7236 -0.8656  0.8668
 3106SOL    HW220781   1.527   2.425   0.192 -0.1477  0.8068 -1.0129
 3107SOL     OW20782   1.004   3.756  12.923  0.6736 -0.5464  0.0947
 3107SOL    HW120783   1.001   3.662  12.941 -2.5229 -0.5635 -0.4912
 3107SOL    HW220784   1.094   3.779  12.944  0.9008 -0.9207 -0.4589
 3108SOL     OW20785   1.114   4.350   2.818 -0.3995 -0.3051  0.3429
 3108SOL    HW120786   1.189   4.399   2.853 -0.4631 -1.3701  1.9973
 3108SOL    HW220787   1.052   4.343   2.891 -1.6727 -1.7234 -0.8722
 3109SOL     OW20788   1.903   1.842   8.521  0.1886  0.1557 -0.5345
 3109SOL    HW120789   1.902   1.841   8.617 -1.1324 -2.1079 -0.5609
 3109SOL    HW220790   1.883   1.934   8.508 -2.1846  0.2590  3.7628
 3110SOL     OW20791   1.509   2.193  16.846 -0.2735 -0.2278 -0.0273
 3110SOL    HW120792   1.428   2.147  16.825 -0.9994  0.8989  0.3379
 3110SOL    HW220793   1.567   2.116  16.845 -0.4566 -0.3654  0.3651
 3111SOL     OW20794   0.545   3.417   9.520  0.8631 -0.0074  0.2207
 3111SOL    HW120795   0.481   3.461   9.576  1.0814  0.7830 -0.1545
 3111SOL    HW220796   0.628   3.432   9.566  0.8538  0.1692  0.1811
 3112SOL     OW20797   1.626   2.800   6.727 -0.6391  0.4186 -0.0559
 3112SOL    HW120798   1.592   2.737   6.791  2.6468 -1.3458  0.0037
 3112SOL    HW220799   1.640   2.746   6.649 -2.4327  0.3091 -0.2871
 3113SOL     OW20800   0.984   3.825  14.969  0.6070 -0.1190 -0.3979
 3113SOL    HW120801   1.029   3.805  15.051 -1.4440 -0.8437  0.5526
 3113SOL    HW220802   1.042   3.884  14.920 -0.6103  0.0774 -1.6179
 3114SOL     OW20803   2.777   4.025   6.348 -0.1275 -0.1102 -0.2234
 3114SOL    HW120804   2.872   4.016   6.360 -0.0082  0.5703 -0.6588
 3114SOL    HW220805   2.765   4.116   6.373 -0.8419  0.1650 -1.5878
 3115SOL     OW20806   1.977   1.000   1.363 -0.3581 -0.3985  0.4057
 3115SOL    HW120807   1.883   0.992   1.378 -0.5108  1.7551  0.5935
 3115SOL    HW220808   2.003   1.031   1.449 -0.5394  0.7847  0.0388
 3116SOL     OW20809   1.713   1.583   6.363 -0.0966 -0.4184 -0.6466
 3116SOL    HW120810   1.780   1.515   6.367 -1.8078 -1.9655  1.8862
 3116SOL    HW220811   1.743   1.642   6.431  1.0584 -1.6929 -0.0459
 3117SOL     OW20812   3.732   3.359   3.749 -0.0671  0.2356  0.2818
 3117SOL    HW120813   3.802   3.320   3.801 -0.2380  0.7897  0.9331
 3117SOL    HW220814   3.663   3.303   3.784  0.3652 -1.1888 -1.1784
 3118SOL     OW20815   0.491   2.985   7.590  0.3370  0.2401  0.1990
 3118SOL    HW120816   0.481   3.056   7.653  0.2100  0.4220 -0.0257
 3118SOL    HW220817   0.458   2.909   7.638 -0.4313  0.1911 -0.4039
 3119SOL     OW20818   0.022   4.516   8.202 -0.1310  0.3752 -0.6917
 3119SOL    HW120819   0.062   4.509   8.288  1.7877 -0.5811 -1.6391
 3119SOL    HW220820   4.686   4.440   8.216  1.1673 -0.6732 -0.9826
 3120SOL     OW20821   2.511   0.665   8.400 -0.4485 -0.7125 -0.0723
 3120SOL    HW120822   2.417   0.660   8.416 -0.7813  1.7030 -1.2481
 3120SOL    HW220823   2.548   0.635   8.483 -1.4733 -2.5180 -0.2873
 3121SOL     OW20824   1.415   2.703   1.172  0.3846  0.4178  0.2943
 3121SOL    HW120825   1.372   2.743   1.248 -0.8671 -0.3964 -0.0030
 3121SOL    HW220826   1.364   2.729   1.095  0.1879  0.7972  0.5483
 3122SOL     OW20827   2.629   1.138   4.604  0.6479 -0.1001  0.3473
 3122SOL    HW120828   2.694   1.111   4.668  1.5821 -1.5099 -1.1838
 3122SOL    HW220829   2.593   1.214   4.648  0.8515 -1.6544  3.1860
 3123SOL     OW20830   3.644   3.007   4.748  0.0567  0.0940  0.3497
 3123SOL    HW120831   3.649   2.912   4.733 -0.7854  0.7627 -4.2839
 3123SOL    HW220832   3.610   3.031   4.662 -0.0764  2.3378  1.0374
 3124SOL     OW20833   2.920   2.212   9.145 -0.4340  0.7468 -0.1559
 3124SOL    HW120834   2.893   2.271   9.074  1.0981 -2.0005 -3.0417
 3124SOL    HW220835   2.981   2.151   9.104  0.2092 -0.7013  2.9672
 3125SOL     OW20836   1.754   4.029  14.260  0.5622 -0.0816 -0.1820
 3125SOL    HW120837   1.838   3.983  14.265  0.7147  0.4053  1.5598
 3125SOL    HW220838   1.703   3.969  14.205  3.6862 -0.2785 -2.8448
 3126SOL     OW20839   0.962   3.921   1.683 -0.2745  0.5230  0.2677
 3126SOL    HW120840   0.922   3.916   1.597  0.8883 -1.8379 -0.1391
 3126SOL    HW220841   0.971   3.828   1.703 -0.9946  0.1926 -0.9323
 3127SOL     OW20842   1.788   2.581   8.684 -0.6535  0.8979  0.2728
 3127SOL    HW120843   1.846   2.651   8.656 -0.7406  0.2304 -1.5622
 3127SOL    HW220844   1.782   2.524   8.607 -2.0987  1.1736  0.1816
 3128SOL     OW20845   2.481   2.152   5.031 -0.5254  0.7527 -0.6894
 3128SOL    HW120846   2.498   2.125   4.941  0.7696 -0.0799 -0.1856
 3128SOL    HW220847   2.447   2.238   5.006 -3.8561  0.6405  3.5800
 3129SOL     OW20848   2.344   0.463   3.842  0.6164 -0.3338 -0.1241
 3129SOL    HW120849   2.278   0.398   3.817  0.1176 -0.9615  2.7556
 3129SOL    HW220850   2.296   0.490   3.920  1.2390 -1.2958  0.5916
 3130SOL     OW20851   1.580   1.752   0.247  0.2994 -0.0982 -0.3722
 3130SOL    HW120852   1.668   1.732   0.216 -0.2978 -1.7875 -0.9991
 3130SOL    HW220853   1.522   1.687   0.208  1.2006 -0.2169 -1.4851
 3131SOL     OW20854   0.322   3.849   4.383  0.1333  0.0979 -0.7286
 3131SOL    HW120855   0.326   3.899   4.301  3.2061  1.6476  0.3846
 3131SOL    HW220856   0.344   3.920   4.443 -0.5995 -0.9920  0.8165
 3132SOL     OW20857   1.552   3.937   5.750  0.1363  0.4257  0.1177
 3132SOL    HW120858   1.583   3.897   5.831  4.0482  4.3106  0.5574
 3132SOL    HW220859   1.603   3.896   5.680  0.1106  0.4381  0.0916
 3133SOL     OW20860   3.669   2.003   8.135  0.4304 -0.1621 -0.2158
 3133SOL    HW120861   3.618   1.968   8.208 -1.1800  0.0677 -1.2264
 3133SOL    HW220862   3.650   2.097   8.131  0.9857  0.0264  1.9777
 3134SOL     OW20863   1.525   2.759  10.574  0.1635 -0.3112 -0.0310
 3134SOL    HW120864   1.617   2.777  10.557  0.4273  0.0088  1.7699
 3134SOL    HW220865   1.503   2.734  10.484  2.0203 -2.6982  0.1862
 3135SOL     OW20866   0.639   4.698   3.590  0.0978 -0.4163  0.0251
 3135SOL    HW120867   0.729   4.668   3.578  0.5257  0.5975  0.7882
 3135SOL    HW220868   0.651   0.069   3.611 -1.1735 -0.3941  0.6442
 3136SOL     OW20869   1.479   2.582   9.136  0.2751  0.6704  0.3821
 3136SOL    HW120870   1.557   2.548   9.181  0.0553  1.1705  1.1512
 3136SOL    HW220871   1.499   2.674   9.150  0.3387  1.2638 -3.6531
 3137SOL     OW20872   4.008   3.526   6.071 -0.0457  0.4047  0.5662
 3137SOL    HW120873   4.094   3.486   6.061 -0.0673  0.4178  0.3243
 3137SOL    HW220874   3.967   3.479   6.143 -0.7406  0.3069  0.1141
 3138SOL     OW20875   3.817   0.765   1.608 -0.4765 -0.3588  0.1357
 3138SOL    HW120876   3.800   0.857   1.630 -2.0827 -0.5229 -0.3897
 3138SOL    HW220877   3.791   0.717   1.687 -1.4582  0.9311  0.5982
 3139SOL     OW20878   0.644   3.856  10.711 -0.2590 -0.2368  0.8993
 3139SOL    HW120879   0.703   3.817  10.647  0.2654 -0.1414  1.3254
 3139SOL    HW220880   0.701   3.862  10.788  0.6573 -0.4604  0.2420
 3140SOL     OW20881   2.406   2.730  13.204  0.2155  0.4003 -0.4103
 3140SOL    HW120882   2.353   2.786  13.148 -0.3178  1.0238  0.7104
 3140SOL    HW220883   2.339   2.691  13.260 -1.3908  2.7146 -0.7129
 3141SOL     OW20884   0.911   3.549   5.361 -0.2802  0.4634 -0.5656
 3141SOL    HW120885   0.953   3.465   5.339  2.7497  2.0311 -0.7268
 3141SOL    HW220886   0.983   3.611   5.355  0.4006 -0.0345  2.6517
 3142SOL     OW20887   4.205   3.122  13.678  0.2821 -0.2182  0.2844
 3142SOL    HW120888   4.270   3.100  13.745  1.9455  0.6060 -1.0643
 3142SOL    HW220889   4.252   3.114  13.595 -0.1695  0.8356 -0.0707
 3143SOL     OW20890   0.964   1.690  11.617 -0.0020  1.2361  0.2724
 3143SOL    HW120891   0.919   1.703  11.701 -0.3933  0.6692  0.1485
 3143SOL    HW220892   0.990   1.599  11.627 -1.7023  0.6186 -1.1371
 3144SOL     OW20893   0.918   0.188  17.084 -0.0121 -0.3417  0.2591
 3144SOL    HW120894   0.999   0.230  17.056 -1.0666  0.4661 -1.5852
 3144SOL    HW220895   0.854   0.247  17.044  0.1499 -0.6221 -0.4190
 3145SOL     OW20896   4.096   3.469  11.368 -0.4352  0.1486  0.2527
 3145SOL    HW120897   4.060   3.413  11.437 -2.0968  1.6968  0.6412
 3145SOL    HW220898   4.103   3.549  11.419 -0.3662  0.1569  0.2304
 3146SOL     OW20899   3.844   3.732   1.593 -0.4500 -0.7747  0.0188
 3146SOL    HW120900   3.772   3.680   1.630 -1.5841  1.1578  0.5374
 3146SOL    HW220901   3.893   3.667   1.541 -1.5150 -1.8241  0.3183
 3147SOL     OW20902   2.864   2.367   6.452  0.0285  0.4730  0.3078
 3147SOL    HW120903   2.938   2.339   6.398  0.0833 -0.2428  0.7620
 3147SOL    HW220904   2.846   2.452   6.411 -1.7617 -0.5822 -1.0851
 3148SOL     OW20905   0.965   0.139   7.526  0.3576  0.1012  0.4216
 3148SOL    HW120906   0.900   0.075   7.555  1.0626 -1.6854 -1.9669
 3148SOL    HW220907   0.913   0.200   7.474 -0.0808 -1.1997 -0.6607
 3149SOL     OW20908   0.296   3.613   4.619 -0.2798 -0.3003  0.1411
 3149SOL    HW120909   0.317   3.527   4.657 -1.5612 -0.3110  0.8070
 3149SOL    HW220910   0.380   3.660   4.616 -1.1886  1.1433 -2.0498
 3150SOL     OW20911   0.469   1.183   4.700  0.7206 -0.5088  0.3933
 3150SOL    HW120912   0.384   1.142   4.679  0.4458  0.4279 -0.3213
 3150SOL    HW220913   0.494   1.232   4.621  0.3387 -0.6316  0.1922
 3151SOL     OW20914   3.568   3.150   8.176 -0.8436  0.4273  0.3895
 3151SOL    HW120915   3.653   3.108   8.164 -0.2218  1.6029  0.5989
 3151SOL    HW220916   3.592   3.241   8.159  1.9712 -0.6517 -1.2684
 3152SOL     OW20917   1.728   1.556   7.096  0.0621 -0.6951  0.0789
 3152SOL    HW120918   1.643   1.513   7.092 -0.3202  0.0009  0.7066
 3152SOL    HW220919   1.698   1.636   7.052  0.0865 -0.3588  0.6625
 3153SOL     OW20920   3.538   1.572   3.171 -0.2740  0.3478  0.0272
 3153SOL    HW120921   3.583   1.500   3.216  1.4415 -0.1430 -2.4822
 3153SOL    HW220922   3.578   1.560   3.085 -0.4512 -4.7652  0.6685
 3154SOL     OW20923   0.530   0.593  10.156 -0.8255  0.1041  0.2797
 3154SOL    HW120924   0.621   0.604  10.128 -1.4146  3.3978 -0.4150
 3154SOL    HW220925   0.548   0.551  10.240 -3.2167 -1.1807  0.1621
 3155SOL     OW20926   4.676   4.068   8.290 -0.2418 -0.3087  0.0421
 3155SOL    HW120927   4.592   4.023   8.305  0.2829 -1.1106  0.5796
 3155SOL    HW220928   4.662   4.081   8.196  0.1167 -1.5194 -0.1776
 3156SOL     OW20929   2.497   2.439   3.593 -0.2338 -0.1951 -0.1326
 3156SOL    HW120930   2.561   2.374   3.565 -1.0139 -1.3461  0.7929
 3156SOL    HW220931   2.521   2.455   3.684  0.6426  1.2073 -0.6000
 3157SOL     OW20932   0.564   0.609  12.235 -0.2837 -0.5875  0.0154
 3157SOL    HW120933   0.528   0.698  12.232  1.1139 -0.0068  0.0489
 3157SOL    HW220934   0.613   0.609  12.317 -0.1726  1.0350 -0.0429
 3158SOL     OW20935   1.473   2.855   3.503 -0.3705  0.3117  0.5425
 3158SOL    HW120936   1.403   2.793   3.523  0.9001 -0.2089  3.3386
 3158SOL    HW220937   1.458   2.915   3.576  1.1437  1.0649  0.2317
 3159SOL     OW20938   0.752   3.857  13.011 -0.0112 -0.1044  0.0292
 3159SOL    HW120939   0.736   3.823  13.099  0.7735 -0.9728 -0.1702
 3159SOL    HW220940   0.835   3.817  12.985  1.1366  0.7154  2.5111
 3160SOL     OW20941   2.535   4.331   7.896 -0.3356 -0.1854  0.5305
 3160SOL    HW120942   2.594   4.342   7.970  1.7576 -2.4201 -0.8345
 3160SOL    HW220943   2.597   4.300   7.831 -1.0476  1.3185 -0.8713
 3161SOL     OW20944   0.610   4.216  17.229 -0.5009 -0.6817 -0.3458
 3161SOL    HW120945   0.544   4.210  17.160 -0.1738 -0.4153 -0.6814
 3161SOL    HW220946   0.602   4.124  17.254  0.1180 -0.3660  1.0225
 3162SOL     OW20947   1.113   3.089  13.378 -0.3243  0.5755 -0.6441
 3162SOL    HW120948   1.193   3.038  13.394 -1.5969 -1.5646 -1.0862
 3162SOL    HW220949   1.068   3.019  13.330 -0.6057 -0.4097  1.0497
 3163SOL     OW20950   1.647   4.236  11.700  0.6161  0.0679 -0.1386
 3163SOL    HW120951   1.679   4.153  11.736  0.6602 -0.4512 -1.3942
 3163SOL    HW220952   1.650   4.215  11.607  1.1157  1.0744 -0.3418
 3164SOL     OW20953   4.475   0.483   9.607 -0.0346  0.2008  0.0749
 3164SOL    HW120954   4.502   0.461   9.697  1.6962 -0.5705 -0.6265
 3164SOL    HW220955   4.438   0.571   9.603 -0.2933  0.0732 -0.3382
 3165SOL     OW20956   0.276   3.087  15.599 -0.0189 -0.0157  0.2493
 3165SOL    HW120957   0.240   3.161  15.647  2.6962  2.0929 -0.9526
 3165SOL    HW220958   0.327   3.130  15.531 -0.8562  0.6136  0.0116
 3166SOL     OW20959   1.215   1.424   3.169  0.1171  0.7460 -0.1973
 3166SOL    HW120960   1.181   1.473   3.094  0.0486  0.9665 -0.0198
 3166SOL    HW220961   1.189   1.333   3.155  1.4790  0.3955 -0.3879
 3167SOL     OW20962   1.826   3.154   5.087 -0.2543 -0.0145  0.2455
 3167SOL    HW120963   1.768   3.091   5.046 -1.2253  0.0334  1.5466
 3167SOL    HW220964   1.886   3.174   5.015 -1.5892  0.7174 -0.6581
 3168SOL     OW20965   1.962   3.852  11.741 -0.4697  0.2977 -0.0031
 3168SOL    HW120966   2.033   3.916  11.744  0.9751 -1.2851 -0.4450
 3168SOL    HW220967   2.024   3.780  11.749 -0.1774  0.4738 -0.6812
 3169SOL     OW20968   2.675   0.503   7.270 -0.0233 -0.0762  0.2681
 3169SOL    HW120969   2.761   0.535   7.301 -0.4670  1.1065  0.2835
 3169SOL    HW220970   2.622   0.575   7.304 -1.5426 -0.4449 -1.3751
 3170SOL     OW20971   3.320   0.460   0.166  0.5809 -0.2769 -0.3149
 3170SOL    HW120972   3.375   0.462   0.244 -1.4577  0.1592  1.1214
 3170SOL    HW220973   3.333   0.547   0.129 -1.5668 -0.3479 -1.2090
 3171SOL     OW20974   3.510   3.623   2.199  0.2186 -0.7065 -0.5273
 3171SOL    HW120975   3.489   3.702   2.148 -1.9061 -2.1140 -1.8215
 3171SOL    HW220976   3.464   3.553   2.153 -0.1180 -0.1004 -1.1090
 3172SOL     OW20977   3.720   0.735   2.973 -0.0592 -0.0372 -0.3143
 3172SOL    HW120978   3.765   0.774   3.048  1.3722 -1.3109 -0.5173
 3172SOL    HW220979   3.774   0.657   2.962  0.6631  0.6007 -1.3754
 3173SOL     OW20980   3.175   0.890  12.744  0.3229 -0.1526  0.5147
 3173SOL    HW120981   3.165   0.800  12.773  2.0061 -0.5766 -0.2297
 3173SOL    HW220982   3.096   0.929  12.782  0.6631  2.1420 -1.1204
 3174SOL     OW20983   4.223   2.725  10.453 -0.3358 -0.0850 -0.5111
 3174SOL    HW120984   4.147   2.746  10.400 -1.2502 -0.6585  0.5663
 3174SOL    HW220985   4.199   2.736  10.545  1.8600  0.7259 -0.0253
 3175SOL     OW20986   0.824   3.368   6.128  0.3417  0.0163  0.1869
 3175SOL    HW120987   0.743   3.409   6.156 -0.0304 -2.5152  2.8001
 3175SOL    HW220988   0.869   3.450   6.107  1.8358 -0.5487  1.1380
 3176SOL     OW20989   2.933   1.725   6.188  0.1393 -0.5980 -0.1077
 3176SOL    HW120990   2.862   1.703   6.127 -0.1164 -0.3678  0.1107
 3176SOL    HW220991   3.005   1.694   6.132  0.3152  1.4568 -1.0047
 3177SOL     OW20992   1.851   3.776  10.981 -0.1820 -0.0117 -0.4806
 3177SOL    HW120993   1.837   3.869  10.999  0.3724 -0.5926  2.8941
 3177SOL    HW220994   1.923   3.744  11.036 -0.9732 -0.9844  0.0039
 3178SOL     OW20995   0.253   0.865  16.884 -0.0815 -0.0152  0.0981
 3178SOL    HW120996   0.228   0.880  16.975  0.2052 -2.0778  0.5247
 3178SOL    HW220997   0.280   0.950  16.850 -0.4424  0.1439  0.2066
 3179SOL     OW20998   0.658   2.936   2.543 -0.0182  0.5485 -0.1657
 3179SOL    HW120999   0.589   2.946   2.476 -0.4690 -2.9538 -0.2034
 3179SOL    HW221000   0.740   2.942   2.495 -0.1988  1.3351 -0.3870
 3180SOL     OW21001   2.467   0.743   8.079  0.1082 -0.5709  0.4377
 3180SOL    HW121002   2.440   0.776   8.165 -1.5127  1.6067 -0.9034
 3180SOL    HW221003   2.560   0.737   8.101  0.4484  0.7103 -0.6965
 3181SOL     OW21004   1.075   2.883   6.653 -0.4766 -0.4803  0.1405
 3181SOL    HW121005   1.137   2.922   6.715 -0.4108 -0.1632 -0.1304
 3181SOL    HW221006   1.008   2.843   6.709 -1.3402 -0.4428 -0.8631
 3182SOL     OW21007   4.623   1.412   4.392 -0.0749  0.1112  0.2866
 3182SOL    HW121008   4.645   1.477   4.458  0.5837 -0.1730  0.3519
 3182SOL    HW221009   4.695   1.413   4.329  0.4090  1.3453  0.8773
 3183SOL     OW21010   3.055   3.984   3.833  0.4049  0.1861  0.7858
 3183SOL    HW121011   3.037   3.961   3.924  0.1169  0.5353  0.8165
 3183SOL    HW221012   2.988   3.937   3.785  0.1074 -1.0856  2.4315
 3184SOL     OW21013   0.623   2.567  14.418  0.1069 -0.1233 -0.0109
 3184SOL    HW121014   0.589   2.591  14.332 -0.0081  1.4849  0.4799
 3184SOL    HW221015   0.709   2.610  14.417  0.3661 -0.6677 -1.5526
 3185SOL     OW21016   4.045   2.876  13.748  0.5168  0.0478  0.1710
 3185SOL    HW121017   4.123   2.848  13.795  2.1110  1.9471 -1.3400
 3185SOL    HW221018   4.063   2.970  13.745 -0.8009  0.3176  0.4102
 3186SOL     OW21019   3.895   2.681   3.634  0.2993  0.3715 -0.3961
 3186SOL    HW121020   3.963   2.748   3.624  0.4938  0.3450  0.7194
 3186SOL    HW221021   3.834   2.715   3.700 -0.3402 -2.1924  0.3442
 3187SOL     OW21022   2.879   4.408   3.021  0.2096 -0.8115  0.1354
 3187SOL    HW121023   2.820   4.427   2.948 -0.5785 -0.0741  0.9480
 3187SOL    HW221024   2.928   4.488   3.039 -2.8307  1.4713 -1.7045
 3188SOL     OW21025   2.611   3.835  13.531 -0.2496  0.1149 -0.2284
 3188SOL    HW121026   2.625   3.753  13.483 -1.4335 -0.8912  1.1218
 3188SOL    HW221027   2.612   3.893  13.455  0.2498  1.9392  1.1871
 3189SOL     OW21028   3.925   3.869  10.256  0.3787 -0.5026 -0.0511
 3189SOL    HW121029   3.933   3.964  10.257 -0.0390 -0.4680  0.2524
 3189SOL    HW221030   3.881   3.849  10.173 -1.8282  0.1776  0.9514
 3190SOL     OW21031   2.515   1.407  14.951 -0.1800  0.0452 -0.4536
 3190SOL    HW121032   2.492   1.471  15.019 -1.7339 -0.7343 -0.2475
 3190SOL    HW221033   2.428   1.390  14.915 -0.2426 -0.6912  0.0440
 3191SOL     OW21034   4.307   2.982   1.056 -0.1296  0.5337  0.0554
 3191SOL    HW121035   4.312   3.077   1.065  0.1811  0.3330  2.0051
 3191SOL    HW221036   4.291   2.948   1.144  0.1377 -0.8484 -0.4209
 3192SOL     OW21037   4.580   0.475   2.993  0.0546  0.3489  0.2869
 3192SOL    HW121038   4.497   0.512   2.963  0.7430  1.3707 -0.3581
 3192SOL    HW221039   4.595   0.401   2.934  1.0874 -0.4835  1.5927
 3193SOL     OW21040   0.343   3.895  13.510 -0.0178 -0.5190  0.2716
 3193SOL    HW121041   0.307   3.896  13.598  1.7679  3.6183  0.9798
 3193SOL    HW221042   0.262   3.887  13.460  1.0221 -1.1788 -1.2922
 3194SOL     OW21043   2.010   3.709   0.975  0.2384 -0.2392  0.0728
 3194SOL    HW121044   2.031   3.752   0.891  0.6501 -1.1029 -0.2699
 3194SOL    HW221045   2.093   3.675   1.010 -0.6775  0.5397  2.9956
 3195SOL     OW21046   4.205   3.509   7.439  0.1917 -0.1307 -0.1016
 3195SOL    HW121047   4.301   3.510   7.436  0.0889  1.7205 -2.7256
 3195SOL    HW221048   4.197   3.460   7.520  0.1930  0.2915  0.1552
 3196SOL     OW21049   2.207   0.231   3.726 -0.2321 -0.3788 -0.4788
 3196SOL    HW121050   2.119   0.225   3.764 -0.1448 -0.9686 -0.3774
 3196SOL    HW221051   2.183   0.231   3.634  1.7781  1.0611 -1.0087
 3197SOL     OW21052   3.308   3.684  11.399 -0.3082 -0.1115 -0.3406
 3197SOL    HW121053   3.362   3.711  11.473  1.0422 -3.2255 -0.1562
 3197SOL    HW221054   3.232   3.637  11.432  0.0676 -0.7067 -0.3031
 3198SOL     OW21055   4.556   2.617  10.664 -0.1472 -1.5033 -0.2451
 3198SOL    HW121056   4.646   2.610  10.695  0.6001  1.1311 -1.8152
 3198SOL    HW221057   4.516   2.594  10.748  0.9530 -1.1335  0.3756
 3199SOL     OW21058   0.851   0.841   1.151 -0.2496  0.3832 -0.0564
 3199SOL    HW121059   0.855   0.755   1.110  0.5957  1.2471 -1.8093
 3199SOL    HW221060   0.944   0.864   1.148  0.5957 -2.9452  1.3489
 3200SOL     OW21061   2.414   1.341   8.644  0.0601 -0.9101 -0.0013
 3200SOL    HW121062   2.395   1.297   8.561  0.1558 -0.8793 -0.0394
 3200SOL    HW221063   2.500   1.306   8.667  1.1973  1.9601  0.0143
 3201SOL     OW21064   0.908   3.161   7.103  0.7252 -0.1455 -0.2524
 3201SOL    HW121065   0.981   3.166   7.042  0.8811  0.4889 -0.0123
 3201SOL    HW221066   0.859   3.086   7.070  0.2568  0.6036 -1.2756
 3202SOL     OW21067   3.541   3.988  10.308  0.3957 -0.2498 -0.4257
 3202SOL    HW121068   3.469   4.049  10.327  1.4263  1.1783 -1.0794
 3202SOL    HW221069   3.594   4.008  10.384 -2.4239 -0.8894  1.7337
 3203SOL     OW21070   3.246   1.267  16.985 -0.3313 -0.4520  0.4508
 3203SOL    HW121071   3.301   1.330  16.939 -0.7142 -1.7918 -1.8179
 3203SOL    HW221072   3.192   1.236  16.912 -2.0308 -1.0107  1.9250
 3204SOL     OW21073   4.307   2.038   0.466  0.1382 -0.4993  0.2186
 3204SOL    HW121074   4.216   2.060   0.448  0.7206  2.5477  0.9916
 3204SOL    HW221075   4.301   1.945   0.445 -0.4947 -0.4137  0.0232
 3205SOL     OW21076   1.803   2.386   4.199 -0.1019 -0.2636 -0.1809
 3205SOL    HW121077   1.717   2.399   4.160 -1.4063 -1.9313  2.1622
 3205SOL    HW221078   1.773   2.377   4.289  2.6086 -0.9655  0.6444
 3206SOL     OW21079   4.700   2.636   2.051  0.2441 -0.0722 -0.6121
 3206SOL    HW121080   0.052   2.643   1.989  0.6795  1.5590  0.0812
 3206SOL    HW221081   4.668   2.725   2.066  0.5883 -0.2498  1.1386
 3207SOL     OW21082   1.257   3.562  15.517 -0.8249 -0.2878  0.6435
 3207SOL    HW121083   1.305   3.568  15.434 -1.7872 -2.1056 -0.0413
 3207SOL    HW221084   1.221   3.649  15.534 -1.1941 -0.4134  0.5097
 3208SOL     OW21085   4.368   3.898   2.885 -0.4408 -0.2803  0.5297
 3208SOL    HW121086   4.322   3.982   2.890  1.1475  0.4631  2.4092
 3208SOL    HW221087   4.309   3.846   2.829  1.2374  0.0022 -1.4848
 3209SOL     OW21088   2.240   1.314   2.672 -0.4548 -0.5891 -0.5187
 3209SOL    HW121089   2.166   1.334   2.614  0.3213  0.3899 -1.1698
 3209SOL    HW221090   2.262   1.401   2.707 -1.7145 -0.6106  0.3232
 3210SOL     OW21091   2.892   2.480   5.984  0.4085 -0.7401 -0.2646
 3210SOL    HW121092   2.878   2.393   6.022  0.1929  0.8747  3.2897
 3210SOL    HW221093   2.805   2.496   5.947  0.2109  1.4164  1.1025
 3211SOL     OW21094   0.307   0.904   2.309  0.5735 -0.7075  0.0161
 3211SOL    HW121095   0.246   0.830   2.315  0.6435 -0.7499  0.2250
 3211SOL    HW221096   0.256   0.972   2.354  0.6103 -0.4131 -0.3930
 3212SOL     OW21097   3.799   3.931   5.208  0.2678 -0.0830 -0.4053
 3212SOL    HW121098   3.710   3.921   5.241  0.5132  0.1732  0.3461
 3212SOL    HW221099   3.839   3.851   5.239  4.2844  2.6484  1.4690
 3213SOL     OW21100   3.042   1.125   3.456 -0.1727 -0.3532 -0.1769
 3213SOL    HW121101   3.001   1.211   3.469 -0.4076 -0.1797 -2.1917
 3213SOL    HW221102   3.032   1.083   3.542 -2.1369  0.2162 -0.1248
 3214SOL     OW21103   2.962   4.646   6.435 -0.0934 -0.1668 -0.4378
 3214SOL    HW121104   2.976   4.582   6.505  1.2076  0.5404 -0.0594
 3214SOL    HW221105   3.051   4.655   6.401  0.0433 -2.0819 -0.5823
 3215SOL     OW21106   2.516   4.140   6.258 -0.2570 -0.7607  0.3642
 3215SOL    HW121107   2.477   4.059   6.224  0.1377 -1.6415  1.9754
 3215SOL    HW221108   2.608   4.117   6.247  0.0611  0.8237 -0.2485
 3216SOL     OW21109   0.001   0.541   8.977 -0.0699  0.9678 -0.0003
 3216SOL    HW121110   0.056   0.497   9.041 -0.1021 -0.8792 -1.2352
 3216SOL    HW221111   4.677   0.461   8.949  2.7487 -0.6317 -0.0388
 3217SOL     OW21112   1.061   1.729   1.073 -0.0334  0.0352  0.2537
 3217SOL    HW121113   1.066   1.810   1.124  4.4318  0.1847 -0.3965
 3217SOL    HW221114   0.979   1.699   1.111 -0.6521  1.1968 -0.1852
 3218SOL     OW21115   4.636   4.340   5.702  0.5247 -0.4377 -0.1553
 3218SOL    HW121116   4.574   4.299   5.763  2.3324 -1.2986  1.0845
 3218SOL    HW221117   4.572   4.381   5.643 -0.7952 -1.8804  0.2488
 3219SOL     OW21118   2.169   3.785   8.110 -0.1284 -0.6422 -0.2247
 3219SOL    HW121119   2.232   3.836   8.161 -1.3337  0.3958  0.2206
 3219SOL    HW221120   2.149   3.703   8.156  0.9557 -0.8663 -0.1366
 3220SOL     OW21121   2.563   3.645  12.525  0.7247 -0.5329 -1.0370
 3220SOL    HW121122   2.617   3.628  12.601  2.0249  0.5200 -1.7261
 3220SOL    HW221123   2.622   3.681  12.458  1.5403 -2.0650 -1.1561
 3221SOL     OW21124   4.588   3.455   7.869 -0.3324  0.0235 -0.3616
 3221SOL    HW121125   4.622   3.543   7.888  0.6158  0.1138 -2.3900
 3221SOL    HW221126   4.507   3.478   7.822 -0.0377  1.0612 -0.3626
 3222SOL     OW21127   4.430   0.433  16.122 -0.3694  0.3323  0.7365
 3222SOL    HW121128   4.438   0.475  16.036 -0.6795  0.4812  0.7823
 3222SOL    HW221129   4.521   0.403  16.122 -1.0563 -1.7834 -2.2698
 3223SOL     OW21130   2.010   2.354   4.416 -0.0680 -0.4116 -0.4310
 3223SOL    HW121131   2.078   2.349   4.348 -0.4333  2.1423 -0.9696
 3223SOL    HW221132   2.063   2.330   4.492  0.4603  2.5050  0.0859
 3224SOL     OW21133   3.189   1.123   8.358 -1.0729  0.1510 -0.0267
 3224SOL    HW121134   3.163   1.190   8.420 -1.3108  0.6573 -0.6679
 3224SOL    HW221135   3.237   1.063   8.415 -0.3692  0.6448 -0.1063
 3225SOL     OW21136   0.529   4.329   5.292  0.2345 -0.1292  0.5093
 3225SOL    HW121137   0.468   4.344   5.220 -0.5277  1.1123  1.4149
 3225SOL    HW221138   0.474   4.282   5.354 -2.0896  1.3701 -0.3870
 3226SOL     OW21139   0.011   1.664   3.059  0.2766  0.3737 -0.2523
 3226SOL    HW121140   0.077   1.596   3.049  1.3401  1.1166  1.7996
 3226SOL    HW221141   0.053   1.724   3.120 -1.2079  0.6841  0.4547
 3227SOL     OW21142   0.855   3.991  17.170  0.1026  0.3904  0.5464
 3227SOL    HW121143   0.895   3.905  17.183  0.8117  0.8996  1.7195
 3227SOL    HW221144   0.902   4.023  17.094  1.6039  0.1741  1.3947
 3228SOL     OW21145   0.313   0.582   3.643  0.5010 -0.1875 -0.1200
 3228SOL    HW121146   0.317   0.487   3.628  2.4773 -0.5141  2.5416
 3228SOL    HW221147   0.263   0.610   3.566 -1.7540 -1.0997  1.0075
 3229SOL     OW21148   3.979   3.774   4.856 -0.2000  0.3814 -0.2250
 3229SOL    HW121149   3.915   3.845   4.863 -1.0403 -0.2099 -1.7816
 3229SOL    HW221150   3.968   3.736   4.943  1.7315 -1.7879 -0.9009
 3230SOL     OW21151   2.269   4.712   7.704  0.3866 -0.1603  0.0605
 3230SOL    HW121152   2.280   4.619   7.723  1.6775  0.4554  2.2579
 3230SOL    HW221153   2.357   0.010   7.673  0.9032  1.1221  2.3717
 3231SOL     OW21154   1.097   2.261   6.154 -0.6993  0.2737  0.5841
 3231SOL    HW121155   1.026   2.241   6.093 -0.4861 -1.7265  0.9932
 3231SOL    HW221156   1.178   2.257   6.104 -1.2437 -0.8746 -0.1957
 3232SOL     OW21157   4.514   2.423  16.767  0.1248 -0.1069 -0.0277
 3232SOL    HW121158   4.522   2.468  16.683 -1.6650  0.5757  0.1568
 3232SOL    HW221159   4.453   2.484  16.809 -1.4711 -2.2184  0.7080
 3233SOL     OW21160   3.354   1.118   6.972  0.2158 -0.2950 -0.0668
 3233SOL    HW121161   3.367   1.206   6.936  2.0169 -1.0308 -1.2196
 3233SOL    HW221162   3.373   1.135   7.064  0.2177 -0.8399  0.0328
 3234SOL     OW21163   0.326   1.116  16.828 -0.3293  0.0095  0.3521
 3234SOL    HW121164   0.385   1.095  16.756 -2.4409 -2.7571 -0.5570
 3234SOL    HW221165   0.326   1.210  16.807 -0.7584 -0.2534 -0.7944
 3235SOL     OW21166   0.116   0.275  13.330  0.6712  0.5714  0.3842
 3235SOL    HW121167   0.166   0.346  13.370 -0.1911  2.6308 -2.2266
 3235SOL    HW221168   0.028   0.290  13.362 -0.0273  0.9785 -1.7003
 3236SOL     OW21169   4.677   0.216  14.093 -0.1509 -0.1942 -0.4106
 3236SOL    HW121170   0.021   0.148  14.081 -0.1752 -0.3948  0.5913
 3236SOL    HW221171   4.609   0.170  14.143  0.2023  0.2993  0.5254
 3237SOL     OW21172   0.974   1.631   2.247 -0.2048 -0.1398  0.4135
 3237SOL    HW121173   0.901   1.683   2.214  0.9224 -0.2839 -2.3321
 3237SOL    HW221174   1.007   1.670   2.328  0.5630  0.6376 -0.2680
 3238SOL     OW21175   3.112   0.035   7.279 -0.6167 -0.4325 -1.2227
 3238SOL    HW121176   3.118   0.096   7.352  0.7394 -1.5607 -0.4147
 3238SOL    HW221177   3.177   0.072   7.219  0.3075  0.9990  0.7025
 3239SOL     OW21178   3.901   0.171   4.899  0.7478  0.3591 -0.1216
 3239SOL    HW121179   3.815   0.213   4.891  0.3137 -0.0369  2.3213
 3239SOL    HW221180   3.908   0.152   4.993 -0.1288 -1.4777 -0.4377
 3240SOL     OW21181   1.565   3.097   8.462 -0.0850 -0.2019 -0.8284
 3240SOL    HW121182   1.539   3.181   8.499  0.5422 -0.2475 -0.2933
 3240SOL    HW221183   1.494   3.035   8.479  0.9055 -1.0632  0.1101
 3241SOL     OW21184   2.053   4.566   6.787 -0.2161 -0.0474  0.6098
 3241SOL    HW121185   2.002   4.566   6.706  1.8273 -1.9032 -0.6748
 3241SOL    HW221186   2.005   4.515   6.852 -1.2600 -2.1448 -1.8044
 3242SOL     OW21187   1.339   2.831  14.839 -0.7879 -0.0752 -0.0556
 3242SOL    HW121188   1.247   2.851  14.820 -1.1272 -1.3419  0.2788
 3242SOL    HW221189   1.331   2.778  14.919  0.0054  1.8556  1.3204
 3243SOL     OW21190   1.593   1.929   7.797 -0.5588 -0.5520  0.4463
 3243SOL    HW121191   1.543   1.961   7.872 -1.2892 -1.3801  0.3193
 3243SOL    HW221192   1.653   1.864   7.835  1.9310  0.8145 -1.1019
 3244SOL     OW21193   2.906   4.439   6.682 -0.6174 -0.2659  0.0661
 3244SOL    HW121194   2.999   4.462   6.684 -0.7227 -0.0409  2.0761
 3244SOL    HW221195   2.875   4.413   6.768  0.0146  1.4351  0.7992
 3245SOL     OW21196   1.548   2.705   9.607 -0.1824 -0.1419  0.2334
 3245SOL    HW121197   1.543   2.781   9.549 -0.6116  0.7138  1.3625
 3245SOL    HW221198   1.542   2.629   9.550 -0.4056  0.5933 -0.7103
 3246SOL     OW21199   2.780   3.060  13.356  0.4498 -0.1417  0.1288
 3246SOL    HW121200   2.856   3.023  13.310 -0.3199  1.1899 -2.2022
 3246SOL    HW221201   2.781   3.152  13.331  1.4215  0.4730  2.4639
 3247SOL     OW21202   1.774   3.463   8.255  0.1462  0.3508  0.4467
 3247SOL    HW121203   1.712   3.521   8.298 -0.4975  0.4319 -0.5683
 3247SOL    HW221204   1.744   3.490   8.168  2.1923  0.0763 -0.3466
 3248SOL     OW21205   4.528   4.524   2.362  0.0672 -0.4540  0.5284
 3248SOL    HW121206   4.511   4.431   2.345 -1.1024  0.0291 -0.8719
 3248SOL    HW221207   4.619   4.537   2.336 -0.5040  2.0223 -0.1805
 3249SOL     OW21208   3.694   4.079   7.041 -0.2883 -0.2339 -0.1133
 3249SOL    HW121209   3.710   4.174   7.048 -0.5344 -0.4630  3.7153
 3249SOL    HW221210   3.610   4.076   7.086 -0.6323 -1.1886 -0.8389
 3250SOL     OW21211   2.893   2.774   4.409  0.0012 -0.8604  0.4298
 3250SOL    HW121212   2.798   2.765   4.408  0.2245 -3.3303  1.7974
 3250SOL    HW221213   2.905   2.864   4.379 -1.4030 -0.3760  1.3558
 3251SOL     OW21214   4.499   1.798   1.192 -0.6846  0.0089 -0.6658
 3251SOL    HW121215   4.490   1.706   1.216  0.0841  0.8227  2.7128
 3251SOL    HW221216   4.522   1.796   1.099  0.5155  0.9279 -0.3856
 3252SOL     OW21217   1.688   0.857  17.401 -0.0571  0.3945 -0.2711
 3252SOL    HW121218   1.596   0.834  17.415 -0.1433 -0.0836 -1.6234
 3252SOL    HW221219   1.689   0.951  17.387  3.1026  0.3331 -0.3533
 3253SOL     OW21220   3.137   4.256   3.305 -0.2611  0.5422 -0.6651
 3253SOL    HW121221   3.058   4.289   3.348 -1.1103  0.1812 -1.9685
 3253SOL    HW221222   3.137   4.320   3.234 -1.8487  0.5115 -0.6867
 3254SOL     OW21223   4.114   1.134  16.340 -0.0326  0.2395  0.2609
 3254SOL    HW121224   4.024   1.121  16.370 -0.3256  0.0306 -0.7135
 3254SOL    HW221225   4.163   1.079  16.401  4.3292  1.1626 -2.4336
 3255SOL     OW21226   2.553   3.033   2.638 -0.9155 -0.1200 -0.7901
 3255SOL    HW121227   2.495   3.086   2.693 -0.1390 -0.1574  0.0592
 3255SOL    HW221228   2.604   2.992   2.708  0.2696  0.6745 -1.1899
 3256SOL     OW21229   1.360   1.808   9.200  0.0782 -0.2819  0.1679
 3256SOL    HW121230   1.290   1.841   9.144  1.3695 -1.2169 -2.0133
 3256SOL    HW221231   1.376   1.727   9.151 -0.0700 -1.6596  2.3820
 3257SOL     OW21232   3.098   2.432   9.256  0.1006  0.2520  0.2143
 3257SOL    HW121233   3.054   2.359   9.212 -1.0014 -0.5248  2.5779
 3257SOL    HW221234   3.147   2.470   9.183  0.1055 -1.8918 -0.8982
 3258SOL     OW21235   3.146   0.178   2.028 -0.1666  0.1802 -0.2205
 3258SOL    HW121236   3.154   0.165   1.934 -0.3456  1.0512 -0.3587
 3258SOL    HW221237   3.165   0.272   2.030  0.8760  0.0429 -4.7210
 3259SOL     OW21238   4.241   2.868   2.649  0.9498 -0.3817 -0.1469
 3259SOL    HW121239   4.179   2.832   2.712  1.3740 -0.1102  0.4202
 3259SOL    HW221240   4.182   2.850   2.575 -0.8253 -0.7396  1.3579
 3260SOL     OW21241   1.984   0.076   5.227  0.0744 -0.2100 -0.9260
 3260SOL    HW121242   2.030   0.160   5.220  0.4816 -0.2191  1.5283
 3260SOL    HW221243   2.043   0.005   5.253  2.0506  0.6661 -3.0001
 3261SOL     OW21244   1.190   1.087   3.981 -0.1860  0.4786  0.2133
 3261SOL    HW121245   1.110   1.115   3.938 -0.6525  0.5733  1.1433
 3261SOL    HW221246   1.201   1.152   4.050  0.7008  2.5943 -1.9407
 3262SOL     OW21247   3.842   3.910   6.620  0.1915 -0.0939  0.2030
 3262SOL    HW121248   3.904   3.942   6.686 -0.0964  0.5400  0.1748
 3262SOL    HW221249   3.771   3.902   6.683  0.5718 -1.3362  0.4572
 3263SOL     OW21250   0.059   2.674   0.006  0.0585 -0.0631  0.2845
 3263SOL    HW121251   0.007   2.752   0.024 -0.8050 -0.2250 -1.5138
 3263SOL    HW221252   0.137   2.705  17.647 -0.3717 -0.2760 -0.5804
 3264SOL     OW21253   4.203   2.435   7.568 -0.1960  0.1678  0.2498
 3264SOL    HW121254   4.109   2.432   7.549 -0.4097 -0.0949  1.3603
 3264SOL    HW221255   4.210   2.431   7.664 -1.1248 -1.3006  0.2555
 3265SOL     OW21256   2.819   2.036   3.623  0.1999  0.0698 -0.1616
 3265SOL    HW121257   2.859   1.969   3.567 -0.4849 -0.9653  0.5809
 3265SOL    HW221258   2.895   2.082   3.658 -0.2267  0.3554  0.3833
 3266SOL     OW21259   0.076   0.979   5.492 -0.3777 -0.6464 -0.0341
 3266SOL    HW121260   0.062   0.919   5.565 -0.4571  1.0933  1.3588
 3266SOL    HW221261   0.171   0.986   5.485 -0.4206  2.9379  2.8181
 3267SOL     OW21262   4.339   3.062  14.895 -0.4669 -0.0551 -0.4774
 3267SOL    HW121263   4.265   3.045  14.953  0.5832 -0.2123  0.8176
 3267SOL    HW221264   4.398   2.999  14.937  0.6183  1.8137  0.8470
 3268SOL     OW21265   3.300   3.530   6.933  0.0188  0.5357  0.0012
 3268SOL    HW121266   3.335   3.470   6.867 -1.0011 -0.0731  0.0196
 3268SOL    HW221267   3.230   3.573   6.884 -1.8830 -1.0973  1.2671
 3269SOL     OW21268   2.330   1.825  17.409  0.2426  0.4306  0.9880
 3269SOL    HW121269   2.273   1.767  17.459  1.0891 -0.8462  0.4813
 3269SOL    HW221270   2.280   1.906  17.410  0.7829  0.7792 -0.3745
 3270SOL     OW21271   0.386   3.000   5.058  0.3105 -0.0696 -0.0345
 3270SOL    HW121272   0.467   3.049   5.068  1.3958 -1.9357  0.3993
 3270SOL    HW221273   0.342   3.014   5.142  0.1830 -1.5828  0.1526
 3271SOL     OW21274   3.765   0.794   6.448  0.6270 -0.3421 -0.0890
 3271SOL    HW121275   3.753   0.881   6.484  1.9728 -0.3902  0.4701
 3271SOL    HW221276   3.684   0.754   6.481  2.2801 -1.1460  3.0184
 3272SOL     OW21277   1.470   4.363   7.085 -0.7584 -0.1289 -0.4065
 3272SOL    HW121278   1.394   4.305   7.090 -2.3832  1.7617 -3.2251
 3272SOL    HW221279   1.514   4.325   7.009  0.0682 -1.0125  0.5016
 3273SOL     OW21280   2.316   3.345   6.540 -0.5568 -0.0529 -0.3919
 3273SOL    HW121281   2.235   3.332   6.589 -1.0016 -1.9352 -1.6613
 3273SOL    HW221282   2.379   3.292   6.589 -0.1953  0.1868 -0.5869
 3274SOL     OW21283   0.059   0.038   8.091  0.4163 -0.3238  0.0115
 3274SOL    HW121284   0.126   0.060   8.155 -1.8783 -0.6898  2.5017
 3274SOL    HW221285   0.012   4.684   8.127  0.1131  0.9381  2.2538
 3275SOL     OW21286   4.605   4.118   9.528 -0.3286  0.2632 -0.3597
 3275SOL    HW121287   4.611   4.042   9.585  0.9622  0.3637 -0.3679
 3275SOL    HW221288   4.698   4.130   9.511 -0.4821  1.1247 -0.5794
 3276SOL     OW21289   1.505   0.825   7.727 -0.1457  0.0760 -0.7351
 3276SOL    HW121290   1.560   0.879   7.670 -1.4631  0.1613 -1.9234
 3276SOL    HW221291   1.489   0.752   7.668 -0.3422 -0.4465 -0.0317
 3277SOL     OW21292   1.331   4.466   6.741 -0.5191  0.0450 -0.4555
 3277SOL    HW121293   1.248   4.510   6.758 -0.4526 -0.8898  2.1745
 3277SOL    HW221294   1.390   4.496   6.809 -0.9176 -1.2127  0.4528
 3278SOL     OW21295   1.537   0.290  14.580 -0.8329 -0.2375  0.2754
 3278SOL    HW121296   1.589   0.368  14.600  0.1867 -1.1622  1.1406
 3278SOL    HW221297   1.495   0.312  14.496  0.7959  0.2955 -0.3960
 3279SOL     OW21298   3.224   3.609   4.697 -0.2748 -0.3221  0.0060
 3279SOL    HW121299   3.151   3.650   4.744  0.4567  1.0885 -0.0899
 3279SOL    HW221300   3.269   3.573   4.773 -0.3346 -0.6429 -0.1127
 3280SOL     OW21301   3.451   3.996   8.576  0.4770 -0.2168 -0.0379
 3280SOL    HW121302   3.492   4.080   8.597 -0.1933  0.7187 -2.5056
 3280SOL    HW221303   3.499   3.970   8.497 -0.3222 -1.4224 -0.1246
 3281SOL     OW21304   4.479   2.843  13.557  0.1553  0.4008  0.0086
 3281SOL    HW121305   4.432   2.923  13.537 -1.2076 -0.2569  0.5504
 3281SOL    HW221306   4.486   2.849  13.653 -0.4947 -1.7116  0.2057
 3282SOL     OW21307   3.438   0.973   7.410  0.2638  0.2149 -0.0756
 3282SOL    HW121308   3.532   0.969   7.393  0.2162 -1.8964  0.0700
 3282SOL    HW221309   3.415   0.880   7.413 -0.1385  0.3244  0.1717
 3283SOL     OW21310   0.493   3.654   8.695 -0.2667  0.4102  0.0189
 3283SOL    HW121311   0.414   3.663   8.748 -0.8915 -0.0085 -0.8419
 3283SOL    HW221312   0.520   3.566   8.720 -0.8154  0.2082 -0.1010
 3284SOL     OW21313   0.254   3.364  10.702 -0.2817 -0.5973 -0.4030
 3284SOL    HW121314   0.336   3.316  10.714  0.2683  0.1406 -1.1353
 3284SOL    HW221315   0.194   3.293  10.678 -1.0777  0.7971 -2.6008
 3285SOL     OW21316   4.282   1.330   2.623 -0.0177  0.2471 -0.7674
 3285SOL    HW121317   4.342   1.305   2.553  0.5063  0.3110 -0.3371
 3285SOL    HW221318   4.284   1.426   2.630  0.4200 -0.0195  2.6541
 3286SOL     OW21319   2.421   1.199   7.663 -0.3731  0.3381 -0.4102
 3286SOL    HW121320   2.476   1.204   7.740  0.0420 -0.0927 -0.6818
 3286SOL    HW221321   2.448   1.112   7.634  0.0618  0.4827 -0.4316
 3287SOL     OW21322   0.941   2.373  12.782 -0.2698  0.0136  0.7273
 3287SOL    HW121323   0.956   2.454  12.831 -0.0296  0.0362  0.6207
 3287SOL    HW221324   0.993   2.390  12.703 -0.6722 -1.2259  0.1883
 3288SOL     OW21325   3.839   1.630  10.291 -0.1814  0.2461 -0.1139
 3288SOL    HW121326   3.934   1.626  10.302 -0.1411  1.1934 -0.0971
 3288SOL    HW221327   3.811   1.566  10.357  1.3767  0.1686  0.4752
 3289SOL     OW21328   0.342   3.289   4.390 -0.2356 -0.1698  0.0845
 3289SOL    HW121329   0.313   3.376   4.362 -0.8542  0.3141  2.2101
 3289SOL    HW221330   0.330   3.247   4.305 -0.0715 -1.5381  0.7322
 3290SOL     OW21331   0.352   4.481   6.275  0.0279  0.2232 -0.7077
 3290SOL    HW121332   0.291   4.428   6.327 -3.1107  2.7490 -1.8504
 3290SOL    HW221333   0.422   4.420   6.252  1.0871  0.9950  0.4522
 3291SOL     OW21334   0.354   2.691   4.042  0.1544  0.5264 -0.4080
 3291SOL    HW121335   0.373   2.747   4.118  0.3550 -0.6872  0.4468
 3291SOL    HW221336   0.361   2.611   4.094 -0.0486  1.0000  0.3523
 3292SOL     OW21337   4.408   3.797  11.353  0.4166 -0.0081 -0.1049
 3292SOL    HW121338   4.444   3.743  11.283 -0.2745  0.1723 -0.6075
 3292SOL    HW221339   4.404   3.731  11.423 -3.4947  0.6333  0.2662
 3293SOL     OW21340   3.717   3.569   7.878  0.1549 -0.0860  0.3813
 3293SOL    HW121341   3.725   3.651   7.830  0.8564 -1.4273 -1.7701
 3293SOL    HW221342   3.796   3.586   7.928  1.7112 -0.8534 -1.8256
 3294SOL     OW21343   4.484   2.681   4.452  0.0295  0.4942  0.3476
 3294SOL    HW121344   4.456   2.701   4.363  2.3884  3.8771  0.3828
 3294SOL    HW221345   4.405   2.714   4.494  0.8955  2.0076  0.7750
 3295SOL     OW21346   0.766   2.612  12.011 -0.5956 -0.5963 -0.1901
 3295SOL    HW121347   0.746   2.651  12.096 -1.1560  0.8696 -0.9871
 3295SOL    HW221348   0.794   2.524  12.035 -0.8721 -0.6690 -0.1315
 3296SOL     OW21349   2.207   3.274   5.704  0.3561  0.1051  0.4182
 3296SOL    HW121350   2.245   3.230   5.780  0.5104  0.3026  0.4576
 3296SOL    HW221351   2.227   3.368   5.708  0.5519  0.0797  0.0279
 3297SOL     OW21352   2.171   2.346   4.194  0.0136 -0.0876 -0.1429
 3297SOL    HW121353   2.214   2.296   4.125 -0.8799 -0.8582 -0.1376
 3297SOL    HW221354   2.220   2.429   4.195  2.6437 -1.6303 -0.9794
 3298SOL     OW21355   2.805   4.455  11.098 -0.3859  0.1499 -0.0533
 3298SOL    HW121356   2.869   4.437  11.167  2.5025  2.6356 -2.0588
 3298SOL    HW221357   2.848   4.422  11.019  1.7264  0.8608  0.8042
 3299SOL     OW21358   3.204   2.213   0.325 -0.3049  0.0591 -0.1601
 3299SOL    HW121359   3.289   2.168   0.327 -0.9477 -1.1771 -0.6478
 3299SOL    HW221360   3.227   2.306   0.330  0.3643 -0.1205  0.0953
 3300SOL     OW21361   2.470   1.968   6.537  0.7849 -0.2584  0.0453
 3300SOL    HW121362   2.431   2.008   6.459 -0.2937 -0.6316  0.3857
 3300SOL    HW221363   2.540   1.921   6.492  1.3662  0.3134  0.3711
 3301SOL     OW21364   2.829   3.649   9.574 -1.0132  0.5919 -0.4783
 3301SOL    HW121365   2.813   3.743   9.574  3.5487  1.3962 -0.1699
 3301SOL    HW221366   2.746   3.620   9.611 -1.3202  1.6486 -0.3427
 3302SOL     OW21367   2.241   0.806   4.081  0.2719  0.8147  0.3580
 3302SOL    HW121368   2.236   0.713   4.104  2.4479 -0.1477 -3.0868
 3302SOL    HW221369   2.245   0.795   3.986  2.1916 -0.2513  0.5778
 3303SOL     OW21370   3.477   1.272  17.652  0.3038  0.0637  0.1496
 3303SOL    HW121371   3.410   1.334  17.679  2.0708  1.3380  1.6103
 3303SOL    HW221372   3.408   1.205  17.652  0.0956  0.2788  0.4338
 3304SOL     OW21373   3.257   1.035   4.774  0.3392  0.3501 -0.0993
 3304SOL    HW121374   3.334   1.089   4.756  0.3276  0.1324 -0.8002
 3304SOL    HW221375   3.234   1.080   4.855  0.5699 -0.3984  0.3713
 3305SOL     OW21376   3.906   2.310   8.192 -0.0279  0.6366 -0.1605
 3305SOL    HW121377   3.985   2.329   8.242  0.3735  0.6670 -0.7936
 3305SOL    HW221378   3.905   2.397   8.151  1.7778  0.1654 -1.2156
 3306SOL     OW21379   2.485   2.356  17.512  0.8297 -1.0706  0.3192
 3306SOL    HW121380   2.562   2.405  17.540 -0.7552  2.3228 -1.2460
 3306SOL    HW221381   2.456   2.319  17.595  0.9256  1.1032  1.3327
 3307SOL     OW21382   0.767   2.635   5.348  0.0761 -0.1461  0.1024
 3307SOL    HW121383   0.733   2.697   5.412 -0.1006 -0.9622  0.7943
 3307SOL    HW221384   0.716   2.556   5.360  0.8136 -0.3952  1.5909
 3308SOL     OW21385   2.052   3.598   9.165 -0.0006 -0.1875  0.0491
 3308SOL    HW121386   2.070   3.669   9.227 -0.8822  0.0968 -0.0188
 3308SOL    HW221387   2.004   3.646   9.097 -1.0810  1.0116  1.6625
 3309SOL     OW21388   3.483   3.866   5.175 -0.1438 -0.2545 -0.4555
 3309SOL    HW121389   3.450   3.824   5.254 -1.1112 -2.5454 -2.1088
 3309SOL    HW221390   3.442   3.952   5.183 -0.7204 -0.4949 -0.8149
 3310SOL     OW21391   0.869   0.848  17.645  0.0886  0.1844  0.5653
 3310SOL    HW121392   0.791   0.901  17.633 -0.2721 -0.4409  0.1475
 3310SOL    HW221393   0.933   0.912  17.614  0.9499 -0.6829  0.5635
 3311SOL     OW21394   2.733   3.748   4.441  0.4697 -0.3836  0.6096
 3311SOL    HW121395   2.788   3.824   4.462  1.3664 -0.8779  0.0726
 3311SOL    HW221396   2.722   3.758   4.346  2.0456  1.6540  0.6421
 3312SOL     OW21397   4.201   0.899   3.654 -0.4503 -0.1925 -0.2193
 3312SOL    HW121398   4.211   0.810   3.621  2.0017  0.3173 -0.9067
 3312SOL    HW221399   4.191   0.960   3.581  1.0965  0.0903 -0.2029
 3313SOL     OW21400   1.432   3.982  14.288 -0.1612 -0.3538  0.2664
 3313SOL    HW121401   1.477   3.952  14.209 -1.8350 -0.1765 -0.7336
 3313SOL    HW221402   1.422   4.076  14.272 -3.6878 -0.9081 -0.6612
 3314SOL     OW21403   2.416   3.013   3.235  0.0448 -0.0815  0.2177
 3314SOL    HW121404   2.322   2.999   3.225 -0.0843  0.2601  0.9640
 3314SOL    HW221405   2.414   3.011   3.331 -2.5442  1.8948  0.1762
 3315SOL     OW21406   0.169   0.993   6.094 -0.6761  0.0410  0.6334
 3315SOL    HW121407   0.180   1.033   6.007  1.0933  0.0516  0.8506
 3315SOL    HW221408   0.194   0.904   6.069 -0.5491 -0.1246  1.3657
 3316SOL     OW21409   2.606   2.027   8.029 -0.3025 -0.6485  0.1174
 3316SOL    HW121410   2.527   1.983   7.997 -0.4756 -1.5794  1.8556
 3316SOL    HW221411   2.673   1.998   7.967 -0.5394 -0.1007 -0.4044
 3317SOL     OW21412   3.521   1.546  14.487 -0.4282 -0.0874  0.0640
 3317SOL    HW121413   3.433   1.554  14.523 -0.0780 -0.7123  1.0481
 3317SOL    HW221414   3.570   1.552  14.569 -0.3386 -0.8459  0.0614
 3318SOL     OW21415   1.780   0.395  12.854  0.2840 -0.0443  0.2200
 3318SOL    HW121416   1.708   0.451  12.883  0.2623  0.3544 -0.6032
 3318SOL    HW221417   1.854   0.454  12.865  0.4216  0.0722 -1.3137
 3319SOL     OW21418   4.290   4.359   0.676  0.0731  0.0647 -0.5358
 3319SOL    HW121419   4.253   4.271   0.677  0.3321 -0.0414  0.0824
 3319SOL    HW221420   4.282   4.378   0.770 -3.6095  1.9068 -1.2399
 3320SOL     OW21421   4.046   0.224  11.743 -0.1065  0.4311 -0.2374
 3320SOL    HW121422   4.018   0.240  11.834  0.8255 -0.0720  0.1324
 3320SOL    HW221423   4.028   0.131  11.735 -0.2776  0.0841  3.7455
 3321SOL     OW21424   3.619   3.073   6.010 -0.7541 -0.1169  0.5525
 3321SOL    HW121425   3.631   3.089   6.103  0.1060 -0.0618  0.4307
 3321SOL    HW221426   3.682   3.002   6.006 -0.7724 -0.1124  0.1839
 3322SOL     OW21427   3.618   1.489   4.195  0.7561 -0.0656 -0.3364
 3322SOL    HW121428   3.545   1.538   4.234  0.2993  0.2971 -1.6163
 3322SOL    HW221429   3.630   1.539   4.114  0.4866  0.4417 -0.0673
 3323SOL     OW21430   0.873   3.072   3.389  0.1292 -0.5981 -0.1572
 3323SOL    HW121431   0.870   3.029   3.304 -0.3296 -0.2556 -0.3166
 3323SOL    HW221432   0.909   3.158   3.368  0.6868 -0.5138  1.1546
 3324SOL     OW21433   2.997   1.870   7.418 -0.1494 -0.3917 -0.2400
 3324SOL    HW121434   2.936   1.801   7.389 -1.8130  1.6837 -1.6840
 3324SOL    HW221435   2.930   1.934   7.443 -1.3496 -1.8092  0.2388
 3325SOL     OW21436   4.435   0.639   5.378 -0.2563 -0.8239 -0.5798
 3325SOL    HW121437   4.422   0.546   5.361  2.3464 -1.1412 -0.8261
 3325SOL    HW221438   4.378   0.658   5.453  1.2932 -1.8157  0.8417
 3326SOL     OW21439   0.191   0.972   4.889  0.9264  0.1452  0.4990
 3326SOL    HW121440   0.118   0.962   4.950  1.5930  0.8737  1.4183
 3326SOL    HW221441   0.210   1.065   4.884 -1.6233  0.6362  0.1078
 3327SOL     OW21442   3.199   4.174   7.330 -0.5775  0.1306 -0.3595
 3327SOL    HW121443   3.200   4.265   7.299 -1.0487  0.2357 -0.0757
 3327SOL    HW221444   3.149   4.192   7.410 -1.5712 -0.9937 -0.7232
 3328SOL     OW21445   1.337   0.361   3.423 -1.1685 -0.3013  0.0093
 3328SOL    HW121446   1.418   0.367   3.373  0.1517 -3.3228  1.7818
 3328SOL    HW221447   1.362   0.310   3.500 -2.2193 -0.3002  0.3526
 3329SOL     OW21448   3.570   1.329   7.750  0.2374 -0.3707  0.4015
 3329SOL    HW121449   3.548   1.388   7.821  3.3271  1.7621 -0.4267
 3329SOL    HW221450   3.664   1.310   7.757  0.7862  1.9081 -0.9920
 3330SOL     OW21451   0.900   1.930  15.680  0.3470 -0.2954  0.4307
 3330SOL    HW121452   0.865   1.843  15.660 -1.9124  0.8336 -0.6506
 3330SOL    HW221453   0.960   1.936  15.606  3.4185  1.0937  3.0639
 3331SOL     OW21454   2.567   3.871   5.229 -0.3958 -0.4036 -0.4306
 3331SOL    HW121455   2.532   3.928   5.297 -0.4842 -0.9706 -0.0091
 3331SOL    HW221456   2.557   3.786   5.270  1.4729 -0.1674  0.4892
 3332SOL     OW21457   4.305   4.346   4.410 -0.3727 -0.0949 -0.7756
 3332SOL    HW121458   4.256   4.329   4.491  0.0135 -1.3829 -0.8155
 3332SOL    HW221459   4.276   4.434   4.385 -0.3658  0.5061  1.2779
 3333SOL     OW21460   3.282   1.253  16.677  0.2837 -0.3792  0.2437
 3333SOL    HW121461   3.355   1.299  16.718  0.8212 -0.1127 -1.0331
 3333SOL    HW221462   3.222   1.327  16.687 -1.5198 -1.6133 -1.4754
 3334SOL     OW21463   0.069   1.464   5.352  0.2215  0.2495 -0.6646
 3334SOL    HW121464   0.053   1.440   5.443 -0.7851 -1.5766 -1.2975
 3334SOL    HW221465   0.000   1.409   5.313 -1.1691  0.2891  1.7700
 3335SOL     OW21466   2.099   1.789   4.553  0.3083 -0.5081 -0.1962
 3335SOL    HW121467   2.010   1.754   4.555  0.4622 -0.9372 -0.8549
 3335SOL    HW221468   2.140   1.723   4.497  0.1365 -1.3868  0.6916
 3336SOL     OW21469   3.646   3.618   3.731  0.1181  0.0816  0.2677
 3336SOL    HW121470   3.591   3.593   3.805 -0.8036 -2.6042 -1.3305
 3336SOL    HW221471   3.677   3.528   3.717  0.3892  0.0900  0.7929
 3337SOL     OW21472   0.471   1.703   7.233 -0.5759 -0.1973  0.3467
 3337SOL    HW121473   0.410   1.756   7.182  2.4502  0.8610 -2.2171
 3337SOL    HW221474   0.424   1.704   7.316 -0.6383  0.6036  0.3026
 3338SOL     OW21475   2.315   1.670   8.121  0.2548 -0.4955  0.0277
 3338SOL    HW121476   2.337   1.577   8.119 -0.9046 -0.7814  1.3363
 3338SOL    HW221477   2.299   1.689   8.213 -1.6023  0.4718 -0.5023
 3339SOL     OW21478   0.623   2.195  14.271 -0.0841  0.5933 -0.0101
 3339SOL    HW121479   0.652   2.104  14.270 -1.1313  0.2479  0.1252
 3339SOL    HW221480   0.528   2.183  14.276 -0.2561  2.3345  0.9532
 3340SOL     OW21481   3.451   3.514   2.466 -0.4993 -0.2889  0.6196
 3340SOL    HW121482   3.384   3.580   2.481 -0.7371 -0.1590 -1.0108
 3340SOL    HW221483   3.470   3.530   2.374 -2.7396 -1.3580 -0.0400
 3341SOL     OW21484   3.731   0.192   4.408  0.1179  0.5831  0.3197
 3341SOL    HW121485   3.806   0.250   4.417  1.1512 -0.8268  0.8218
 3341SOL    HW221486   3.670   0.217   4.478 -0.5228  1.2139 -0.4733
 3342SOL     OW21487   3.326   2.395   2.530 -0.3774  0.0237 -0.1525
 3342SOL    HW121488   3.367   2.309   2.539  1.4187  0.6638 -1.9399
 3342SOL    HW221489   3.378   2.422   2.454 -0.8644 -0.5155 -0.6721
 3343SOL     OW21490   2.308   0.073   0.607 -0.1334  0.7328  0.0369
 3343SOL    HW121491   2.301   0.122   0.689  2.8374 -0.7703  1.1482
 3343SOL    HW221492   2.257   0.000   0.642  0.7676  1.3199  2.5656
 3344SOL     OW21493   1.472   2.450   8.287  0.0440 -0.0045  0.1480
 3344SOL    HW121494   1.452   2.449   8.193  1.3303 -2.8306 -0.0966
 3344SOL    HW221495   1.382   2.426   8.310  0.1501 -3.3744 -3.0057
 3345SOL     OW21496   4.499   3.328  11.835  0.3793 -0.3082  0.3607
 3345SOL    HW121497   4.442   3.297  11.764 -0.1846 -1.2064  1.2103
 3345SOL    HW221498   4.464   3.417  11.838 -0.6809 -0.6224 -2.3046
 3346SOL     OW21499   4.322   0.343  15.491  0.5450  0.0531 -0.0522
 3346SOL    HW121500   4.279   0.285  15.429 -1.8849  0.5115  1.1880
 3346SOL    HW221501   4.329   0.291  15.572  0.4790 -0.2218 -0.2227
 3347SOL     OW21502   3.001   2.709   5.883  0.1730 -0.6117 -0.6729
 3347SOL    HW121503   2.977   2.705   5.791 -1.7291  0.3690 -0.2216
 3347SOL    HW221504   2.956   2.629   5.913 -0.9397 -0.2227 -1.2904
 3348SOL     OW21505   3.764   1.076   5.545 -0.3259 -0.3012 -1.1273
 3348SOL    HW121506   3.774   0.982   5.528 -1.4010 -0.8921  1.5802
 3348SOL    HW221507   3.670   1.091   5.536 -0.7101 -1.4502  0.9485
 3349SOL     OW21508   0.396   4.349   6.673 -0.3970 -0.1659 -0.9349
 3349SOL    HW121509   0.422   4.438   6.648 -1.0143  0.2947  0.0367
 3349SOL    HW221510   0.319   4.378   6.722 -0.4400 -1.2138 -0.3738
 3350SOL     OW21511   0.956   1.631  14.870  0.1253  0.4383 -0.8988
 3350SOL    HW121512   1.048   1.645  14.892 -0.3588 -0.6506  1.8503
 3350SOL    HW221513   0.924   1.646  14.959  0.9147 -0.2746 -0.4860
 3351SOL     OW21514   4.417   3.018  16.556 -0.0767  0.2510 -0.0037
 3351SOL    HW121515   4.454   3.057  16.477  2.3086 -0.9851  0.5149
 3351SOL    HW221516   4.355   2.958  16.514  1.3004 -0.6982 -0.6576
 3352SOL     OW21517   3.122   3.676  14.999 -0.5445 -0.0002  0.3216
 3352SOL    HW121518   3.148   3.711  14.913  2.0523 -2.1741  0.1977
 3352SOL    HW221519   3.188   3.611  15.025 -2.5983 -1.5000  1.7591
 3353SOL     OW21520   0.265   3.621  10.613 -0.2651  0.0946  0.3055
 3353SOL    HW121521   0.248   3.530  10.634 -0.5210  0.1452  0.3206
 3353SOL    HW221522   0.333   3.633  10.679 -0.3662  0.9876  0.2486
 3354SOL     OW21523   4.671   2.093   1.684 -0.3761  0.5806 -0.4749
 3354SOL    HW121524   4.602   2.028   1.697  0.2552 -0.2262 -1.0916
 3354SOL    HW221525   0.019   2.047   1.732 -1.4165  0.9552  1.3704
 3355SOL     OW21526   0.578   0.255   7.824 -0.1099  0.0552  0.0054
 3355SOL    HW121527   0.525   0.307   7.764 -2.2596 -0.3438  1.5384
 3355SOL    HW221528   0.653   0.222   7.775 -1.2048 -3.7833  0.9178
 3356SOL     OW21529   4.067   1.591   0.393 -0.1261 -0.7883 -0.1485
 3356SOL    HW121530   4.161   1.599   0.377 -0.2435  0.0979 -0.3575
 3356SOL    HW221531   4.037   1.561   0.307  2.5678 -1.7790 -0.7240
 3357SOL     OW21532   3.454   1.548  12.180 -0.4451  1.0138  0.2443
 3357SOL    HW121533   3.380   1.561  12.120  0.9138  0.9306 -1.4698
 3357SOL    HW221534   3.500   1.626  12.149  2.0533  0.6158  2.9127
 3358SOL     OW21535   2.953   4.126   0.278 -0.4305 -1.0750 -0.0513
 3358SOL    HW121536   2.905   4.051   0.313  0.2460 -1.8385 -0.7527
 3358SOL    HW221537   2.998   4.095   0.199  0.9461  1.3965 -0.2340
 3359SOL     OW21538   4.330   0.093  16.238  0.0190  0.1334 -0.2428
 3359SOL    HW121539   4.271   0.142  16.295  0.2411 -0.0907  0.1797
 3359SOL    HW221540   4.412   0.072  16.282 -0.6362 -1.1305  0.3713
 3360SOL     OW21541   0.430   1.682   2.132  0.5778 -0.1953  0.4986
 3360SOL    HW121542   0.490   1.611   2.155  1.2874  0.0008 -0.7795
 3360SOL    HW221543   0.435   1.683   2.037 -0.6731 -0.6379  0.4287
 3361SOL     OW21544   4.662   3.445  11.598 -0.7881 -0.3018  0.4152
 3361SOL    HW121545   4.664   3.389  11.520 -2.9250  0.7470 -0.4159
 3361SOL    HW221546   4.687   3.392  11.673  1.4862  0.2166  0.0345
 3362SOL     OW21547   3.784   3.891  10.037  0.3291 -0.1927  0.5053
 3362SOL    HW121548   3.734   3.972  10.051  1.0821  0.4890 -0.7348
 3362SOL    HW221549   3.823   3.913   9.953 -0.5637 -0.6299 -0.0203
 3363SOL     OW21550   4.717   0.892   4.285  0.1950 -0.2761  0.0851
 3363SOL    HW121551   4.650   0.838   4.328  2.1423 -2.9679 -0.2560
 3363SOL    HW221552   4.698   0.974   4.330  2.0171  0.6792 -0.8631
 3364SOL     OW21553   1.135   0.238   4.653 -0.0752  0.5078 -0.1354
 3364SOL    HW121554   1.148   0.300   4.725 -2.4595 -1.0186  1.6094
 3364SOL    HW221555   1.169   0.283   4.575  2.1790  2.3751  1.9328
 3365SOL     OW21556   2.904   3.290   3.971 -0.1384 -0.1998  0.3712
 3365SOL    HW121557   2.989   3.308   3.932  0.5359  0.6858  2.2550
 3365SOL    HW221558   2.859   3.375   3.964 -0.1889 -0.1300  1.5764
 3366SOL     OW21559   0.584   1.049  12.058  0.0290  0.6837  1.0652
 3366SOL    HW121560   0.490   1.033  12.050 -0.1623  0.6525  3.1411
 3366SOL    HW221561   0.611   1.049  11.966 -0.8608 -0.0451  0.8070
 3367SOL     OW21562   3.420   0.756  10.132  0.0590 -0.4037  0.1227
 3367SOL    HW121563   3.330   0.726  10.137 -0.1975  0.5149  1.0076
 3367SOL    HW221564   3.398   0.838  10.088  2.9180  1.0828  1.4576
 3368SOL     OW21565   2.692   4.615   4.850 -0.0817 -0.3614 -0.5786
 3368SOL    HW121566   2.611   4.567   4.834  0.8601 -1.5762 -1.6153
 3368SOL    HW221567   2.672   4.698   4.805 -0.7004 -1.0085 -1.4901
 3369SOL     OW21568   1.363   4.426  14.109 -0.6972  0.1290  0.0429
 3369SOL    HW121569   1.413   4.493  14.156  3.7207 -2.4686 -1.0496
 3369SOL    HW221570   1.414   4.403  14.031  0.2002 -0.5226  0.8271
 3370SOL     OW21571   3.223   2.626   3.293  0.1936  0.0239  0.2963
 3370SOL    HW121572   3.220   2.653   3.385 -0.6358  0.4820  0.1385
 3370SOL    HW221573   3.243   2.712   3.255  0.7436 -0.7824 -1.2808
 3371SOL     OW21574   4.284   4.472   1.889 -0.2378  0.3304  0.0541
 3371SOL    HW121575   4.366   4.521   1.900 -1.2071  1.6053  1.6413
 3371SOL    HW221576   4.279   4.470   1.794  3.4770 -0.8200 -0.1155
 3372SOL     OW21577   0.645   0.524   6.355 -0.2685 -0.1491  0.1744
 3372SOL    HW121578   0.740   0.518   6.347 -0.1332 -0.9704  2.1924
 3372SOL    HW221579   0.647   0.525   6.451 -0.0632 -2.2377  0.1889
 3373SOL     OW21580   4.467   4.083  10.755 -0.2119 -0.3964  0.0654
 3373SOL    HW121581   4.488   4.147  10.822 -1.2079 -0.7391  0.7114
 3373SOL    HW221582   4.498   4.125  10.675  1.2533  1.1114  1.4351
 3374SOL     OW21583   1.684   2.292   1.687  0.5164  0.1860 -0.0467
 3374SOL    HW121584   1.775   2.298   1.715  0.8911  0.1366 -1.2681
 3374SOL    HW221585   1.663   2.384   1.676  0.3283  0.0559 -0.7750
 3375SOL     OW21586   0.782   3.674  16.965 -0.3831  0.3527  0.9716
 3375SOL    HW121587   0.803   3.581  16.968  0.4001  0.4852 -0.5857
 3375SOL    HW221588   0.855   3.708  16.913 -1.2746 -0.1481 -0.5935
 3376SOL     OW21589   0.677   4.025   8.794  0.2211 -0.3920 -0.1769
 3376SOL    HW121590   0.743   4.054   8.857 -0.0935  3.1844 -1.4766
 3376SOL    HW221591   0.682   4.100   8.735 -0.9084  1.2941  1.8674
 3377SOL     OW21592   0.187   0.686  10.500  0.5515  0.3728  0.2642
 3377SOL    HW121593   0.096   0.715  10.495  0.7764  1.0535  0.1675
 3377SOL    HW221594   0.188   0.610  10.558 -1.1396  0.8001  0.8392
 3378SOL     OW21595   1.705   1.897  14.043  0.0617 -0.3559  0.0469
 3378SOL    HW121596   1.772   1.829  14.048 -2.1420 -2.5531 -0.4207
 3378SOL    HW221597   1.675   1.908  14.133  1.1738  1.0876  0.2523
 3379SOL     OW21598   4.233   0.750   1.594  0.4123 -0.3260 -0.4842
 3379SOL    HW121599   4.290   0.733   1.669  1.2938 -3.0731 -1.7511
 3379SOL    HW221600   4.196   0.835   1.615  1.5827  0.4464 -1.5450
 3380SOL     OW21601   1.140   2.777   4.527 -0.0353 -0.2933  0.3165
 3380SOL    HW121602   1.053   2.816   4.510 -0.3806 -0.4395  1.8191
 3380SOL    HW221603   1.143   2.693   4.481  0.4111 -0.8788  1.4511
 3381SOL     OW21604   2.362   2.654   7.113 -0.3992 -0.5166 -0.5486
 3381SOL    HW121605   2.326   2.740   7.090 -0.6863 -0.1087  1.4446
 3381SOL    HW221606   2.407   2.628   7.033 -0.9737 -0.4817 -0.8804
 3382SOL     OW21607   0.819   2.760  15.053 -0.0595 -0.0948 -0.2960
 3382SOL    HW121608   0.734   2.715  15.051  0.6370 -1.3504 -1.4806
 3382SOL    HW221609   0.862   2.703  15.116  0.2738  0.6775  0.1739
 3383SOL     OW21610   3.498   4.680  17.636 -0.0529 -0.1317  0.2682
 3383SOL    HW121611   3.519   4.631   0.028  2.6680 -0.4582 -0.6714
 3383SOL    HW221612   3.410   4.699  17.668 -0.6054 -1.4082 -0.4785
 3384SOL     OW21613   1.747   0.175   5.153 -0.0155 -0.1867  0.1356
 3384SOL    HW121614   1.823   0.144   5.202 -0.1893 -2.7572 -1.2321
 3384SOL    HW221615   1.772   0.266   5.167  0.9609 -0.4932  0.4042
 3385SOL     OW21616   0.559   0.162   6.683 -0.3813 -0.0332 -0.3110
 3385SOL    HW121617   0.632   0.111   6.717 -1.3490  1.0091  3.2345
 3385SOL    HW221618   0.532   0.207   6.763  2.1134 -0.5693  0.8328
 3386SOL     OW21619   1.299   0.710  17.677  0.6293  1.0231  0.3920
 3386SOL    HW121620   1.298   0.651   0.065 -0.6366  1.2910  0.5774
 3386SOL    HW221621   1.226   0.768   0.009 -0.2181  0.8113 -2.0854
 3387SOL     OW21622   4.600   4.611   0.708 -0.2453 -0.2695 -0.1602
 3387SOL    HW121623   4.560   4.689   0.668  1.6944  2.2379  2.7897
 3387SOL    HW221624   4.576   4.539   0.650  0.9057 -0.4661 -0.3826
 3388SOL     OW21625   1.961   0.621  13.578 -0.7699 -0.3349 -0.5574
 3388SOL    HW121626   1.956   0.572  13.495  0.0614  2.8236 -2.4799
 3388SOL    HW221627   1.933   0.555  13.641 -3.0616  1.2678  0.1219
 3389SOL     OW21628   3.987   4.108  14.088 -0.6482  0.1385 -0.4572
 3389SOL    HW121629   3.901   4.066  14.091 -0.5912 -0.0318 -1.0394
 3389SOL    HW221630   3.978   4.160  14.167  1.6077 -2.0996  1.2462
 3390SOL     OW21631   3.866   3.766   3.669 -0.3310 -0.3856 -0.1544
 3390SOL    HW121632   3.796   3.702   3.683 -1.9381  1.1499 -1.1339
 3390SOL    HW221633   3.908   3.768   3.755  0.8314 -2.0083 -0.6962
 3391SOL     OW21634   2.424   0.908   5.575  0.4065  0.0899  0.0687
 3391SOL    HW121635   2.416   0.970   5.648  1.7028 -0.1021  0.3688
 3391SOL    HW221636   2.360   0.951   5.519  0.5328 -0.0091 -0.1498
 3392SOL     OW21637   4.148   3.079   0.821  0.3493 -0.4017 -0.1388
 3392SOL    HW121638   4.128   3.172   0.812 -0.8290 -0.3923  2.4135
 3392SOL    HW221639   4.127   3.062   0.913  2.4959  0.0441  0.4373
 3393SOL     OW21640   1.946   3.515   7.867  0.2215  0.0081 -0.0589
 3393SOL    HW121641   1.870   3.530   7.923  2.1770  0.4546  2.4599
 3393SOL    HW221642   1.949   3.419   7.862  0.8641  0.1741 -2.6389
 3394SOL     OW21643   2.111   1.061   7.088  0.6426 -0.1149 -0.1131
 3394SOL    HW121644   2.065   1.071   7.005  1.2312  0.9973 -0.3055
 3394SOL    HW221645   2.067   0.986   7.127  1.1766  0.3351  1.3371
 3395SOL     OW21646   0.488   2.480   7.956  0.2045 -0.5002 -0.1385
 3395SOL    HW121647   0.537   2.406   7.920  0.1904  0.4928 -2.1869
 3395SOL    HW221648   0.406   2.451   7.917 -1.5858 -1.4084  4.2879
 3396SOL     OW21649   0.097   3.219   3.034 -0.1217  0.2083  0.2091
 3396SOL    HW121650   0.097   3.223   2.938  1.5583  0.1788  0.2071
 3396SOL    HW221651   0.167   3.156   3.051 -0.0715  0.1544 -0.1868
 3397SOL     OW21652   4.713   0.917  11.766 -0.6359 -0.0148  0.2530
 3397SOL    HW121653   4.681   0.827  11.775  2.1530 -0.8843  1.4088
 3397SOL    HW221654   4.630   0.959  11.790 -0.7564  0.2829 -0.6993
 3398SOL     OW21655   2.567   3.708   0.197  0.4378 -0.0573 -0.2688
 3398SOL    HW121656   2.501   3.718   0.266  0.2224 -2.7613 -0.0917
 3398SOL    HW221657   2.520   3.642   0.145 -2.1766  1.1127  0.6046
 3399SOL     OW21658   4.475   3.798   8.175 -0.6826  0.0386 -0.3397
 3399SOL    HW121659   4.476   3.724   8.236  0.4533 -1.4427 -2.1730
 3399SOL    HW221660   4.457   3.864   8.243  1.5483 -0.0675  0.3554
 3400SOL     OW21661   4.233   3.754   3.796  0.4332  0.6143  0.6162
 3400SOL    HW121662   4.306   3.717   3.747  0.9544  3.5875 -0.8655
 3400SOL    HW221663   4.200   3.679   3.845  0.4115 -0.6019 -1.2987
 3401SOL     OW21664   0.753   1.514   9.011 -0.0843 -0.4306  0.7698
 3401SOL    HW121665   0.740   1.419   9.004  0.2059 -0.3104 -1.7072
 3401SOL    HW221666   0.713   1.543   8.929  3.7859  1.0470 -0.5788
 3402SOL     OW21667   2.307   0.831   1.741 -0.8671  0.4099  0.3889
 3402SOL    HW121668   2.341   0.814   1.829  1.8406  0.0489 -0.7362
 3402SOL    HW221669   2.382   0.802   1.688  0.8026  2.5782  1.5662
 3403SOL     OW21670   0.044   3.223   8.634  0.6403 -0.1476 -0.4844
 3403SOL    HW121671   0.039   3.270   8.717  0.8033  2.0760 -1.7238
 3403SOL    HW221672   0.137   3.200   8.626 -0.1330 -3.1531 -0.6684
 3404SOL     OW21673   2.059   2.228   2.780 -0.1542  0.1298 -0.4012
 3404SOL    HW121674   2.041   2.311   2.735  2.2372  0.7604 -0.2295
 3404SOL    HW221675   2.056   2.250   2.873  1.7345 -0.5012 -0.1908
 3405SOL     OW21676   0.983   2.316  14.464  0.3581  0.0998  0.5017
 3405SOL    HW121677   0.981   2.355  14.377  1.1379 -2.0731 -0.4862
 3405SOL    HW221678   0.895   2.343  14.489 -0.0740  0.1333 -1.0366
 3406SOL     OW21679   4.409   0.021   2.769 -0.3938  0.4557  0.8367
 3406SOL    HW121680   4.495   0.015   2.728 -1.2870 -0.9942 -0.7803
 3406SOL    HW221681   4.358   4.676   2.724 -0.4060  0.0419  1.4532
 3407SOL     OW21682   2.025   1.980   2.706  0.0421  0.6723 -0.6196
 3407SOL    HW121683   2.119   1.978   2.722  0.2860 -0.4173 -2.1772
 3407SOL    HW221684   2.009   2.067   2.742 -0.0528  0.0059  0.9520
 3408SOL     OW21685   4.504   2.000   0.166 -0.1731  0.1664  0.3199
 3408SOL    HW121686   4.415   1.965   0.170 -0.1083 -0.0196  0.0447
 3408SOL    HW221687   4.483   2.061   0.095 -0.8370  0.6507  0.9240
 3409SOL     OW21688   3.370   4.216   6.143 -0.2659 -0.1892  0.3874
 3409SOL    HW121689   3.433   4.238   6.212 -3.4320  2.4421  2.4123
 3409SOL    HW221690   3.378   4.283   6.075  0.4836  1.1797  1.8170
 3410SOL     OW21691   4.411   3.665   6.136 -0.1564 -0.1246  0.1507
 3410SOL    HW121692   4.389   3.613   6.213 -1.6762  0.4546  0.0946
 3410SOL    HW221693   4.503   3.644   6.121 -0.5751 -0.8149 -1.4948
 3411SOL     OW21694   0.692   0.058  12.389 -0.4210 -0.0672 -0.5498
 3411SOL    HW121695   0.631   0.031  12.320  0.9937 -1.2967 -1.2944
 3411SOL    HW221696   0.631   0.055  12.464 -2.4553  0.9528 -2.1451
 3412SOL     OW21697   0.383   0.414   2.501 -0.1416 -0.0858  0.0839
 3412SOL    HW121698   0.292   0.387   2.514 -0.9067  1.9334 -1.0750
 3412SOL    HW221699   0.414   0.332   2.463 -0.0109 -0.4853  1.0454
 3413SOL     OW21700   0.816   2.337   8.251 -0.2738  0.3070 -0.2735
 3413SOL    HW121701   0.877   2.348   8.324  0.1980  0.6332 -0.7216
 3413SOL    HW221702   0.743   2.394   8.277  1.5393  2.4212  0.1903
 3414SOL     OW21703   3.913   1.764   6.868 -0.3981 -0.6023  0.0082
 3414SOL    HW121704   4.006   1.784   6.854 -0.2006 -3.4398 -2.9841
 3414SOL    HW221705   3.877   1.795   6.785 -0.4211  0.5645  0.4655
 3415SOL     OW21706   1.595   1.765   2.451 -0.5178 -0.1836  0.4581
 3415SOL    HW121707   1.593   1.711   2.530  0.9328  1.1453  1.4213
 3415SOL    HW221708   1.663   1.831   2.466 -0.0842 -1.1672  2.8382
 3416SOL     OW21709   4.572   1.931   5.751  0.0292 -0.3814  0.2519
 3416SOL    HW121710   4.535   2.013   5.716  1.1458  0.5342  1.2174
 3416SOL    HW221711   4.491   1.880   5.752  1.3417 -2.4406 -0.5344
 3417SOL     OW21712   3.737   2.300   6.988 -0.6637 -0.6709  0.0196
 3417SOL    HW121713   3.685   2.378   6.968 -0.0602 -0.6312 -1.4029
 3417SOL    HW221714   3.818   2.346   7.008  0.2120 -2.8680  1.5202
 3418SOL     OW21715   2.236   3.721   3.358  0.0433  0.2343  0.1671
 3418SOL    HW121716   2.274   3.634   3.347  0.8401  0.3202  2.2031
 3418SOL    HW221717   2.173   3.737   3.288  0.9883  1.9524 -0.2690
 3419SOL     OW21718   1.318   0.581   9.382  0.6606  0.5367 -0.1884
 3419SOL    HW121719   1.330   0.523   9.457  2.3455  0.3861 -0.5728
 3419SOL    HW221720   1.230   0.605   9.411 -0.2121  0.0153 -2.4361
 3420SOL     OW21721   0.127   0.932   9.400  0.2579  0.0491  0.2515
 3420SOL    HW121722   0.177   0.911   9.478  2.0156 -2.7708 -1.6450
 3420SOL    HW221723   0.130   0.848   9.354 -0.2942 -0.8113  1.7904
 3421SOL     OW21724   1.547   0.800   6.069  0.6237 -0.1442 -0.2713
 3421SOL    HW121725   1.554   0.871   6.133  0.3961 -0.4633  0.1033
 3421SOL    HW221726   1.565   0.840   5.983  0.5854  2.0877  0.7483
 3422SOL     OW21727   3.484   2.225   9.568  0.1276 -0.0132  0.1079
 3422SOL    HW121728   3.451   2.304   9.610  2.3571  0.2446  1.4005
 3422SOL    HW221729   3.433   2.153   9.606 -1.5200  1.0496 -0.1062
 3423SOL     OW21730   2.443   2.050   4.336  0.1910 -0.0053  0.2564
 3423SOL    HW121731   2.515   2.069   4.395  1.8047 -1.5139 -1.2024
 3423SOL    HW221732   2.405   1.968   4.367 -0.4025  1.1482  2.5502
 3424SOL     OW21733   1.617   2.746   2.899  0.1435 -0.4757 -0.0266
 3424SOL    HW121734   1.616   2.815   2.965 -0.3928 -0.6245  0.1162
 3424SOL    HW221735   1.534   2.701   2.915 -0.5564  1.2115  0.9747
 3425SOL     OW21736   0.484   0.050  15.677 -0.0856  0.1824 -0.2893
 3425SOL    HW121737   0.432   0.053  15.757  1.3048  0.4104  0.6020
 3425SOL    HW221738   0.412   0.066  15.615  0.9406  0.1411 -1.4993
 3426SOL     OW21739   4.396   1.628  16.211 -0.1236  0.1052  0.0749
 3426SOL    HW121740   4.359   1.699  16.262  0.8386 -1.5008  3.0020
 3426SOL    HW221741   4.329   1.615  16.144  0.3399 -0.2083 -0.3292
 3427SOL     OW21742   4.435   4.706   9.135 -0.1844 -0.4587  0.0772
 3427SOL    HW121743   4.523   0.021   9.143  0.0669 -0.6568 -1.7132
 3427SOL    HW221744   4.434   4.652   9.056 -3.2868 -1.1545  0.5807
 3428SOL     OW21745   1.379   2.449  11.399 -0.3319 -0.5289 -0.3212
 3428SOL    HW121746   1.300   2.400  11.377 -0.9314 -0.6247  2.0182
 3428SOL    HW221747   1.445   2.381  11.408 -0.5456 -0.8349 -1.1325
 3429SOL     OW21748   2.750   4.570   7.959 -0.4756  0.3834  0.4268
 3429SOL    HW121749   2.829   4.527   7.928 -0.1474  0.8961  0.5554
 3429SOL    HW221750   2.752   4.549   8.053 -2.5690  1.6459  0.7644
 3430SOL     OW21751   0.269   0.653  17.216  0.1865 -0.8038  0.3231
 3430SOL    HW121752   0.334   0.644  17.146 -0.3529 -0.1504 -0.2609
 3430SOL    HW221753   0.207   0.719  17.185  1.2087 -1.1026 -2.3284
 3431SOL     OW21754   0.040   4.581   6.535 -0.2841  0.1890  0.2424
 3431SOL    HW121755   4.684   4.565   6.589  1.1036 -1.5785  1.7170
 3431SOL    HW221756   0.053   4.674   6.554  0.9907  0.0387  0.0948
 3432SOL     OW21757   0.034   1.632  17.128 -0.3763  0.3229  0.0645
 3432SOL    HW121758   4.677   1.687  17.130 -0.9117 -0.3687 -1.3716
 3432SOL    HW221759   0.003   1.561  17.071 -1.3032  0.9515 -0.2240
 3433SOL     OW21760   3.623   2.428   3.708 -0.1791 -0.4431  0.1022
 3433SOL    HW121761   3.718   2.440   3.711 -0.2425 -0.1940  1.4566
 3433SOL    HW221762   3.624   2.350   3.653  0.7103  0.3859 -1.0534
 3434SOL     OW21763   3.539   0.427  17.084  0.2680 -0.1117 -0.4876
 3434SOL    HW121764   3.473   0.452  17.149  1.2540  1.5316 -0.1312
 3434SOL    HW221765   3.551   0.509  17.038 -1.9475 -0.0487 -0.9481
 3435SOL     OW21766   0.175   1.811  16.907 -0.1172  0.0084  0.2449
 3435SOL    HW121767   0.270   1.801  16.909 -0.0914  0.1782 -0.1884
 3435SOL    HW221768   0.151   1.766  16.988  3.0815 -1.1510  0.5505
 3436SOL     OW21769   2.857   0.364   2.400  0.2519  0.2091 -0.7336
 3436SOL    HW121770   2.903   0.421   2.462 -0.4094  0.2247 -0.2632
 3436SOL    HW221771   2.788   0.420   2.366 -1.2119 -0.5324  1.0372
 3437SOL     OW21772   0.061   2.282   7.441 -0.4187 -0.2102  0.0627
 3437SOL    HW121773   0.013   2.359   7.472 -0.5342 -0.6622  1.0063
 3437SOL    HW221774   0.086   2.244   7.525  1.2585 -0.5135 -0.5818
 3438SOL     OW21775   4.451   3.767  12.740  0.1258 -0.2813 -0.6483
 3438SOL    HW121776   4.520   3.705  12.715 -1.2613 -2.2019  0.2726
 3438SOL    HW221777   4.374   3.742  12.689 -1.0376  0.2299  0.8433
 3439SOL     OW21778   1.562   0.582  16.599 -0.5451  0.1652  0.6823
 3439SOL    HW121779   1.603   0.629  16.526 -1.3090  0.8262  0.6881
 3439SOL    HW221780   1.470   0.568  16.578 -0.5391 -0.3459  1.0027
 3440SOL     OW21781   3.273   3.397   0.127 -0.1465  0.6678 -0.2012
 3440SOL    HW121782   3.255   3.311   0.089  0.3605  0.5476 -0.1746
 3440SOL    HW221783   3.368   3.392   0.114 -0.1272  1.6211 -0.4260
 3441SOL     OW21784   1.929   3.990   2.428 -0.1758  0.1237 -0.8789
 3441SOL    HW121785   1.884   3.906   2.434 -0.9494  0.5158 -1.3022
 3441SOL    HW221786   1.960   4.004   2.518 -3.9956 -0.5205  0.5276
 3442SOL     OW21787   2.670   0.406   8.472 -0.3177  0.4802 -0.0477
 3442SOL    HW121788   2.612   0.331   8.460  2.2535 -1.3194 -1.3041
 3442SOL    HW221789   2.631   0.458   8.542  0.3397  0.8308  0.0621
 3443SOL     OW21790   1.676   3.641   0.161 -0.6430 -0.5643  0.0175
 3443SOL    HW121791   1.745   3.703   0.186 -2.1974  0.9260  0.6182
 3443SOL    HW221792   1.731   3.568   0.131  0.3785 -0.4774  1.6845
 3444SOL     OW21793   3.953   0.666   5.523 -0.5315 -0.1220 -0.0734
 3444SOL    HW121794   4.016   0.602   5.490  0.8714  1.4438 -0.4175
 3444SOL    HW221795   3.900   0.624   5.591 -2.3803 -0.2661 -1.5829
 3445SOL     OW21796   3.264   2.678   9.810 -0.1465  0.3061 -0.0416
 3445SOL    HW121797   3.334   2.742   9.799 -0.7697  0.7307 -1.5313
 3445SOL    HW221798   3.281   2.632   9.892  0.6293  1.1468  0.2656
 3446SOL     OW21799   4.479   1.514   1.271 -0.0457 -0.6095  0.5792
 3446SOL    HW121800   4.528   1.508   1.190 -0.0357 -1.7607  0.6731
 3446SOL    HW221801   4.429   1.433   1.260 -1.8753  0.8681 -1.9030
 3447SOL     OW21802   3.768   1.727   5.654 -0.2707 -0.3572 -0.2993
 3447SOL    HW121803   3.697   1.762   5.601 -0.0198  0.3108 -0.1923
 3447SOL    HW221804   3.831   1.799   5.661  0.5446 -1.1883  1.1621
 3448SOL     OW21805   4.520   0.521   4.943 -0.0482  0.0310  0.0473
 3448SOL    HW121806   4.469   0.441   4.953  0.4675 -0.3050 -0.0530
 3448SOL    HW221807   4.611   0.495   4.932 -0.1479  0.1779 -1.1164
 3449SOL     OW21808   3.765   3.568  16.044 -0.4614  0.2204 -0.2681
 3449SOL    HW121809   3.787   3.476  16.061  0.5020  0.5517  0.2794
 3449SOL    HW221810   3.849   3.614  16.047 -0.9835  1.0720  0.9656
 3450SOL     OW21811   0.332   0.882   1.433  0.1271  0.5450  0.2584
 3450SOL    HW121812   0.285   0.840   1.361 -0.8998  1.5733  0.3185
 3450SOL    HW221813   0.410   0.827   1.431 -0.0954  0.2582 -0.2574
 3451SOL     OW21814   3.267   2.059   9.621 -0.0519  0.0266  0.3495
 3451SOL    HW121815   3.183   2.101   9.639  0.4306  0.6743  1.0938
 3451SOL    HW221816   3.268   1.994   9.692  0.6784 -0.2064  0.1207
 3452SOL     OW21817   2.654   3.974   0.826  0.0464 -0.6674 -0.1060
 3452SOL    HW121818   2.736   3.972   0.875  0.3948  0.5066 -0.6457
 3452SOL    HW221819   2.674   3.961   0.733  0.9102  1.2083 -0.1779
 3453SOL     OW21820   2.501   3.056   5.256 -0.1259 -0.1081 -0.5547
 3453SOL    HW121821   2.409   3.033   5.258 -0.1459 -0.1373 -1.9929
 3453SOL    HW221822   2.497   3.143   5.298 -2.2943 -1.1233  1.3230
 3454SOL     OW21823   3.701   1.302   8.069 -0.0784 -0.1807  0.1153
 3454SOL    HW121824   3.637   1.368   8.041 -0.3692 -0.3875  0.2864
 3454SOL    HW221825   3.736   1.290   7.981  1.3113 -0.3417  0.7019
 3455SOL     OW21826   3.251   4.002   1.205 -0.0913 -0.0141 -0.1531
 3455SOL    HW121827   3.200   4.072   1.165 -0.7432 -0.8726 -0.8340
 3455SOL    HW221828   3.191   3.932   1.179  1.5362 -1.1724 -0.8048
 3456SOL     OW21829   3.164   4.416   2.746 -0.0572 -0.1869  0.7488
 3456SOL    HW121830   3.225   4.478   2.787 -1.8513  0.9812  1.6895
 3456SOL    HW221831   3.220   4.339   2.751 -0.3026 -0.2858  2.0452
 3457SOL     OW21832   3.878   0.966   3.467  0.4698 -0.3143  0.3698
 3457SOL    HW121833   3.904   0.970   3.559  3.8298  1.3187 -0.6435
 3457SOL    HW221834   3.870   0.871   3.464  0.5367 -0.2848 -0.6479
 3458SOL     OW21835   0.704   2.338  14.516  0.1880 -0.7065  0.0035
 3458SOL    HW121836   0.662   2.417  14.483  2.6693  2.5066  4.5583
 3458SOL    HW221837   0.706   2.287  14.435  0.8537 -1.3118  0.3962
 3459SOL     OW21838   1.657   0.816  11.316 -0.3773  0.5733 -0.2632
 3459SOL    HW121839   1.721   0.880  11.285 -0.8284 -0.0703 -2.4946
 3459SOL    HW221840   1.668   0.818  11.411 -1.2832  1.2603 -0.1682
 3460SOL     OW21841   0.830   3.233   5.886 -0.3264 -0.5208 -0.4398
 3460SOL    HW121842   0.746   3.251   5.844 -0.5316  1.0417  0.6272
 3460SOL    HW221843   0.817   3.258   5.978  1.1460 -1.5719  0.0495
 3461SOL     OW21844   0.754   2.215  14.029  0.3570  0.1078 -0.3046
 3461SOL    HW121845   0.694   2.229  14.103  0.1975 -1.7075 -0.0869
 3461SOL    HW221846   0.703   2.150  13.981  0.5926  0.0284 -0.4438
 3462SOL     OW21847   2.667   1.625   7.616 -0.4318 -0.0097  0.5192
 3462SOL    HW121848   2.576   1.652   7.605 -0.3567  0.5401  1.1984
 3462SOL    HW221849   2.703   1.615   7.528 -1.8230 -0.0003 -0.0456
 3463SOL     OW21850   3.528   0.845  16.229 -0.2343 -0.4575 -0.0717
 3463SOL    HW121851   3.458   0.881  16.175  0.4381 -0.7719 -1.1601
 3463SOL    HW221852   3.606   0.872  16.180 -0.5362 -0.8300 -0.7594
 3464SOL     OW21853   0.109   3.432   7.717  0.1119  0.2256  0.4592
 3464SOL    HW121854   0.065   3.383   7.647 -1.8898 -0.0672  1.9090
 3464SOL    HW221855   0.035   3.468   7.766 -1.3183 -0.5685 -1.1354
 3465SOL     OW21856   4.340   1.910   1.486 -0.0212  0.0053 -0.0066
 3465SOL    HW121857   4.407   1.942   1.548  1.1154 -1.8378 -0.2780
 3465SOL    HW221858   4.318   1.988   1.436  2.6540  1.3771  0.9053
 3466SOL     OW21859   1.458   0.844  12.584 -0.2842 -0.2382 -0.1871
 3466SOL    HW121860   1.471   0.760  12.627  0.5111 -0.5678 -1.0844
 3466SOL    HW221861   1.548   0.853  12.554  0.3563 -0.7069  1.5853
 3467SOL     OW21862   2.817   4.376   6.919  0.2477 -0.3527 -0.3141
 3467SOL    HW121863   2.830   4.321   6.996 -1.7036 -0.1548  0.1527
 3467SOL    HW221864   2.722   4.387   6.927  0.6398  2.9422  0.0087
 3468SOL     OW21865   0.316   3.776  11.909 -0.1989 -0.5202 -0.1416
 3468SOL    HW121866   0.342   3.854  11.860  2.9903 -2.0017 -0.7862
 3468SOL    HW221867   0.332   3.709  11.843  1.5206 -1.4732  1.2440
 3469SOL     OW21868   0.483   0.420  10.636  0.2807 -0.1203  0.0678
 3469SOL    HW121869   0.521   0.436  10.550  1.1722 -0.7736  0.3313
 3469SOL    HW221870   0.393   0.414  10.605  0.2275  2.3296 -0.1936
 3470SOL     OW21871   4.043   1.229  15.560 -0.2611 -0.0679 -0.0737
 3470SOL    HW121872   3.947   1.238  15.563 -0.0471  2.3100 -0.1033
 3470SOL    HW221873   4.071   1.317  15.586  1.0227 -1.4513  3.2037
 3471SOL     OW21874   2.550   4.195  17.206  0.1177  0.2266 -0.4762
 3471SOL    HW121875   2.601   4.218  17.283  2.7684 -0.1458 -2.1311
 3471SOL    HW221876   2.609   4.187  17.131  0.4524 -2.2943  0.0540
 3472SOL     OW21877   2.755   2.302   8.383  0.3503 -0.1438  0.4344
 3472SOL    HW121878   2.734   2.315   8.291  1.8735  1.1379  0.2456
 3472SOL    HW221879   2.680   2.256   8.420 -1.1098  1.3593 -0.6793
 3473SOL     OW21880   0.850   3.985   7.241  0.0929 -0.6108  0.1966
 3473SOL    HW121881   0.858   4.080   7.237  0.0028 -0.6088  0.0557
 3473SOL    HW221882   0.926   3.954   7.290 -1.5844 -0.2356  3.0408
 3474SOL     OW21883   1.145   0.037  16.938 -0.3870 -1.0602  0.0698
 3474SOL    HW121884   1.116   0.004  17.023  0.9051  1.0444  1.3348
 3474SOL    HW221885   1.146   0.132  16.941 -0.5330 -1.0440 -0.3555
 3475SOL     OW21886   2.258   0.084   5.613 -0.0087 -0.5670  0.6327
 3475SOL    HW121887   2.261   0.164   5.560  1.0979 -0.9934  0.0659
 3475SOL    HW221888   2.250   0.128   5.697 -0.4367 -0.2111  0.4072
 3476SOL     OW21889   2.022   4.170   0.783 -0.5149 -0.3051  0.2242
 3476SOL    HW121890   2.038   4.080   0.756  1.2276  0.2302 -0.5478
 3476SOL    HW221891   1.988   4.163   0.872 -2.2256 -2.0121 -0.5726
 3477SOL     OW21892   0.199   2.187   5.449  0.0469 -0.0973 -0.4391
 3477SOL    HW121893   0.270   2.167   5.509 -0.4906 -2.7206 -0.6803
 3477SOL    HW221894   0.164   2.098   5.444 -0.4872  0.1700 -1.5808
 3478SOL     OW21895   0.727   4.523   3.263 -0.6697  0.0894 -0.3704
 3478SOL    HW121896   0.662   4.454   3.248 -1.6977  1.1433 -0.7656
 3478SOL    HW221897   0.780   4.488   3.335 -1.9611  1.9450  1.5041
 3479SOL     OW21898   0.607   2.861   5.416  0.6169  0.3079  0.5498
 3479SOL    HW121899   0.564   2.786   5.375 -0.4875 -0.3583  2.9308
 3479SOL    HW221900   0.550   2.933   5.389 -0.1274 -0.1872  0.8296
 3480SOL     OW21901   2.805   0.772   0.986  0.7009 -0.2871 -0.0535
 3480SOL    HW121902   2.895   0.772   0.952  0.1430 -1.9857 -1.5529
 3480SOL    HW221903   2.747   0.797   0.914 -1.7179 -0.5666  1.8010
 3481SOL     OW21904   3.101   2.496  13.832  0.2729  0.3678  0.0700
 3481SOL    HW121905   3.113   2.425  13.895 -0.4023 -0.0813 -0.2954
 3481SOL    HW221906   3.180   2.489  13.778  0.4938 -0.5633  0.5133
 3482SOL     OW21907   1.572   4.414   4.783  0.1168 -0.1973  0.4402
 3482SOL    HW121908   1.488   4.376   4.757  0.0655 -0.5505  1.1367
 3482SOL    HW221909   1.618   4.340   4.822 -0.6003 -0.4426  0.8258
 3483SOL     OW21910   4.101   2.579   7.277  0.0015 -0.1409 -0.4715
 3483SOL    HW121911   4.106   2.484   7.266  0.6589 -0.0009 -1.4270
 3483SOL    HW221912   4.020   2.593   7.227  0.1954  0.6112 -0.5819
 3484SOL     OW21913   2.620   3.507   3.380 -0.7387  0.1763  0.1058
 3484SOL    HW121914   2.603   3.534   3.290 -0.6570  0.8797  0.3007
 3484SOL    HW221915   2.711   3.534   3.384 -1.5709  3.1310 -1.1332
 3485SOL     OW21916   0.876   0.263  16.466 -0.0031 -0.0846 -0.1132
 3485SOL    HW121917   0.871   0.169  16.449 -1.7925 -0.0657  0.3491
 3485SOL    HW221918   0.930   0.294  16.393  0.8610  0.0962  0.5882
 3486SOL     OW21919   2.749   1.556   5.709 -0.7148 -0.2455 -0.1782
 3486SOL    HW121920   2.710   1.475   5.742  1.2639 -0.6096  1.3134
 3486SOL    HW221921   2.774   1.528   5.621  2.2485 -0.5525  0.7320
 3487SOL     OW21922   4.658   1.987   1.276  0.3938  0.3603 -0.5200
 3487SOL    HW121923   4.595   1.920   1.251 -1.5275  1.7706  0.5794
 3487SOL    HW221924   4.647   2.040   1.198 -0.0509  1.2285  0.1279
 3488SOL     OW21925   2.713   0.822  17.584  0.4147 -0.1258  0.0746
 3488SOL    HW121926   2.754   0.901  17.618 -0.0136 -0.4407  1.3539
 3488SOL    HW221927   2.678   0.783  17.665 -1.7933  1.5480 -0.0798
 3489SOL     OW21928   2.529   3.184   7.723 -0.3753  0.2158 -0.1757
 3489SOL    HW121929   2.453   3.235   7.753  0.3483  0.1237  1.7937
 3489SOL    HW221930   2.541   3.126   7.798 -1.1990 -0.1699 -0.3371
 3490SOL     OW21931   0.319   3.580  11.685  0.3848 -0.2602 -0.0921
 3490SOL    HW121932   0.285   3.597  11.597  3.9755 -1.3283 -1.7086
 3490SOL    HW221933   0.325   3.485  11.689  1.4640 -0.1914 -0.1324
 3491SOL     OW21934   4.679   3.972   5.096 -0.4249  0.4226  0.1628
 3491SOL    HW121935   4.650   3.982   5.005 -0.6798 -2.3921 -0.0724
 3491SOL    HW221936   4.596   3.942   5.135  0.1868  0.0615  1.1875
 3492SOL     OW21937   3.292   2.509  13.283  0.4964  0.0775  0.0784
 3492SOL    HW121938   3.305   2.588  13.335  3.5531 -0.3276 -0.0584
 3492SOL    HW221939   3.323   2.451  13.353  1.0099  0.5305  0.2278
 3493SOL     OW21940   2.252   3.717  13.535  0.3502  0.0523  0.2012
 3493SOL    HW121941   2.302   3.793  13.505  0.1699 -0.1560 -0.6455
 3493SOL    HW221942   2.192   3.766  13.591  0.7346 -0.1936  0.8173
 3494SOL     OW21943   3.417   0.136   2.431 -0.0203 -0.2105 -0.2717
 3494SOL    HW121944   3.501   0.114   2.390  0.4601  0.8168  0.1578
 3494SOL    HW221945   3.376   0.159   2.348  1.3256 -2.1894 -1.4872
 3495SOL     OW21946   3.405   1.410   3.509  0.0037 -0.0314  0.5557
 3495SOL    HW121947   3.482   1.435   3.561  0.7788  2.0870 -1.6145
 3495SOL    HW221948   3.335   1.456   3.555  0.5042  1.8687 -0.6086
 3496SOL     OW21949   0.339   0.527   5.265  0.1965  0.2107  0.1903
 3496SOL    HW121950   0.319   0.457   5.204  0.1995 -0.4542  0.9520
 3496SOL    HW221951   0.366   0.472   5.339 -0.7357  0.2004  0.5218
 3497SOL     OW21952   4.665   1.040  10.540  0.6699 -0.4830  0.4228
 3497SOL    HW121953   0.034   1.060  10.566  0.5489 -1.5579  1.6633
 3497SOL    HW221954   4.668   1.074  10.451  1.3024  1.3486  1.1395
 3498SOL     OW21955   2.300   0.630  11.563 -0.4299 -0.3271  0.3171
 3498SOL    HW121956   2.330   0.702  11.619 -0.6223  1.5881 -2.0049
 3498SOL    HW221957   2.288   0.564  11.630  2.1171 -0.1939  0.9169
 3499SOL     OW21958   1.081   2.894   9.397 -0.2104 -0.3607 -0.0729
 3499SOL    HW121959   1.118   2.886   9.309  1.3479 -1.6588  0.7065
 3499SOL    HW221960   0.999   2.844   9.395  0.2947 -1.2358  1.2923
 3500SOL     OW21961   3.866   3.787  15.802 -0.1936 -0.4522 -0.5907
 3500SOL    HW121962   3.831   3.780  15.713 -0.8191 -3.3668 -0.1152
 3500SOL    HW221963   3.819   3.860  15.842 -0.6020  0.2909 -2.4378
 3501SOL     OW21964   3.226   2.917  16.508 -0.0077 -0.5794  0.2174
 3501SOL    HW121965   3.272   2.874  16.580 -0.6224  0.6596  1.3616
 3501SOL    HW221966   3.273   3.000  16.502 -1.7222  0.5006  1.6691
 3502SOL     OW21967   2.208   4.255  16.671  0.1303 -0.0894  0.5839
 3502SOL    HW121968   2.224   4.171  16.629 -1.3517  0.4038 -0.9423
 3502SOL    HW221969   2.263   4.252  16.749  2.6057  0.6226 -1.1596
 3503SOL     OW21970   4.718   4.441   2.731  0.8333 -0.4385  0.5137
 3503SOL    HW121971   0.073   4.386   2.719  1.5378  0.4990  0.6713
 3503SOL    HW221972   4.641   4.385   2.715  0.9368 -0.8247  1.3985
 3504SOL     OW21973   2.505   3.549   8.943  0.1759  0.6177  0.3599
 3504SOL    HW121974   2.430   3.533   9.000  0.1058  0.2089  0.1495
 3504SOL    HW221975   2.458   3.565   8.861  0.1972  0.0874  0.2471
 3505SOL     OW21976   4.553   3.398  16.355  0.4311  0.5521  0.0774
 3505SOL    HW121977   4.610   3.322  16.371 -0.1633  0.4685  1.8463
 3505SOL    HW221978   4.561   3.410  16.261  0.2919 -3.5184 -0.4648
 3506SOL     OW21979   2.275   2.470  15.954 -0.1275 -0.3108 -0.0946
 3506SOL    HW121980   2.319   2.523  16.020 -3.1832  0.6228  1.1852
 3506SOL    HW221981   2.301   2.380  15.974 -2.2532 -1.4483 -2.5200
 3507SOL     OW21982   2.827   1.970   3.056 -0.6278  0.3631 -0.0319
 3507SOL    HW121983   2.855   2.061   3.067  1.3115 -0.4921  2.2034
 3507SOL    HW221984   2.800   1.966   2.965  1.0929 -0.5847 -0.4896
 3508SOL     OW21985   3.094   3.093   5.132 -0.1018  0.0874  0.5574
 3508SOL    HW121986   3.132   3.179   5.112 -0.0278 -0.5289 -2.0365
 3508SOL    HW221987   3.172   3.038   5.122  0.9363  1.3543  1.6416
 3509SOL     OW21988   2.906   1.681   6.478 -0.0315 -0.1220  0.4008
 3509SOL    HW121989   2.984   1.712   6.523  0.3729  0.3813 -0.6526
 3509SOL    HW221990   2.926   1.706   6.388 -1.3680 -0.6649 -0.0492
 3510SOL     OW21991   4.189   3.033   6.215  0.2777  0.2334  0.0800
 3510SOL    HW121992   4.252   2.982   6.266 -0.9827 -0.8868  0.5241
 3510SOL    HW221993   4.214   3.125   6.223 -3.3524  1.1224  1.2870
 3511SOL     OW21994   2.595   2.701   3.923  0.0509  0.0145 -0.1562
 3511SOL    HW121995   2.590   2.708   3.827  0.0012  1.0773 -0.0709
 3511SOL    HW221996   2.686   2.672   3.931  0.4389  1.4086  0.3360
 3512SOL     OW21997   4.648   1.027  14.507 -0.6994  0.1561  0.0869
 3512SOL    HW121998   4.592   0.957  14.472 -0.2751 -0.1610  0.0447
 3512SOL    HW221999   4.706   1.046  14.434  2.8986 -1.3616  2.5279
 3513SOL     OW22000   2.155   4.595   3.961 -0.0086 -0.3711 -0.2240
 3513SOL    HW122001   2.145   4.628   3.872  0.5151  1.8585  0.5376
 3513SOL    HW222002   2.088   4.645   4.009  1.2788 -0.1764  1.3872
 3514SOL     OW22003   1.472   3.026   6.677 -0.3015  0.2025  0.0788
 3514SOL    HW122004   1.517   2.942   6.680  1.5245  1.1593 -0.6213
 3514SOL    HW222005   1.549   3.083   6.685 -0.2458  0.2431 -0.7780
 3515SOL     OW22006   1.674   4.578   3.213  0.4407 -0.5023  0.0753
 3515SOL    HW122007   1.611   4.532   3.269 -0.0950 -2.1648 -1.8808
 3515SOL    HW222008   1.748   4.517   3.218 -0.8534 -1.9552  1.5698
 3516SOL     OW22009   4.273   0.935  12.708 -0.5923  0.1347 -0.3317
 3516SOL    HW122010   4.352   0.887  12.683  0.2550  1.2696  0.1458
 3516SOL    HW222011   4.296   1.026  12.688 -1.6159  0.5005  0.1721
 3517SOL     OW22012   1.991   4.671   2.659 -0.4617  0.0531 -0.0923
 3517SOL    HW122013   1.931   0.017   2.692 -0.2774  0.3384 -0.3368
 3517SOL    HW222014   1.987   4.702   2.569  0.9425  0.7252  0.0674
 3518SOL     OW22015   4.116   3.798  11.966  0.0919 -0.0281  0.3211
 3518SOL    HW122016   4.109   3.846  12.049  1.6476  1.8304 -0.6263
 3518SOL    HW222017   4.206   3.771  11.986  0.0709  0.0950  0.5810
 3519SOL     OW22018   0.448   3.641   2.140 -0.0610 -0.4483  0.6297
 3519SOL    HW122019   0.481   3.723   2.101  0.1883  1.0716  4.0302
 3519SOL    HW222020   0.456   3.575   2.071 -0.3112  0.0721  0.0904
 3520SOL     OW22021   4.713   1.862   4.677  0.2209  0.8350  0.3527
 3520SOL    HW122022   0.006   1.925   4.607  2.7564 -0.4699 -0.3000
 3520SOL    HW222023   4.657   1.799   4.632 -0.8100  2.2134 -0.2840
 3521SOL     OW22024   3.891   1.997   5.112  0.4044 -0.7177 -0.3269
 3521SOL    HW122025   3.970   1.990   5.166 -1.0540  0.6567  1.9746
 3521SOL    HW222026   3.874   1.904   5.100 -1.2362 -0.2195 -1.9054
 3522SOL     OW22027   3.695   3.062  11.085  0.6390 -0.2357 -0.5722
 3522SOL    HW122028   3.696   3.140  11.030  0.6395  1.3133  1.6215
 3522SOL    HW222029   3.766   3.021  11.035  0.0192 -1.5219 -0.3752
 3523SOL     OW22030   0.136   1.817   3.736  0.1129 -0.4094 -0.1174
 3523SOL    HW122031   0.147   1.750   3.804  0.8915 -0.5995 -0.4338
 3523SOL    HW222032   0.142   1.767   3.654  0.0413 -0.7748  0.0958
 3524SOL     OW22033   1.176   0.611   7.449 -0.5706 -0.6009 -0.1749
 3524SOL    HW122034   1.099   0.669   7.447 -1.0737 -1.3104 -1.4241
 3524SOL    HW222035   1.141   0.534   7.494  0.5434 -2.0445 -1.7739
 3525SOL     OW22036   0.884   0.542  15.413 -0.0397  0.3950  0.4401
 3525SOL    HW122037   0.961   0.596  15.394 -1.3956  1.3264 -2.3549
 3525SOL    HW222038   0.822   0.615  15.409 -2.3629 -1.7074 -2.0913
 3526SOL     OW22039   2.516   0.823   4.422  0.4706 -0.2431 -0.1026
 3526SOL    HW122040   2.472   0.742   4.394 -1.9458  0.8515  0.5457
 3526SOL    HW222041   2.597   0.790   4.463  1.2083  2.0105  0.2179
 3527SOL     OW22042   3.375   0.705   2.554 -0.0744  0.4335 -0.0726
 3527SOL    HW122043   3.384   0.617   2.519  1.1425  0.9626 -1.0985
 3527SOL    HW222044   3.465   0.736   2.539  0.1384  0.6635  1.6768
 3528SOL     OW22045   3.403   1.460   5.822 -0.3510  0.4650  0.1350
 3528SOL    HW122046   3.365   1.548   5.828 -0.8970  0.2531 -0.2344
 3528SOL    HW222047   3.321   1.409   5.822 -0.2793  0.3496 -1.6172
 3529SOL     OW22048   2.177   4.296   8.735  0.0774 -0.4260 -0.2088
 3529SOL    HW122049   2.253   4.349   8.760  1.2333 -2.0307 -0.3048
 3529SOL    HW222050   2.133   4.361   8.681  1.2048  1.6872  1.4404
 3530SOL     OW22051   1.360   3.770   0.507 -0.0749 -0.0030 -0.2118
 3530SOL    HW122052   1.291   3.775   0.441  1.3572 -2.3379 -1.9112
 3530SOL    HW222053   1.329   3.703   0.568  1.5281 -2.0795 -1.6417
 3531SOL     OW22054   2.815   1.885  16.590  0.0046  0.3540  0.2264
 3531SOL    HW122055   2.728   1.881  16.551  0.6540 -0.9055 -1.0799
 3531SOL    HW222056   2.802   1.956  16.653 -0.9817  1.3713 -1.1151
 3532SOL     OW22057   1.210   1.271   3.511 -0.4268  0.1717 -0.4318
 3532SOL    HW122058   1.186   1.180   3.494 -4.6276  1.3977 -1.1566
 3532SOL    HW222059   1.287   1.268   3.455  0.3348  0.2290  0.6125
 3533SOL     OW22060   2.872   1.051  17.671  0.1425  0.2909 -0.2306
 3533SOL    HW122061   2.800   1.107  17.643 -1.4957 -0.7439  1.8991
 3533SOL    HW222062   2.886   1.078   0.074 -1.1228 -0.3648  0.1733
 3534SOL     OW22063   4.208   0.733   6.827 -0.0552  0.3143  0.1377
 3534SOL    HW122064   4.210   0.766   6.737 -1.8395 -2.4782 -0.9270
 3534SOL    HW222065   4.237   0.642   6.819 -2.2513 -0.3570 -0.2538
 3535SOL     OW22066   2.179   4.496  13.008 -0.5170 -0.0849  1.0577
 3535SOL    HW122067   2.236   4.539  13.071  2.1107  1.9880 -2.7263
 3535SOL    HW222068   2.092   4.524  13.036 -1.0543  0.1277 -0.8332
 3536SOL     OW22069   3.793   3.149  10.853 -0.1274  0.3112  0.0822
 3536SOL    HW122070   3.835   3.064  10.848  1.2092  0.8856  1.3884
 3536SOL    HW222071   3.862   3.214  10.841  0.9880 -0.5536  1.8280
 3537SOL     OW22072   0.843   4.137   5.079 -0.2469  0.0179  0.5044
 3537SOL    HW122073   0.923   4.088   5.060  0.8727  1.6431  1.0310
 3537SOL    HW222074   0.843   4.210   5.017  2.8522  1.0670  1.7394
 3538SOL     OW22075   2.651   0.392   1.926  0.0227 -0.3979 -0.1559
 3538SOL    HW122076   2.699   0.449   1.986 -1.3765 -1.0858  1.6183
 3538SOL    HW222077   2.571   0.437   1.900  0.2410  0.0511 -0.0454
 3539SOL     OW22078   1.656   1.498  11.274 -0.0243 -0.0724 -0.1190
 3539SOL    HW122079   1.707   1.440  11.218 -1.0336 -2.8723  1.8528
 3539SOL    HW222080   1.709   1.578  11.279 -1.2522  0.6658  1.0698
 3540SOL     OW22081   4.117   4.082  16.989 -0.1055 -0.1904 -0.5453
 3540SOL    HW122082   4.194   4.122  16.949 -0.0627 -1.3140 -1.6009
 3540SOL    HW222083   4.118   3.993  16.953  0.5442 -0.1152 -0.7023
 3541SOL     OW22084   0.666   2.366   5.374  0.1968 -0.1997  0.5958
 3541SOL    HW122085   0.641   2.333   5.288 -0.2550 -0.2716  0.7533
 3541SOL    HW222086   0.727   2.299   5.404 -0.7022 -0.8972  0.8319
 3542SOL     OW22087   0.381   1.138   7.707 -0.5972 -0.3476  0.5727
 3542SOL    HW122088   0.390   1.233   7.719  3.8888 -0.5065 -1.1647
 3542SOL    HW222089   0.339   1.115   7.789 -0.2222  0.8829  1.1130
 3543SOL     OW22090   2.876   1.709   4.601 -0.2062 -0.7076  0.2341
 3543SOL    HW122091   2.865   1.790   4.652 -0.6643  0.1075 -1.1542
 3543SOL    HW222092   2.942   1.729   4.535 -1.0489 -1.2713 -0.7826
 3544SOL     OW22093   3.057   3.527   8.369  0.4563 -0.2188  0.2288
 3544SOL    HW122094   2.987   3.481   8.416 -0.3196 -1.3448 -2.0671
 3544SOL    HW222095   3.122   3.523   8.439 -0.1374 -1.2439  0.7232
 3545SOL     OW22096   4.107   3.186   2.001  0.5181 -0.1887 -0.2015
 3545SOL    HW122097   4.066   3.223   1.922 -2.2126 -0.3262  1.1455
 3545SOL    HW222098   4.032   3.196   2.060 -0.2814 -2.7473 -0.8058
 3546SOL     OW22099   4.648   1.526   3.859 -0.5664 -0.1358 -0.1532
 3546SOL    HW122100   4.624   1.595   3.796 -1.3487 -1.5693 -1.4304
 3546SOL    HW222101   4.561   1.486   3.865 -0.0912 -1.3054 -1.0629
 3547SOL     OW22102   0.587   3.724   0.952 -0.4049 -0.2610 -0.4896
 3547SOL    HW122103   0.551   3.669   0.883  0.4058  0.2880 -1.3549
 3547SOL    HW222104   0.665   3.755   0.905 -1.3828  1.9734 -0.6524
 3548SOL     OW22105   1.287   1.403   6.337  0.4484 -0.2815 -0.2569
 3548SOL    HW122106   1.320   1.493   6.346  0.3536 -0.2164 -0.5560
 3548SOL    HW222107   1.251   1.411   6.249 -0.0142 -1.9243 -0.2147
 3549SOL     OW22108   1.619   1.593   8.198 -0.0070 -0.0078  0.0536
 3549SOL    HW122109   1.675   1.638   8.261 -1.5722 -0.7221  1.9745
 3549SOL    HW222110   1.542   1.648   8.184 -0.2716 -0.4755 -0.3225
 3550SOL     OW22111   3.283   2.846   2.189  0.5769 -0.1835  1.0156
 3550SOL    HW122112   3.205   2.807   2.149  1.0292 -0.7376  0.6596
 3550SOL    HW222113   3.346   2.776   2.170  0.1708 -0.2813  0.0352
 3551SOL     OW22114   1.897   1.084   4.111  0.3482 -0.4179  0.0551
 3551SOL    HW122115   1.989   1.085   4.138 -0.2192 -0.5126  1.9936
 3551SOL    HW222116   1.910   1.043   4.026 -0.9138 -1.5880  0.4355
 3552SOL     OW22117   0.137   1.089   7.073 -0.0753  0.9173  0.1405
 3552SOL    HW122118   0.113   1.031   7.145 -3.4836  1.1857 -0.8197
 3552SOL    HW222119   0.089   1.049   7.001  0.0758  0.6311  0.1974
 3553SOL     OW22120   1.378   2.509   5.840 -0.0361 -0.4338  0.0394
 3553SOL    HW122121   1.327   2.467   5.771 -1.7793  3.3944 -0.9512
 3553SOL    HW222122   1.334   2.591   5.861  2.5044  0.1912  2.9318
 3554SOL     OW22123   3.847   4.140   2.962 -0.4302 -0.2236  0.4509
 3554SOL    HW122124   3.898   4.080   3.017  2.9900  2.6824  0.4806
 3554SOL    HW222125   3.790   4.185   3.023 -0.4456 -1.3443  1.2612
 3555SOL     OW22126   1.475   1.028   3.859 -0.6330  0.1392  0.1791
 3555SOL    HW122127   1.453   0.994   3.773 -0.9976  0.7781  0.0194
 3555SOL    HW222128   1.401   1.083   3.882  0.0176  0.6766  1.0169
 3556SOL     OW22129   0.531   1.776   5.331 -0.0502  0.3609  0.0056
 3556SOL    HW122130   0.441   1.795   5.357  0.4024  2.7124 -0.1596
 3556SOL    HW222131   0.574   1.804   5.412  0.0844  0.1931 -0.0088
 3557SOL     OW22132   0.464   1.982   7.856 -0.2929  0.0379 -0.0175
 3557SOL    HW122133   0.543   1.989   7.909  0.3228 -0.9032 -0.8025
 3557SOL    HW222134   0.405   2.031   7.914 -0.4875  1.2492 -1.2466
 3558SOL     OW22135   3.124   1.156   1.006  0.2259 -0.1842 -0.2645
 3558SOL    HW122136   3.104   1.066   0.979 -3.0295  0.2838  0.5761
 3558SOL    HW222137   3.184   1.138   1.079 -1.3524 -0.5915  0.9195
 3559SOL     OW22138   1.355   0.176  15.310  0.3103 -0.5176 -0.1250
 3559SOL    HW122139   1.387   0.251  15.260  1.1831 -0.6498  0.2445
 3559SOL    HW222140   1.290   0.222  15.364 -0.1767 -0.0377 -1.1209
 3560SOL     OW22141   1.858   1.143   5.736 -0.6498 -0.2490  0.2910
 3560SOL    HW122142   1.899   1.099   5.661 -0.1763  0.4123  0.1579
 3560SOL    HW222143   1.923   1.126   5.804 -1.2166  0.7695  1.0813
 3561SOL     OW22144   3.617   0.031   6.885  0.7369 -0.3709 -0.1570
 3561SOL    HW122145   3.690   4.693   6.904  1.0746  0.6343  1.7356
 3561SOL    HW222146   3.549   4.719   6.944  1.3016  1.8103  1.7554
 3562SOL     OW22147   0.513   4.637   2.288  0.2108 -0.2991 -0.3168
 3562SOL    HW122148   0.439   4.588   2.251  1.1191 -0.2803 -2.1335
 3562SOL    HW222149   0.538   4.683   2.208 -0.0054 -1.3983 -1.0303
 3563SOL     OW22150   1.895   1.389   6.361  0.0843  0.2634 -0.4056
 3563SOL    HW122151   1.862   1.339   6.435 -2.2824  1.8849 -0.3851
 3563SOL    HW222152   1.987   1.366   6.374 -0.1048 -1.8124 -2.6137
 3564SOL     OW22153   4.101   3.729   1.804 -0.2036 -0.4943 -0.0053
 3564SOL    HW122154   4.173   3.730   1.741  1.3252  0.3086  1.7562
 3564SOL    HW222155   4.037   3.788   1.764 -0.1446 -0.6313 -0.3008
 3565SOL     OW22156   1.555   0.124   6.334  0.1825  0.1293 -0.5015
 3565SOL    HW122157   1.636   0.144   6.381 -0.5508 -0.7649  1.1508
 3565SOL    HW222158   1.546   0.035   6.369 -0.1014  1.5485  3.0290
 3566SOL     OW22159   1.664   0.064   9.061 -0.4587 -0.5453 -0.1279
 3566SOL    HW122160   1.697   0.008   9.132  1.6356 -0.3677 -0.9701
 3566SOL    HW222161   1.684   0.152   9.093 -1.6881 -0.5614  0.6634
 3567SOL     OW22162   0.008   1.863   9.894  0.5705 -0.2320 -0.2678
 3567SOL    HW122163   4.657   1.820   9.847 -0.3593  3.7140 -2.4063
 3567SOL    HW222164   0.017   1.945   9.845 -1.7657  0.8079  1.0619
 3568SOL     OW22165   2.437   3.276   3.051  0.0324  0.4361  0.4653
 3568SOL    HW122166   2.515   3.328   3.033 -0.7724  1.7486  0.7595
 3568SOL    HW222167   2.476   3.197   3.088 -0.1181 -0.0309 -0.3846
 3569SOL     OW22168   3.095   2.491   2.742  0.1734 -0.6502 -0.0156
 3569SOL    HW122169   3.148   2.502   2.821  0.5440  2.6463 -0.7690
 3569SOL    HW222170   3.156   2.443   2.687 -1.5822 -2.2276 -0.5923
 3570SOL     OW22171   2.758   1.980   6.645  0.2776  0.3136 -0.9991
 3570SOL    HW122172   2.800   2.066   6.652 -1.5092  1.1364 -0.4592
 3570SOL    HW222173   2.762   1.961   6.739  1.1452 -1.2336 -1.3400
 3571SOL     OW22174   3.240   0.896   1.759  0.4243  0.3786 -0.2055
 3571SOL    HW122175   3.152   0.908   1.723 -0.0638 -0.7695  0.5767
 3571SOL    HW222176   3.248   0.980   1.805  0.8958 -0.1717  0.7220
 3572SOL     OW22177   0.123   2.093   2.629 -0.0922 -0.7741 -0.6117
 3572SOL    HW122178   0.081   2.038   2.695 -2.0078 -0.4641 -1.5799
 3572SOL    HW222179   0.154   2.162   2.687  2.2020  0.8737 -3.7620
 3573SOL     OW22180   0.808   0.007  13.374 -0.6871 -0.2938 -0.4098
 3573SOL    HW122181   0.794   4.665  13.304 -0.3591 -0.0396 -0.7028
 3573SOL    HW222182   0.810   4.675  13.454  0.2631 -0.6232 -0.6484
 3574SOL     OW22183   2.873   0.953   8.564 -0.1704  0.3711 -0.0816
 3574SOL    HW122184   2.786   0.992   8.555  0.1652  1.1259 -0.0668
 3574SOL    HW222185   2.852   0.864   8.593 -2.9582  0.5275 -1.5946
 3575SOL     OW22186   2.072   2.335   8.868 -0.5409  0.3987  0.0562
 3575SOL    HW122187   2.005   2.321   8.801  0.2377  2.2168 -1.0920
 3575SOL    HW222188   2.149   2.296   8.828  0.4073 -0.2414  2.4835
 3576SOL     OW22189   2.334   3.339   0.557  0.6797 -0.2649  0.1944
 3576SOL    HW122190   2.251   3.350   0.603 -0.8452 -2.1601 -2.0718
 3576SOL    HW222191   2.401   3.357   0.623  2.4149 -0.4347 -1.4961
 3577SOL     OW22192   3.600   3.562  15.501  0.2326 -0.2531 -0.4264
 3577SOL    HW122193   3.640   3.536  15.584  0.6462 -0.3162 -0.6478
 3577SOL    HW222194   3.665   3.625  15.469  3.3432 -2.8407  0.8972
 3578SOL     OW22195   4.350   1.883  15.482  0.3596  0.4424  0.0997
 3578SOL    HW122196   4.303   1.804  15.454 -0.5317 -0.1162  3.1260
 3578SOL    HW222197   4.430   1.847  15.519 -0.8400 -1.0207  1.2923
 3579SOL     OW22198   1.993   2.649  13.200  0.3387  0.8239  0.9293
 3579SOL    HW122199   2.085   2.648  13.227  1.1448  1.7953 -1.7630
 3579SOL    HW222200   1.973   2.742  13.215  0.3881  1.2626 -1.6602
 3580SOL     OW22201   4.056   0.686   2.645  0.3262 -0.5440  0.4339
 3580SOL    HW122202   4.016   0.719   2.565  1.2206 -1.5011 -0.4164
 3580SOL    HW222203   4.008   0.604   2.656  0.4474 -0.9879 -2.2193
 3581SOL     OW22204   0.512   4.050   4.985 -0.1601  0.6341 -0.3591
 3581SOL    HW122205   0.420   4.025   4.981  0.6276 -1.7552 -3.1870
 3581SOL    HW222206   0.546   3.977   4.934  0.2821 -0.3018  1.2464
 3582SOL     OW22207   2.807   4.311   0.840  0.1402 -0.7099 -0.5462
 3582SOL    HW122208   2.733   4.291   0.897  0.6037  2.7461  1.2921
 3582SOL    HW222209   2.796   4.246   0.771  1.0681 -2.4066  0.9178
 3583SOL     OW22210   1.295   1.840  12.298  0.4317 -0.0792 -0.0611
 3583SOL    HW122211   1.330   1.890  12.224  0.6646 -1.8717 -1.1860
 3583SOL    HW222212   1.329   1.891  12.371 -2.7429 -0.1018  1.4553
 3584SOL     OW22213   1.416   4.334   7.891 -0.4390  0.9518 -0.2866
 3584SOL    HW122214   1.343   4.337   7.830 -1.2560  0.7103  0.6758
 3584SOL    HW222215   1.388   4.399   7.955 -0.1270  1.1140 -0.3122
 3585SOL     OW22216   1.342   1.385   4.405  0.3797 -0.5945  0.6543
 3585SOL    HW122217   1.285   1.431   4.467  1.1268  2.5491 -1.0356
 3585SOL    HW222218   1.382   1.317   4.460  0.7847  0.3862  1.5685
 3586SOL     OW22219   0.230   0.767   3.314 -0.3303  0.0911  0.6463
 3586SOL    HW122220   0.260   0.699   3.254  0.8289  0.6970  0.5352
 3586SOL    HW222221   0.172   0.726   3.377 -1.4234  2.4230  1.1424
 3587SOL     OW22222   0.924   1.076   0.113 -0.1709 -0.8286 -0.0906
 3587SOL    HW122223   0.920   1.044   0.204 -3.7992 -1.5836 -0.5238
 3587SOL    HW222224   0.997   1.028   0.075 -0.7223 -0.8141 -1.1486
 3588SOL     OW22225   1.048   3.943   5.109  0.0754  0.3057  0.3215
 3588SOL    HW122226   1.065   3.852   5.134 -1.5362 -0.4086 -1.1755
 3588SOL    HW222227   1.090   3.994   5.178 -1.8358 -2.1631  3.3520
 3589SOL     OW22228   0.577   1.972   1.267 -0.3803 -0.7163 -0.1019
 3589SOL    HW122229   0.654   1.997   1.317 -0.6183 -0.3515  0.0821
 3589SOL    HW222230   0.537   1.911   1.329 -0.7079  0.5107  0.8964
 3590SOL     OW22231   3.316   4.387   6.832 -0.2092 -0.2787 -0.5862
 3590SOL    HW122232   3.409   4.392   6.807  0.1783  0.2853  0.9864
 3590SOL    HW222233   3.321   4.328   6.907 -2.0309 -0.6384 -0.7527
 3591SOL     OW22234   4.670   3.062   5.824  0.1308  0.1998  0.0583
 3591SOL    HW122235   4.620   3.018   5.893 -1.1658 -0.2398 -1.1468
 3591SOL    HW222236   4.691   2.984   5.773 -1.6074 -0.2454  0.0064
 3592SOL     OW22237   4.598   1.622  16.038  0.1201 -0.2679  0.5653
 3592SOL    HW122238   4.662   1.590  16.101  0.7599  1.0464  0.5687
 3592SOL    HW222239   4.519   1.626  16.092  0.2657  2.5056  0.5461
 3593SOL     OW22240   0.382   1.585  17.085  0.2627  0.0501 -0.6216
 3593SOL    HW122241   0.414   1.606  16.997 -1.7572 -3.4521 -2.1927
 3593SOL    HW222242   0.458   1.529  17.104  1.0176  0.7522 -1.5381
 3594SOL     OW22243   1.652   1.333   3.166  0.3975  0.0535  0.1515
 3594SOL    HW122244   1.732   1.344   3.218  1.2287  0.0271 -1.1150
 3594SOL    HW222245   1.583   1.322   3.231 -1.1779  2.7455 -1.0681
 3595SOL     OW22246   4.523   0.471   6.100 -0.2783  0.9139 -0.6918
 3595SOL    HW122247   4.432   0.468   6.070  0.0796 -2.1034 -1.4657
 3595SOL    HW222248   4.539   0.379   6.079 -2.6489  0.1799  0.6632
 3596SOL     OW22249   1.074   0.928   5.504  0.2697  0.1359 -0.0803
 3596SOL    HW122250   1.160   0.887   5.494  0.1140  0.1855 -1.6830
 3596SOL    HW222251   1.021   0.915   5.425 -0.7093 -1.2934  0.8164
 3597SOL     OW22252   1.626   1.026   7.580  0.2377  0.3719 -0.7483
 3597SOL    HW122253   1.709   1.072   7.589  0.2650  0.2187 -0.2454
 3597SOL    HW222254   1.609   1.020   7.486  0.2510  0.1064 -0.7349
 3598SOL     OW22255   0.617   2.304   2.621 -0.0468 -0.0755 -0.1031
 3598SOL    HW122256   0.680   2.264   2.561 -1.1422  0.4629 -1.6267
 3598SOL    HW222257   0.635   2.395   2.598  0.1165 -0.1311 -0.2014
 3599SOL     OW22258   2.969   1.141   5.307  0.1547 -0.2525 -0.6462
 3599SOL    HW122259   2.895   1.134   5.368 -0.3881  0.5199 -1.2133
 3599SOL    HW222260   2.917   1.138   5.226 -1.7835 -0.0656  0.5859
 3600SOL     OW22261   0.222   3.935  12.155  0.2419 -0.2124 -0.1517
 3600SOL    HW122262   0.210   3.885  12.236 -1.2098  1.3634  0.6083
 3600SOL    HW222263   0.246   3.871  12.089  2.2190 -0.1010  0.4414
 3601SOL     OW22264   2.313   0.291   4.157  0.1411 -0.8470 -0.1434
 3601SOL    HW122265   2.399   0.333   4.160 -0.5691  0.6551 -0.5693
 3601SOL    HW222266   2.323   0.200   4.131 -0.6103 -1.0675  0.3533
 3602SOL     OW22267   2.923   0.209   2.973 -0.0660  0.1277 -0.6550
 3602SOL    HW122268   2.884   0.295   2.993  1.8528  1.1914 -1.5403
 3602SOL    HW222269   2.938   0.207   2.878 -0.1141 -1.1328 -0.6272
 3603SOL     OW22270   0.108   2.319  11.628  0.4427  0.5169  0.3752
 3603SOL    HW122271   0.128   2.278  11.712 -1.7188  2.7079  1.9584
 3603SOL    HW222272   0.020   2.351  11.650  0.1567 -0.1807  0.2225
 3604SOL     OW22273   3.332   0.792   4.665  0.1717 -0.2609  0.0278
 3604SOL    HW122274   3.405   0.767   4.722  1.5718 -1.9388 -2.5248
 3604SOL    HW222275   3.344   0.886   4.679 -0.7201 -0.3115  1.1111
 3605SOL     OW22276   4.113   3.506   1.196  0.6330 -0.0270 -0.4778
 3605SOL    HW122277   4.143   3.563   1.125 -3.4406  0.8642 -1.4863
 3605SOL    HW222278   4.026   3.481   1.164  0.0319  2.2426 -0.6132
 3606SOL     OW22279   4.000   0.944   7.358  0.5575 -0.0599  0.0531
 3606SOL    HW122280   4.092   0.925   7.381  0.9425  0.6299 -0.9269
 3606SOL    HW222281   4.004   1.036   7.332 -1.2495 -0.8202 -2.9071
 3607SOL     OW22282   0.142   1.650   7.952 -0.1738  0.1004  0.2799
 3607SOL    HW122283   0.225   1.677   7.992  0.1337 -1.9793  1.0553
 3607SOL    HW222284   0.076   1.719   7.965  0.6385  1.0796 -0.8630
 3608SOL     OW22285   4.038   0.423   6.874  0.0254 -0.0455  0.8211
 3608SOL    HW122286   4.027   0.511   6.909 -1.1919  0.3502 -0.5540
 3608SOL    HW222287   3.970   0.377   6.922 -0.9438  0.2232 -0.3021
 3609SOL     OW22288   1.951   2.698  13.757 -0.2613  0.0222 -0.0808
 3609SOL    HW122289   2.021   2.649  13.713  0.5700  0.7701  0.4045
 3609SOL    HW222290   1.946   2.665  13.847 -1.7536 -0.6453 -0.4067
 3610SOL     OW22291   3.656   4.538  14.995 -0.0952  0.0871  0.1069
 3610SOL    HW122292   3.601   4.474  14.950  0.7693  0.0623 -0.9103
 3610SOL    HW222293   3.741   4.501  14.971  0.4752  0.2035  1.8929
 3611SOL     OW22294   1.990   4.353   0.573  0.2927 -0.3970 -0.2709
 3611SOL    HW122295   1.901   4.384   0.592  0.1594 -2.5897  2.7115
 3611SOL    HW222296   2.009   4.289   0.642  0.3817  1.0317  1.0382
 3612SOL     OW22297   0.599   2.189   4.728  0.4082 -0.4792  0.1935
 3612SOL    HW122298   0.595   2.230   4.815 -0.2790 -1.4792  0.6297
 3612SOL    HW222299   0.530   2.124   4.738 -0.9615  1.1096  1.0298
 3613SOL     OW22300   0.248   0.460   9.401  0.3705 -0.2296  0.0521
 3613SOL    HW122301   0.252   0.371   9.436 -2.9695  0.4785  2.2325
 3613SOL    HW222302   0.323   0.490   9.451 -0.2483 -0.4183  1.0930
 3614SOL     OW22303   1.042   4.486   7.052  0.2757 -0.3838 -0.3578
 3614SOL    HW122304   1.083   4.501   7.137  0.6649 -2.1789 -0.2401
 3614SOL    HW222305   1.012   4.395   7.055 -0.7004 -0.0937 -1.0101
 3615SOL     OW22306   1.163   2.493  11.569  0.4686  0.0780  0.0400
 3615SOL    HW122307   1.241   2.471  11.517  0.4186  1.7947 -0.7615
 3615SOL    HW222308   1.203   2.516  11.653  2.1093 -0.2899 -0.6339
 3616SOL     OW22309   3.746   1.985   6.173 -0.1457 -0.3431 -0.2237
 3616SOL    HW122310   3.809   2.054   6.194  0.5957 -1.2456  0.4809
 3616SOL    HW222311   3.682   1.986   6.244  0.7442 -0.1524  0.5681
 3617SOL     OW22312   3.021   4.554   3.712 -0.2845 -0.0742  0.2525
 3617SOL    HW122313   3.045   4.490   3.645  0.9670  0.3541  0.2888
 3617SOL    HW222314   2.944   4.583   3.664  0.1660 -0.0273 -0.4546
 3618SOL     OW22315   0.242   2.208   3.973  0.1275 -0.4967  0.0384
 3618SOL    HW122316   0.170   2.146   3.958  3.4393 -3.9839 -1.6551
 3618SOL    HW222317   0.311   2.152   3.936 -0.4887 -1.0844 -0.2229
 3619SOL     OW22318   1.750   3.998  14.558 -0.2671  0.4582  0.2567
 3619SOL    HW122319   1.756   3.904  14.540 -1.4528  0.7458 -1.5727
 3619SOL    HW222320   1.713   4.030  14.476 -0.5593  0.3092  0.3330
 3620SOL     OW22321   0.651   3.804   4.900 -0.4299  0.0432  0.5369
 3620SOL    HW122322   0.746   3.812   4.887 -0.5689 -0.3258 -0.7349
 3620SOL    HW222323   0.649   3.715   4.935  3.1710  0.3816  1.6161
 3621SOL     OW22324   4.600   3.495  15.708 -0.5407  0.2797  0.1238
 3621SOL    HW122325   4.648   3.525  15.785  0.1963  0.5539 -0.4459
 3621SOL    HW222326   4.630   3.562  15.647  0.5403  0.2099  0.5808
 3622SOL     OW22327   3.206   2.527   2.177 -0.2764  0.1533  0.1699
 3622SOL    HW122328   3.204   2.446   2.126 -0.0221  0.2214  0.0541
 3622SOL    HW222329   3.283   2.573   2.144 -0.8366  1.7546  1.0980
 3623SOL     OW22330   1.435   0.707  17.417  0.1259  1.3713  0.5224
 3623SOL    HW122331   1.378   0.707  17.494 -0.5953  1.1914 -0.0082
 3623SOL    HW222332   1.448   0.613  17.404  1.0655  1.3635  1.5113
 3624SOL     OW22333   2.630   0.244   0.095 -0.1935 -0.7433 -0.0781
 3624SOL    HW122334   2.606   0.285   0.012 -0.7858  1.6728  1.2696
 3624SOL    HW222335   2.720   0.272   0.107  0.3380 -2.6060  0.3072
 3625SOL     OW22336   1.018   1.640   7.011 -0.2844 -0.7565 -0.1281
 3625SOL    HW122337   1.081   1.682   6.954 -1.3033  0.4748 -0.3537
 3625SOL    HW222338   1.002   1.711   7.073 -0.7624 -1.3794  0.4609
 3626SOL     OW22339   3.407   4.310   1.000  0.3777 -0.0938  0.3619
 3626SOL    HW122340   3.429   4.329   1.091  2.6810  3.7591 -1.0312
 3626SOL    HW222341   3.415   4.215   1.008  1.2881 -0.0142  0.4363
 3627SOL     OW22342   3.104   3.327   9.377  0.0565 -0.6766  0.4705
 3627SOL    HW122343   3.039   3.397   9.365  1.5172  0.3197 -1.7023
 3627SOL    HW222344   3.053   3.277   9.440  1.6368 -1.4950  1.0836
 3628SOL     OW22345   1.513   2.901  13.258 -0.4881  0.0668  0.2621
 3628SOL    HW122346   1.423   2.869  13.244  0.1871 -1.0448 -1.5398
 3628SOL    HW222347   1.564   2.841  13.204 -1.9638 -0.4949 -0.5188
 3629SOL     OW22348   2.314   3.326   7.793  0.0839 -0.0967 -0.0744
 3629SOL    HW122349   2.223   3.307   7.818 -0.0511 -0.3361 -0.7583
 3629SOL    HW222350   2.342   3.404   7.841 -0.5707 -0.3796  0.7889
 3630SOL     OW22351   3.348   4.211   2.750  0.3450 -0.2671  0.2482
 3630SOL    HW122352   3.422   4.234   2.807 -0.0788  0.1246  0.6423
 3630SOL    HW222353   3.395   4.235   2.670  0.8076 -0.4122  0.4749
 3631SOL     OW22354   0.649   1.951   5.658 -0.3843 -0.3867 -0.0220
 3631SOL    HW122355   0.572   1.930   5.712 -0.9460 -0.0190 -0.6798
 3631SOL    HW222356   0.719   1.904   5.704  1.9326  0.1581 -2.9972
 3632SOL     OW22357   1.975   4.289   9.563  0.3897  0.1939  0.3965
 3632SOL    HW122358   1.911   4.270   9.494  0.1198 -0.0697  0.7190
 3632SOL    HW222359   1.935   4.261   9.645  2.8618 -0.2019  1.4331
 3633SOL     OW22360   1.122   4.516   3.743 -0.2358 -0.4161  0.2062
 3633SOL    HW122361   1.102   4.429   3.709 -0.4060 -0.7455  1.1787
 3633SOL    HW222362   1.112   4.493   3.835 -0.4334  0.5361  0.4261
 3634SOL     OW22363   2.683   4.383   3.716 -0.3773  0.1899 -0.1191
 3634SOL    HW122364   2.721   4.470   3.703 -0.0902  0.3063  1.4170
 3634SOL    HW222365   2.596   4.412   3.743 -0.5425 -2.1319  1.8249
 3635SOL     OW22366   1.184   3.152   2.575  0.1739 -0.3619 -0.5489
 3635SOL    HW122367   1.242   3.157   2.651  0.0345 -0.1594 -0.4549
 3635SOL    HW222368   1.144   3.239   2.575  0.3816 -0.2607 -2.0709
 3636SOL     OW22369   4.512   0.019   1.499 -0.0668 -0.4419  0.3695
 3636SOL    HW122370   4.437   0.045   1.445  1.4432  0.4260 -1.3072
 3636SOL    HW222371   4.576   0.089   1.484  1.5077 -2.1132 -0.6639
 3637SOL     OW22372   4.364   3.112   9.833  0.0206  0.3578  0.6094
 3637SOL    HW122373   4.281   3.103   9.881 -0.1936  0.4445  0.2585
 3637SOL    HW222374   4.362   3.025   9.792  1.0364  0.5186  0.2319
 3638SOL     OW22375   3.712   1.512   4.475 -0.8389 -0.2049 -0.1371
 3638SOL    HW122376   3.726   1.537   4.384  0.8987 -0.8284 -0.0341
 3638SOL    HW222377   3.642   1.447   4.474  0.3956 -1.5714  3.6156
 3639SOL     OW22378   4.550   4.057  13.029  0.0566  1.0592 -0.1834
 3639SOL    HW122379   4.624   4.117  13.037  1.0472 -0.3249  1.0800
 3639SOL    HW222380   4.522   4.074  13.119 -2.3127 -1.0385 -0.5006
 3640SOL     OW22381   4.410   0.340   3.300 -0.5032 -0.2824  0.2142
 3640SOL    HW122382   4.339   0.288   3.264 -0.3203  0.9507 -1.9210
 3640SOL    HW222383   4.451   0.280   3.362  0.8496 -0.1722 -0.5745
 3641SOL     OW22384   4.324   3.876  12.411  0.1889  0.1283 -0.0868
 3641SOL    HW122385   4.283   3.810  12.467 -0.5167 -1.4079 -2.3848
 3641SOL    HW222386   4.411   3.837  12.407 -0.2999 -0.9588 -0.4238
 3642SOL     OW22387   4.520   2.540   7.275 -0.4011 -0.7513 -0.3059
 3642SOL    HW122388   4.443   2.595   7.257 -2.2811 -2.4805  2.2364
 3642SOL    HW222389   4.589   2.592   7.236 -0.7433  0.0731  0.1767
 3643SOL     OW22390   0.331   3.391   4.789 -0.4358  0.7595  0.1305
 3643SOL    HW122391   0.412   3.353   4.822 -0.6322  0.6849  0.5330
 3643SOL    HW222392   0.344   3.473   4.836  1.4783 -0.6242  2.0103
 3644SOL     OW22393   1.305   4.029   2.628  0.6582 -0.4486  0.4101
 3644SOL    HW122394   1.372   4.066   2.570 -1.0796  3.7352  1.0797
 3644SOL    HW222395   1.350   4.011   2.710  2.1324  0.3661 -0.2174
 3645SOL     OW22396   2.144   0.650   6.656  0.1714  0.2214 -0.2606
 3645SOL    HW122397   2.212   0.707   6.620  0.2459 -0.3149 -0.9689
 3645SOL    HW222398   2.137   0.576   6.595  1.1293 -0.9587  1.0594
 3646SOL     OW22399   1.055   3.235   6.101  0.5131  0.0751  0.7186
 3646SOL    HW122400   0.975   3.285   6.087  1.2849  0.7067 -1.5694
 3646SOL    HW222401   1.072   3.254   6.193  0.3150  2.2208  0.3106
 3647SOL     OW22402   3.502   2.842   4.126  0.6582 -0.3332  0.1845
 3647SOL    HW122403   3.566   2.778   4.097 -0.8354 -1.8871  0.3297
 3647SOL    HW222404   3.537   2.926   4.096  1.4091 -0.0703  1.7767
 3648SOL     OW22405   1.599   4.169   4.889 -0.1499  0.1027 -0.2331
 3648SOL    HW122406   1.648   4.118   4.954 -0.2748  0.5475  0.2092
 3648SOL    HW222407   1.515   4.184   4.931  0.1192  2.3323 -0.4947
 3649SOL     OW22408   4.055   3.337   0.891  0.0644 -0.2484  0.0969
 3649SOL    HW122409   4.130   3.396   0.902  0.5907 -0.9519  0.3121
 3649SOL    HW222410   4.032   3.301   0.976 -0.5792 -0.8716 -0.3434
 3650SOL     OW22411   4.148   4.719   5.422 -0.5268 -0.4733  0.6335
 3650SOL    HW122412   4.180   4.629   5.410  1.0933 -0.0253  1.5732
 3650SOL    HW222413   4.059   4.702   5.392 -0.1869 -3.9437  1.5780
 3651SOL     OW22414   3.405   2.626   8.080  0.3964 -0.1582  0.1698
 3651SOL    HW122415   3.449   2.583   8.006 -0.0137 -0.5142  0.1330
 3651SOL    HW222416   3.334   2.671   8.034  1.3760 -0.0009 -1.2028
 3652SOL     OW22417   1.891   1.589  11.741 -0.0462  0.1193  0.3544
 3652SOL    HW122418   1.877   1.514  11.799 -0.7729 -0.7594 -0.9769
 3652SOL    HW222419   1.891   1.555  11.652 -2.2918  2.2979 -0.4733
 3653SOL     OW22420   2.815   0.393  11.538 -0.6725 -0.0895 -0.4413
 3653SOL    HW122421   2.803   0.481  11.571  2.9137  0.6669 -1.1134
 3653SOL    HW222422   2.875   0.351  11.599 -0.4754  0.0903 -0.5119
 3654SOL     OW22423   1.809   4.086   2.871 -0.2978  0.5850 -0.0156
 3654SOL    HW122424   1.804   4.172   2.829 -1.8880  0.6796  0.3333
 3654SOL    HW222425   1.718   4.056   2.864 -0.3002  0.8238 -1.0715
 3655SOL     OW22426   0.781   0.564  12.955  0.1440  0.0856  0.7958
 3655SOL    HW122427   0.851   0.501  12.972  1.8040  1.5896 -0.4618
 3655SOL    HW222428   0.821   0.643  12.917  1.2659 -0.7353  0.2598
 3656SOL     OW22429   3.410   2.837  16.715 -0.0525  0.1949 -0.4032
 3656SOL    HW122430   3.439   2.901  16.781 -3.3615  2.4091 -1.0798
 3656SOL    HW222431   3.439   2.755  16.755  0.0567 -0.0830 -1.0540
 3657SOL     OW22432   3.222   2.047  14.607 -0.1454 -0.1618 -0.2013
 3657SOL    HW122433   3.155   2.020  14.544  2.0868  1.8280 -3.4528
 3657SOL    HW222434   3.246   2.132  14.572 -0.9858 -0.0454 -0.5061
 3658SOL     OW22435   1.295   4.664   5.724 -0.1967 -0.0170  0.2204
 3658SOL    HW122436   1.253   4.592   5.770  0.3045 -1.5292 -1.6954
 3658SOL    HW222437   1.310   4.625   5.638  1.1166  1.7080 -0.3460
 3659SOL     OW22438   1.599   3.743   5.232 -0.1911  0.7274 -0.0289
 3659SOL    HW122439   1.593   3.669   5.292 -0.3560  2.0268  1.5531
 3659SOL    HW222440   1.643   3.694   5.162  2.1655  1.1375  1.1584
 3660SOL     OW22441   2.994   2.598   7.792  0.3844 -0.0413  0.5239
 3660SOL    HW122442   3.045   2.632   7.865  2.2841 -1.3222 -0.2000
 3660SOL    HW222443   3.065   2.562   7.738 -1.6593 -2.0963 -0.8351
 3661SOL     OW22444   0.648   2.864  15.901 -0.3915  0.8759  0.3032
 3661SOL    HW122445   0.672   2.846  15.810 -0.8905 -0.5622  0.4438
 3661SOL    HW222446   0.600   2.945  15.882 -1.2945 -0.1598 -1.9220
 3662SOL     OW22447   2.191   4.000   0.597  0.2601  0.4081 -0.0311
 3662SOL    HW122448   2.275   4.045   0.608  1.4344 -1.7278 -0.4024
 3662SOL    HW222449   2.163   4.037   0.513 -0.2437  1.2934  0.5238
 3663SOL     OW22450   3.166   3.351   5.142  0.3647 -0.5735  0.4574
 3663SOL    HW122451   3.081   3.381   5.176  0.6715  1.9271 -1.0368
 3663SOL    HW222452   3.220   3.427   5.160  0.2284 -0.2159 -0.6845
 3664SOL     OW22453   3.504   3.999  11.755 -0.5529 -0.1748 -0.4515
 3664SOL    HW122454   3.509   3.951  11.837  1.0912 -1.0222 -1.0579
 3664SOL    HW222455   3.456   3.926  11.715 -0.3224 -0.5424 -0.0522
 3665SOL     OW22456   3.720   0.365  12.908 -0.5933 -0.1134  0.4070
 3665SOL    HW122457   3.625   0.368  12.899 -0.3129  2.0652 -1.7481
 3665SOL    HW222458   3.740   0.443  12.961  1.5527  0.4323 -1.1999
 3666SOL     OW22459   3.859   3.547   7.354 -0.3206 -0.1962 -0.1266
 3666SOL    HW122460   3.917   3.471   7.353 -2.2427 -1.6433 -0.1589
 3666SOL    HW222461   3.840   3.555   7.261 -2.1384  1.4100  0.3824
 3667SOL     OW22462   1.735   1.399   2.444  0.6205  0.1060 -0.4494
 3667SOL    HW122463   1.698   1.332   2.502  0.9963  0.0985 -0.2185
 3667SOL    HW222464   1.793   1.436   2.510 -0.2499  1.2625 -0.3407
 3668SOL     OW22465   1.780   0.396   3.480 -0.4760  0.2144 -0.3490
 3668SOL    HW122466   1.703   0.367   3.430 -0.9459  0.1032  0.4287
 3668SOL    HW222467   1.731   0.448   3.544 -1.0781 -2.1650  1.1345
 3669SOL     OW22468   3.605   2.616   6.733  0.5136  0.4402  0.5773
 3669SOL    HW122469   3.560   2.550   6.784 -0.7892  0.8426 -0.0435
 3669SOL    HW222470   3.543   2.635   6.662  0.9682 -2.6181 -0.6170
 3670SOL     OW22471   0.063   1.948   2.880 -0.8221  0.1932 -0.4610
 3670SOL    HW122472   0.115   1.974   2.956  0.3257 -1.3212 -0.7339
 3670SOL    HW222473   0.122   1.879   2.849  1.5863  1.2630  1.7452
 3671SOL     OW22474   4.473   1.645   6.321  0.0124 -0.1541 -0.1696
 3671SOL    HW122475   4.441   1.604   6.240  0.0076 -1.3959  0.4483
 3671SOL    HW222476   4.465   1.566   6.375 -4.0079  0.0007 -0.5533
 3672SOL     OW22477   0.179   4.248   5.660  0.1387 -0.2252  0.4136
 3672SOL    HW122478   0.093   4.283   5.683  0.2741 -2.1008  3.7653
 3672SOL    HW222479   0.161   4.155   5.648 -0.2981 -0.3292  1.9640
 3673SOL     OW22480   0.264   3.161   9.604 -0.0615 -0.0298 -0.8898
 3673SOL    HW122481   0.325   3.099   9.645 -1.2976 -0.2637  0.6196
 3673SOL    HW222482   0.189   3.143   9.660  0.9768  0.8252  0.7764
 3674SOL     OW22483   1.137   2.420   7.457 -0.0854 -0.0695 -0.2561
 3674SOL    HW122484   1.062   2.401   7.400 -0.6659 -0.1301  0.5180
 3674SOL    HW222485   1.192   2.343   7.446 -0.9726 -0.5062 -1.6413
 3675SOL     OW22486   0.380   0.663   4.575 -0.1846  0.1032  0.0373
 3675SOL    HW122487   0.456   0.690   4.523  0.6333 -1.0695  0.6259
 3675SOL    HW222488   0.316   0.700   4.514 -0.1768 -2.1758 -1.3447
 3676SOL     OW22489   3.889   3.654  10.974 -0.3426 -0.4169 -0.0741
 3676SOL    HW122490   3.884   3.741  10.934 -3.2753 -0.6022 -0.1159
 3676SOL    HW222491   3.983   3.652  10.992 -0.3531  0.9375  0.1527
 3677SOL     OW22492   4.325   0.746   6.203 -0.0349 -0.1681  0.4334
 3677SOL    HW122493   4.356   0.812   6.265 -1.6012  1.0013 -0.0241
 3677SOL    HW222494   4.306   0.804   6.130 -0.3974 -1.4988 -0.5278
 3678SOL     OW22495   0.356   4.203   5.434 -0.9998 -0.0944  0.7463
 3678SOL    HW122496   0.319   4.214   5.521  1.0605  0.4675  1.5554
 3678SOL    HW222497   0.302   4.130   5.404 -2.0669  1.4187 -0.9753
 3679SOL     OW22498   1.821   2.705   2.009 -0.6629 -0.9009  0.3927
 3679SOL    HW122499   1.791   2.750   1.930 -1.1379 -0.9688  0.5333
 3679SOL    HW222500   1.741   2.703   2.061  0.4671  0.4087  2.2021
 3680SOL     OW22501   3.046   0.941  15.355  0.5006 -0.0693  0.3951
 3680SOL    HW122502   2.974   0.976  15.409 -0.4678  0.5288 -1.2686
 3680SOL    HW222503   3.027   0.977  15.268  1.6104  2.6170  1.2573
 3681SOL     OW22504   3.607   1.380   0.343 -0.4427 -0.1072 -0.8313
 3681SOL    HW122505   3.694   1.360   0.377 -1.2698  2.6925  2.9305
 3681SOL    HW222506   3.595   1.474   0.361  2.8560  0.1378  0.1583
 3682SOL     OW22507   3.453   0.057   1.215  0.3971  0.3156  0.1120
 3682SOL    HW122508   3.377   0.056   1.157 -0.4574  0.4764  1.2190
 3682SOL    HW222509   3.410   0.010   1.287 -0.9353  1.0011 -0.2407
 3683SOL     OW22510   0.828   2.355   1.976  0.3973 -0.0534 -0.3140
 3683SOL    HW122511   0.860   2.399   2.054 -1.1877 -2.5830  1.7675
 3683SOL    HW222512   0.797   2.276   2.021 -0.4681 -0.7381 -2.0978
 3684SOL     OW22513   1.703   1.089   2.227  0.0024  0.0036 -0.0561
 3684SOL    HW122514   1.649   1.148   2.279  1.0549  0.0230  0.9978
 3684SOL    HW222515   1.645   1.013   2.224 -1.5204  1.1161  1.3050
 3685SOL     OW22516   2.108   1.812   6.826  0.6036  0.5563 -0.2661
 3685SOL    HW122517   2.190   1.777   6.862  0.6350  1.5727  0.6291
 3685SOL    HW222518   2.057   1.817   6.906 -0.6670 -1.1284 -0.9599
 3686SOL     OW22519   3.743   2.356  16.955 -0.4396 -0.1639 -1.1497
 3686SOL    HW122520   3.676   2.392  17.012  2.3330  0.4529  1.7685
 3686SOL    HW222521   3.791   2.437  16.938 -0.1850 -0.1821 -0.5088
 3687SOL     OW22522   1.730   1.632   3.855 -0.4960  0.5195  0.7721
 3687SOL    HW122523   1.800   1.584   3.810 -0.7805  0.9383 -0.1057
 3687SOL    HW222524   1.735   1.719   3.816 -0.3113  0.5473  0.8540
 3688SOL     OW22525   3.699   3.953   3.499  1.0110 -0.1836 -0.0716
 3688SOL    HW122526   3.679   4.024   3.560 -2.0058 -0.9552 -0.1707
 3688SOL    HW222527   3.755   3.899   3.556  0.3037  1.7400  2.4612
 3689SOL     OW22528   0.830   4.305   4.148  0.1538  0.3418 -0.2361
 3689SOL    HW122529   0.885   4.307   4.226 -2.1440  0.0876  1.3955
 3689SOL    HW222530   0.750   4.271   4.190 -0.8504  3.0820  0.0906
 3690SOL     OW22531   0.793   3.508   8.006 -0.2584 -0.0152  0.8385
 3690SOL    HW122532   0.803   3.583   7.947  1.5618 -1.3378 -0.5732
 3690SOL    HW222533   0.753   3.450   7.941 -1.0770  3.3709 -1.6817
 3691SOL     OW22534   4.658   0.237   7.957  0.2592 -0.0198 -0.1764
 3691SOL    HW122535   4.575   0.207   7.921 -0.8887  2.2478  0.5691
 3691SOL    HW222536   4.695   0.165   8.009 -1.7924 -0.2363  0.9501
 3692SOL     OW22537   1.893   1.765   0.939 -0.3706 -0.0825  0.1525
 3692SOL    HW122538   1.947   1.843   0.924  1.6791 -1.3153  1.0655
 3692SOL    HW222539   1.822   1.789   0.999 -1.3586  1.5373 -1.6686
 3693SOL     OW22540   2.914   2.775   5.410  0.4958 -0.3882 -0.9718
 3693SOL    HW122541   2.923   2.719   5.333 -0.0183 -0.3810 -1.0321
 3693SOL    HW222542   2.831   2.820   5.397  1.2795  1.9081  1.9201
 3694SOL     OW22543   1.523   1.511   6.798  0.4589  0.5327 -0.1817
 3694SOL    HW122544   1.485   1.470   6.875  1.0389  0.6699  0.1760
 3694SOL    HW222545   1.606   1.466   6.781  0.2996 -0.4458  1.6809
 3695SOL     OW22546   2.045   0.909   1.863 -0.0902 -0.2705  0.3795
 3695SOL    HW122547   2.020   0.846   1.796 -0.2273 -1.6296  1.7063
 3695SOL    HW222548   2.141   0.904   1.865 -0.0178  0.3225 -1.5487
 3696SOL     OW22549   1.074   1.702   3.618  0.0670 -0.0422 -0.2359
 3696SOL    HW122550   1.078   1.627   3.559  1.0923  0.1387 -0.3885
 3696SOL    HW222551   1.029   1.663   3.694  0.2803 -0.8114 -0.5075
 3697SOL     OW22552   4.608   1.004   3.873  0.2546 -0.2446  0.1016
 3697SOL    HW122553   4.670   0.948   3.919 -0.5381 -1.2746 -0.0592
 3697SOL    HW222554   4.653   1.087   3.887  1.2731 -1.0327  1.4257
 3698SOL     OW22555   4.394   3.473   4.593  1.0857  0.2068 -0.0108
 3698SOL    HW122556   4.468   3.509   4.545  1.1593  0.3642  0.2172
 3698SOL    HW222557   4.324   3.506   4.537 -0.2831  1.2927  2.3511
 3699SOL     OW22558   3.095   1.902  10.476  0.5050 -0.1030 -0.0490
 3699SOL    HW122559   3.105   1.817  10.517  0.2742  0.6718  1.6102
 3699SOL    HW222560   3.005   1.923  10.504  1.4149  2.2789  1.1203
 3700SOL     OW22561   3.130   1.872   4.078  0.3783 -0.2666  0.0279
 3700SOL    HW122562   3.223   1.868   4.058  0.4168  1.6350 -0.2375
 3700SOL    HW222563   3.107   1.965   4.066  1.1518 -0.0369  0.3065
 3701SOL     OW22564   2.521   0.960   7.221 -0.5154 -0.4631  0.6793
 3701SOL    HW122565   2.460   0.998   7.285 -0.2252 -0.1220  0.7511
 3701SOL    HW222566   2.465   0.954   7.143 -0.0629 -0.8898  0.3921
 3702SOL     OW22567   4.213   1.098   4.838  0.0891 -0.5210  0.6439
 3702SOL    HW122568   4.289   1.074   4.892  2.2551  2.4586 -1.1118
 3702SOL    HW222569   4.234   1.181   4.795  0.9236 -0.6899  0.7219
 3703SOL     OW22570   0.170   0.007   5.279  0.0894  0.1458 -0.1049
 3703SOL    HW122571   0.248   4.682   5.311  0.8332  1.8724  0.5812
 3703SOL    HW222572   0.196   0.028   5.190 -0.7377 -0.0923 -0.3968
 3704SOL     OW22573   1.968   2.465  15.176  0.3572  0.5893 -0.4261
 3704SOL    HW122574   1.874   2.450  15.161  0.2409  0.5066  0.3669
 3704SOL    HW222575   1.982   2.514  15.095  0.3219 -0.1422 -0.8818
 3705SOL     OW22576   0.377   3.777  15.574 -0.3173  0.5150  0.2653
 3705SOL    HW122577   0.377   3.826  15.491  0.5468 -0.0361 -0.0596
 3705SOL    HW222578   0.464   3.736  15.574  0.2482  1.6837 -2.2683
 3706SOL     OW22579   1.811   0.239  11.962 -0.4848  0.1148 -0.9833
 3706SOL    HW122580   1.776   0.152  11.941  0.1944 -0.7358  1.3807
 3706SOL    HW222581   1.746   0.302  11.933  0.4064  1.1476 -0.7324
 3707SOL     OW22582   0.889   3.987   3.486 -0.2329  0.3372  0.7263
 3707SOL    HW122583   0.955   4.019   3.547  1.1667  1.4632 -1.3920
 3707SOL    HW222584   0.934   3.909   3.454  1.9161  2.9932 -2.6318
 3708SOL     OW22585   2.274   4.145  16.216  0.0671 -0.6013  1.0475
 3708SOL    HW122586   2.350   4.098  16.181  0.7639  0.8195  0.6382
 3708SOL    HW222587   2.196   4.097  16.186 -0.9067  0.6272  1.6409
 3709SOL     OW22588   1.753   3.706  10.635 -0.8195  0.3965 -0.2730
 3709SOL    HW122589   1.732   3.708  10.541 -1.4466  3.3481 -0.0646
 3709SOL    HW222590   1.808   3.784  10.644 -1.9024  1.1164  0.2204
 3710SOL     OW22591   4.616   0.800   7.488 -0.1943  0.3897  0.2364
 3710SOL    HW122592   4.577   0.832   7.569  0.2548  0.1560  0.5404
 3710SOL    HW222593   4.692   0.754   7.523  0.5057  1.5717  0.2764
 3711SOL     OW22594   1.836   2.572   3.383 -1.2269 -0.3816 -0.7454
 3711SOL    HW122595   1.825   2.584   3.289 -0.5398 -1.1662 -0.9231
 3711SOL    HW222596   1.926   2.600   3.399 -1.2594 -0.5727 -0.2210
 3712SOL     OW22597   0.815   3.750   9.251  0.1043  0.1069  0.3640
 3712SOL    HW122598   0.857   3.666   9.232  3.1160  1.1225  2.4952
 3712SOL    HW222599   0.723   3.723   9.253  0.0587  0.2037 -0.3215
 3713SOL     OW22600   1.324   2.236   6.018  0.4855 -0.5909 -0.3539
 3713SOL    HW122601   1.379   2.285   5.957  0.1945  0.0681 -0.0959
 3713SOL    HW222602   1.383   2.245   6.093 -1.3009 -2.4652  1.2722
 3714SOL     OW22603   2.417   1.831   9.844 -0.1289 -0.0751 -1.0277
 3714SOL    HW122604   2.324   1.845   9.863  0.1460  1.1637 -0.6493
 3714SOL    HW222605   2.431   1.894   9.773  1.3265 -0.1446 -0.8013
 3715SOL     OW22606   3.340   4.573   2.862 -0.8643 -0.8015  0.0245
 3715SOL    HW122607   3.353   4.652   2.810 -0.6780  1.3037  3.2581
 3715SOL    HW222608   3.367   4.606   2.948 -1.2510  0.9885 -0.5523
 3716SOL     OW22609   2.476   2.960   7.381 -0.0028 -0.1886  0.4477
 3716SOL    HW122610   2.510   2.924   7.463  0.5489 -0.1252  0.2459
 3716SOL    HW222611   2.529   2.914   7.316 -1.0427 -1.5225  0.5369
 3717SOL     OW22612   4.337   0.262   2.516 -0.4519  0.7525  0.0640
 3717SOL    HW122613   4.364   0.198   2.450  0.6628  0.8006  0.4842
 3717SOL    HW222614   4.241   0.254   2.514 -0.4499  0.4493  1.4695
 3718SOL     OW22615   4.553   1.604   8.474 -0.9245 -0.2313 -0.2105
 3718SOL    HW122616   4.545   1.512   8.497  0.7015 -0.8253 -2.0280
 3718SOL    HW222617   4.485   1.615   8.407  1.9051 -1.5058 -3.2931
 3719SOL     OW22618   0.188   2.982   7.049  0.4425  0.1081  0.6248
 3719SOL    HW122619   0.153   3.008   6.964 -0.2607 -1.7840  0.3514
 3719SOL    HW222620   0.201   2.888   7.044  0.3920  0.0593  1.3648
 3720SOL     OW22621   3.973   0.750   2.372  0.0009 -0.3373 -0.3650
 3720SOL    HW122622   3.952   0.832   2.328  1.0444  0.6667  1.0215
 3720SOL    HW222623   4.003   0.711   2.290 -2.6317  0.1580 -1.5709
 3721SOL     OW22624   1.893   0.224   2.064 -0.8115 -0.3782 -0.5635
 3721SOL    HW122625   1.920   0.313   2.085 -0.6840 -0.4454 -0.4469
 3721SOL    HW222626   1.923   0.203   1.975  3.1112  1.9234  0.2478
 3722SOL     OW22627   3.486   3.462   4.435  0.3216  0.0059 -1.0363
 3722SOL    HW122628   3.474   3.392   4.371  2.0178 -1.1867 -0.0241
 3722SOL    HW222629   3.405   3.443   4.481  0.8439  0.8609  0.2264
 3723SOL     OW22630   3.350   4.676   1.433  0.3564 -0.0169  0.2548
 3723SOL    HW122631   3.401   4.693   1.512  1.9987 -0.5809 -0.6851
 3723SOL    HW222632   3.321   4.587   1.454 -1.1878  0.6509  0.9319
 3724SOL     OW22633   0.179   2.105   8.155 -0.1880 -0.1351 -0.4759
 3724SOL    HW122634   0.224   2.140   8.079 -1.1921  2.9068  0.3411
 3724SOL    HW222635   0.173   2.183   8.210 -0.8465  0.3397 -1.2424
 3725SOL     OW22636   1.967   3.297   9.410 -0.1475 -0.1116  0.2830
 3725SOL    HW122637   2.008   3.302   9.497 -0.0663  0.5982  0.2035
 3725SOL    HW222638   1.917   3.379   9.414  1.4526  0.8867 -0.4361
 3726SOL     OW22639   2.348   3.252   3.778  0.3664  0.2284 -0.0242
 3726SOL    HW122640   2.390   3.323   3.729 -1.5818  1.9201  0.7667
 3726SOL    HW222641   2.278   3.236   3.715  0.1705 -1.0713  0.5329
 3727SOL     OW22642   2.888   0.745   3.338  0.0879 -0.1194  0.6614
 3727SOL    HW122643   2.810   0.796   3.316  0.2278 -0.6279 -1.0014
 3727SOL    HW222644   2.857   0.705   3.419  0.3356 -0.3389  0.6459
 3728SOL     OW22645   0.918   0.270   4.193  0.2112  0.1839  0.1299
 3728SOL    HW122646   0.939   0.243   4.103  0.5236 -1.5435  0.7195
 3728SOL    HW222647   0.927   0.365   4.194  0.1856  0.1689  1.2946
 3729SOL     OW22648   1.387   2.107  12.811  0.0252 -0.4371 -0.1385
 3729SOL    HW122649   1.356   2.175  12.751  2.0497 -0.4684 -1.1978
 3729SOL    HW222650   1.463   2.088  12.756 -1.0191 -0.8452 -1.4818
 3730SOL     OW22651   1.116   0.326  16.645  0.1880 -0.2142 -0.0030
 3730SOL    HW122652   1.129   0.379  16.567  3.1252 -0.5690  0.2337
 3730SOL    HW222653   1.021   0.315  16.650  0.3909 -2.1229 -0.2805
 3731SOL     OW22654   0.694   4.283   8.659  0.0725  0.1888  0.0573
 3731SOL    HW122655   0.763   4.319   8.604  2.4323  0.0367  2.9050
 3731SOL    HW222656   0.709   4.309   8.749 -0.4969  2.3977 -0.4989
 3732SOL     OW22657   3.619   0.419   4.571  0.1803  0.5003 -0.2857
 3732SOL    HW122658   3.562   0.472   4.516  1.8268  0.7553 -1.7187
 3732SOL    HW222659   3.693   0.432   4.512 -1.7721  0.8517 -2.6283
 3733SOL     OW22660   3.715   4.539   3.684 -0.4998  0.3815 -1.1331
 3733SOL    HW122661   3.769   4.473   3.642 -0.5767 -0.3925 -0.0134
 3733SOL    HW222662   3.700   4.604   3.616 -0.7073  1.4398 -0.0822
 3734SOL     OW22663   1.355   1.175   5.863 -0.1371 -0.0706  0.0581
 3734SOL    HW122664   1.358   1.095   5.915  1.7786 -0.3260 -0.4154
 3734SOL    HW222665   1.320   1.152   5.777 -0.6756 -0.7496  0.4599
 3735SOL     OW22666   1.889   2.535   5.826 -0.6952 -0.0713 -0.5155
 3735SOL    HW122667   1.825   2.539   5.897 -0.2637  1.3521 -0.2129
 3735SOL    HW222668   1.907   2.628   5.811 -0.6785 -0.0314 -0.2513
 3736SOL     OW22669   2.115   4.175   0.403 -0.6488 -0.3756  0.1825
 3736SOL    HW122670   2.080   4.240   0.463  0.5974 -0.1591  0.6694
 3736SOL    HW222671   2.199   4.208   0.372 -0.2851 -0.3740  1.1850
 3737SOL     OW22672   3.992   0.045   4.308  0.0343  0.5189 -0.2210
 3737SOL    HW122673   3.973   0.015   4.219 -0.2383  0.9806 -0.3227
 3737SOL    HW222674   3.974   0.139   4.297  0.3856  0.6041 -0.0645
 3738SOL     OW22675   4.008   3.242  14.912 -0.2745 -0.1836 -1.0265
 3738SOL    HW122676   3.990   3.319  14.859 -0.0322 -0.6750 -1.8126
 3738SOL    HW222677   3.974   3.168  14.863 -0.3385  0.2567 -1.6391
 3739SOL     OW22678   4.265   4.579   3.139 -0.3650  0.3170 -0.2564
 3739SOL    HW122679   4.274   4.562   3.233  0.6678 -0.3718 -0.4788
 3739SOL    HW222680   4.185   4.630   3.148  0.2497  0.9289  1.9114
 3740SOL     OW22681   0.695   2.493   1.781  0.2816 -0.1994 -0.4451
 3740SOL    HW122682   0.622   2.430   1.780 -0.9090  1.1857 -0.1297
 3740SOL    HW222683   0.741   2.456   1.856 -0.5984  0.0207  0.2058
 3741SOL     OW22684   0.069   2.303   5.969  0.1260 -0.3221 -0.6633
 3741SOL    HW122685   0.159   2.282   5.945 -0.3013  0.1076 -2.6469
 3741SOL    HW222686   0.057   2.391   5.932 -2.1023 -0.2400  0.2356
 3742SOL     OW22687   4.537   4.180   2.854  0.2027  0.1371  0.0711
 3742SOL    HW122688   4.584   4.140   2.781  0.4874  0.5680  0.0109
 3742SOL    HW222689   4.578   4.135   2.928 -2.5644 -1.0632  0.8542
 3743SOL     OW22690   3.184   4.696  10.752  0.0027  0.7971 -0.4735
 3743SOL    HW122691   3.122   0.026  10.702 -3.0653 -1.4763  0.9980
 3743SOL    HW222692   3.268   4.716  10.711  0.4114  2.7202  1.3407
 3744SOL     OW22693   4.183   3.204  16.592 -0.6270 -0.3205 -0.2737
 3744SOL    HW122694   4.266   3.158  16.579 -0.3836  0.5812 -1.8021
 3744SOL    HW222695   4.184   3.248  16.507 -0.7460  0.7556  0.2786
 3745SOL     OW22696   3.547   0.605   7.065 -0.1150  0.3833  0.0187
 3745SOL    HW122697   3.499   0.684   7.089 -0.6578 -0.4595  1.7530
 3745SOL    HW222698   3.564   0.624   6.973 -0.9616  0.1557 -0.1850
 3746SOL     OW22699   4.184   0.435  16.282 -0.1881  0.2809 -0.0817
 3746SOL    HW122700   4.266   0.426  16.234 -0.4466 -0.4845 -0.3930
 3746SOL    HW222701   4.173   0.528  16.298  1.7352  0.2763  1.1382
 3747SOL     OW22702   1.663   4.065   2.562 -0.1045  0.6673  0.1305
 3747SOL    HW122703   1.740   4.092   2.510 -0.1292 -2.0330 -1.3049
 3747SOL    HW222704   1.682   4.104   2.647 -3.0079  1.7210  0.2958
 3748SOL     OW22705   0.110   0.667   9.948 -0.1339  0.5271  0.0043
 3748SOL    HW122706   0.072   0.610   9.881 -2.2777  1.1069  0.7304
 3748SOL    HW222707   0.202   0.648   9.932 -0.0279  1.8415 -0.9500
 3749SOL     OW22708   0.571   4.284   7.570 -0.6391 -0.3474  0.0568
 3749SOL    HW122709   0.613   4.228   7.636 -0.4684  0.0987  0.3340
 3749SOL    HW222710   0.576   4.239   7.486  3.6805  1.8481 -0.8613
 3750SOL     OW22711   1.334   0.481   5.123  0.3029 -0.4793  0.4088
 3750SOL    HW122712   1.339   0.573   5.095  0.4696 -0.4277  0.6090
 3750SOL    HW222713   1.361   0.433   5.045  2.1839 -1.0636  1.4336
 3751SOL     OW22714   1.818   4.627   5.701 -0.9001 -0.3815 -0.5616
 3751SOL    HW122715   1.750   4.669   5.754  0.5979 -0.0632  1.1089
 3751SOL    HW222716   1.780   4.629   5.613 -0.1288  3.4184 -0.8168
 3752SOL     OW22717   1.710   0.485  13.705 -0.0558  0.3536 -0.3709
 3752SOL    HW122718   1.713   0.580  13.711 -4.0198  0.4546  0.4567
 3752SOL    HW222719   1.630   0.466  13.755 -0.9090  3.1992 -0.6611
 3753SOL     OW22720   4.575   3.621   2.134  0.4066 -0.5262  0.1319
 3753SOL    HW122721   4.549   3.532   2.157  0.2861 -0.0477  1.8452
 3753SOL    HW222722   4.632   3.600   2.059  1.1340  2.3012 -0.1039
 3754SOL     OW22723   1.171   3.888   8.442 -0.6629 -0.2606  0.0450
 3754SOL    HW122724   1.197   3.947   8.513 -3.0776  1.2341 -0.3056
 3754SOL    HW222725   1.083   3.917   8.417 -0.7251 -1.7362 -1.4546
 3755SOL     OW22726   3.803   4.149   5.938  0.2460 -0.3710  0.9297
 3755SOL    HW122727   3.870   4.183   5.879  0.0505  1.4397  1.7359
 3755SOL    HW222728   3.855   4.108   6.006  1.7482  0.5889  0.3510
 3756SOL     OW22729   1.131   1.283   0.988  0.0558  0.5502 -0.2203
 3756SOL    HW122730   1.214   1.246   1.017  0.6180  0.8888 -1.4379
 3756SOL    HW222731   1.074   1.262   1.063  0.7578 -0.0121  0.1508
 3757SOL     OW22732   3.076   3.086  15.682 -0.0042 -0.1214 -0.0392
 3757SOL    HW122733   3.008   3.049  15.627  0.7708 -2.1508  0.3694
 3757SOL    HW222734   3.027   3.094  15.764 -0.7069  0.9362 -0.5702
 3758SOL     OW22735   4.382   3.190   3.395 -0.8531 -0.7452 -0.2653
 3758SOL    HW122736   4.367   3.255   3.327 -1.3483 -0.0370  0.5304
 3758SOL    HW222737   4.474   3.165   3.384 -0.7370  0.0733 -1.1752
 3759SOL     OW22738   2.807   4.129  13.374  0.3319 -0.1311  0.1233
 3759SOL    HW122739   2.811   4.166  13.462 -1.1787  0.0801  0.0934
 3759SOL    HW222740   2.712   4.129  13.366  0.0717 -0.1117  3.4178
 3760SOL     OW22741   3.642   2.285  13.902 -0.3386 -0.0582  0.3829
 3760SOL    HW122742   3.659   2.365  13.951  1.0703  0.2635 -0.6379
 3760SOL    HW222743   3.724   2.237  13.913  0.7416  1.3318 -1.7018
 3761SOL     OW22744   3.056   0.317   9.594  0.0403  0.4735  0.0781
 3761SOL    HW122745   3.024   0.325   9.504  0.4524 -2.3579 -0.3264
 3761SOL    HW222746   3.128   0.379   9.601 -2.1036  3.1196 -1.2278
 3762SOL     OW22747   1.757   4.404   4.544  0.2576  0.1636  0.1011
 3762SOL    HW122748   1.701   4.399   4.621  0.2575  1.0809  0.1636
 3762SOL    HW222749   1.784   4.495   4.532 -1.1052  0.5874  0.3173
 3763SOL     OW22750   4.387   4.158   7.588 -0.4145  0.2585 -0.1763
 3763SOL    HW122751   4.390   4.064   7.604 -0.2015 -0.1227 -2.4349
 3763SOL    HW222752   4.349   4.145   7.501 -0.0709 -1.6994 -0.0146
 3764SOL     OW22753   2.751   4.195  12.444 -0.4382 -0.1625 -0.0362
 3764SOL    HW122754   2.791   4.279  12.423  1.7153 -1.8231 -2.5166
 3764SOL    HW222755   2.672   4.210  12.393  0.7387  1.2659 -1.4273
 3765SOL     OW22756   3.323   0.003   8.875 -0.1585  0.1243 -0.1537
 3765SOL    HW122757   3.336   0.074   8.938  1.4859 -1.6285  1.4701
 3765SOL    HW222758   3.408   4.681   8.885 -0.9133 -1.2961  0.0776
 3766SOL     OW22759   3.228   2.347   8.455 -0.0657 -0.4926  0.4329
 3766SOL    HW122760   3.321   2.324   8.450 -0.8700 -3.7562  0.3724
 3766SOL    HW222761   3.190   2.260   8.445 -0.2658 -0.5191  1.4274
 3767SOL     OW22762   3.451   3.558   1.936 -0.5122  0.0644  0.0338
 3767SOL    HW122763   3.486   3.647   1.943  0.1599 -0.1039 -1.1478
 3767SOL    HW222764   3.363   3.578   1.906 -0.5673  0.5954  0.5603
 3768SOL     OW22765   1.893   1.633   5.144 -0.3843  0.5726 -0.0171
 3768SOL    HW122766   1.823   1.594   5.092  0.2973  0.0055 -0.5084
 3768SOL    HW222767   1.884   1.722   5.110  1.3137 -0.2340 -2.6061
 3769SOL     OW22768   1.518   2.240  12.288  0.0297 -0.1673  0.1271
 3769SOL    HW122769   1.437   2.285  12.266 -0.0381  0.6929  2.1232
 3769SOL    HW222770   1.532   2.179  12.216 -0.9688  1.1156 -1.1446
 3770SOL     OW22771   0.825   3.552   8.998  0.4727  0.0020  0.4710
 3770SOL    HW122772   0.778   3.512   9.071 -0.4819  1.6958  0.7648
 3770SOL    HW222773   0.916   3.551   9.027  0.5065  0.7037  0.3890
 3771SOL     OW22774   2.116   1.137  14.167  0.0232 -0.1703 -0.1108
 3771SOL    HW122775   2.031   1.105  14.135  2.4156 -1.6605 -5.0843
 3771SOL    HW222776   2.122   1.214  14.110  0.8124 -0.5961 -0.5915
 3772SOL     OW22777   3.653   1.722   0.652  0.4213  0.2684  1.0454
 3772SOL    HW122778   3.701   1.639   0.648 -2.9731 -1.5941 -1.2421
 3772SOL    HW222779   3.624   1.716   0.561 -1.3888 -0.4616  1.6752
 3773SOL     OW22780   4.479   3.186   6.089  0.1785  0.0758  0.2581
 3773SOL    HW122781   4.491   3.217   6.179 -1.4311 -1.4391  0.9892
 3773SOL    HW222782   4.494   3.092   6.097  2.5848  0.4288 -0.2247
 3774SOL     OW22783   2.028   2.662   1.063  0.1209 -0.2343  0.5795
 3774SOL    HW122784   2.062   2.743   1.100 -1.2525  1.1856 -1.2899
 3774SOL    HW222785   2.011   2.700   0.977 -2.2030 -2.1941  0.1526
 3775SOL     OW22786   3.771   4.012  15.909 -0.0158  0.4077  0.5673
 3775SOL    HW122787   3.809   4.063  15.981  1.1011 -1.5806  1.3723
 3775SOL    HW222788   3.695   4.064  15.882 -1.0810  0.2268  3.1615
 3776SOL     OW22789   4.194   4.329   5.047 -0.1689 -0.1888  0.8197
 3776SOL    HW122790   4.218   4.390   5.117  0.3105  0.2814  0.2523
 3776SOL    HW222791   4.261   4.261   5.047 -3.3336 -3.2908 -2.6696
 3777SOL     OW22792   0.268   1.351  12.771 -0.5207 -0.5380  0.1583
 3777SOL    HW122793   0.326   1.408  12.720  0.9524 -1.2099  1.0776
 3777SOL    HW222794   0.334   1.301  12.818 -1.0261 -0.2028  1.2301
 3778SOL     OW22795   4.701   4.079  15.722  0.6574 -0.2778 -0.0751
 3778SOL    HW122796   4.721   4.163  15.680  0.1008  0.5659  1.3706
 3778SOL    HW222797   4.627   4.053  15.666  0.1567  1.8538 -0.4106
 3779SOL     OW22798   2.397   1.950  13.257 -0.5348  0.1027  0.5107
 3779SOL    HW122799   2.389   1.857  13.274 -0.4659 -0.1426 -0.8227
 3779SOL    HW222800   2.413   1.955  13.163 -2.3288  2.4857  0.3177
 3780SOL     OW22801   3.369   0.960   8.116  0.2754 -0.0736 -0.2610
 3780SOL    HW122802   3.436   1.021   8.083 -0.6371  1.3660  0.5741
 3780SOL    HW222803   3.365   0.986   8.208  3.3600  0.0787 -0.1428
 3781SOL     OW22804   4.172   3.263   9.436  0.1850  0.4718 -0.5130
 3781SOL    HW122805   4.121   3.192   9.398  0.6789  0.0957 -0.4777
 3781SOL    HW222806   4.255   3.215   9.430 -0.0170  0.1064 -0.4048
 3782SOL     OW22807   0.584   4.164   3.616 -0.1702  0.9543 -0.1959
 3782SOL    HW122808   0.540   4.201   3.692  1.5754  0.1901  1.1691
 3782SOL    HW222809   0.558   4.072   3.613  0.9185  0.7054 -2.1527
 3783SOL     OW22810   1.447   4.482   5.946  0.1472 -0.0072  0.0953
 3783SOL    HW122811   1.493   4.517   5.870  0.7907  1.4027  1.1442
 3783SOL    HW222812   1.491   4.398   5.962  0.3183 -0.1101 -0.9126
 3784SOL     OW22813   0.825   0.408   9.245  0.5859  0.1629  0.6845
 3784SOL    HW122814   0.758   0.363   9.297 -1.9932  2.6361 -0.4952
 3784SOL    HW222815   0.890   0.436   9.310 -0.5044  2.2630  0.8784
 3785SOL     OW22816   1.062   1.301  16.124 -0.5597  0.3447  0.0727
 3785SOL    HW122817   1.107   1.277  16.042  0.8321 -0.6070  1.1172
 3785SOL    HW222818   0.987   1.242  16.125 -1.0373  1.0037  1.8047
 3786SOL     OW22819   3.011   3.680  11.449 -0.2382 -0.3556  0.2355
 3786SOL    HW122820   2.948   3.608  11.450  1.2347 -1.6667 -0.5929
 3786SOL    HW222821   3.028   3.682  11.544  0.8002 -1.6534  0.0803
 3787SOL     OW22822   0.649   1.903  14.321  0.5103 -0.0839 -0.0355
 3787SOL    HW122823   0.701   1.822  14.326 -1.6201 -1.3986  0.7710
 3787SOL    HW222824   0.582   1.882  14.256  1.0005  0.4610 -0.7232
 3788SOL     OW22825   2.096   3.674   0.052  0.5053 -0.7108  0.7655
 3788SOL    HW122826   2.034   3.653  17.670 -0.7232  2.4700  0.8852
 3788SOL    HW222827   2.179   3.690   0.008  0.6871  1.1121  1.7559
 3789SOL     OW22828   2.533   4.213   6.955  0.8017  0.4336  0.3185
 3789SOL    HW122829   2.455   4.219   6.900  0.0934 -2.2193  1.0576
 3789SOL    HW222830   2.488   4.198   7.038 -2.3141 -0.9391 -1.6240
 3790SOL     OW22831   1.968   0.055   7.319 -0.6234  0.0626  0.4199
 3790SOL    HW122832   1.978   0.139   7.273  2.7363  0.6266  2.1823
 3790SOL    HW222833   2.011   0.001   7.253 -0.7056  0.8166 -0.2559
 3791SOL     OW22834   1.755   4.654   5.414 -0.1819 -0.3115  0.2188
 3791SOL    HW122835   1.677   4.602   5.395 -1.2131  1.5353 -0.5667
 3791SOL    HW222836   1.776   4.705   5.336 -1.0691 -1.2576 -0.6304
 3792SOL     OW22837   0.364   4.595   6.549  0.0510 -0.2658 -0.0960
 3792SOL    HW122838   0.388   4.675   6.501  1.8798 -0.5191  0.4241
 3792SOL    HW222839   0.299   4.556   6.490  0.9459  0.1568 -1.3593
 3793SOL     OW22840   2.058   0.841   2.694 -0.1785  0.1042 -0.3156
 3793SOL    HW122841   1.990   0.892   2.650  0.4665  1.7236  0.5614
 3793SOL    HW222842   2.135   0.870   2.646 -0.4467 -0.9495 -1.3787
 3794SOL     OW22843   4.336   3.750  15.439  0.4430 -0.3479  0.4828
 3794SOL    HW122844   4.298   3.666  15.415  4.5337 -1.1776 -3.0428
 3794SOL    HW222845   4.289   3.756  15.522  1.1213  2.1629  0.6876
 3795SOL     OW22846   2.256   1.450   7.510 -0.2184  0.0881 -0.4109
 3795SOL    HW122847   2.344   1.423   7.486  0.2600  1.1174  0.1794
 3795SOL    HW222848   2.221   1.365   7.539  0.2982  0.2681  0.7358
 3796SOL     OW22849   3.331   0.737   3.093  0.1985  0.2356 -0.1512
 3796SOL    HW122850   3.313   0.696   3.178  0.4769  1.1647  0.3568
 3796SOL    HW222851   3.243   0.747   3.056  0.4677  0.5100 -0.7145
 3797SOL     OW22852   1.164   4.470   7.308 -0.3369 -0.4897  0.4322
 3797SOL    HW122853   1.167   4.525   7.386  0.2273  0.1322 -0.0389
 3797SOL    HW222854   1.204   4.386   7.329 -1.1330 -1.2499 -1.0753
 3798SOL     OW22855   0.758   2.155   2.144 -0.2498  0.3942 -0.0620
 3798SOL    HW122856   0.844   2.113   2.141 -0.2932  0.2611  0.4411
 3798SOL    HW222857   0.706   2.079   2.120  1.6013 -1.2154  1.0541
 3799SOL     OW22858   4.306   3.345   8.084  0.6320  0.4210  0.6511
 3799SOL    HW122859   4.214   3.322   8.077  1.2302 -2.0857  1.0868
 3799SOL    HW222860   4.295   3.394   8.166 -0.6968 -0.3262  0.9045
 3800SOL     OW22861   1.822   0.266   7.587 -0.6074 -0.2513  0.2104
 3800SOL    HW122862   1.902   0.215   7.576 -0.1861  0.5254 -0.3040
 3800SOL    HW222863   1.805   0.307   7.502  0.6300 -2.2886 -1.0170
 3801SOL     OW22864   0.783   1.698   3.882  0.1007 -0.2774 -0.0708
 3801SOL    HW122865   0.697   1.723   3.915 -0.2585 -1.7539  0.1024
 3801SOL    HW222866   0.767   1.605   3.867 -0.8294 -0.0228 -0.6664
 3802SOL     OW22867   0.299   2.436   5.309 -0.3215 -0.0690  0.5748
 3802SOL    HW122868   0.277   2.406   5.220  0.9830 -0.0554  0.2435
 3802SOL    HW222869   0.272   2.361   5.362  2.5258  0.0900  2.2768
 3803SOL     OW22870   1.432   3.011   3.751 -0.1010  0.1682  0.0146
 3803SOL    HW122871   1.386   3.088   3.715 -0.2116  0.4787  0.8066
 3803SOL    HW222872   1.352   2.988   3.799  1.0108  0.3210  1.9301
 3804SOL     OW22873   3.932   2.093   8.891 -0.1951 -0.1481 -0.1822
 3804SOL    HW122874   3.971   2.062   8.810  1.2229 -0.9384  0.7982
 3804SOL    HW222875   3.979   2.043   8.958 -0.5614 -1.2302 -0.7308
 3805SOL     OW22876   1.553   4.226  11.207 -0.7621 -0.0808  0.4688
 3805SOL    HW122877   1.489   4.286  11.244 -1.3889  0.1766 -1.0280
 3805SOL    HW222878   1.600   4.288  11.151  2.7676 -1.1002  2.2889
 3806SOL     OW22879   2.407   2.519  13.751 -0.3327 -0.1490 -0.2551
 3806SOL    HW122880   2.427   2.559  13.667 -1.2302  1.3763  0.2589
 3806SOL    HW222881   2.397   2.427  13.727 -0.8508  0.0493 -0.7936
 3807SOL     OW22882   4.287   2.114  13.365 -0.1850 -0.1082  0.4249
 3807SOL    HW122883   4.312   2.181  13.428 -0.4731 -0.9620  1.4382
 3807SOL    HW222884   4.272   2.047  13.431  0.7961 -0.1071  0.6512
 3808SOL     OW22885   4.413   4.177   5.164 -0.1040  0.0223 -0.0764
 3808SOL    HW122886   4.488   4.227   5.195 -0.2352 -0.1768  0.5689
 3808SOL    HW222887   4.407   4.116   5.238  1.1386 -2.2339 -1.8708
 3809SOL     OW22888   1.962   2.519   6.189 -0.4867  0.6112 -0.1344
 3809SOL    HW122889   2.005   2.434   6.185 -2.7360 -0.5233 -0.2857
 3809SOL    HW222890   2.003   2.575   6.123  0.8050  1.7591  1.6441
 3810SOL     OW22891   4.407   1.554  14.547 -0.5654 -0.2113  0.0663
 3810SOL    HW122892   4.453   1.485  14.596  2.3804 -0.5464 -3.1467
 3810SOL    HW222893   4.482   1.597  14.506 -0.5982  0.6872  0.9371
 3811SOL     OW22894   1.028   3.690   6.954  0.1508 -0.1371  0.0393
 3811SOL    HW122895   1.041   3.784   6.965 -0.5999  0.0178 -0.3767
 3811SOL    HW222896   0.938   3.700   6.921  0.2314  0.9180  0.1556
 3812SOL     OW22897   3.024   1.835   8.719  0.1010 -0.0583 -0.4425
 3812SOL    HW122898   2.955   1.785   8.674 -0.6599 -1.2907  2.1041
 3812SOL    HW222899   3.085   1.868   8.653  0.4976  1.1630  0.5422
 3813SOL     OW22900   0.533   3.001   6.044  0.0647 -0.3166 -0.6494
 3813SOL    HW122901   0.572   2.993   5.957  1.8536  1.5023 -0.0314
 3813SOL    HW222902   0.549   2.913   6.078 -1.0782 -0.4227 -0.3997
 3814SOL     OW22903   1.773   0.464   8.391 -0.0542 -0.7082 -0.1327
 3814SOL    HW122904   1.771   0.369   8.386  0.9530 -0.6898 -0.8554
 3814SOL    HW222905   1.743   0.478   8.481 -0.5763 -2.8078  0.0107
 3815SOL     OW22906   0.743   4.211  16.064  0.7212  1.0327  0.1739
 3815SOL    HW122907   0.803   4.139  16.048  0.5719  1.0909 -0.6517
 3815SOL    HW222908   0.720   4.234  15.974 -0.0447 -1.6853 -0.3195
 3816SOL     OW22909   1.206   2.719   8.701 -0.4391  0.2601  0.4852
 3816SOL    HW122910   1.226   2.750   8.789  1.6357  1.0191 -0.2531
 3816SOL    HW222911   1.211   2.800   8.651 -1.9686  2.7760  4.4631
 3817SOL     OW22912   0.277   0.503   4.968 -0.5011 -0.2186  0.3067
 3817SOL    HW122913   0.334   0.578   4.953 -1.4422  0.2184 -1.0827
 3817SOL    HW222914   0.199   0.529   4.920 -0.3089  0.5589  0.4253
 3818SOL     OW22915   0.724   1.570  16.385  0.1657 -0.1346 -0.2017
 3818SOL    HW122916   0.695   1.648  16.338  0.8989 -0.1764 -0.7261
 3818SOL    HW222917   0.743   1.516  16.309 -1.0958 -0.4838 -0.2701
 3819SOL     OW22918   0.593   2.963   5.759 -0.2111  0.3678 -0.3381
 3819SOL    HW122919   0.528   3.033   5.754 -0.5131  0.2967  2.4276
 3819SOL    HW222920   0.540   2.886   5.739 -0.6558  0.2103  1.4268
 3820SOL     OW22921   0.704   2.569   2.208  0.2582 -0.3799  0.1016
 3820SOL    HW122922   0.623   2.590   2.254  0.0803  0.0395 -0.3968
 3820SOL    HW222923   0.728   2.652   2.167 -2.5271 -0.0454 -0.8190
 3821SOL     OW22924   4.525   1.036  12.930 -0.0089 -0.4222  0.6222
 3821SOL    HW122925   4.593   1.089  12.887 -2.2851 -0.1884 -2.7413
 3821SOL    HW222926   4.440   1.056  12.890 -0.2278  5.7379  4.1074
 3822SOL     OW22927   3.590   4.398   5.651  0.2072 -0.1637  0.3419
 3822SOL    HW122928   3.531   4.473   5.639  2.1768  1.2591 -0.4649
 3822SOL    HW222929   3.651   4.443   5.710  1.2651  1.4383 -1.9942
 3823SOL     OW22930   1.646   4.717   6.684 -0.4759 -0.0543  0.9298
 3823SOL    HW122931   1.583   0.067   6.670 -4.0455 -3.1553  1.1506
 3823SOL    HW222932   1.626   4.688   6.773  1.8862 -2.4884  0.6770
 3824SOL     OW22933   4.401   3.596  11.138 -0.1100 -0.0078 -0.1057
 3824SOL    HW122934   4.492   3.578  11.117 -0.6270  0.5543 -2.8233
 3824SOL    HW222935   4.374   3.530  11.202  0.3410  0.4511  0.5488
 3825SOL     OW22936   2.254   2.315  12.623  0.3410  0.1599  0.3802
 3825SOL    HW122937   2.320   2.252  12.594 -0.9608 -2.0328  2.0625
 3825SOL    HW222938   2.220   2.270  12.701 -0.1753 -1.3366 -0.7137
 3826SOL     OW22939   4.077   3.384   5.670 -0.0248 -0.0581 -0.3130
 3826SOL    HW122940   4.064   3.458   5.611  0.2245  0.0275 -0.2587
 3826SOL    HW222941   4.048   3.422   5.753 -3.2244  1.3167 -2.0695
 3827SOL     OW22942   2.294   0.440  12.028 -0.1256 -0.0800 -0.4759
 3827SOL    HW122943   2.226   0.387  12.071  0.0526  1.2316  1.3959
 3827SOL    HW222944   2.270   0.415  11.939  0.1254  0.4870 -0.6966
 3828SOL     OW22945   4.100   2.433   6.102 -0.1084 -0.2815 -0.6017
 3828SOL    HW122946   4.153   2.500   6.059  0.7034 -0.5128  0.0157
 3828SOL    HW222947   4.171   2.378   6.137 -0.4263  0.6586  1.5201
 3829SOL     OW22948   2.025   1.346   4.625  0.4719 -0.2878 -0.0855
 3829SOL    HW122949   2.004   1.278   4.689 -2.7106 -0.7071 -1.5790
 3829SOL    HW222950   2.064   1.298   4.552  2.5390  3.1493 -1.2469
 3830SOL     OW22951   4.223   2.398   4.859  0.2415  0.5070  0.7592
 3830SOL    HW122952   4.234   2.408   4.765  1.5144  0.2742  0.8762
 3830SOL    HW222953   4.145   2.450   4.880  0.9713  1.8371  0.1916
 3831SOL     OW22954   2.103   1.878  12.678  0.0528 -0.1161 -0.2287
 3831SOL    HW122955   2.025   1.863  12.731 -0.8265 -0.0553 -1.5264
 3831SOL    HW222956   2.071   1.900  12.591 -2.1937 -0.9210  0.4012
 3832SOL     OW22957   0.509   0.502   2.741 -0.2354  0.1166 -0.0514
 3832SOL    HW122958   0.461   0.489   2.660 -1.3410  1.1474  0.4367
 3832SOL    HW222959   0.437   0.518   2.802 -0.7661 -1.4800 -0.2691
 3833SOL     OW22960   4.205   1.656   5.931  0.1670 -0.1190 -1.0990
 3833SOL    HW122961   4.252   1.666   5.848 -2.2622  1.4983 -2.2968
 3833SOL    HW222962   4.215   1.744   5.968 -0.8854 -0.1628 -0.7058
 3834SOL     OW22963   1.862   2.352   2.199 -0.1527 -0.6019 -0.3064
 3834SOL    HW122964   1.922   2.425   2.214 -1.4161  0.5000 -0.6450
 3834SOL    HW222965   1.920   2.279   2.220 -0.7207 -1.4183 -1.5837
 3835SOL     OW22966   1.764   0.296   9.179  0.2018 -0.1998  0.6867
 3835SOL    HW122967   1.817   0.284   9.259  0.0686  0.5243  0.8841
 3835SOL    HW222968   1.835   0.307   9.116  0.1655 -1.0604  0.4976
 3836SOL     OW22969   4.430   3.968   8.385  0.2064  0.1088  0.6662
 3836SOL    HW122970   4.338   3.991   8.385  0.0535 -0.5016  1.0716
 3836SOL    HW222971   4.457   3.972   8.477 -0.2514  0.0834  0.8010
 3837SOL     OW22972   4.273   4.284  13.753  0.5438  0.1253  0.4358
 3837SOL    HW122973   4.252   4.217  13.818  0.5361 -0.8749 -0.6014
 3837SOL    HW222974   4.205   4.349  13.774 -0.8884 -1.5546  1.0265
 3838SOL     OW22975   1.487   1.973   3.850  0.6870  0.1220  0.3339
 3838SOL    HW122976   1.446   2.043   3.799 -1.2478  0.1138  1.9029
 3838SOL    HW222977   1.402   1.932   3.866 -0.1031  2.0085  0.9913
 3839SOL     OW22978   1.926   3.971  12.013 -0.1120 -0.0173 -0.2354
 3839SOL    HW122979   1.882   3.896  11.975  0.2212  2.3958 -5.3016
 3839SOL    HW222980   1.894   4.056  11.982 -1.7986 -0.2748  0.7744
 3840SOL     OW22981   0.695   3.785   0.342 -0.0363  0.5494 -0.7328
 3840SOL    HW122982   0.665   3.822   0.259 -0.3263  2.6390  0.2946
 3840SOL    HW222983   0.784   3.821   0.349  0.5372 -0.8557 -0.8308
 3841SOL     OW22984   3.670   3.677   6.316  0.1890  0.1730 -0.2173
 3841SOL    HW122985   3.746   3.620   6.307  2.7243  3.6306 -0.8843
 3841SOL    HW222986   3.707   3.744   6.374  1.9267 -1.2589  0.3173
 3842SOL     OW22987   0.342   3.974  12.901  0.4961 -0.4299 -0.0801
 3842SOL    HW122988   0.250   3.994  12.885  0.7919  0.3803 -0.7528
 3842SOL    HW222989   0.375   3.996  12.814  1.1798 -0.0737  0.2720
 3843SOL     OW22990   3.045   3.924   4.091 -0.4440  0.6330 -0.4553
 3843SOL    HW122991   3.032   3.945   4.183  0.5663  0.6068 -0.3107
 3843SOL    HW222992   3.046   3.829   4.098 -0.1755  0.5834 -1.1044
 3844SOL     OW22993   0.805   1.937   4.950  0.4537  0.0527  1.5420
 3844SOL    HW122994   0.724   1.938   5.001 -0.2463  0.1837  0.4228
 3844SOL    HW222995   0.805   1.852   4.905  0.4811  1.0226 -0.2720
 3845SOL     OW22996   1.011   2.366   9.239  0.3304 -0.0074 -0.1633
 3845SOL    HW122997   1.014   2.272   9.252  1.8408 -0.1379 -1.4152
 3845SOL    HW222998   0.993   2.387   9.147 -1.6322 -1.3326 -0.0695
 3846SOL     OW22999   1.226   3.179   3.131 -0.1738 -0.0659  0.0560
 3846SOL    HW123000   1.220   3.090   3.095  2.7226 -0.0890 -0.3769
 3846SOL    HW223001   1.133   3.200   3.132 -0.5372 -1.5400 -1.1734
 3847SOL     OW23002   2.621   2.076   8.741  0.2243 -0.2064 -0.1218
 3847SOL    HW123003   2.559   2.145   8.766 -0.4026 -0.2453 -1.5734
 3847SOL    HW223004   2.705   2.121   8.745  1.4550 -2.5403 -0.1997
 3848SOL     OW23005   1.798   2.445  17.671  0.2365 -0.5342  0.0806
 3848SOL    HW123006   1.776   2.501  17.597 -0.9106 -0.8760  0.1657
 3848SOL    HW223007   1.843   2.375  17.624  2.6259  2.0725 -1.5023
 3849SOL     OW23008   3.389   2.238   2.292 -0.0361  0.2792 -0.4113
 3849SOL    HW123009   3.408   2.225   2.385 -3.1642 -2.6932 -0.1716
 3849SOL    HW223010   3.354   2.152   2.271  0.7600 -0.5067  1.5014
 3850SOL     OW23011   1.886   0.258   5.987  0.3789  0.4032  0.4158
 3850SOL    HW123012   1.863   0.301   5.904  1.1732  1.9752  0.9962
 3850SOL    HW223013   1.810   0.204   6.004 -0.9560  1.7866 -1.1032
 3851SOL     OW23014   2.278   2.040   6.008 -0.3391 -0.3190  0.5358
 3851SOL    HW123015   2.225   2.102   5.957 -2.6203 -2.5572  0.1863
 3851SOL    HW223016   2.371   2.055   5.990 -0.7189  0.3280 -0.9422
 3852SOL     OW23017   4.027   2.508   6.460  0.3085 -0.6452  0.1386
 3852SOL    HW123018   3.951   2.513   6.518  0.5083  2.0654  0.1872
 3852SOL    HW223019   3.990   2.543   6.379 -1.7188  1.5167  2.0227
 3853SOL     OW23020   1.208   3.355  13.400 -0.1137  0.1996  0.0699
 3853SOL    HW123021   1.155   3.277  13.413  0.4773 -0.1918  0.1611
 3853SOL    HW223022   1.273   3.339  13.469 -0.9362  3.0814  1.5509
 3854SOL     OW23023   1.888   0.048   6.591 -0.2823  0.3670 -0.6217
 3854SOL    HW123024   1.807   0.054   6.641 -0.2154  2.4592 -0.7568
 3854SOL    HW223025   1.884   4.677   6.569  2.1714  0.8419 -3.0387
 3855SOL     OW23026   1.179   2.946   7.829  0.3302 -0.0439  0.2932
 3855SOL    HW123027   1.212   2.906   7.749 -0.8882  1.4076 -0.9439
 3855SOL    HW223028   1.242   3.019   7.835 -0.4320  0.6393 -0.0833
 3856SOL     OW23029   2.384   1.367   5.041 -0.0566  0.3998 -0.3322
 3856SOL    HW123030   2.405   1.274   5.028  2.8510  0.4654  3.9537
 3856SOL    HW223031   2.289   1.365   5.025 -0.1277 -1.4736  0.2766
 3857SOL     OW23032   0.214   0.062   1.985 -0.2164  0.0281  0.4331
 3857SOL    HW123033   0.182   0.053   1.895  0.7076  0.8754  0.0234
 3857SOL    HW223034   0.291   0.005   1.978 -1.5118 -1.6245 -0.3491
 3858SOL     OW23035   1.733   2.673   1.223  0.0078 -0.3919  0.5124
 3858SOL    HW123036   1.638   2.674   1.220  0.0038 -0.2405  0.6903
 3858SOL    HW223037   1.763   2.691   1.312  1.8237  1.4978 -0.4500
 3859SOL     OW23038   4.097   3.889   8.123 -0.1524  0.3048  0.6750
 3859SOL    HW123039   4.137   3.921   8.204  1.7176 -0.0043 -0.1489
 3859SOL    HW223040   4.100   3.960   8.060 -1.0701  1.5715  2.0398
 3860SOL     OW23041   4.449   1.759  12.693 -0.2787  0.7328 -0.4674
 3860SOL    HW123042   4.368   1.752  12.744  0.2611  1.8259  0.5513
 3860SOL    HW223043   4.513   1.752  12.764 -0.1738  1.0755 -0.5278
 3861SOL     OW23044   3.527   1.891   7.728  0.4225 -0.0304 -0.1900
 3861SOL    HW123045   3.433   1.907   7.720 -0.1139 -3.4028 -0.4229
 3861SOL    HW223046   3.532   1.799   7.702 -3.4038  0.0137 -1.0708
 3862SOL     OW23047   1.651   1.895   2.926  0.1195  0.2546 -0.4477
 3862SOL    HW123048   1.669   1.830   2.994 -0.0652 -0.2077 -0.8481
 3862SOL    HW223049   1.703   1.967   2.963 -0.4100  1.4577 -2.0661
 3863SOL     OW23050   3.445   3.579   6.169 -0.0455  0.0323  0.5426
 3863SOL    HW123051   3.495   3.499   6.181 -0.8913 -0.7643 -1.2461
 3863SOL    HW223052   3.501   3.640   6.216  1.3054 -1.6496  1.1261
 3864SOL     OW23053   4.474   4.594   5.225 -0.1886  0.1785  0.2304
 3864SOL    HW123054   4.506   4.522   5.170 -1.1131  1.8019 -2.4599
 3864SOL    HW223055   4.548   4.654   5.218  0.2769 -0.6242 -1.8461
 3865SOL     OW23056   0.724   1.655   7.128 -0.5244 -0.1962  0.3159
 3865SOL    HW123057   0.779   1.658   7.207  0.2012  1.0391 -0.2372
 3865SOL    HW223058   0.637   1.668   7.165 -0.4716 -0.3044  0.4789
 3866SOL     OW23059   2.213   0.313  14.114 -0.1960 -0.0812 -0.0474
 3866SOL    HW123060   2.246   0.397  14.080 -0.8932  0.8305  1.5516
 3866SOL    HW223061   2.294   0.263  14.126 -0.7548 -1.0623 -0.4023
 3867SOL     OW23062   2.254   4.273   5.361  0.3285  0.2481  0.0125
 3867SOL    HW123063   2.277   4.361   5.331 -0.3977  0.8466  1.2582
 3867SOL    HW223064   2.245   4.290   5.454 -3.8885  3.9788 -1.0805
 3868SOL     OW23065   3.939   1.946   2.340 -0.2478 -0.4068 -0.5783
 3868SOL    HW123066   3.860   1.977   2.383 -1.8676 -0.9527 -3.1640
 3868SOL    HW223067   3.918   1.950   2.247 -0.4469  2.6693 -0.3925
 3869SOL     OW23068   1.519   4.627   6.926 -0.2740 -0.0173 -0.0036
 3869SOL    HW123069   1.527   4.571   7.003 -1.0565  1.2816  1.0374
 3869SOL    HW223070   1.528   4.712   6.970 -2.1162 -0.3486  1.0201
 3870SOL     OW23071   2.327   3.835   6.412 -0.5440 -0.3102 -0.6145
 3870SOL    HW123072   2.402   3.776   6.419 -0.6339 -0.4182 -0.5412
 3870SOL    HW223073   2.336   3.890   6.489  1.5642  0.2314 -1.2458
 3871SOL     OW23074   1.270   2.316   4.098  0.0453  0.5303 -0.6484
 3871SOL    HW123075   1.293   2.234   4.142 -0.2830  1.0124  0.4405
 3871SOL    HW223076   1.198   2.291   4.040  1.7858 -2.2255 -1.6324
 3872SOL     OW23077   3.231   4.432   7.397 -0.4767 -0.1493 -0.1480
 3872SOL    HW123078   3.240   4.515   7.443  0.5998 -2.0408  3.0800
 3872SOL    HW223079   3.186   4.461   7.318 -0.8835  0.6298  0.3682
 3873SOL     OW23080   1.538   2.675  16.957 -0.1628  0.1575 -0.2419
 3873SOL    HW123081   1.467   2.724  17.000  0.8754  0.0845  1.5570
 3873SOL    HW223082   1.507   2.585  16.950 -1.0062  0.4336 -0.0711
 3874SOL     OW23083   2.377   4.671   8.023  0.1236  0.0628 -0.2160
 3874SOL    HW123084   2.373   4.576   8.029 -1.0246  0.2686  2.6273
 3874SOL    HW223085   2.460   4.686   8.067 -0.4218 -0.5079  1.0269
 3875SOL     OW23086   1.964   2.681   5.460  0.1045  0.1769  0.0400
 3875SOL    HW123087   1.893   2.622   5.437  2.4738 -2.2893 -0.9216
 3875SOL    HW223088   1.952   2.752   5.396 -1.5825  0.3625  0.5677
 3876SOL     OW23089   2.457   2.327   3.119 -0.6342 -0.2222  0.2807
 3876SOL    HW123090   2.417   2.367   3.042  1.0490  0.3463 -0.3004
 3876SOL    HW223091   2.453   2.401   3.180 -1.6561 -0.1275  0.0924
 3877SOL     OW23092   2.202   3.579   5.842 -0.4378  0.0689  0.6008
 3877SOL    HW123093   2.143   3.526   5.895  0.3655 -0.7344  0.7006
 3877SOL    HW223094   2.164   3.666   5.852 -1.1758 -0.3763  1.6241
 3878SOL     OW23095   2.729   1.974  11.663  0.7332 -0.0875  0.5032
 3878SOL    HW123096   2.748   2.053  11.714 -0.5117  1.2555 -1.1214
 3878SOL    HW223097   2.637   1.983  11.640  1.1541 -0.0099 -1.1718
 3879SOL     OW23098   2.374   3.891   8.930 -0.9388  0.0350  0.7776
 3879SOL    HW123099   2.461   3.886   8.891 -1.6686  0.3254 -0.8657
 3879SOL    HW223100   2.383   3.836   9.008  0.7393 -1.0745 -0.2056
 3880SOL     OW23101   3.483   2.266  10.946  0.0090  0.3800 -0.3233
 3880SOL    HW123102   3.506   2.258  11.039  0.6809  1.7782 -0.3742
 3880SOL    HW223103   3.430   2.188  10.931  0.8526 -0.5456  1.4770
 3881SOL     OW23104   4.098   1.416  13.925  0.0323 -0.1087 -0.1809
 3881SOL    HW123105   4.073   1.409  13.833  0.6411  2.9397 -0.5808
 3881SOL    HW223106   4.111   1.510  13.933  2.4464 -0.5371  0.8639
 3882SOL     OW23107   4.095   3.852  16.820  0.3530  0.2476  0.7299
 3882SOL    HW123108   4.002   3.874  16.809  0.7721  2.1493  0.9961
 3882SOL    HW223109   4.123   3.883  16.734 -0.7150  0.4966  0.4681
 3883SOL     OW23110   0.995   2.293  12.283 -0.0245  0.0311 -0.1712
 3883SOL    HW123111   0.943   2.213  12.288  0.1473 -0.1280 -0.9532
 3883SOL    HW223112   0.946   2.351  12.342 -0.4257  0.8493 -1.3047
 3884SOL     OW23113   0.305   1.879   1.640 -0.0450  0.3883 -0.3428
 3884SOL    HW123114   0.248   1.903   1.714 -0.3454  0.7411 -0.6889
 3884SOL    HW223115   0.248   1.893   1.565  0.5969 -1.3469 -1.1548
 3885SOL     OW23116   2.933   0.203   7.877 -0.2753 -0.0655 -0.2033
 3885SOL    HW123117   2.871   0.222   7.947 -0.5096 -0.3198 -0.3416
 3885SOL    HW223118   3.005   0.175   7.933 -1.1119  1.0331  1.4190
 3886SOL     OW23119   3.717   3.010   6.876 -0.3989 -0.0393 -0.0142
 3886SOL    HW123120   3.723   3.104   6.891 -1.4010 -0.1732  1.1763
 3886SOL    HW223121   3.649   3.015   6.809  1.1521  0.6471 -1.5424
 3887SOL     OW23122   2.557   3.009   8.561  0.8554  0.4577  0.0792
 3887SOL    HW123123   2.594   3.051   8.484 -1.1948  0.5777 -0.8464
 3887SOL    HW223124   2.554   2.915   8.542  1.5751 -0.2343  3.3204
 3888SOL     OW23125   4.572   1.109   8.056  0.5333 -0.0711 -0.3590
 3888SOL    HW123126   4.601   1.175   8.119 -2.5950  0.5941  0.3395
 3888SOL    HW223127   4.489   1.084   8.096 -0.8155  2.4576 -1.6087
 3889SOL     OW23128   2.044   0.319   6.205  0.2591  0.2646 -0.1429
 3889SOL    HW123129   2.055   0.249   6.269 -1.1055  0.8018  0.6880
 3889SOL    HW223130   1.971   0.284   6.153 -1.0469  2.1392  0.4090
 3890SOL     OW23131   0.856   3.115   9.397 -0.1236  0.1258 -0.1399
 3890SOL    HW123132   0.928   3.064   9.434  0.0627  0.7554  0.3512
 3890SOL    HW223133   0.903   3.192   9.365 -0.4231 -0.2747 -1.5837
 3891SOL     OW23134   0.734   1.541   2.547  0.6223 -0.9062  0.0517
 3891SOL    HW123135   0.674   1.552   2.621  2.5552 -0.7330  1.5864
 3891SOL    HW223136   0.820   1.551   2.587  0.4704  0.5642  0.0118
 3892SOL     OW23137   3.723   1.357   0.843  0.0851  0.0573 -0.5565
 3892SOL    HW123138   3.802   1.375   0.894 -0.4420 -1.0658  0.6413
 3892SOL    HW223139   3.658   1.415   0.884  2.2992  2.8178 -0.9367
 3893SOL     OW23140   1.995   0.591   2.395 -0.4650 -0.2200 -0.3202
 3893SOL    HW123141   1.960   0.547   2.472 -0.3980  1.5801  0.7338
 3893SOL    HW223142   1.945   0.672   2.394  1.6876  1.1630  1.7051
 3894SOL     OW23143   4.373   4.362  10.197  0.3178  0.4519  0.0214
 3894SOL    HW123144   4.448   4.307  10.218 -1.6626 -2.7621 -1.2642
 3894SOL    HW223145   4.414   4.443  10.169  3.5034 -1.2329 -0.2079
 3895SOL     OW23146   3.365   0.167   5.590 -0.0507  0.5628 -0.5080
 3895SOL    HW123147   3.440   0.215   5.626  0.4831 -0.2601 -0.5191
 3895SOL    HW223148   3.326   0.242   5.546  1.9887  0.6480 -2.2033
 3896SOL     OW23149   0.469   1.796  16.836  0.3955  0.1736 -0.2181
 3896SOL    HW123150   0.514   1.718  16.870 -0.3125  0.0766  0.5083
 3896SOL    HW223151   0.489   1.785  16.743  1.9212 -0.8040  0.2107
 3897SOL     OW23152   1.456   4.572  12.711 -0.4332 -0.2864  0.1464
 3897SOL    HW123153   1.527   4.604  12.656  1.1532 -2.2839  1.0334
 3897SOL    HW223154   1.502   4.560  12.794 -2.4897 -0.9732  1.1886
 3898SOL     OW23155   1.728   0.216   8.219  0.5302  0.5966  0.5455
 3898SOL    HW123156   1.656   0.244   8.162  2.0022  0.3749 -1.4092
 3898SOL    HW223157   1.781   0.166   8.157  1.1941  0.6498  1.0774
 3899SOL     OW23158   2.850   2.267   7.786 -0.0302  0.5288 -0.1995
 3899SOL    HW123159   2.870   2.179   7.752 -3.6171  0.1114 -1.2352
 3899SOL    HW223160   2.916   2.266   7.855  1.1890  1.4450 -1.3559
 3900SOL     OW23161   2.289   2.428   5.283  0.8125  0.5121 -0.5608
 3900SOL    HW123162   2.372   2.458   5.320 -0.2562  0.5839  1.7731
 3900SOL    HW223163   2.300   2.333   5.282 -0.3264  0.4101 -2.3220
 3901SOL     OW23164   2.815   1.480   4.753 -0.2229  0.0847 -0.4825
 3901SOL    HW123165   2.834   1.564   4.712  0.5279  0.1235 -0.0408
 3901SOL    HW223166   2.891   1.430   4.724  0.3467  1.3575 -1.1801
 3902SOL     OW23167   2.114   1.668   7.525  0.1350  0.2786  0.0688
 3902SOL    HW123168   2.167   1.593   7.551 -1.6668 -0.4669  1.5544
 3902SOL    HW223169   2.029   1.629   7.506  0.7483  0.1429 -2.4605
 3903SOL     OW23170   0.512   3.334   7.529 -0.2447 -0.4364  0.8868
 3903SOL    HW123171   0.580   3.303   7.588  0.3149 -1.5945 -0.3787
 3903SOL    HW223172   0.560   3.339   7.446 -1.5462  2.1019  0.2812
 3904SOL     OW23173   0.854   4.014  15.328  0.3277 -0.5159  0.7439
 3904SOL    HW123174   0.815   4.036  15.244  1.4341 -0.0217  0.3593
 3904SOL    HW223175   0.875   3.923  15.310  0.7662  0.0560 -1.5960
 3905SOL     OW23176   2.753   0.676   4.935 -0.2639  0.0973  0.1220
 3905SOL    HW123177   2.754   0.769   4.915  2.2230  0.3137  1.2185
 3905SOL    HW223178   2.846   0.653   4.939 -0.6093 -1.6172 -1.9998
 3906SOL     OW23179   2.661   2.173   9.339 -0.0286  0.7274 -0.0609
 3906SOL    HW123180   2.712   2.161   9.260 -0.2595  0.5249 -0.1789
 3906SOL    HW223181   2.608   2.094   9.351 -0.1030  0.9317  1.0218
 3907SOL     OW23182   1.569   4.160   7.319  0.0979  0.0572  0.3580
 3907SOL    HW123183   1.631   4.196   7.255  0.0753 -2.0307 -0.8697
 3907SOL    HW223184   1.586   4.066   7.306 -1.0979  0.0290 -1.1115
 3908SOL     OW23185   1.260   1.074  16.986 -0.7251  0.1903  0.0809
 3908SOL    HW123186   1.287   1.017  17.057 -1.2195 -0.9874 -0.6756
 3908SOL    HW223187   1.297   1.159  17.010 -0.6837 -0.0611  0.9082
 3909SOL     OW23188   1.445   4.685   3.865  0.4988 -0.0886 -0.1133
 3909SOL    HW123189   1.394   4.636   3.930  0.6091  0.7959  0.6467
 3909SOL    HW223190   1.463   4.618   3.800 -1.4657 -1.0616  0.3432
 3910SOL     OW23191   3.420   2.218  14.092  0.2714  0.3227 -0.3076
 3910SOL    HW123192   3.482   2.250  14.027 -0.4935 -0.6818 -1.5464
 3910SOL    HW223193   3.440   2.124  14.096 -2.4076 -0.1265  3.1359
 3911SOL     OW23194   2.060   2.950  13.942  0.1178 -0.5375  0.7224
 3911SOL    HW123195   2.085   2.914  14.027 -0.9185  0.9761  1.6818
 3911SOL    HW223196   1.972   2.983  13.963  0.0118 -1.4281  1.6769
 3912SOL     OW23197   3.944   2.397  13.842 -0.3098 -0.1877  0.0890
 3912SOL    HW123198   3.902   2.438  13.767 -2.2674 -2.7977 -0.2473
 3912SOL    HW223199   3.911   2.450  13.915 -0.9559  0.7949 -0.9161
 3913SOL     OW23200   0.546   2.598   7.447  0.0698 -0.4588  0.4412
 3913SOL    HW123201   0.540   2.659   7.521 -0.0324  0.6777 -0.5208
 3913SOL    HW223202   0.481   2.630   7.385  1.3871  2.8680  0.7733
 3914SOL     OW23203   2.327   2.730  12.804  0.5259  0.2191 -0.0298
 3914SOL    HW123204   2.285   2.763  12.725 -1.5946  0.1493  1.0870
 3914SOL    HW223205   2.296   2.781  12.880  1.7078 -0.7593  1.1172
 3915SOL     OW23206   3.883   4.679   8.802  0.1035 -0.4208 -0.3232
 3915SOL    HW123207   3.925   0.041   8.823  0.4291 -0.2999 -1.4459
 3915SOL    HW223208   3.920   4.633   8.877  1.8290  0.5251 -0.6112
 3916SOL     OW23209   1.662   1.434   8.440  0.3544 -0.1584  0.2855
 3916SOL    HW123210   1.737   1.490   8.420 -0.9876  1.1335 -1.2063
 3916SOL    HW223211   1.595   1.476   8.386  0.8489 -1.7370 -1.5893
 3917SOL     OW23212   4.611   3.001   6.416  0.9251  0.2732 -0.0304
 3917SOL    HW123213   4.584   2.996   6.508 -0.8514  0.2309 -0.5452
 3917SOL    HW223214   4.625   3.095   6.407 -3.5369  0.8271 -1.4217
 3918SOL     OW23215   3.497   2.644  16.892 -0.0259 -0.3208 -0.3514
 3918SOL    HW123216   3.588   2.677  16.888  0.0192 -0.0568  2.3802
 3918SOL    HW223217   3.503   2.579  16.962  0.8334  0.9017  0.7220
 3919SOL     OW23218   4.650   0.333  11.348 -0.0307  0.1613 -0.0724
 3919SOL    HW123219   4.680   0.381  11.271  0.6622 -0.0393  0.0667
 3919SOL    HW223220   4.640   0.245  11.311  0.8521 -0.1820  0.5120
 3920SOL     OW23221   4.615   3.710   7.948 -0.1647 -0.6037  0.1570
 3920SOL    HW123222   4.572   3.758   8.018  0.5000 -1.3061  1.0443
 3920SOL    HW223223   4.701   3.753   7.942 -1.2510  1.3652 -1.4141
 3921SOL     OW23224   1.857   0.560   5.062  0.5422 -0.6539 -0.1637
 3921SOL    HW123225   1.947   0.558   5.028  0.9382  1.2278  0.8085
 3921SOL    HW223226   1.866   0.492   5.129 -0.3067 -0.1683  0.4421
 3922SOL     OW23227   3.343   3.824   3.094 -0.5713  0.1534 -0.3443
 3922SOL    HW123228   3.415   3.813   3.157 -1.9122  1.6703  1.4458
 3922SOL    HW223229   3.380   3.870   3.019  0.4127 -0.4187 -0.2072
 3923SOL     OW23230   0.716   0.211  11.822 -0.3052 -0.3555  0.1382
 3923SOL    HW123231   0.644   0.261  11.861  0.6899  1.5901 -0.5058
 3923SOL    HW223232   0.788   0.273  11.834 -0.4730 -0.4162  1.4335
 3924SOL     OW23233   2.134   2.160   8.293 -0.2365  0.4366  0.1708
 3924SOL    HW123234   2.191   2.237   8.285  0.2016 -0.1675 -2.4562
 3924SOL    HW223235   2.200   2.095   8.316 -0.1580  0.1920 -0.7450
 3925SOL     OW23236   4.258   2.003   7.435 -0.4029  0.1287 -0.3551
 3925SOL    HW123237   4.318   2.040   7.500  1.5945 -0.4010 -1.9019
 3925SOL    HW223238   4.197   2.073   7.409  0.1168  1.1856  1.2453
 3926SOL     OW23239   1.821   1.209   7.505 -0.8639  0.1346  0.0404
 3926SOL    HW123240   1.863   1.223   7.420  0.4497 -0.7792  0.5371
 3926SOL    HW223241   1.881   1.161   7.562  2.8729  0.2399 -3.8128
 3927SOL     OW23242   3.061   1.847  13.936  0.5696 -0.4514 -0.8541
 3927SOL    HW123243   3.131   1.912  13.929  0.4124 -0.2246 -0.2717
 3927SOL    HW223244   3.110   1.766  13.920 -0.0688 -1.0260  0.0893
 3928SOL     OW23245   4.379   1.401   2.915  0.4480  0.2039 -0.5155
 3928SOL    HW123246   4.337   1.415   2.830 -0.6019 -3.2364 -0.5572
 3928SOL    HW223247   4.407   1.310   2.910 -1.6777 -0.3262 -2.9339
 3929SOL     OW23248   2.137   3.009  11.969  0.3761  0.1404  0.7674
 3929SOL    HW123249   2.068   2.955  11.933  0.7966 -1.6853  2.6608
 3929SOL    HW223250   2.206   3.021  11.903 -0.0070  0.3640  0.4124
 3930SOL     OW23251   2.639   0.212  14.362  0.3866  0.0686 -0.1519
 3930SOL    HW123252   2.635   0.243  14.272 -0.8154 -0.3385 -0.2399
 3930SOL    HW223253   2.726   0.242  14.389  1.6972 -1.8559 -2.2907
 3931SOL     OW23254   3.878   1.578   7.349  0.1329  0.2992 -0.2721
 3931SOL    HW123255   3.838   1.502   7.307  2.1674 -1.8248  1.6248
 3931SOL    HW223256   3.968   1.546   7.358 -0.1793 -1.0269 -2.0073
 3932SOL     OW23257   0.347   2.214   7.975  0.2146  0.1588  0.5640
 3932SOL    HW123258   0.439   2.200   8.000 -0.0026 -1.4746  0.4710
 3932SOL    HW223259   0.351   2.223   7.880 -0.2213 -0.4322  0.4867
 3933SOL     OW23260   3.750   3.482   6.727  0.3389  0.7112  0.0858
 3933SOL    HW123261   3.782   3.570   6.705  0.0443  0.8081  0.0507
 3933SOL    HW223262   3.755   3.429   6.648  1.1461  1.3432 -0.2870
 3934SOL     OW23263   3.022   2.257  14.715  0.3654  0.3724  0.5443
 3934SOL    HW123264   3.088   2.200  14.675 -0.5883 -0.7994  0.6370
 3934SOL    HW223265   3.031   2.229  14.806  2.0139  0.9437  0.5658
 3935SOL     OW23266   0.102   4.524   7.362 -0.1384  0.0073 -0.1343
 3935SOL    HW123267   0.077   4.540   7.453 -3.2856 -2.1189 -0.6155
 3935SOL    HW223268   0.160   4.448   7.362 -0.4102 -0.2055  1.6359
 3936SOL     OW23269   3.259   3.574  12.590  0.8324 -0.4357  0.7548
 3936SOL    HW123270   3.189   3.600  12.530  0.3569  1.0752  1.9570
 3936SOL    HW223271   3.239   3.484  12.615  0.8235 -0.7319 -0.3278
 3937SOL     OW23272   3.716   0.786   7.657  0.2609 -0.1370 -0.3148
 3937SOL    HW123273   3.764   0.776   7.575 -0.3832  0.3780 -0.7560
 3937SOL    HW223274   3.787   0.759   7.715  0.4465 -1.6190 -1.2562
 3938SOL     OW23275   4.520   1.388  12.716  0.2198 -0.7618 -0.4964
 3938SOL    HW123276   4.613   1.374  12.698  0.8182  1.9891  0.4771
 3938SOL    HW223277   4.520   1.459  12.781  1.8818  0.7137 -2.1048
 3939SOL     OW23278   3.431   4.178  15.173 -0.7014  0.0263  0.3326
 3939SOL    HW123279   3.395   4.244  15.233 -1.5490 -0.3460  0.2421
 3939SOL    HW223280   3.430   4.210  15.083  1.5204  2.0570  1.0415
 3940SOL     OW23281   2.357   0.842  10.472 -0.2723 -0.2060 -0.1583
 3940SOL    HW123282   2.361   0.765  10.416 -1.8079  0.7669 -1.6365
 3940SOL    HW223283   2.448   0.868  10.483  0.1331 -1.4444 -0.5882
 3941SOL     OW23284   0.764   0.284   5.792  0.0783  0.0516  0.1328
 3941SOL    HW123285   0.851   0.252   5.816 -0.3730  0.8909  2.9059
 3941SOL    HW223286   0.744   0.220   5.724 -1.7488  0.6209  0.1419
 3942SOL     OW23287   3.960   4.222   6.227  0.2983 -0.0564  0.4430
 3942SOL    HW123288   4.034   4.204   6.285  1.1987  0.6250 -0.4903
 3942SOL    HW223289   3.978   4.191   6.138  0.3493  0.6987  0.1862
 3943SOL     OW23290   0.466   4.145  17.001 -0.1026 -0.3372 -0.3901
 3943SOL    HW123291   0.530   4.140  16.929 -3.3524 -1.0758 -3.2295
 3943SOL    HW223292   0.381   4.115  16.968  0.2349 -0.6881 -0.9439
 3944SOL     OW23293   2.361   0.405   8.147 -0.1691  0.0427  0.1505
 3944SOL    HW123294   2.364   0.363   8.233  1.6575  1.1657  0.6332
 3944SOL    HW223295   2.367   0.332   8.085 -1.7457  0.8681 -0.9689
 3945SOL     OW23296   2.910   1.249  15.881 -0.2679  0.3966 -0.1518
 3945SOL    HW123297   2.823   1.229  15.845 -0.5292  1.2605  0.0007
 3945SOL    HW223298   2.935   1.326  15.830 -2.6577  0.6631 -0.9146
 3946SOL     OW23299   2.799   3.735   5.434  0.5509 -0.5513  0.5695
 3946SOL    HW123300   2.844   3.756   5.516  1.7010 -0.5416 -0.0627
 3946SOL    HW223301   2.806   3.820   5.391  1.4063 -0.9451 -0.0776
 3947SOL     OW23302   2.123   3.948   9.418  0.1197 -0.1290 -0.7133
 3947SOL    HW123303   2.030   3.955   9.394  0.6819 -2.4026 -3.5901
 3947SOL    HW223304   2.155   3.981   9.334  1.2185 -0.9135 -0.6042
 3948SOL     OW23305   1.531   1.283  17.359  0.2667 -0.5759  0.6946
 3948SOL    HW123306   1.593   1.353  17.379  1.4348 -1.0388 -1.2650
 3948SOL    HW223307   1.575   1.211  17.406  0.7126 -0.0374  1.1059
 3949SOL     OW23308   1.074   0.657   9.412  0.3071 -0.1053  0.2480
 3949SOL    HW123309   0.981   0.637   9.419  0.0561 -0.3017 -3.3324
 3949SOL    HW223310   1.072   0.750   9.435 -1.8854 -0.4001  1.2429
 3950SOL     OW23311   4.049   2.846   2.422 -0.2921 -0.1098 -0.2201
 3950SOL    HW123312   4.030   2.755   2.445  0.5914 -0.0335  0.7675
 3950SOL    HW223313   3.961   2.883   2.411 -0.1141  0.4522  0.2400
 3951SOL     OW23314   2.445   3.908  13.742  0.1761  0.0837  0.3915
 3951SOL    HW123315   2.500   3.858  13.681  0.2290 -0.7759  1.1417
 3951SOL    HW223316   2.470   3.999  13.728 -1.8003  0.6905  0.8807
 3952SOL     OW23317   4.352   0.175  11.436 -0.1353 -0.7420 -0.0034
 3952SOL    HW123318   4.398   0.241  11.487 -0.8338  0.2304 -0.6295
 3952SOL    HW223319   4.281   0.223  11.393  0.7317  0.4393 -0.1062
 3953SOL     OW23320   4.394   2.157   8.777 -0.1903  0.4012 -0.1481
 3953SOL    HW123321   4.411   2.251   8.780  0.3184  0.3636 -1.8019
 3953SOL    HW223322   4.481   2.120   8.762  0.1403  1.3544 -0.5999
 3954SOL     OW23323   4.652   3.679   3.056 -0.1911 -0.6224 -0.0040
 3954SOL    HW123324   4.619   3.623   2.985 -0.2918 -1.0535  0.3874
 3954SOL    HW223325   0.025   3.664   3.058  0.1164  1.2592 -0.4830
 3955SOL     OW23326   3.498   1.686   1.893 -0.6330  0.5496  0.4016
 3955SOL    HW123327   3.494   1.639   1.809 -0.5440  1.7727 -0.2932
 3955SOL    HW223328   3.589   1.684   1.921 -1.1280 -0.1453  1.9538
 3956SOL     OW23329   2.327   2.606   8.128 -0.0254  0.2616  0.1293
 3956SOL    HW123330   2.344   2.538   8.062 -0.1992 -0.2082  0.5722
 3956SOL    HW223331   2.286   2.554   8.197  0.4053  0.3738  0.4726
 3957SOL     OW23332   4.249   2.687  11.023  0.4662 -0.0438 -0.4415
 3957SOL    HW123333   4.225   2.632  11.097 -1.8145 -1.3727 -2.1767
 3957SOL    HW223334   4.341   2.663  11.017  0.7537  0.8126  0.4905
 3958SOL     OW23335   2.201   4.069   2.523 -0.3527  0.0430  0.5151
 3958SOL    HW123336   2.296   4.067   2.511 -0.9261  1.0963 -3.9851
 3958SOL    HW223337   2.176   4.128   2.452  0.0172  0.5098  0.7737
 3959SOL     OW23338   1.299   0.441   6.368  1.0795 -0.9312 -0.1000
 3959SOL    HW123339   1.296   0.500   6.293 -1.7555 -0.6424  0.2443
 3959SOL    HW223340   1.244   0.486   6.433 -1.4706 -3.5621 -0.4090
 3960SOL     OW23341   1.178   2.421   3.155 -0.2414 -0.1097 -0.4381
 3960SOL    HW123342   1.186   2.387   3.066 -1.0972 -0.0851 -0.5278
 3960SOL    HW223343   1.256   2.381   3.193 -0.1585  0.5397  0.0688
 3961SOL     OW23344   0.750   0.231   0.043 -0.4173  0.2766 -0.0215
 3961SOL    HW123345   0.699   0.163  17.686  2.9057 -2.3657  0.1765
 3961SOL    HW223346   0.752   0.302  17.666 -0.4836 -0.0763 -0.4117
 3962SOL     OW23347   2.094   1.913   0.280 -0.7754 -0.4524 -0.0766
 3962SOL    HW123348   2.031   1.847   0.309 -0.2756 -0.5546  0.7539
 3962SOL    HW223349   2.153   1.928   0.353 -2.3096  1.9595  0.6644
 3963SOL     OW23350   2.711   1.891  15.732 -0.0479 -0.8667  0.3107
 3963SOL    HW123351   2.778   1.835  15.770  0.0401 -0.4937  0.7028
 3963SOL    HW223352   2.637   1.853  15.780 -0.5490 -2.0687 -1.4136
 3964SOL     OW23353   1.720   2.588  17.468  0.0180  0.2045 -0.2135
 3964SOL    HW123354   1.646   2.586  17.406 -0.9819 -0.9387  1.0205
 3964SOL    HW223355   1.758   2.670  17.437  1.1247 -0.6657 -1.1380
 3965SOL     OW23356   3.332   3.542  11.995  0.2594  0.0652 -0.2055
 3965SOL    HW123357   3.252   3.492  12.008  1.8511 -2.5816 -0.4707
 3965SOL    HW223358   3.311   3.613  12.055 -3.0291 -1.7036  0.7032
 3966SOL     OW23359   0.873   4.372   2.288  0.5005 -0.0488 -0.0481
 3966SOL    HW123360   0.813   4.418   2.347  1.3568 -1.1129  1.6501
 3966SOL    HW223361   0.947   4.432   2.281 -0.3005  0.6442 -2.6906
 3967SOL     OW23362   4.096   2.460   6.964 -0.3708  0.1679  0.0234
 3967SOL    HW123363   4.151   2.516   7.018 -0.1805  0.3387 -0.3481
 3967SOL    HW223364   4.015   2.509   6.980 -0.8195 -0.7831  0.6285
 3968SOL     OW23365   4.556   3.374  17.077 -0.1743 -0.2588 -0.4310
 3968SOL    HW123366   4.525   3.299  17.128 -0.4237 -0.6599 -1.1745
 3968SOL    HW223367   4.545   3.440  17.145  2.3426 -0.5621  0.2533
 3969SOL     OW23368   0.367   0.741   4.855 -0.3778  0.5183  0.6071
 3969SOL    HW123369   0.315   0.821   4.857  0.8356  1.2986  0.5536
 3969SOL    HW223370   0.382   0.730   4.761 -0.0119 -0.5227  0.7792
 3970SOL     OW23371   1.393   1.514   8.605 -0.3621 -0.4492  0.2112
 3970SOL    HW123372   1.417   1.466   8.527 -2.6616 -0.8815 -0.2402
 3970SOL    HW223373   1.300   1.493   8.616 -0.7918  1.6208  0.5115
 3971SOL     OW23374   0.169   3.245   9.116 -0.1655  0.1087 -0.3742
 3971SOL    HW123375   0.256   3.218   9.086 -0.3491  0.1660 -0.9434
 3971SOL    HW223376   0.186   3.269   9.207 -2.5844  3.5921 -0.8433
 3972SOL     OW23377   0.055   0.913  10.103  0.1696  0.1083 -0.5445
 3972SOL    HW123378   4.703   0.899  10.163  0.1538 -0.7761 -0.7702
 3972SOL    HW223379   0.067   0.828  10.063 -0.1929 -0.1832 -0.0449
 3973SOL     OW23380   0.268   2.212   7.683 -0.2579  0.0105  0.0371
 3973SOL    HW123381   0.200   2.158   7.723 -0.0804 -0.3084 -0.0892
 3973SOL    HW223382   0.309   2.143   7.630 -1.0107 -2.6163  2.8774
 3974SOL     OW23383   3.972   0.414   3.363 -0.3586  0.0492 -0.0387
 3974SOL    HW123384   3.929   0.334   3.394 -0.9089  0.0700 -0.7209
 3974SOL    HW223385   3.920   0.478   3.411 -0.0910  0.0643  0.2279
 3975SOL     OW23386   2.040   2.287   6.716  0.0572  0.1122 -0.4234
 3975SOL    HW123387   2.108   2.220   6.708 -0.9326 -1.0578  0.8369
 3975SOL    HW223388   2.063   2.317   6.804  1.5338 -0.3128 -0.6661
 3976SOL     OW23389   3.692   1.148   3.729 -0.0645 -0.1877 -0.7188
 3976SOL    HW123390   3.691   1.083   3.660  1.8251 -1.5882  0.5846
 3976SOL    HW223391   3.708   1.105   3.813  1.0089  2.0666  0.2467
 3977SOL     OW23392   2.193   1.175   1.276 -0.1747 -0.7764  0.0327
 3977SOL    HW123393   2.110   1.148   1.317 -0.8236  0.8821 -0.1987
 3977SOL    HW223394   2.173   1.267   1.265 -0.2320 -0.6440  1.1559
 3978SOL     OW23395   3.901   1.638  17.517 -0.4564 -0.2901 -0.0593
 3978SOL    HW123396   3.981   1.678  17.551 -1.5203  0.3960  1.5967
 3978SOL    HW223397   3.837   1.693  17.561 -0.2052 -0.5945  0.6890
 3979SOL     OW23398   1.064   2.542   1.141 -0.2524 -0.3425  0.0142
 3979SOL    HW123399   1.140   2.588   1.106 -0.0805 -1.2166 -0.7596
 3979SOL    HW223400   1.025   2.523   1.056 -0.9868 -0.4790  0.3848
 3980SOL     OW23401   0.262   3.015   5.978  0.6825 -0.2426 -0.5729
 3980SOL    HW123402   0.268   3.057   5.893 -0.6645 -1.1180 -1.1089
 3980SOL    HW223403   0.353   3.021   6.006  0.1307  0.1582  1.1996
 3981SOL     OW23404   0.302   2.149  10.622  0.1884 -0.2976  0.3260
 3981SOL    HW123405   0.309   2.202  10.701  1.4451 -0.2738  0.1870
 3981SOL    HW223406   0.298   2.065  10.667  1.1084  0.2439  1.4325
 3982SOL     OW23407   1.554   2.814   0.754 -0.4333  0.1138 -0.3167
 3982SOL    HW123408   1.477   2.865   0.778  0.4933  1.1944  0.3669
 3982SOL    HW223409   1.612   2.839   0.826 -0.4717  0.3498 -0.3672
 3983SOL     OW23410   4.648   2.206   1.109  0.4074 -0.2093 -0.1118
 3983SOL    HW123411   4.688   2.251   1.034  0.9763 -1.2362 -0.4292
 3983SOL    HW223412   4.652   2.276   1.174 -0.1618  0.0756 -0.3926
 3984SOL     OW23413   0.966   1.121  11.811 -0.1488 -0.2221 -0.7790
 3984SOL    HW123414   0.912   1.195  11.840  0.1638 -0.5723  0.6906
 3984SOL    HW223415   0.963   1.068  11.890  0.2536 -0.3381 -0.8443
 3985SOL     OW23416   4.691   1.931   8.244  0.8573 -0.2562  0.0002
 3985SOL    HW123417   0.022   1.851   8.245 -0.2923 -1.0085 -2.9981
 3985SOL    HW223418   0.044   1.992   8.233  0.9591 -0.9153 -2.8058
 3986SOL     OW23419   2.468   4.649   8.962 -0.3549 -0.2408  0.0138
 3986SOL    HW123420   2.476   4.578   9.026  1.3916  0.7683  0.9017
 3986SOL    HW223421   2.555   4.655   8.923  0.1544  1.2412  1.3891
 3987SOL     OW23422   4.377   3.924   3.508  0.4717 -0.3447  0.1879
 3987SOL    HW123423   4.407   3.929   3.418  0.3663 -0.9584  0.1249
 3987SOL    HW223424   4.371   3.830   3.525  3.6084 -0.8619 -1.6033
 3988SOL     OW23425   3.539   2.054   4.565  0.2636 -0.1291 -0.0595
 3988SOL    HW123426   3.488   2.033   4.486 -3.0646  2.5046  1.4133
 3988SOL    HW223427   3.581   1.969   4.581 -0.9936 -1.0171 -1.4566
 3989SOL     OW23428   0.379   1.959   3.517  0.2589  0.1189  0.3969
 3989SOL    HW123429   0.360   1.885   3.575 -0.1894  0.0491  0.1542
 3989SOL    HW223430   0.474   1.949   3.519  0.1656 -0.8075  0.0266
 3990SOL     OW23431   0.641   0.976  10.080 -0.1033  0.9621  0.0640
 3990SOL    HW123432   0.725   1.001  10.116 -0.2144 -1.0910  1.7697
 3990SOL    HW223433   0.637   1.017   9.994  2.2593  0.6360 -0.1877
 3991SOL     OW23434   3.396   1.827   0.742 -0.0195 -0.4519 -0.5893
 3991SOL    HW123435   3.319   1.827   0.685  0.3508  1.8764 -1.0833
 3991SOL    HW223436   3.445   1.757   0.698  0.7858  1.1289 -2.2059
 3992SOL     OW23437   4.526   1.089   7.663  0.1082  0.5059 -0.0496
 3992SOL    HW123438   4.484   1.028   7.724 -0.2298  1.8387  1.0486
 3992SOL    HW223439   4.463   1.160   7.650  0.1743  0.3359 -1.2784
 3993SOL     OW23440   1.493   0.965  10.246 -0.4567 -0.7651  0.2247
 3993SOL    HW123441   1.472   1.055  10.218 -1.2213 -0.9024  0.3680
 3993SOL    HW223442   1.578   0.939  10.210 -1.6534 -0.6818 -2.6664
 3994SOL     OW23443   1.228   3.592   6.186  0.2143 -0.6392 -0.1734
 3994SOL    HW123444   1.278   3.552   6.115  1.6252 -1.0749  1.0637
 3994SOL    HW223445   1.235   3.531   6.259  0.9623  0.1617  0.4311
 3995SOL     OW23446   4.388   3.589   7.758 -0.5616 -0.6025 -0.1509
 3995SOL    HW123447   4.321   3.562   7.820 -0.8245  1.7166  0.5726
 3995SOL    HW223448   4.386   3.685   7.762  2.7648 -0.4611 -1.1079
 3996SOL     OW23449   3.682   3.264   7.293 -0.3872 -0.1013  0.1112
 3996SOL    HW123450   3.627   3.294   7.365  0.8521  0.0707  0.9839
 3996SOL    HW223451   3.693   3.348   7.248  0.1392 -0.4627 -0.4464
 3997SOL     OW23452   3.115   0.534   3.516 -0.3677  0.2867  0.0277
 3997SOL    HW123453   3.031   0.557   3.476 -1.0527 -0.4236  1.0655
 3997SOL    HW223454   3.084   0.488   3.594  2.6253 -3.6748 -1.0815
 3998SOL     OW23455   1.598   1.984  15.448 -0.0261  0.4383  0.3092
 3998SOL    HW123456   1.676   1.940  15.480 -0.3405  2.0034  3.2411
 3998SOL    HW223457   1.630   2.036  15.374 -1.9313  0.7225 -0.3151
 3999SOL     OW23458   2.697   2.844  15.926  0.8580 -0.0929  0.7184
 3999SOL    HW123459   2.701   2.865  16.019  0.2780  0.6647  0.5744
 3999SOL    HW223460   2.720   2.929  15.888 -0.3251 -0.2724 -0.3976
 4000SOL     OW23461   0.287   2.129  11.220 -0.0831  0.5731 -0.6204
 4000SOL    HW123462   0.305   2.116  11.127  0.9853  2.9912 -0.7516
 4000SOL    HW223463   0.356   2.080  11.264 -1.1582  0.7875  1.3024
 4001SOL     OW23464   0.778   0.412   7.596 -0.2182 -0.1303 -0.4648
 4001SOL    HW123465   0.688   0.392   7.623 -0.0777  0.1825  0.2231
 4001SOL    HW223466   0.770   0.381   7.506 -0.7288  1.2520 -0.9064
 4002SOL     OW23467   3.795   0.878   5.054  0.2828  0.1695  0.0853
 4002SOL    HW123468   3.863   0.895   5.120  1.4461  1.4751 -1.4571
 4002SOL    HW223469   3.716   0.898   5.104  1.7294 -1.9902  3.2416
 4003SOL     OW23470   0.579   3.048   8.846  0.1939  0.1327  0.2620
 4003SOL    HW123471   0.672   3.064   8.861 -0.1994  0.2678  2.5012
 4003SOL    HW223472   0.574   3.052   8.750  1.2333 -0.5157  0.1867
 4004SOL     OW23473   3.307   2.748   0.137 -0.1593  0.6054  0.0782
 4004SOL    HW123474   3.319   2.838   0.167  0.7297  0.6370 -0.3728
 4004SOL    HW223475   3.217   2.730   0.164 -0.8054  0.3799 -2.2720
 4005SOL     OW23476   1.110   3.465  10.340  1.1660 -0.2269 -0.0445
 4005SOL    HW123477   1.196   3.469  10.383  1.5323 -0.3136 -0.7718
 4005SOL    HW223478   1.077   3.554  10.354  1.6420  0.0765 -0.8466
 4006SOL     OW23479   2.030   0.747   4.523 -0.5377 -0.6483 -0.2778
 4006SOL    HW123480   1.973   0.817   4.554 -1.3084 -1.5582  0.3309
 4006SOL    HW223481   2.108   0.791   4.487 -1.3632  0.1738 -1.0550
 4007SOL     OW23482   2.394   4.563   4.729  0.9669  0.1382 -0.4168
 4007SOL    HW123483   2.337   4.604   4.794  0.6648  0.4013 -0.8414
 4007SOL    HW223484   2.326   4.547   4.663 -1.1061 -0.6909  1.9297
 4008SOL     OW23485   2.597   0.877   2.835 -0.1162 -0.1315  0.0220
 4008SOL    HW123486   2.611   0.958   2.884  1.0982  0.9179 -2.0356
 4008SOL    HW223487   2.595   0.912   2.745 -2.1593  0.7194  0.3887
 4009SOL     OW23488   1.837   3.086   2.419  0.4164 -0.0222  0.2076
 4009SOL    HW123489   1.850   3.142   2.495  2.6906  0.4048 -0.4996
 4009SOL    HW223490   1.904   3.018   2.418  0.8848  0.4535 -0.7983
 4010SOL     OW23491   1.815   3.028   5.384  0.0136 -0.1321  0.3092
 4010SOL    HW123492   1.810   3.026   5.288 -1.2003  0.8570  0.3392
 4010SOL    HW223493   1.910   3.022   5.390  0.2033  1.0417 -1.6426
 4011SOL     OW23494   3.534   4.518   8.266 -0.1686  0.1714 -0.0122
 4011SOL    HW123495   3.504   4.609   8.259  1.2796  0.6488 -0.1365
 4011SOL    HW223496   3.540   4.485   8.176  1.1673  0.7507 -0.1492
 4012SOL     OW23497   3.577   4.260   4.471 -0.2478  0.5170  0.6916
 4012SOL    HW123498   3.557   4.171   4.441 -0.2043  0.4756  0.7837
 4012SOL    HW223499   3.507   4.285   4.531 -0.2090  1.7349  0.2340
 4013SOL     OW23500   3.625   0.933  10.996  0.7879  0.1631  0.2891
 4013SOL    HW123501   3.705   0.985  10.986  1.5226 -0.9377  0.4836
 4013SOL    HW223502   3.637   0.861  10.934  1.1464  0.3273  0.1723
 4014SOL     OW23503   1.471   3.217   0.898  0.2742  0.3684 -0.0354
 4014SOL    HW123504   1.433   3.293   0.944  1.7653  0.7518  0.5497
 4014SOL    HW223505   1.544   3.262   0.855 -1.0528  1.5351 -1.0877
 4015SOL     OW23506   4.230   1.077   1.435 -0.0405 -0.4139  0.5385
 4015SOL    HW123507   4.165   1.143   1.412  0.0317 -0.2426  0.8304
 4015SOL    HW223508   4.194   1.037   1.514 -0.6184  0.5092  0.7378
 4016SOL     OW23509   0.742   1.694  10.579 -0.2965 -0.1192 -0.4757
 4016SOL    HW123510   0.807   1.628  10.557  0.1548 -0.1900  1.0644
 4016SOL    HW223511   0.795   1.771  10.559  1.2063 -0.6097  1.6538
 4017SOL     OW23512   4.587   0.376   6.367 -0.3225  0.3168 -0.1876
 4017SOL    HW123513   4.568   0.289   6.333  0.6556  0.8550 -2.1245
 4017SOL    HW223514   4.502   0.418   6.357 -1.0345 -0.9541  0.5385
 4018SOL     OW23515   2.398   1.973   3.825  0.0412  0.2285  0.0043
 4018SOL    HW123516   2.444   2.002   3.904  0.3750  1.6782 -0.7263
 4018SOL    HW223517   2.355   1.899   3.867  1.2052 -0.0166  0.7523
 4019SOL     OW23518   3.469   4.605  15.178  0.2861 -0.5932 -0.1046
 4019SOL    HW123519   3.431   4.677  15.128  1.2817 -1.2698 -1.8802
 4019SOL    HW223520   3.551   4.591  15.129 -2.0604  0.7864 -4.4411
 4020SOL     OW23521   3.750   3.766  15.419 -0.0541  0.0934  0.4750
 4020SOL    HW123522   3.819   3.831  15.433  0.0896  0.5733 -2.5386
 4020SOL    HW223523   3.680   3.818  15.381  1.1500  1.4219  0.1096
 4021SOL     OW23524   2.286   1.352   3.839 -0.1722  0.6267 -0.7699
 4021SOL    HW123525   2.319   1.265   3.859 -2.1553  0.2643  0.9469
 4021SOL    HW223526   2.201   1.325   3.804  0.0778  0.0654 -0.9305
 4022SOL     OW23527   0.408   1.651   2.581 -0.3972  0.2239  0.7252
 4022SOL    HW123528   0.370   1.578   2.533 -0.9213  0.0527  1.3967
 4022SOL    HW223529   0.342   1.665   2.649 -0.3868 -1.1266  1.0106
 4023SOL     OW23530   3.749   0.398   7.946  0.0624 -0.2672  0.4491
 4023SOL    HW123531   3.832   0.440   7.968  1.1108 -0.9504 -2.1740
 4023SOL    HW223532   3.757   0.324   8.007 -1.3624 -1.4107 -0.7416
 4024SOL     OW23533   1.662   3.087  17.308  0.5882 -0.5876 -1.2802
 4024SOL    HW123534   1.620   3.001  17.301 -0.0785 -0.1528 -2.7622
 4024SOL    HW223535   1.594   3.153  17.298 -0.1542 -0.9793  1.1207
 4025SOL     OW23536   1.948   0.490  11.943 -0.6901 -0.1307 -0.1976
 4025SOL    HW123537   1.911   0.403  11.963 -0.0157 -0.5534 -0.8001
 4025SOL    HW223538   1.864   0.534  11.952 -0.6196 -0.2001  0.8310
 4026SOL     OW23539   3.586   1.923   5.895 -0.0096 -0.3669  0.2442
 4026SOL    HW123540   3.542   1.966   5.821  0.2053 -1.6896 -0.6447
 4026SOL    HW223541   3.544   1.973   5.965  3.1092  0.9548  1.1799
 4027SOL     OW23542   0.277   3.861   5.319 -0.0053  0.4756 -0.4149
 4027SOL    HW123543   0.255   3.791   5.258 -0.5258  0.0099  0.2904
 4027SOL    HW223544   0.255   3.939   5.269  0.3958 -0.0918 -1.4745
 4028SOL     OW23545   1.158   2.995   5.133  0.3210 -0.0341  0.0547
 4028SOL    HW123546   1.160   3.016   5.226 -3.5399  3.0971 -0.5855
 4028SOL    HW223547   1.125   2.905   5.136  2.3772 -0.8110 -0.4552
 4029SOL     OW23548   1.078   3.864   7.311 -0.2161 -0.3093 -0.2744
 4029SOL    HW123549   1.162   3.908   7.317  0.0143 -0.6509 -1.0371
 4029SOL    HW223550   1.113   3.777   7.294 -0.8826 -0.6589  0.1110
 4030SOL     OW23551   0.329   0.604   6.591  0.0855 -0.0324 -0.4312
 4030SOL    HW123552   0.321   0.538   6.660 -0.6749  0.7585  0.2393
 4030SOL    HW223553   0.424   0.604   6.581  0.0982  2.8725 -0.1195
 4031SOL     OW23554   1.161   0.293  17.024 -0.0067 -0.9305  0.8067
 4031SOL    HW123555   1.237   0.326  16.976 -1.3453 -0.7417 -1.1805
 4031SOL    HW223556   1.172   0.350  17.100 -1.3973  0.4286 -0.0042
 4032SOL     OW23557   3.533   3.811   5.615 -0.7754 -0.7625  0.7602
 4032SOL    HW123558   3.571   3.835   5.700  1.6014  1.5000 -0.9496
 4032SOL    HW223559   3.553   3.717   5.613  0.8830 -0.3692 -0.5425
 4033SOL     OW23560   4.708   2.630   2.490 -0.2320 -0.4935 -0.2042
 4033SOL    HW123561   4.644   2.685   2.534  1.2949  1.8430 -0.9345
 4033SOL    HW223562   4.695   2.547   2.537 -0.3079 -0.3279  0.0634
 4034SOL     OW23563   3.915   1.151   5.045  0.1906 -0.1808  0.0855
 4034SOL    HW123564   3.842   1.194   5.087 -1.0167 -3.0557  0.9484
 4034SOL    HW223565   3.865   1.148   4.964  0.1969 -0.6134  0.0943
 4035SOL     OW23566   1.865   2.951  11.651  0.2469  0.1679  0.3683
 4035SOL    HW123567   1.829   2.927  11.565 -0.2692 -1.0098  0.9181
 4035SOL    HW223568   1.852   3.046  11.649  1.5204  0.3238 -0.3082
 4036SOL     OW23569   4.147   0.514  10.742  0.1485  0.1674  0.0638
 4036SOL    HW123570   4.130   0.535  10.834  1.2027 -0.8359  0.4930
 4036SOL    HW223571   4.135   0.419  10.750  0.5687  0.1718  0.7512
 4037SOL     OW23572   0.884   1.234   6.341  0.1745  0.1019 -0.0523
 4037SOL    HW123573   0.888   1.325   6.370  3.2178  0.3783 -1.3381
 4037SOL    HW223574   0.855   1.177   6.413 -0.9415  1.3310  0.4654
 4038SOL     OW23575   2.763   0.263   1.649  0.3420 -0.0972 -0.2738
 4038SOL    HW123576   2.712   0.194   1.608 -2.5689  2.2908 -0.6717
 4038SOL    HW223577   2.709   0.291   1.723  1.2926 -3.0854  1.5737
 4039SOL     OW23578   2.546   0.132   0.488  0.2457 -0.3622  0.0170
 4039SOL    HW123579   2.615   0.101   0.547  0.4644  1.2322  0.5809
 4039SOL    HW223580   2.467   0.101   0.533  0.3396 -1.9520 -0.9136
 4040SOL     OW23581   0.920   0.578   0.046  0.1604  0.1130 -0.1920
 4040SOL    HW123582   0.847   0.563   0.107 -0.9506  0.1758 -1.4896
 4040SOL    HW223583   0.908   0.666   0.012 -0.5724 -0.4333 -1.3732
 4041SOL     OW23584   2.223   0.242   1.994  0.0051  0.4178 -0.1362
 4041SOL    HW123585   2.239   0.311   2.059  0.4653  0.8631 -0.7307
 4041SOL    HW223586   2.171   0.285   1.926 -1.2884 -1.3547 -0.2722
 4042SOL     OW23587   1.046   3.735   8.812 -0.2016 -0.2188 -0.6154
 4042SOL    HW123588   0.992   3.791   8.867  1.8435  0.9854  0.1446
 4042SOL    HW223589   0.999   3.734   8.728  0.1563  0.9709 -0.8227
 4043SOL     OW23590   1.336   2.107   4.270  0.3771 -0.4632  0.1733
 4043SOL    HW123591   1.424   2.083   4.299  0.8393  0.6593 -0.3125
 4043SOL    HW223592   1.290   2.024   4.280 -3.9541  1.9466  0.5844
 4044SOL     OW23593   0.591   2.270   7.809 -0.2121  0.4398 -0.3546
 4044SOL    HW123594   0.599   2.194   7.751 -0.2474  0.7426 -0.7498
 4044SOL    HW223595   0.664   2.324   7.779  1.2006 -0.1784  1.9542
 4045SOL     OW23596   2.025   3.389   8.666  0.0086  0.3865 -0.1775
 4045SOL    HW123597   1.931   3.403   8.652 -0.3935 -1.1398  0.8999
 4045SOL    HW223598   2.051   3.343   8.587 -0.3358 -0.6604  0.3131
 4046SOL     OW23599   0.807   2.535  16.732 -0.0596  0.2273  0.1352
 4046SOL    HW123600   0.724   2.539  16.779  1.3740 -2.2719  2.8422
 4046SOL    HW223601   0.868   2.520  16.803 -1.7504  1.1511  1.7759
 4047SOL     OW23602   3.944   0.640   1.169  0.3567  0.4091 -0.4697
 4047SOL    HW123603   3.982   0.658   1.255  0.6030  1.8684 -0.8807
 4047SOL    HW223604   4.015   0.645   1.105 -1.2774 -0.3017 -2.3458
 4048SOL     OW23605   1.549   2.663   2.152  0.0691  0.1908 -0.7173
 4048SOL    HW123606   1.465   2.632   2.184  0.9043 -1.5166 -0.1972
 4048SOL    HW223607   1.571   2.591   2.093  0.8891  0.0398 -0.2319
 4049SOL     OW23608   3.845   4.545   7.620 -0.0646  0.5602 -0.8064
 4049SOL    HW123609   3.851   4.571   7.528 -0.3263  2.6942 -0.1980
 4049SOL    HW223610   3.751   4.557   7.626  0.1247  2.1752 -1.2371
 4050SOL     OW23611   2.690   2.015   5.111 -0.1502 -0.4218 -0.5676
 4050SOL    HW123612   2.611   2.067   5.101 -0.5442 -0.7990  0.6626
 4050SOL    HW223613   2.672   1.955   5.183  1.8310 -1.3352 -0.8254
 4051SOL     OW23614   2.188   0.381   1.321 -0.4531  0.1462 -0.3902
 4051SOL    HW123615   2.178   0.460   1.374 -0.2258 -1.1613  1.6413
 4051SOL    HW223616   2.102   0.339   1.320 -0.5265  0.3718 -2.6549
 4052SOL     OW23617   3.317   0.641   8.123  0.5747 -0.0121  0.0687
 4052SOL    HW123618   3.376   0.581   8.077 -0.0738  1.5093 -2.6961
 4052SOL    HW223619   3.341   0.725   8.084 -0.5919  0.1780 -0.2257
 4053SOL     OW23620   3.741   1.914   0.145  0.0944 -0.1821 -0.2860
 4053SOL    HW123621   3.721   1.979   0.212 -1.4126 -0.2844 -0.6447
 4053SOL    HW223622   3.814   1.868   0.186 -1.0565 -1.5036  0.2518
 4054SOL     OW23623   4.597   4.436   5.047  0.1357  0.6886 -0.6398
 4054SOL    HW123624   4.624   4.444   4.956  0.1989  0.4862 -0.6406
 4054SOL    HW223625   4.659   4.369   5.077  1.6732  1.4142 -2.2747
 4055SOL     OW23626   0.856   3.136   6.724 -0.6089 -0.4939  0.2731
 4055SOL    HW123627   0.898   3.051   6.710 -4.3242 -2.3488  0.5477
 4055SOL    HW223628   0.772   3.109   6.761  0.2796 -0.1895  2.4788
 4056SOL     OW23629   3.502   4.695   1.904  0.0599  0.3455  0.0457
 4056SOL    HW123630   3.504   4.611   1.950  1.5696  0.1568 -0.3747
 4056SOL    HW223631   3.470   0.033   1.972 -0.9700  0.4737 -0.5555
 4057SOL     OW23632   2.674   1.736   4.877  0.3436  0.5019  0.0724
 4057SOL    HW123633   2.651   1.735   4.970  2.3000 -0.9971  0.5432
 4057SOL    HW223634   2.711   1.648   4.875 -0.2722  0.2130  1.0270
 4058SOL     OW23635   1.741   2.039   8.254  0.6052 -0.1242 -0.0923
 4058SOL    HW123636   1.672   2.012   8.193  0.0472  0.1083  0.4302
 4058SOL    HW223637   1.693   2.068   8.332  0.2762 -0.8657 -0.0120
 4059SOL     OW23638   1.894   0.981   7.820  0.1249  0.4961 -0.2599
 4059SOL    HW123639   1.841   1.049   7.863 -1.4417 -2.2575  2.2210
 4059SOL    HW223640   1.900   0.910   7.885 -0.1988  3.2101  2.7494
 4060SOL     OW23641   1.573   0.524   2.698 -0.6653  0.1088 -0.7851
 4060SOL    HW123642   1.597   0.545   2.788 -2.5437 -2.9706  0.4497
 4060SOL    HW223643   1.547   0.432   2.710  2.2113 -0.1992  3.1684
 4061SOL     OW23644   2.842   4.718  13.852 -0.2044  0.0750  0.2920
 4061SOL    HW123645   2.918   0.032  13.897 -0.7067 -1.7269  2.5485
 4061SOL    HW223646   2.881   4.683  13.771 -1.6909  1.3850 -0.9946
 4062SOL     OW23647   2.904   1.245  10.797  0.4740 -0.3378 -0.2660
 4062SOL    HW123648   2.928   1.175  10.858 -0.0195 -1.2847 -1.1497
 4062SOL    HW223649   2.947   1.325  10.826  0.0877 -0.7267  1.3775
 4063SOL     OW23650   4.384   0.584  10.349  0.3062  0.1077 -0.7139
 4063SOL    HW123651   4.383   0.605  10.442 -1.1925 -0.3478 -0.6179
 4063SOL    HW223652   4.415   0.494  10.359 -0.9560 -0.6129 -3.2969
 4064SOL     OW23653   2.730   0.430   6.913 -0.2260 -0.7262  0.0107
 4064SOL    HW123654   2.752   0.483   6.989  0.1754 -1.8515  0.6872
 4064SOL    HW223655   2.652   0.383   6.941  0.9192 -0.8205  3.0073
 4065SOL     OW23656   3.620   4.155   1.377 -0.5082 -0.2593  0.0366
 4065SOL    HW123657   3.632   4.111   1.461 -0.8892 -0.1631  0.1413
 4065SOL    HW223658   3.673   4.104   1.315  0.6736 -0.8792  1.5726
 4066SOL     OW23659   2.748   3.626   8.867  0.5020 -0.2513  0.2220
 4066SOL    HW123660   2.773   3.648   8.957 -0.9883 -1.9450  1.0441
 4066SOL    HW223661   2.655   3.622   8.887  0.4106  0.0855 -0.1434
 4067SOL     OW23662   1.958   4.669   4.521  0.1010 -0.0559  0.1265
 4067SOL    HW123663   1.991   0.037   4.509  1.3547 -0.5330  0.0423
 4067SOL    HW223664   1.870   4.666   4.483 -0.0872  2.2110  0.3588
 4068SOL     OW23665   2.576   2.997   6.957  0.2156  0.3064 -0.0128
 4068SOL    HW123666   2.587   3.059   7.029 -0.3657 -0.2575  0.5720
 4068SOL    HW223667   2.489   3.023   6.926 -0.0205 -0.8952 -0.3608
 4069SOL     OW23668   2.490   2.056  10.315 -0.0920 -0.0304  0.0457
 4069SOL    HW123669   2.417   2.117  10.306  1.3792  1.3523 -2.6002
 4069SOL    HW223670   2.470   1.986  10.253  1.1545 -0.2738 -0.0987
 4070SOL     OW23671   1.351   3.571   3.378  0.3026  0.0137 -0.1063
 4070SOL    HW123672   1.323   3.615   3.298 -1.6434  0.0621  0.6072
 4070SOL    HW223673   1.308   3.489   3.353  0.7122 -0.5544  1.0563
 4071SOL     OW23674   4.314   3.722   6.682 -0.4300  0.0915 -0.1924
 4071SOL    HW123675   4.288   3.683   6.598 -0.1353  0.7998 -0.6201
 4071SOL    HW223676   4.410   3.718   6.682 -0.4527 -0.3426  0.2929
 4072SOL     OW23677   3.753   3.200   8.596 -0.1624 -0.2633  0.0732
 4072SOL    HW123678   3.702   3.119   8.589 -1.4360  0.4578  0.9207
 4072SOL    HW223679   3.756   3.205   8.692 -4.6592 -1.3852  0.2520
 4073SOL     OW23680   3.935   2.604   9.234  0.2047  0.1353  0.4423
 4073SOL    HW123681   3.950   2.693   9.202 -0.5227 -0.0232 -0.3275
 4073SOL    HW223682   3.994   2.550   9.182  1.9291  1.0621  1.3881
 4074SOL     OW23683   3.521   4.005   4.344  0.4322 -0.1936  0.1905
 4074SOL    HW123684   3.478   3.974   4.265  1.0869 -1.6132  0.3949
 4074SOL    HW223685   3.494   3.935   4.403  0.0089 -0.9723 -0.9492
 4075SOL     OW23686   0.706   3.804   7.567 -0.1500  0.6262  0.1939
 4075SOL    HW123687   0.686   3.782   7.476  0.6936  1.6583 -0.2363
 4075SOL    HW223688   0.792   3.846   7.563  1.4066 -2.5950  0.3241
 4076SOL     OW23689   0.701   0.249   4.742  0.3622 -0.3378  0.4802
 4076SOL    HW123690   0.763   0.196   4.692 -0.3157 -0.5465 -0.1378
 4076SOL    HW223691   0.695   0.192   4.818  1.5125 -1.2148 -0.0807
 4077SOL     OW23692   1.853   2.872  17.546  0.4968  0.1667  0.8527
 4077SOL    HW123693   1.838   2.885  17.452 -1.3370  0.7293  1.2209
 4077SOL    HW223694   1.767   2.891  17.582  1.1682  1.3164  1.8387
 4078SOL     OW23695   0.644   0.974   3.088  0.7151  0.3278 -0.2861
 4078SOL    HW123696   0.627   0.958   3.181  0.3008  0.4184 -0.3477
 4078SOL    HW223697   0.736   1.000   3.084  0.7579  0.2641  0.2274
 4079SOL     OW23698   2.625   2.701  10.865 -0.2089 -0.7630  0.2022
 4079SOL    HW123699   2.542   2.663  10.835 -0.0403 -0.9390 -0.0467
 4079SOL    HW223700   2.615   2.711  10.959 -0.4116  0.4811  0.0574
 4080SOL     OW23701   1.887   3.854   4.403  0.1697  0.0192  0.5254
 4080SOL    HW123702   1.925   3.819   4.484 -0.0293  1.0209  1.0548
 4080SOL    HW223703   1.950   3.820   4.340 -1.3465  1.6019 -1.8654
 4081SOL     OW23704   0.102   3.555  13.482 -0.3669 -0.2496  0.1422
 4081SOL    HW123705   0.040   3.594  13.420 -1.2992 -0.6983  0.7983
 4081SOL    HW223706   0.073   3.602  13.560 -0.4980  1.9740 -1.2449
 4082SOL     OW23707   2.771   3.720   2.999 -0.2009  0.0513  0.3361
 4082SOL    HW123708   2.741   3.753   2.914 -1.1931 -4.4206 -1.0475
 4082SOL    HW223709   2.866   3.724   2.989  0.0111 -1.3563  1.8713
 4083SOL     OW23710   0.225   0.959  10.308  0.3275  0.1287 -0.0953
 4083SOL    HW123711   0.306   0.914  10.284 -0.1695 -0.5113 -0.5612
 4083SOL    HW223712   0.167   0.954  10.232 -1.5719 -1.0945  1.4240
 4084SOL     OW23713   0.717   1.000   3.348  0.3084 -0.3638 -0.1791
 4084SOL    HW123714   0.681   1.028   3.432 -3.2950 -1.8990 -1.2138
 4084SOL    HW223715   0.812   1.016   3.351  0.0777  1.2062 -1.3871
 4085SOL     OW23716   3.290   3.234   4.296 -0.2691  0.2282 -0.6300
 4085SOL    HW123717   3.292   3.139   4.285  1.2701  0.2257 -0.3281
 4085SOL    HW223718   3.228   3.252   4.366  0.2913  1.7180 -0.5106
 4086SOL     OW23719   1.816   1.674   5.448 -0.5942 -0.4228  0.3875
 4086SOL    HW123720   1.724   1.662   5.423 -0.1009 -2.4316 -0.4757
 4086SOL    HW223721   1.848   1.659   5.359  2.1274  2.1436  0.9189
 4087SOL     OW23722   3.720   3.978   3.986 -0.3662 -0.1879  0.1601
 4087SOL    HW123723   3.634   3.951   3.953 -1.2091  1.5657  0.9687
 4087SOL    HW223724   3.781   3.936   3.925 -0.5949 -0.3181  0.0185
 4088SOL     OW23725   2.282   0.581   5.977 -0.7025 -0.1388  0.2706
 4088SOL    HW123726   2.313   0.670   5.962  1.1531 -0.3631  2.7278
 4088SOL    HW223727   2.188   0.591   5.968 -0.6192  1.4081  1.2656
 4089SOL     OW23728   1.459   1.778  15.003  0.8629 -0.2262 -0.1770
 4089SOL    HW123729   1.455   1.813  14.914  1.0107 -2.2693 -0.9878
 4089SOL    HW223730   1.449   1.860  15.051 -1.8293 -1.1864  0.8929
 4090SOL     OW23731   0.384   3.319   5.158  0.4690 -0.3506 -0.2876
 4090SOL    HW123732   0.365   3.355   5.245  0.9177  2.4745 -1.3837
 4090SOL    HW223733   0.471   3.356   5.144 -0.7574  2.0323 -1.4412
 4091SOL     OW23734   4.047   1.549   7.015 -0.6879 -0.4283 -0.2837
 4091SOL    HW123735   3.975   1.605   6.986  0.3274  0.3383 -1.3187
 4091SOL    HW223736   4.060   1.485   6.945  0.0767  1.2568 -1.6884
 4092SOL     OW23737   3.497   3.198   3.785 -0.6512  0.6738 -0.1385
 4092SOL    HW123738   3.420   3.162   3.830 -1.6416  2.3549 -0.5054
 4092SOL    HW223739   3.523   3.124   3.730 -1.8604  0.2945 -0.2195
 4093SOL     OW23740   2.517   3.841   2.234 -0.3379  0.7027 -0.1062
 4093SOL    HW123741   2.537   3.931   2.209  1.4416 -0.2315 -2.0867
 4093SOL    HW223742   2.423   3.844   2.247  0.0287  1.6152  2.2936
 4094SOL     OW23743   1.640   0.593  14.631 -0.2566 -0.1459 -0.3964
 4094SOL    HW123744   1.703   0.585  14.560 -0.0210  2.1024 -0.4513
 4094SOL    HW223745   1.695   0.624  14.704 -1.8504  0.3619  0.6007
 4095SOL     OW23746   4.234   0.175   2.151 -0.6134 -0.2545  1.1408
 4095SOL    HW123747   4.242   0.164   2.056  0.0586 -0.4085  1.2180
 4095SOL    HW223748   4.253   0.083   2.165 -1.3616 -0.6437 -0.2956
 4096SOL     OW23749   2.762   4.166   3.864 -0.2809  0.3482 -0.0823
 4096SOL    HW123750   2.851   4.177   3.829 -0.3394  0.2228 -0.2722
 4096SOL    HW223751   2.733   4.254   3.839 -1.1041 -0.0925 -0.6627
 4097SOL     OW23752   1.612   2.900   0.078 -0.4610 -0.5486  0.0208
 4097SOL    HW123753   1.629   2.840   0.152  1.8787 -1.6839 -1.4257
 4097SOL    HW223754   1.531   2.860   0.046 -0.8485  0.4857 -0.2716
 4098SOL     OW23755   3.013   2.729   7.529  0.4336 -0.3100 -0.2656
 4098SOL    HW123756   2.924   2.722   7.563  0.2619  2.2979 -0.1894
 4098SOL    HW223757   3.053   2.792   7.588  1.1579  0.8746 -2.0089
 4099SOL     OW23758   1.513   4.060   1.241 -0.4200  0.0181  0.1757
 4099SOL    HW123759   1.530   4.011   1.161  1.4155  2.0016 -0.6481
 4099SOL    HW223760   1.479   4.146   1.216  0.3465  0.3862  0.3956
 4100SOL     OW23761   4.168   4.462  13.531  0.4019 -0.4951 -0.0336
 4100SOL    HW123762   4.246   4.413  13.556  0.6715  0.7209  1.5467
 4100SOL    HW223763   4.113   4.392  13.495 -0.7708  0.8634 -0.8702
 4101SOL     OW23764   4.568   0.615   3.821  0.0467 -0.2336 -0.0780
 4101SOL    HW123765   4.632   0.549   3.848 -0.2175  0.2109  1.6603
 4101SOL    HW223766   4.603   0.698   3.854  0.6822 -1.4396  2.2850
 4102SOL     OW23767   2.625   4.037   4.991 -0.6496  0.4452 -0.0954
 4102SOL    HW123768   2.619   4.002   4.902 -0.1062  0.3185 -0.0819
 4102SOL    HW223769   2.605   3.974   5.059  1.7215 -2.1955 -1.8290
 4103SOL     OW23770   0.748   2.393   7.426 -0.2355 -0.2604 -0.0658
 4103SOL    HW123771   0.811   2.385   7.498 -1.9584 -2.6763  1.1302
 4103SOL    HW223772   0.699   2.475   7.436 -0.6824 -0.5834  0.3470
 4104SOL     OW23773   0.433   4.544  12.824  0.2267  0.1192  0.4635
 4104SOL    HW123774   0.480   4.488  12.762  1.9352  1.8699  0.1590
 4104SOL    HW223775   0.452   4.633  12.795 -2.0479  0.5105  0.1936
 4105SOL     OW23776   4.282   4.074   4.890 -0.0829 -0.0562 -0.1714
 4105SOL    HW123777   4.243   4.028   4.964 -1.1543  2.1139  0.6196
 4105SOL    HW223778   4.376   4.055   4.890  0.2777  1.5982 -2.4995
 4106SOL     OW23779   2.607   3.533  11.360 -0.3845  0.3485  0.2471
 4106SOL    HW123780   2.568   3.459  11.406  0.8631 -0.8361 -0.5986
 4106SOL    HW223781   2.550   3.556  11.286  0.7039 -1.1244 -1.0619
 4107SOL     OW23782   2.761   1.048   4.377 -0.0988  0.0186 -0.0478
 4107SOL    HW123783   2.715   1.074   4.456  0.3279  1.9357 -0.4195
 4107SOL    HW223784   2.753   1.129   4.325 -0.0171 -0.7808 -1.3163
 4108SOL     OW23785   1.031   2.434   6.813 -0.8437  0.1326 -0.2571
 4108SOL    HW123786   1.117   2.439   6.854 -0.5712 -1.3570 -0.6711
 4108SOL    HW223787   0.974   2.396   6.880  0.2907 -1.8960 -0.4380
 4109SOL     OW23788   1.037   2.556   6.358  0.3330 -0.4474 -0.5526
 4109SOL    HW123789   1.105   2.500   6.321  0.1015 -1.6166  0.7626
 4109SOL    HW223790   1.064   2.647   6.352 -1.8218  0.2256 -0.0632
 4110SOL     OW23791   2.345   2.396   7.977  0.4697 -0.2872  0.4992
 4110SOL    HW123792   2.299   2.336   7.918  0.6311  0.1955 -0.1111
 4110SOL    HW223793   2.433   2.402   7.941 -0.8328  2.2358 -2.2630
 4111SOL     OW23794   1.732   4.386   6.254 -0.5665  0.2520 -0.5320
 4111SOL    HW123795   1.669   4.324   6.290 -1.3634  0.6096 -1.2765
 4111SOL    HW223796   1.774   4.329   6.190 -0.1441 -0.4805  0.4212
 4112SOL     OW23797   0.806   0.640  16.122  0.3509  0.0416  0.7204
 4112SOL    HW123798   0.746   0.583  16.074 -0.1178  1.4651 -0.3466
 4112SOL    HW223799   0.876   0.577  16.139 -0.6437 -1.0870  0.6989
 4113SOL     OW23800   3.882   0.336   7.270 -0.4967  0.4487  0.2815
 4113SOL    HW123801   3.869   0.328   7.175  4.6903 -0.1976 -0.3738
 4113SOL    HW223802   3.978   0.333   7.276 -0.4921  0.4965  0.2347
 4114SOL     OW23803   0.757   0.145  12.801 -0.4793 -0.0361  0.1755
 4114SOL    HW123804   0.783   0.061  12.763  0.9396  0.8365 -0.7730
 4114SOL    HW223805   0.840   0.180  12.833 -1.1197  2.6057 -1.0444
 4115SOL     OW23806   0.137   2.304   5.097  0.1125 -0.0307  0.0690
 4115SOL    HW123807   0.140   2.258   5.013  0.7758 -0.9960  0.6221
 4115SOL    HW223808   0.123   2.226   5.151 -1.7272  1.0690  1.1783
 4116SOL     OW23809   0.933   4.093   8.893  0.4305  0.0836  0.2754
 4116SOL    HW123810   1.007   4.111   8.952 -1.2631  2.0083  1.7885
 4116SOL    HW223811   0.901   4.010   8.928  1.1971 -0.8440 -1.2163
 4117SOL     OW23812   1.608   0.677   9.431  0.1221  0.0884  0.2711
 4117SOL    HW123813   1.513   0.676   9.420 -0.0699 -1.4159  2.0717
 4117SOL    HW223814   1.623   0.689   9.337 -1.6987  0.6726  0.0669
 4118SOL     OW23815   4.031   1.584   0.674  0.4591  0.2412  0.0299
 4118SOL    HW123816   4.054   1.586   0.581 -2.2223 -2.1364 -0.6891
 4118SOL    HW223817   3.936   1.581   0.666  0.7262 -1.0363 -2.7298
 4119SOL     OW23818   3.286   3.742   2.435 -0.0214  0.2529  0.2217
 4119SOL    HW123819   3.207   3.774   2.478  0.8986  2.7670  0.0661
 4119SOL    HW223820   3.254   3.729   2.346 -0.3823 -0.0336  0.3946
 4120SOL     OW23821   1.058   3.793   7.790  0.3479 -0.6181 -0.0933
 4120SOL    HW123822   1.052   3.876   7.743  0.7019  1.0961  2.9288
 4120SOL    HW223823   0.970   3.775   7.824 -0.7132  5.2258  0.1394
 4121SOL     OW23824   2.032   1.954   1.913  0.3943 -0.1371 -0.2536
 4121SOL    HW123825   2.082   1.876   1.935 -0.1056 -0.3576  0.1045
 4121SOL    HW223826   2.082   2.028   1.948 -1.0586  1.3799 -1.3464
 4122SOL     OW23827   2.636   4.252  16.933  0.3936  0.2504 -0.4924
 4122SOL    HW123828   2.725   4.227  16.908 -0.7041 -0.8485 -3.2549
 4122SOL    HW223829   2.641   4.348  16.928 -2.3421  0.3684 -0.7966
 4123SOL     OW23830   2.948   3.363   8.922  0.4508 -0.3943  0.5476
 4123SOL    HW123831   3.025   3.317   8.891  1.0457  1.3554 -0.5898
 4123SOL    HW223832   2.936   3.415   8.843 -0.5390  0.5371  1.3110
 4124SOL     OW23833   0.313   0.164   4.622 -0.2406  0.3043 -0.4927
 4124SOL    HW123834   0.359   0.247   4.623  2.3303 -1.1335  0.1072
 4124SOL    HW223835   0.377   0.102   4.656  2.2791  2.5996 -1.1308
 4125SOL     OW23836   3.500   3.993  16.471  0.6301 -0.7302 -0.5303
 4125SOL    HW123837   3.552   4.042  16.408  0.5666  1.0887  0.8207
 4125SOL    HW223838   3.523   3.905  16.442  0.9410 -0.7429 -0.2413
 4126SOL     OW23839   4.241   1.238  14.481 -0.2320 -0.7077  0.1262
 4126SOL    HW123840   4.238   1.143  14.494 -0.1041 -0.8410 -0.8243
 4126SOL    HW223841   4.182   1.265  14.552  0.4877  1.5923 -0.1747
 4127SOL     OW23842   1.396   4.361   3.501 -0.5937  0.8366  0.2772
 4127SOL    HW123843   1.350   4.323   3.427 -0.1022  0.4855  0.1502
 4127SOL    HW223844   1.345   4.440   3.519 -1.4524  0.4235 -0.3948
 4128SOL     OW23845   3.138   3.103  10.794 -0.3949 -0.6257 -0.9335
 4128SOL    HW123846   3.216   3.157  10.779 -1.1833  0.4310 -1.1867
 4128SOL    HW223847   3.173   3.037  10.854  0.6002 -1.8198 -2.8257
 4129SOL     OW23848   3.047   3.479   0.244  0.5106 -0.6406  0.0357
 4129SOL    HW123849   3.117   3.445   0.188 -1.4177  0.6477 -3.1368
 4129SOL    HW223850   3.050   3.573   0.225 -0.0110 -0.2069  2.1704
 4130SOL     OW23851   2.185   4.181   5.075 -0.3491 -0.0931 -0.1648
 4130SOL    HW123852   2.270   4.191   5.033 -0.4292  0.6748 -0.1528
 4130SOL    HW223853   2.202   4.210   5.165 -1.1133 -2.1827  0.6429
 4131SOL     OW23854   3.137   4.145   4.457  0.2187 -0.1007  0.1162
 4131SOL    HW123855   3.222   4.137   4.415  0.4149 -0.2994  0.5479
 4131SOL    HW223856   3.082   4.107   4.389  0.8436  0.5428 -0.7323
 4132SOL     OW23857   3.980   2.839   9.110  0.3047  0.3975  0.2429
 4132SOL    HW123858   4.015   2.786   9.039  0.2649  1.4591 -0.5621
 4132SOL    HW223859   3.973   2.923   9.067 -3.1268 -0.4291 -0.8111
 4133SOL     OW23860   4.261   1.698  15.230  0.0438  0.0632  0.5942
 4133SOL    HW123861   4.320   1.623  15.238 -1.5382 -1.3510 -1.1568
 4133SOL    HW223862   4.269   1.716  15.137 -0.8759 -1.7664  0.1608
 4134SOL     OW23863   1.730   4.027   3.283  0.6277  0.7754 -0.1269
 4134SOL    HW123864   1.718   3.978   3.364  1.7021  3.4281  1.6427
 4134SOL    HW223865   1.667   3.978   3.231  0.4504 -1.7359  2.4823
 4135SOL     OW23866   3.116   4.526   9.101  0.1511 -0.6419 -0.0751
 4135SOL    HW123867   3.210   4.545   9.105 -0.1382  0.5961  1.0425
 4135SOL    HW223868   3.108   4.512   9.196 -1.7084 -0.2999 -0.1889
 4136SOL     OW23869   1.515   2.427   1.139  0.0878  0.3638 -0.2601
 4136SOL    HW123870   1.495   2.515   1.172 -1.2080 -0.7796  1.9745
 4136SOL    HW223871   1.435   2.380   1.165 -0.4495  1.3848 -0.0621
 4137SOL     OW23872   0.642   2.018  10.888  0.2915 -0.0312  0.1093
 4137SOL    HW123873   0.665   2.031  10.797 -0.5298 -0.2609 -0.1343
 4137SOL    HW223874   0.642   1.922  10.886  2.1799 -0.0452  0.9224
 4138SOL     OW23875   2.913   3.796   5.661 -0.1939 -0.1080  0.1047
 4138SOL    HW123876   2.949   3.820   5.746 -0.4057 -1.1850  0.4919
 4138SOL    HW223877   2.823   3.805   5.692 -0.0714 -3.8016  1.5219
 4139SOL     OW23878   1.237   3.150   5.415 -0.5289 -0.2890  0.3384
 4139SOL    HW123879   1.272   3.153   5.504  2.1974  0.4358 -0.7673
 4139SOL    HW223880   1.210   3.058   5.411 -1.2444 -0.0174 -1.1064
 4140SOL     OW23881   4.197   0.800  10.560 -0.4369 -0.7414  0.1482
 4140SOL    HW123882   4.209   0.816  10.466  0.8993 -1.1977  0.2342
 4140SOL    HW223883   4.261   0.730  10.576  0.7027  0.2092 -0.2239
 4141SOL     OW23884   1.230   1.416  13.291 -0.7268  0.3068  0.0088
 4141SOL    HW123885   1.296   1.485  13.291 -1.5187  1.0863  1.5058
 4141SOL    HW223886   1.194   1.426  13.203 -0.8950 -0.1301  0.0286
 4142SOL     OW23887   4.691   4.376  10.860 -0.1485  0.1887  0.0584
 4142SOL    HW123888   4.689   4.351  10.767 -0.4680  2.1350 -0.4594
 4142SOL    HW223889   4.614   4.327  10.889 -1.3348  1.4517 -0.9775
 4143SOL     OW23890   2.132   0.466  11.759 -0.0508 -0.0968  0.2111
 4143SOL    HW123891   2.146   0.377  11.728 -0.4871 -0.3904  0.8527
 4143SOL    HW223892   2.081   0.460  11.840  0.8415 -0.3371  0.7473
 4144SOL     OW23893   0.262   2.819   5.443 -0.1708 -0.3440  0.4977
 4144SOL    HW123894   0.243   2.893   5.385  0.3128 -0.3806  0.2978
 4144SOL    HW223895   0.328   2.780   5.387  1.4268  1.2530  1.2845
 4145SOL     OW23896   0.251   0.406  10.487  0.6542  0.1328 -0.0479
 4145SOL    HW123897   0.270   0.477  10.426 -0.1554 -1.6463 -2.3694
 4145SOL    HW223898   0.156   0.411  10.496  0.6697  0.2287  0.0690
 4146SOL     OW23899   3.480   3.933   7.770  0.0781 -0.1802  0.4770
 4146SOL    HW123900   3.464   4.013   7.721 -1.2439 -0.1659  0.9412
 4146SOL    HW223901   3.392   3.915   7.803  0.1725 -0.1077  0.7722
 4147SOL     OW23902   2.742   3.710   5.095 -0.3436  0.5454 -0.0497
 4147SOL    HW123903   2.659   3.680   5.059 -0.3004  1.1866 -0.7009
 4147SOL    HW223904   2.704   3.781   5.147 -0.5284  0.2948  0.1557
 4148SOL     OW23905   1.637   3.713  11.141  0.0889  0.4500  0.1674
 4148SOL    HW123906   1.614   3.804  11.158 -2.9167 -0.3407  0.3214
 4148SOL    HW223907   1.705   3.712  11.074 -0.8482  2.7878 -0.8167
 4149SOL     OW23908   3.035   4.420   0.949 -0.0311  0.0481 -0.0417
 4149SOL    HW123909   3.079   4.405   0.866 -2.8450  0.7267 -1.6460
 4149SOL    HW223910   2.946   4.397   0.922  0.1784  1.1652 -1.6418
 4150SOL     OW23911   2.601   2.286   4.067  0.4735  0.3037  0.2550
 4150SOL    HW123912   2.599   2.192   4.083  3.6484  0.4512  1.4559
 4150SOL    HW223913   2.597   2.315   4.158 -0.6398  1.3526 -0.1328
 4151SOL     OW23914   0.267   2.050   9.154  0.0089 -0.6560 -0.4973
 4151SOL    HW123915   0.191   2.100   9.182  1.2145  1.0713 -0.3387
 4151SOL    HW223916   0.327   2.123   9.139  1.2026 -1.4061  0.6238
 4152SOL     OW23917   4.497   2.240   6.004  0.4665 -0.3420 -0.8494
 4152SOL    HW123918   4.510   2.220   6.097 -2.4760 -1.0749 -0.6134
 4152SOL    HW223919   4.589   2.242   5.977  0.3565  3.4126 -0.9515
 4153SOL     OW23920   0.101   3.161   5.592  0.2310 -0.5110 -0.0110
 4153SOL    HW123921   0.010   3.154   5.564  0.3614 -1.6003 -0.1822
 4153SOL    HW223922   0.103   3.171   5.687 -0.1127 -0.8838  0.0355
 4154SOL     OW23923   1.496   3.446   2.135 -0.5411  0.1801  0.3965
 4154SOL    HW123924   1.471   3.537   2.148  0.4638  0.5413 -0.1373
 4154SOL    HW223925   1.579   3.433   2.181 -1.0502  3.0813  2.0987
 4155SOL     OW23926   2.076   2.360   6.978 -0.3579  0.0990 -0.2931
 4155SOL    HW123927   2.028   2.403   7.048  0.0028  0.5404 -0.3143
 4155SOL    HW223928   2.146   2.312   7.022  0.2699  0.5197 -0.8151
 4156SOL     OW23929   4.177   2.955  11.076  0.5024  0.7571  0.6079
 4156SOL    HW123930   4.127   2.915  11.147  2.6020 -3.5078 -0.2930
 4156SOL    HW223931   4.246   2.889  11.069  1.3771  1.7830 -0.5232
 4157SOL     OW23932   3.404   0.288   6.748  0.1462 -0.2499  0.0070
 4157SOL    HW123933   3.414   0.383   6.750  2.7783 -0.5021 -0.7867
 4157SOL    HW223934   3.462   0.255   6.679 -1.1393 -1.6950 -0.3889
 4158SOL     OW23935   1.490   0.356   7.400 -0.0882 -0.3455  0.1845
 4158SOL    HW123936   1.450   0.295   7.463  0.1104  1.5879  2.2028
 4158SOL    HW223937   1.435   0.350   7.322 -0.0190  0.9809  0.0327
 4159SOL     OW23938   2.201   2.388  14.588  0.3187 -0.2032  0.0318
 4159SOL    HW123939   2.151   2.466  14.613 -0.1509 -0.7388  0.7707
 4159SOL    HW223940   2.181   2.324  14.657  0.8180  2.0841  2.2538
 4160SOL     OW23941   0.677   4.580   6.965 -0.4046  0.5040 -0.2048
 4160SOL    HW123942   0.710   4.643   6.900  0.6616 -1.0933 -1.1945
 4160SOL    HW223943   0.716   4.497   6.938  0.6879 -0.0821  3.2206
 4161SOL     OW23944   4.331   1.015   4.271 -0.0590 -0.2869 -0.0565
 4161SOL    HW123945   4.371   1.035   4.355 -0.8883  1.1721 -0.0148
 4161SOL    HW223946   4.357   0.924   4.255 -0.2865 -0.3521 -0.0458
 4162SOL     OW23947   3.816   3.698   6.992 -0.2106  0.5985  0.6063
 4162SOL    HW123948   3.752   3.750   6.943  1.7665  1.1717 -1.3587
 4162SOL    HW223949   3.858   3.768   7.041  1.3515 -0.6366  1.0165
 4163SOL     OW23950   0.247   1.201   2.728 -0.0389  0.1108 -0.7104
 4163SOL    HW123951   0.199   1.240   2.801 -2.5499 -1.5178 -1.4652
 4163SOL    HW223952   0.318   1.263   2.714 -0.6882  0.4514 -2.5578
 4164SOL     OW23953   1.101   1.105   6.226 -0.1333  0.1382  0.1695
 4164SOL    HW123954   1.023   1.155   6.251 -0.3543 -1.5104  2.7778
 4164SOL    HW223955   1.082   1.100   6.132 -1.3057 -2.0265  0.5120
 4165SOL     OW23956   1.110   0.361   5.226  0.3802 -0.1324 -0.1355
 4165SOL    HW123957   1.185   0.418   5.211 -1.2141  1.7546 -0.8942
 4165SOL    HW223958   1.129   0.312   5.306  3.7906  1.3033 -0.1007
 4166SOL     OW23959   0.522   4.162   2.629 -0.7185 -0.0183 -1.0161
 4166SOL    HW123960   0.605   4.155   2.582  0.7820 -0.0345  1.6480
 4166SOL    HW223961   0.511   4.253   2.656  1.5584  0.1542 -0.6797
 4167SOL     OW23962   0.494   1.007  11.438  0.7891  0.4728 -0.0666
 4167SOL    HW123963   0.430   1.014  11.510  2.1729  0.1382  1.1914
 4167SOL    HW223964   0.535   0.923  11.460  1.0149 -0.1152 -2.8037
 4168SOL     OW23965   3.667   3.376   9.343 -0.2239 -0.2036  0.1279
 4168SOL    HW123966   3.754   3.381   9.382  0.1663  0.4713 -0.8200
 4168SOL    HW223967   3.621   3.390   9.425  1.3034 -0.2084  0.9702
 4169SOL     OW23968   2.571   1.000   2.083  0.1056 -0.3376 -0.2107
 4169SOL    HW123969   2.647   1.057   2.068  1.0045 -1.2443  0.8018
 4169SOL    HW223970   2.518   1.049   2.146  0.9971  1.1979 -0.6546
 4170SOL     OW23971   1.728   3.564   6.885 -0.4276 -0.1188 -0.5081
 4170SOL    HW123972   1.774   3.540   6.966  0.8509  0.3141 -1.1224
 4170SOL    HW223973   1.786   3.521   6.822  1.4376  1.2869  0.2512
 4171SOL     OW23974   2.562   1.141   8.375 -0.1794  0.5574  0.1149
 4171SOL    HW123975   2.550   1.059   8.424 -0.3847  0.2192 -0.5092
 4171SOL    HW223976   2.637   1.118   8.321 -1.5705 -2.3299 -0.5919
 4172SOL     OW23977   4.283   0.413   2.009 -0.4983  0.5875 -0.4185
 4172SOL    HW123978   4.261   0.342   2.070  0.7857  1.2798  0.8442
 4172SOL    HW223979   4.365   0.384   1.969 -1.3649 -1.0019 -1.0427
 4173SOL     OW23980   1.695   1.452   0.049 -0.7583 -0.0429  0.2842
 4173SOL    HW123981   1.777   1.403   0.036 -0.4735  0.2525  0.9633
 4173SOL    HW223982   1.735   1.535   0.073  1.0151  0.4873 -4.5652
 4174SOL     OW23983   0.496   3.439   7.842  0.1164  0.3373 -0.3735
 4174SOL    HW123984   0.503   3.518   7.789 -2.3151 -0.0534 -1.2836
 4174SOL    HW223985   0.465   3.478   7.923  1.7415 -3.7752  2.2437
 4175SOL     OW23986   3.748   4.685  15.620 -0.1588  0.1733  0.0425
 4175SOL    HW123987   3.815   0.032  15.627  0.8338 -0.7250 -0.6506
 4175SOL    HW223988   3.699   0.010  15.552 -0.9116  1.9509  1.7838
 4176SOL     OW23989   1.319   0.510   2.983  0.5489 -0.0889  0.4779
 4176SOL    HW123990   1.279   0.595   2.966  3.7794  1.2080 -0.5518
 4176SOL    HW223991   1.408   0.530   3.009  0.8386 -1.7815  0.7466
 4177SOL     OW23992   1.396   0.755   8.512 -0.0240 -0.1252 -0.2703
 4177SOL    HW123993   1.449   0.813   8.567 -1.6310 -0.0847  1.2434
 4177SOL    HW223994   1.372   0.793   8.428 -2.1143  1.2352  0.9441
 4178SOL     OW23995   2.437   3.768  10.281  0.8044 -0.4867  0.5645
 4178SOL    HW123996   2.378   3.838  10.307  0.6522 -0.4489  0.1145
 4178SOL    HW223997   2.402   3.700  10.338  2.7997 -1.6100  0.4765
 4179SOL     OW23998   3.862   3.126   7.138  0.0919 -0.2139 -0.3783
 4179SOL    HW123999   3.798   3.165   7.198 -0.7121 -1.7701 -0.2210
 4179SOL    HW224000   3.855   3.173   7.055  0.6556 -1.9957 -1.4593
 4180SOL     OW24001   4.103   1.010   7.709  0.0300 -0.7847 -0.0379
 4180SOL    HW124002   4.152   0.962   7.642  0.5833  0.2813 -0.4082
 4180SOL    HW224003   4.112   1.096   7.668  1.2574 -0.3705  1.0918
 4181SOL     OW24004   4.346   4.566  16.805  0.4844 -0.3359  0.2165
 4181SOL    HW124005   4.251   4.572  16.814  0.2837  0.7762 -2.5105
 4181SOL    HW224006   4.353   4.582  16.711 -2.5209  0.9451  0.2068
 4182SOL     OW24007   3.172   3.351  14.872  0.1459 -0.1702  0.1066
 4182SOL    HW124008   3.256   3.381  14.907  0.2650 -0.5123  0.1197
 4182SOL    HW224009   3.145   3.429  14.823 -0.1779 -0.1484  0.3240
 4183SOL     OW24010   0.620   4.185   4.255 -0.3591 -0.2758  0.6365
 4183SOL    HW124011   0.648   4.135   4.332 -0.1504 -0.4410  0.4535
 4183SOL    HW224012   0.592   4.103   4.215 -1.7662 -0.4849  2.0147
 4184SOL     OW24013   2.428   0.202  12.200 -0.2728 -0.1263  0.3534
 4184SOL    HW124014   2.352   0.248  12.163  0.0050 -0.4365 -0.6249
 4184SOL    HW224015   2.403   0.110  12.209 -0.3508  0.0217  1.6124
 4185SOL     OW24016   3.943   2.985   7.440 -0.3170 -0.7199  0.3561
 4185SOL    HW124017   3.910   2.899   7.415  0.3799 -1.1660  0.9840
 4185SOL    HW224018   4.028   2.985   7.397 -0.1261  0.2419  0.7280
 4186SOL     OW24019   0.054   3.678   6.324 -0.5620 -0.1412 -0.0483
 4186SOL    HW124020   0.138   3.683   6.369  0.5411  2.6263 -2.3634
 4186SOL    HW224021   0.074   3.633   6.241  0.2951  0.7781 -0.3420
 4187SOL     OW24022   4.032   3.358   2.304 -0.6205 -0.5155  0.3026
 4187SOL    HW124023   4.007   3.448   2.287 -1.9881 -1.1332 -0.9397
 4187SOL    HW224024   4.116   3.355   2.258 -0.7193 -1.3804  0.1669
 4188SOL     OW24025   1.264   3.734   0.977  0.0117  0.1581 -0.2222
 4188SOL    HW124026   1.344   3.717   0.928  1.0487  1.5617  0.9858
 4188SOL    HW224027   1.208   3.759   0.904  0.3695 -1.6194 -1.0881
 4189SOL     OW24028   3.690   2.558  11.836  0.1240 -0.5634 -0.1928
 4189SOL    HW124029   3.682   2.613  11.759  1.3979  1.7439  1.3187
 4189SOL    HW224030   3.771   2.509  11.820  0.3235 -0.1522 -0.4363
 4190SOL     OW24031   2.442   2.450   3.886 -0.6128  0.0495 -0.5538
 4190SOL    HW124032   2.487   2.529   3.917 -0.1380 -0.7259  0.7250
 4190SOL    HW224033   2.496   2.390   3.938 -2.1319 -1.4412 -0.7029
 4191SOL     OW24034   1.445   4.706  17.256 -0.1705  0.2129  0.2522
 4191SOL    HW124035   1.496   0.031  17.323 -0.2372  0.8897 -0.1667
 4191SOL    HW224036   1.475   0.019  17.172 -0.7905  2.6844  1.0413
 4192SOL     OW24037   0.976   1.136   2.114 -0.2858 -0.3793 -0.3916
 4192SOL    HW124038   1.053   1.192   2.110 -0.7616  0.3365  0.4207
 4192SOL    HW224039   1.027   1.055   2.109  2.2265  1.1028  0.9597
 4193SOL     OW24040   0.894   2.579   4.036  0.2247  0.2022 -0.7334
 4193SOL    HW124041   0.938   2.588   4.121 -0.5672 -0.7198 -0.2322
 4193SOL    HW224042   0.805   2.551   4.057  1.0522  0.3216  2.9091
 4194SOL     OW24043   4.211   1.262   6.477 -0.1956 -0.9925  0.1827
 4194SOL    HW124044   4.168   1.322   6.415 -3.0974 -2.9025  0.3206
 4194SOL    HW224045   4.150   1.265   6.550  0.6290 -1.2949  0.8829
 4195SOL     OW24046   3.368   3.154   7.807 -0.4692 -0.6515 -0.0335
 4195SOL    HW124047   3.384   3.070   7.850 -1.8317 -0.1493  1.4212
 4195SOL    HW224048   3.410   3.216   7.867 -0.3969 -0.4745 -0.2675
 4196SOL     OW24049   0.553   1.303  11.547 -0.0375  0.3096  0.0458
 4196SOL    HW124050   0.539   1.264  11.633 -0.0197 -1.7316 -0.8735
 4196SOL    HW224051   0.635   1.345  11.573 -0.3568  0.8161  0.2481
 4197SOL     OW24052   4.372   3.601  11.835 -0.1310 -0.0714 -0.7144
 4197SOL    HW124053   4.406   3.666  11.897  3.9027 -0.8782 -2.0231
 4197SOL    HW224054   4.277   3.598  11.845 -0.0035  0.0849  0.5313
 4198SOL     OW24055   2.644   0.770   2.253  0.0875  0.3843  0.2013
 4198SOL    HW124056   2.631   0.837   2.320  2.7640 -0.9520  2.0404
 4198SOL    HW224057   2.600   0.821   2.184  0.2058  0.3640  0.1112
 4199SOL     OW24058   1.910   0.442  14.906  0.1188 -0.2859  0.0477
 4199SOL    HW124059   1.905   0.478  14.995 -1.9275 -0.9596  0.2227
 4199SOL    HW224060   1.876   0.520  14.863 -0.3575  0.0828  1.0924
 4200SOL     OW24061   3.270   4.329  17.648 -0.3076 -0.2345 -0.9834
 4200SOL    HW124062   3.333   4.339  17.577  1.0391  3.3708  0.7578
 4200SOL    HW224063   3.196   4.286  17.605 -2.2485  2.5688 -0.4174
 4201SOL     OW24064   2.138   0.330   7.251  0.3939  0.1880 -0.2759
 4201SOL    HW124065   2.180   0.303   7.169 -0.6681  1.6941 -1.2988
 4201SOL    HW224066   2.206   0.388   7.286  1.8872 -0.7395 -1.6207
 4202SOL     OW24067   0.028   2.180  11.143  0.2692  0.7459 -0.1048
 4202SOL    HW124068   0.086   2.117  11.185  0.6768  2.2063  1.5218
 4202SOL    HW224069   0.047   2.243  11.213  3.0953  0.1538 -0.3395
 4203SOL     OW24070   1.003   0.831   6.161  0.0128 -0.4028 -0.0265
 4203SOL    HW124071   0.944   0.778   6.108 -1.7978  0.7678  0.8262
 4203SOL    HW224072   0.948   0.903   6.191 -1.7710 -1.1101 -1.6225
 4204SOL     OW24073   0.069   3.658   9.995  0.1550 -0.4172 -0.2090
 4204SOL    HW124074   0.062   3.616   9.909  0.5995  0.0463 -0.4732
 4204SOL    HW224075   0.154   3.702   9.991 -0.1890  0.2307 -0.2559
 4205SOL     OW24076   1.549   4.047  12.718  0.2820 -0.4717  0.0234
 4205SOL    HW124077   1.535   4.131  12.674  1.8666 -0.9930 -1.4531
 4205SOL    HW224078   1.461   4.023  12.746  0.8278 -1.0550  1.2753
 4206SOL     OW24079   0.308   0.848   8.304 -0.7793 -0.6458 -0.1521
 4206SOL    HW124080   0.365   0.914   8.265 -2.0511  0.1294 -0.6963
 4206SOL    HW224081   0.366   0.776   8.330  0.2161  1.2337  2.8768
 4207SOL     OW24082   1.245   0.470  17.244  0.2848  0.3743 -0.9728
 4207SOL    HW124083   1.308   0.472  17.316 -0.9029 -1.7151  0.1138
 4207SOL    HW224084   1.288   0.532  17.184 -0.6625 -0.6362 -2.6822
 4208SOL     OW24085   0.677   0.842  12.568  0.2357  1.3818 -0.0922
 4208SOL    HW124086   0.724   0.913  12.611  1.1466  0.7528 -0.0518
 4208SOL    HW224087   0.650   0.874  12.481  1.9329 -0.4915 -1.3160
 4209SOL     OW24088   2.322   3.802   4.488 -0.3134  0.4879  0.0179
 4209SOL    HW124089   2.262   3.749   4.541 -2.3741 -0.3523 -3.0934
 4209SOL    HW224090   2.409   3.767   4.503 -0.6441 -0.0325  0.7362
 4210SOL     OW24091   3.679   3.131  12.417 -0.2550  0.2529  0.3548
 4210SOL    HW124092   3.690   3.082  12.335  1.0147 -1.1950  1.3945
 4210SOL    HW224093   3.758   3.184  12.427 -1.6088  2.0049  1.6731
 4211SOL     OW24094   1.603   0.656  15.225 -0.0074 -0.1331  0.1901
 4211SOL    HW124095   1.614   0.605  15.146  0.2534 -0.7337  0.6155
 4211SOL    HW224096   1.697   0.663  15.236 -0.0035  2.7645 -1.7944
 4212SOL     OW24097   0.755   0.715   7.906  0.0414  0.4787  0.2227
 4212SOL    HW124098   0.694   0.747   7.972  0.6664  0.1821  0.9391
 4212SOL    HW224099   0.842   0.732   7.943  0.1422 -1.4868  0.9071
 4213SOL     OW24100   0.944   1.970   3.636 -0.6909  0.6886 -0.2319
 4213SOL    HW124101   0.976   1.882   3.654  2.5628  1.8894 -0.2012
 4213SOL    HW224102   0.915   1.943   3.548 -2.3168 -2.9048  1.3949
 4214SOL     OW24103   0.302   3.922  17.178  0.2472  0.2184  0.0154
 4214SOL    HW124104   0.391   3.957  17.175  0.6269 -0.6256  1.3739
 4214SOL    HW224105   0.254   3.972  17.111 -1.6350  2.0414  2.7549
 4215SOL     OW24106   1.544   4.638   9.320  0.0514 -0.7984  0.6847
 4215SOL    HW124107   1.452   4.663   9.313  0.1648  0.2385  3.0107
 4215SOL    HW224108   1.538   4.561   9.377  0.7078 -2.4301 -1.4249
 4216SOL     OW24109   0.642   3.495   6.844  0.2181  0.0010  0.8412
 4216SOL    HW124110   0.594   3.440   6.905 -1.2885  0.4621  0.0643
 4216SOL    HW224111   0.579   3.494   6.772  0.5643 -0.9912  0.5405
 4217SOL     OW24112   4.279   0.809   8.605 -0.0200  0.2932  0.5535
 4217SOL    HW124113   4.201   0.862   8.594 -0.7592 -0.8247  0.4201
 4217SOL    HW224114   4.308   0.780   8.518 -0.3255 -0.8520  0.8274
 4218SOL     OW24115   0.194   1.462   3.114 -0.6186  0.4827  0.5652
 4218SOL    HW124116   0.288   1.464   3.097 -0.7608 -0.0063 -0.3395
 4218SOL    HW224117   0.191   1.369   3.139  1.8343 -0.2934 -1.9949
 4219SOL     OW24118   3.284   0.999   3.927  0.1933  0.0689 -0.7558
 4219SOL    HW124119   3.266   0.907   3.949  1.1021  0.0472 -0.1132
 4219SOL    HW224120   3.377   1.011   3.948 -0.0291  1.9415 -0.8694
 4220SOL     OW24121   1.891   0.172  14.823  0.5958  0.1479  0.1148
 4220SOL    HW124122   1.958   0.173  14.755  0.3949  1.5616 -0.0682
 4220SOL    HW224123   1.891   0.266  14.843  2.1715  0.0388  0.6153
 4221SOL     OW24124   0.820   0.795   6.623  0.4127  0.2738  0.4602
 4221SOL    HW124125   0.877   0.721   6.604 -0.6470 -0.3510 -0.3136
 4221SOL    HW224126   0.875   0.843   6.684  0.7058 -0.7606  1.0204
 4222SOL     OW24127   1.938   1.107  16.038  0.1089 -0.4268 -0.2525
 4222SOL    HW124128   1.992   1.175  15.998 -0.6886 -0.0172 -0.6219
 4222SOL    HW224129   2.001   1.064  16.096 -0.2025  0.2435  0.5912
 4223SOL     OW24130   1.975   3.838  13.627  0.0159  0.9763 -0.0346
 4223SOL    HW124131   2.005   3.869  13.713  1.3546 -1.7547  0.4590
 4223SOL    HW224132   1.947   3.917  13.581  0.2176  1.0911  0.0415
 4224SOL     OW24133   3.720   1.753   3.374  0.0754  0.4236  0.5766
 4224SOL    HW124134   3.712   1.676   3.430 -0.6128  0.2573  0.2468
 4224SOL    HW224135   3.761   1.714   3.297 -6.0601 -1.4604 -1.7594
 4225SOL     OW24136   2.230   1.507   2.286 -0.1722 -0.2896 -0.7353
 4225SOL    HW124137   2.165   1.484   2.353 -1.4552  1.2316 -1.4345
 4225SOL    HW224138   2.318   1.497   2.322 -0.0065  1.8053 -0.5875
 4226SOL     OW24139   0.571   1.482  12.838  0.5533 -0.4828  0.1384
 4226SOL    HW124140   0.521   1.495  12.757  1.0282 -0.1178 -0.0970
 4226SOL    HW224141   0.658   1.466  12.801 -1.6966 -2.1102 -4.4483
 4227SOL     OW24142   0.411   2.358  11.878 -0.1933 -0.0721 -0.0351
 4227SOL    HW124143   0.358   2.431  11.910 -0.8033 -0.6647  0.3015
 4227SOL    HW224144   0.454   2.388  11.798  0.8257 -0.2683  0.4359
 4228SOL     OW24145   4.647   1.024   9.250  0.1902 -0.1358  0.4303
 4228SOL    HW124146   0.004   0.985   9.289 -0.2125 -1.5720 -0.1809
 4228SOL    HW224147   4.675   1.054   9.163 -0.8155 -1.0540 -0.2112
 4229SOL     OW24148   1.088   0.491   9.714  0.2922 -0.0120  0.1975
 4229SOL    HW124149   1.096   0.538   9.798 -0.9002 -0.2683  0.4455
 4229SOL    HW224150   1.079   0.565   9.654  0.6412 -1.0417 -1.1019
 4230SOL     OW24151   2.990   3.811   3.605  0.5868  0.4463 -0.1270
 4230SOL    HW124152   2.990   3.739   3.667 -2.6084  0.0054 -0.6701
 4230SOL    HW224153   2.996   3.766   3.521  0.6858 -0.7353  0.5199
 4231SOL     OW24154   1.959   2.857   7.715  0.2168  0.3611  0.1374
 4231SOL    HW124155   1.959   2.952   7.708  0.6768  0.2453 -1.2324
 4231SOL    HW224156   1.988   2.838   7.626 -2.2560  0.2538 -0.6667
 4232SOL     OW24157   0.543   0.835   2.204  0.0732 -0.3222 -0.4836
 4232SOL    HW124158   0.454   0.854   2.235 -0.8987 -2.6937 -1.8332
 4232SOL    HW224159   0.555   0.749   2.244 -0.6292 -1.2718 -2.2995
 4233SOL     OW24160   3.977   0.142   1.957 -0.3865 -0.1866  0.1103
 4233SOL    HW124161   4.018   0.060   1.927  0.3994 -0.0438  0.7862
 4233SOL    HW224162   3.986   0.207   1.887  1.1009  0.6220  1.0520
 4234SOL     OW24163   2.372   0.060  15.076  0.0598  1.0813 -0.3658
 4234SOL    HW124164   2.337   0.148  15.085  0.7725  1.4680 -1.4893
 4234SOL    HW224165   2.320   0.029  15.002  2.5141  1.7434 -2.3283
 4235SOL     OW24166   1.213   3.780  14.027  0.0241 -0.2957  0.8830
 4235SOL    HW124167   1.241   3.708  13.970 -2.7763 -0.8056  0.1838
 4235SOL    HW224168   1.128   3.804  13.991 -0.9269  0.7072  3.7712
 4236SOL     OW24169   1.306   3.668  11.305  0.3673 -0.2104 -0.2762
 4236SOL    HW124170   1.338   3.613  11.233 -2.8938 -0.0422 -1.8579
 4236SOL    HW224171   1.251   3.729  11.256  0.5527 -1.4217 -1.9822
 4237SOL     OW24172   4.264   1.574  12.516 -0.0842  0.6502  0.6902
 4237SOL    HW124173   4.250   1.668  12.531 -1.1134  0.8353 -1.3999
 4237SOL    HW224174   4.336   1.552  12.575 -3.0270 -1.0088  3.6503
 4238SOL     OW24175   3.325   3.640  16.684 -0.2552 -0.2930  0.1936
 4238SOL    HW124176   3.233   3.655  16.664 -0.6362 -3.1488 -0.2311
 4238SOL    HW224177   3.338   3.549  16.655 -1.1876 -0.9829  1.9764
 4239SOL     OW24178   1.648   1.186   4.167  0.2459 -0.1327 -0.1123
 4239SOL    HW124179   1.732   1.157   4.131  0.3332  0.3164 -0.2663
 4239SOL    HW224180   1.610   1.248   4.104  1.3052  1.5706  0.9228
 4240SOL     OW24181   0.581   2.935   1.840  0.1169  0.1770 -0.1339
 4240SOL    HW124182   0.589   2.937   1.745 -1.3249 -0.1222 -0.2653
 4240SOL    HW224183   0.486   2.950   1.836  0.2491  1.1366  0.2653
 4241SOL     OW24184   0.988   3.245   0.687 -0.1520 -0.1513  0.1408
 4241SOL    HW124185   1.024   3.156   0.687 -4.8614 -2.0749  1.3260
 4241SOL    HW224186   1.010   3.273   0.776 -3.6045  0.8143  0.6888
 4242SOL     OW24187   0.427   0.094  12.503  0.4131 -0.6677 -0.1450
 4242SOL    HW124188   0.446   0.188  12.497  0.4212 -0.5103  2.3423
 4242SOL    HW224189   0.338   0.083  12.469  1.2102  0.6053 -2.6772
 4243SOL     OW24190   0.343   2.322  17.209  0.0789  0.0408  0.3568
 4243SOL    HW124191   0.262   2.322  17.158  1.9871  2.7026 -2.6320
 4243SOL    HW224192   0.365   2.229  17.211 -2.0017 -0.4294  2.5041
 4244SOL     OW24193   0.563   0.687   6.860  0.1998 -0.5264 -0.0723
 4244SOL    HW124194   0.591   0.596   6.858 -0.7801 -0.8107 -0.6503
 4244SOL    HW224195   0.569   0.700   6.766  1.3133  0.3710  0.1224
 4245SOL     OW24196   4.130   2.302   3.217 -0.1150 -0.1348 -0.1162
 4245SOL    HW124197   4.174   2.283   3.134  0.4696  1.3849 -0.1542
 4245SOL    HW224198   4.054   2.347   3.180 -0.9284 -0.1930  1.4810
 4246SOL     OW24199   3.290   1.018  13.804 -0.0367 -0.9443 -0.0293
 4246SOL    HW124200   3.309   0.935  13.848  0.0281 -0.7782  0.2530
 4246SOL    HW224201   3.244   0.983  13.727  1.1396 -0.9544 -0.7225
 4247SOL     OW24202   1.616   1.847   6.259  0.0668  0.3044 -0.3446
 4247SOL    HW124203   1.701   1.865   6.299  0.1824 -1.8597  0.4191
 4247SOL    HW224204   1.604   1.762   6.302  0.4649  0.8420  0.8010
 4248SOL     OW24205   2.097   2.523   2.188  0.6128  0.2297 -1.1299
 4248SOL    HW124206   2.173   2.538   2.244 -0.8958 -0.8259  1.1912
 4248SOL    HW224207   2.060   2.611   2.192  0.7337  0.2181  0.3554
 4249SOL     OW24208   4.525   2.200   5.643 -0.4183  0.4878  0.4581
 4249SOL    HW124209   4.459   2.252   5.596 -1.3564 -1.3889 -0.2804
 4249SOL    HW224210   4.606   2.238   5.609  0.2158  2.0337  3.7040
 4250SOL     OW24211   0.386   0.283   8.055 -0.0633 -0.2607  0.2000
 4250SOL    HW124212   0.405   0.315   7.967 -0.2068 -1.7601 -0.3644
 4250SOL    HW224213   0.434   0.200   8.055 -1.6809 -1.1902 -1.1570
 4251SOL     OW24214   2.505   2.443  13.307 -0.5054  0.3017  0.4062
 4251SOL    HW124215   2.531   2.356  13.338  0.0237  0.3068 -0.0280
 4251SOL    HW224216   2.420   2.425  13.266  0.5659 -1.8593 -0.8310
 4252SOL     OW24217   1.787   3.253   6.902  0.2079  0.1889  0.0716
 4252SOL    HW124218   1.792   3.322   6.968 -0.7847  0.4278 -0.0995
 4252SOL    HW224219   1.742   3.299   6.831 -0.7165 -0.1010  0.4698
 4253SOL     OW24220   0.356   0.665   4.067  0.1054  0.4835 -0.3610
 4253SOL    HW124221   0.409   0.588   4.089 -0.4327 -0.4128 -2.1768
 4253SOL    HW224222   0.396   0.687   3.983  0.1929 -2.8043 -1.1811
 4254SOL     OW24223   4.042   1.979  17.192  0.3630  0.0032 -0.0504
 4254SOL    HW124224   3.987   2.047  17.152  0.1856  0.0406  0.2558
 4254SOL    HW224225   3.982   1.906  17.211  1.1813 -0.3436  1.1840
 4255SOL     OW24226   4.447   0.328   4.590  0.1232  0.0135  0.4537
 4255SOL    HW124227   4.440   0.278   4.509  1.2035  1.2246 -0.3931
 4255SOL    HW224228   4.491   0.268   4.651  1.1611  1.3864  1.0479
 4256SOL     OW24229   4.106   4.469   6.020  0.1103  0.4893 -0.6989
 4256SOL    HW124230   4.037   4.530   6.044  0.3095  0.9057 -1.1813
 4256SOL    HW224231   4.056   4.393   5.990 -0.1424  0.6154 -0.5897
 4257SOL     OW24232   3.510   2.748   2.536  0.3749 -0.1833  0.3526
 4257SOL    HW124233   3.515   2.802   2.615 -2.2361  1.2761 -0.4704
 4257SOL    HW224234   3.439   2.798   2.496  0.2176  0.3024  1.2419
 4258SOL     OW24235   0.455   3.277  10.418 -0.3106 -0.2552 -0.1022
 4258SOL    HW124236   0.385   3.218  10.446  2.7311 -2.8645  2.0263
 4258SOL    HW224237   0.501   3.286  10.501 -0.1670 -0.1333 -0.1956
 4259SOL     OW24238   3.280   4.413  11.023 -0.6198 -0.2659  0.3955
 4259SOL    HW124239   3.372   4.419  11.049 -0.3400  1.0285 -0.9169
 4259SOL    HW224240   3.287   4.320  11.001  1.4256 -0.0258  0.0190
 4260SOL     OW24241   4.283   4.349   6.207  0.7672  0.0857  0.3874
 4260SOL    HW124242   4.221   4.322   6.275 -1.1408  1.1673 -0.9203
 4260SOL    HW224243   4.225   4.418   6.172  2.7271  0.0294 -2.9606
 4261SOL     OW24244   4.706   1.667   6.470  0.1452 -0.1788  0.0573
 4261SOL    HW124245   4.699   1.612   6.548  0.6872  1.7175  1.4422
 4261SOL    HW224246   4.620   1.655   6.430  0.1384  0.1397 -0.0245
 4262SOL     OW24247   3.053   3.579   1.511  0.1925  0.0147 -0.2435
 4262SOL    HW124248   3.034   3.606   1.421  0.6765 -1.0870 -0.6771
 4262SOL    HW224249   3.132   3.631   1.525 -0.1802  0.4446  0.2644
 4263SOL     OW24250   3.912   4.363   3.557 -0.2722 -0.0995 -0.1334
 4263SOL    HW124251   4.003   4.380   3.533 -0.8320 -0.1568 -2.3675
 4263SOL    HW224252   3.912   4.304   3.632  1.2040  0.3282  0.1996
 4264SOL     OW24253   0.860   2.686   7.891  0.3518  0.0414  0.1136
 4264SOL    HW124254   0.796   2.702   7.961 -0.0407  1.2780 -0.5309
 4264SOL    HW224255   0.808   2.638   7.827 -3.5631  2.3900  1.5098
 4265SOL     OW24256   4.264   2.714   3.646  0.4920  0.0636  0.7235
 4265SOL    HW124257   4.282   2.732   3.738  2.3420 -0.5178  0.4716
 4265SOL    HW224258   4.345   2.686   3.603  0.3896  1.9575 -0.7510
 4266SOL     OW24259   3.180   0.611   2.780 -0.3027  0.1312 -0.6477
 4266SOL    HW124260   3.128   0.551   2.727 -1.7839 -0.7909  1.8828
 4266SOL    HW224261   3.241   0.637   2.711  1.4794 -0.6456  0.6493
 4267SOL     OW24262   3.418   2.970   9.817  0.6861 -0.7220 -0.3955
 4267SOL    HW124263   3.486   3.037   9.810  0.1274  0.0021  1.1287
 4267SOL    HW224264   3.455   2.911   9.750  1.0226  2.2436 -2.8413
 4268SOL     OW24265   2.879   3.959  15.041 -0.0999 -0.1312  0.1299
 4268SOL    HW124266   2.843   3.873  15.020  0.2225 -0.3396  0.4251
 4268SOL    HW224267   2.835   3.978  15.124 -4.0220 -2.2239 -1.5250
 4269SOL     OW24268   2.816   1.105  15.463 -0.3036  0.4822 -0.1947
 4269SOL    HW124269   2.771   1.020  15.470 -0.9588  0.8720  0.3790
 4269SOL    HW224270   2.746   1.170  15.469  0.3615  0.9134  2.6799
 4270SOL     OW24271   2.506   2.230   8.493  0.7036 -0.0807  0.7250
 4270SOL    HW124272   2.469   2.317   8.510 -1.2313 -0.3849 -2.0220
 4270SOL    HW224273   2.434   2.176   8.524  0.1601  0.2414 -0.0052
 4271SOL     OW24274   0.056   3.464   5.773  0.0446  0.4351  0.0711
 4271SOL    HW124275   0.093   3.545   5.809  2.4977 -1.0945  1.0235
 4271SOL    HW224276   0.104   3.404   5.830 -0.3626 -0.7981 -0.8784
 4272SOL     OW24277   0.388   1.539   6.213  0.2883 -0.3446  0.3533
 4272SOL    HW124278   0.313   1.588   6.246  0.6700  0.5039 -0.0432
 4272SOL    HW224279   0.348   1.452   6.218  0.5189 -0.3632  2.0134
 4273SOL     OW24280   2.557   0.863   0.136  0.1874  0.1523 -0.2074
 4273SOL    HW124281   2.503   0.941   0.148 -1.6661 -1.1449 -0.1590
 4273SOL    HW224282   2.559   0.831   0.226 -1.0365  0.6661  0.0112
 4274SOL     OW24283   3.329   2.936   2.443  0.3808 -0.1962 -0.3481
 4274SOL    HW124284   3.309   2.900   2.356 -0.8340  0.8554 -0.5098
 4274SOL    HW224285   3.388   3.008   2.421  0.4647 -0.2517 -0.3037
 4275SOL     OW24286   4.108   3.677   9.552 -0.3038 -0.6152  0.0995
 4275SOL    HW124287   4.021   3.660   9.590 -1.1631 -1.4102 -2.2186
 4275SOL    HW224288   4.167   3.692   9.625  0.0668  1.8962 -0.7182
 4276SOL     OW24289   3.086   3.444   0.954  0.0751 -0.0304  0.1218
 4276SOL    HW124290   3.141   3.368   0.936  0.0656 -0.2969  1.2484
 4276SOL    HW224291   3.060   3.423   1.044  0.1989 -2.9692 -0.5270
 4277SOL     OW24292   4.461   3.703   4.212 -0.2200  0.3482  0.0430
 4277SOL    HW124293   4.545   3.680   4.250 -0.5482  2.0295  1.8518
 4277SOL    HW224294   4.470   3.717   4.118 -0.6654 -1.8675 -0.3193
 4278SOL     OW24295   1.179   2.160   4.751 -0.0706  0.1241 -0.1539
 4278SOL    HW124296   1.152   2.184   4.662  0.0483 -0.5851 -0.3884
 4278SOL    HW224297   1.102   2.180   4.804 -0.6689 -2.2864 -0.1058
 4279SOL     OW24298   0.062   4.719   3.823 -0.1588 -0.4070 -0.2360
 4279SOL    HW124299   0.082   4.630   3.854  0.8424 -1.1960 -3.0982
 4279SOL    HW224300   0.056   0.047   3.904 -0.9952 -0.0252 -0.5426
 4280SOL     OW24301   3.765   1.501   0.588  0.3360  0.6290 -0.1160
 4280SOL    HW124302   3.750   1.435   0.656  0.4190 -0.1850 -0.8846
 4280SOL    HW224303   3.804   1.446   0.520  0.0266  0.5478 -0.2265
 4281SOL     OW24304   1.265   4.057   4.414  0.2897 -0.4225  0.5581
 4281SOL    HW124305   1.205   4.042   4.487 -1.5877 -0.7012 -1.0460
 4281SOL    HW224306   1.315   3.976   4.409  1.5141  0.2317  1.9023
 4282SOL     OW24307   1.776   3.240  14.663 -0.6369  0.3429 -0.2568
 4282SOL    HW124308   1.760   3.170  14.599 -1.5149 -0.6999  1.0946
 4282SOL    HW224309   1.683   3.249  14.685 -0.4899 -3.4839  1.9394
 4283SOL     OW24310   3.707   2.842  16.839  0.6962  0.1926 -0.2537
 4283SOL    HW124311   3.685   2.880  16.924 -1.6850 -2.6838  0.3943
 4283SOL    HW224312   3.699   2.918  16.781 -0.3974 -0.4363 -0.9192
 4284SOL     OW24313   0.348   2.633  12.298 -0.1830  0.6286  0.1402
 4284SOL    HW124314   0.331   2.699  12.231 -0.0985  0.7720  0.2624
 4284SOL    HW224315   0.435   2.653  12.330  0.2563 -1.2186  0.0850
 4285SOL     OW24316   4.438   2.309   0.935 -0.6315  1.1754 -0.5121
 4285SOL    HW124317   4.390   2.252   0.875  0.3488 -1.0401  0.8061
 4285SOL    HW224318   4.497   2.255   0.990 -1.2797  1.6876  0.6886
 4286SOL     OW24319   1.388   4.168   8.344 -0.6612  0.6243  0.6187
 4286SOL    HW124320   1.431   4.105   8.402  1.7614  1.8715  0.1671
 4286SOL    HW224321   1.456   4.235   8.345 -1.3621  1.3456  0.0360
 4287SOL     OW24322   3.911   2.142   9.525 -0.6792  0.2956 -0.2050
 4287SOL    HW124323   3.960   2.071   9.484 -1.4087 -0.2117 -0.2004
 4287SOL    HW224324   3.866   2.170   9.446  0.3218  2.9362  0.1820
 4288SOL     OW24325   3.130   4.444   0.202  0.5933  0.3941  0.2615
 4288SOL    HW124326   3.164   4.411   0.119  0.3595 -0.2754  0.4253
 4288SOL    HW224327   3.114   4.536   0.184 -1.3508  0.3589  1.7821
 4289SOL     OW24328   2.577   4.713   8.517 -0.1003 -0.0181 -0.5670
 4289SOL    HW124329   2.553   0.007   8.608 -1.4371 -0.2717 -0.8790
 4289SOL    HW224330   2.673   4.721   8.517 -0.1220  0.2219 -0.4380
 4290SOL     OW24331   0.989   2.766   5.587 -0.0090  0.7875  0.1422
 4290SOL    HW124332   0.969   2.860   5.587 -1.2205  0.5290  1.0485
 4290SOL    HW224333   0.910   2.716   5.607  1.0339 -1.0511 -0.3635
 4291SOL     OW24334   3.495   2.840  17.574 -0.6561 -0.0216  0.3328
 4291SOL    HW124335   3.469   2.906  17.638 -1.2415 -0.8378  0.9280
 4291SOL    HW224336   3.571   2.804  17.619 -0.2486 -0.4937 -0.7356
 4292SOL     OW24337   2.289   2.997   8.559 -0.8813 -0.0280  0.1813
 4292SOL    HW124338   2.380   3.004   8.587 -0.8249  2.3129 -0.6076
 4292SOL    HW224339   2.295   3.019   8.466 -0.2123  1.2749  0.5416
 4293SOL     OW24340   0.616   2.224  15.022  0.4562 -0.0108  0.3919
 4293SOL    HW124341   0.682   2.218  14.953  0.6846 -0.4467  0.6441
 4293SOL    HW224342   0.566   2.144  15.011 -0.1656  0.8625 -3.1443
 4294SOL     OW24343   4.000   2.706   9.773 -0.0594  0.0518  0.0817
 4294SOL    HW124344   4.022   2.613   9.770  0.9919  0.3143 -0.2395
 4294SOL    HW224345   3.980   2.723   9.681  3.5546  0.8632 -0.5704
 4295SOL     OW24346   1.786   3.527   0.418 -0.1079  0.4310 -0.6667
 4295SOL    HW124347   1.790   3.474   0.338  0.1740  0.7010 -0.8338
 4295SOL    HW224348   1.864   3.496   0.464 -1.7277 -0.1175  1.7075
 4296SOL     OW24349   3.998   2.550   4.905  0.4825  0.6122  0.0953
 4296SOL    HW124350   3.963   2.607   4.974 -0.4373 -0.1248  0.2314
 4296SOL    HW224351   3.962   2.467   4.938 -1.7210  0.5240 -2.5186
 4297SOL     OW24352   2.629   3.101   6.062 -0.2440 -0.0549 -0.6353
 4297SOL    HW124353   2.685   3.104   5.985 -0.5619  1.5970 -0.7901
 4297SOL    HW224354   2.689   3.064   6.127  0.3844  0.8985 -0.6769
 4298SOL     OW24355   3.613   2.341  11.411 -0.4645 -0.3509 -0.0601
 4298SOL    HW124356   3.648   2.430  11.415 -2.0142  0.2100  0.9026
 4298SOL    HW224357   3.613   2.321  11.505  2.7377  0.3849  0.0912
 4299SOL     OW24358   0.610   1.297  11.010 -0.2274 -0.1041 -0.7344
 4299SOL    HW124359   0.566   1.248  11.079 -1.6086  1.2584 -0.6479
 4299SOL    HW224360   0.700   1.283  11.040 -0.7719  0.4646  1.1697
 4300SOL     OW24361   2.343   3.036   8.259 -0.5996  0.2689  0.2620
 4300SOL    HW124362   2.409   3.106   8.252  0.6693 -1.0479 -0.8060
 4300SOL    HW224363   2.273   3.073   8.206  0.3236 -0.3690 -1.3999
 4301SOL     OW24364   0.639   3.706   7.327 -0.2486 -0.1995 -0.6061
 4301SOL    HW124365   0.551   3.671   7.313 -0.8469  1.5501 -1.1727
 4301SOL    HW224366   0.667   3.722   7.237 -2.0602  1.3066 -0.8955
 4302SOL     OW24367   1.999   3.815   0.698 -0.5595  0.0846  0.8846
 4302SOL    HW124368   2.003   3.734   0.647  1.3214  1.1510 -0.6351
 4302SOL    HW224369   2.045   3.878   0.644 -1.3543 -0.2210 -0.1519
 4303SOL     OW24370   3.208   2.067   6.571 -0.5257  0.0825  0.7973
 4303SOL    HW124371   3.282   2.060   6.632  0.5396  0.4914 -0.4607
 4303SOL    HW224372   3.178   2.153   6.599  0.3530  1.3114 -2.1004
 4304SOL     OW24373   1.191   4.003  15.161 -0.0842  0.1000  0.4029
 4304SOL    HW124374   1.213   4.012  15.068  2.3859  2.2913  1.2068
 4304SOL    HW224375   1.223   4.085  15.198 -0.0867 -1.3867  3.7045
 4305SOL     OW24376   4.103   3.328  11.143  0.4692  0.1188 -0.6150
 4305SOL    HW124377   4.018   3.291  11.170  0.7218 -0.3456 -0.4613
 4305SOL    HW224378   4.111   3.384  11.220 -0.1822 -1.5354  0.6809
 4306SOL     OW24379   3.860   4.130  15.333 -0.4598  0.0244  0.4485
 4306SOL    HW124380   3.932   4.192  15.324 -0.0684 -0.6828 -1.4306
 4306SOL    HW224381   3.856   4.084  15.249  2.3084  0.4258  0.1041
 4307SOL     OW24382   0.135   2.522  10.260 -0.0833 -0.1887  0.2034
 4307SOL    HW124383   0.183   2.562  10.187 -0.2545 -2.2710 -1.0521
 4307SOL    HW224384   0.186   2.540  10.339  1.7241 -1.6715 -0.6393
 4308SOL     OW24385   2.166   2.588   8.657  0.2094  0.3075 -0.5105
 4308SOL    HW124386   2.139   2.599   8.749  2.1645 -1.8918  0.3156
 4308SOL    HW224387   2.117   2.655   8.609 -1.0521  0.6540  1.2491
 4309SOL     OW24388   3.097   2.503   3.787 -0.6096 -0.1132  0.2253
 4309SOL    HW124389   3.159   2.563   3.746 -2.1683  1.0472 -0.4611
 4309SOL    HW224390   3.142   2.475   3.867  2.8720  2.3447 -0.8922
 4310SOL     OW24391   3.959   4.113   1.622 -0.0611 -0.2791  0.1817
 4310SOL    HW124392   3.907   4.150   1.693 -1.5945 -1.8126 -0.1394
 4310SOL    HW224393   4.051   4.132   1.638  0.2255 -1.8034  0.3399
 4311SOL     OW24394   1.582   0.110  12.121  0.1816 -0.2984  0.0564
 4311SOL    HW124395   1.674   0.085  12.124  0.4570  0.8936  2.0593
 4311SOL    HW224396   1.568   0.200  12.151  1.6465 -0.0968  0.1330
 4312SOL     OW24397   2.806   3.231   1.018  0.1088 -0.2610  0.3045
 4312SOL    HW124398   2.886   3.279   1.038 -0.6801  1.1846  0.0283
 4312SOL    HW224399   2.812   3.233   0.923 -0.4218 -1.5350  0.2468
 4313SOL     OW24400   1.202   2.871   5.385  0.0585  0.1440  0.4954
 4313SOL    HW124401   1.225   2.846   5.474  0.8209  1.0527  0.5543
 4313SOL    HW224402   1.151   2.793   5.363  0.6155 -0.1144  0.1340
 4314SOL     OW24403   0.121   2.281  10.457  0.4392  0.3840 -0.1514
 4314SOL    HW124404   0.158   2.353  10.406  0.6371  1.7827  1.9977
 4314SOL    HW224405   0.194   2.243  10.506  1.3621  0.4775 -1.4459
 4315SOL     OW24406   4.531   2.735   5.884  0.2500  0.5593  0.5866
 4315SOL    HW124407   4.491   2.656   5.921 -0.0923  0.3039 -0.3396
 4315SOL    HW224408   4.449   2.775   5.857  0.0898 -0.1468  0.0228
 4316SOL     OW24409   0.872   2.840   6.854 -0.3822 -0.1951 -0.2502
 4316SOL    HW124410   0.783   2.805   6.861 -0.5413  0.7970  3.0884
 4316SOL    HW224411   0.864   2.885   6.938  0.1716 -1.7168  0.6159
 4317SOL     OW24412   3.598   3.223  17.051  0.0659  0.7786  0.1248
 4317SOL    HW124413   3.577   3.254  17.140 -1.9780  1.2622 -0.5164
 4317SOL    HW224414   3.690   3.208  17.070  0.5511 -0.9944 -3.7170
 4318SOL     OW24415   1.759   2.429   5.104 -0.0176  0.1414  0.1085
 4318SOL    HW124416   1.848   2.398   5.122  0.0085  0.3729  0.3828
 4318SOL    HW224417   1.709   2.348   5.097 -0.5381  0.2289  2.5717
 4319SOL     OW24418   4.020   2.201  16.205 -0.3418 -0.1766 -0.0256
 4319SOL    HW124419   4.068   2.199  16.122 -2.0127  2.3515 -1.0768
 4319SOL    HW224420   4.008   2.294  16.225 -0.3692 -0.8568  3.0411
 4320SOL     OW24421   2.718   1.336  15.138 -0.0950  0.1140  0.0730
 4320SOL    HW124422   2.811   1.352  15.120  0.0477  0.1043  0.7727
 4320SOL    HW224423   2.677   1.321  15.053 -0.2910  1.9718 -0.1762
 4321SOL     OW24424   1.640   0.133  14.897  0.1670 -0.1775  0.9168
 4321SOL    HW124425   1.594   0.167  14.819  0.1397  0.8335  1.3814
 4321SOL    HW224426   1.730   0.136  14.865  0.1285 -1.5805  0.6548
 4322SOL     OW24427   1.292   1.545   2.180  0.5744 -0.7427  0.4029
 4322SOL    HW124428   1.380   1.522   2.207  1.3539  1.2424 -0.3943
 4322SOL    HW224429   1.307   1.618   2.120  0.1822  0.0210  1.2198
 4323SOL     OW24430   2.076   1.519   2.539  0.3138  0.1802 -0.3680
 4323SOL    HW124431   2.079   1.611   2.512  2.5080  0.7175  1.6818
 4323SOL    HW224432   1.993   1.524   2.586 -0.1964 -0.3868 -1.2082
 4324SOL     OW24433   1.748   3.211   6.606  0.8222 -0.2399  0.4506
 4324SOL    HW124434   1.811   3.276   6.574 -0.2419  1.1074  1.1371
 4324SOL    HW224435   1.760   3.149   6.534 -0.2963  1.1613 -0.9514
 4325SOL     OW24436   2.360   1.367   2.947 -0.4792 -0.2940 -0.0474
 4325SOL    HW124437   2.295   1.435   2.964  1.2903  1.1694  0.8410
 4325SOL    HW224438   2.326   1.299   2.888  1.0319 -0.1068 -1.1464
 4326SOL     OW24439   3.866   1.312   0.424 -0.4669 -0.8435 -0.0721
 4326SOL    HW124440   3.908   1.272   0.348  2.2952 -1.6624  1.8955
 4326SOL    HW224441   3.863   1.243   0.490 -2.3163 -0.1873  0.5459
 4327SOL     OW24442   1.420   2.763  17.663  0.0251  0.2321 -0.0540
 4327SOL    HW124443   1.333   2.723  17.668  0.4188 -0.2772  2.7521
 4327SOL    HW224444   1.414   2.817  17.584  0.5423 -0.1465 -0.3492
 4328SOL     OW24445   1.631   1.634   0.723  0.0011 -0.3182 -0.3469
 4328SOL    HW124446   1.636   1.709   0.782  1.1645  0.2964 -1.2219
 4328SOL    HW224447   1.704   1.657   0.666  1.2609  1.5064  2.0325
 4329SOL     OW24448   0.922   3.485  15.352 -0.4150 -0.1453  0.1739
 4329SOL    HW124449   0.886   3.403  15.387  0.9644  0.0182  1.9917
 4329SOL    HW224450   0.891   3.481  15.262  2.2700 -0.9618 -0.7078
 4330SOL     OW24451   3.785   0.074   2.198 -0.6437 -0.4116  0.3090
 4330SOL    HW124452   3.824   0.110   2.118  1.6107 -0.7940  1.2267
 4330SOL    HW224453   3.814   4.704   2.187  1.3543  0.2689 -0.1175
 4331SOL     OW24454   2.001   4.551  13.694 -0.0431  0.0163  0.2829
 4331SOL    HW124455   1.951   4.609  13.636 -2.1271 -2.8159 -0.7922
 4331SOL    HW224456   2.063   4.613  13.732  0.2346  0.3332 -0.6832
 4332SOL     OW24457   0.951   1.025   3.669 -0.0979 -0.1547 -0.1118
 4332SOL    HW124458   0.982   0.943   3.707 -0.4151  0.4566  1.4725
 4332SOL    HW224459   0.971   1.016   3.575  0.8999 -1.4604  0.2300
 4333SOL     OW24460   2.753   0.629   5.783  0.2148  0.3038 -0.2618
 4333SOL    HW124461   2.800   0.654   5.863 -0.4467  0.8469 -0.0453
 4333SOL    HW224462   2.819   0.573   5.742  2.4895  1.9760  1.0517
 4334SOL     OW24463   4.003   0.343  11.115 -0.3011  0.5200 -0.4313
 4334SOL    HW124464   4.070   0.308  11.057  0.4545  1.0729  0.1204
 4334SOL    HW224465   3.958   0.399  11.053 -1.7917  0.9758  1.0420
 4335SOL     OW24466   0.953   1.286   7.000  0.1350 -0.3112 -0.3852
 4335SOL    HW124467   0.896   1.272   7.076  0.1980 -2.3647 -0.7077
 4335SOL    HW224468   0.984   1.375   7.015  2.3873 -1.4244  1.7367
 4336SOL     OW24469   1.572   0.513   7.125 -0.0759 -0.8487  0.3992
 4336SOL    HW124470   1.660   0.477   7.119  0.5242  0.7752 -0.2759
 4336SOL    HW224471   1.567   0.542   7.216  1.7282  0.6688  0.0035
 4337SOL     OW24472   3.719   3.869   1.922 -0.1644 -0.0962 -0.6400
 4337SOL    HW124473   3.731   3.794   1.862  3.2542  0.8811 -1.1258
 4337SOL    HW224474   3.811   3.882   1.943 -0.3283 -1.1833  0.7747
 4338SOL     OW24475   2.005   4.353  15.106  0.7384  0.2463  0.0814
 4338SOL    HW124476   1.989   4.272  15.155  2.9066 -0.1951  0.0713
 4338SOL    HW224477   2.026   4.309  15.024 -1.8842 -1.1603  0.1590
 4339SOL     OW24478   0.074   1.615   6.910  0.1899 -0.4426  0.0369
 4339SOL    HW124479   0.065   1.662   6.993 -0.4762 -2.4799  1.1261
 4339SOL    HW224480   0.167   1.591   6.908  0.1393 -0.7009  0.6514
 4340SOL     OW24481   1.467   2.650  11.878 -0.3918 -0.1406  0.3466
 4340SOL    HW124482   1.483   2.653  11.784  2.0219  0.2681  0.7659
 4340SOL    HW224483   1.534   2.591  11.913  0.0739 -1.0256 -2.1067
 4341SOL     OW24484   1.056   2.892  14.896 -0.1656  0.5635  0.0075
 4341SOL    HW124485   0.972   2.848  14.893 -0.4011  0.9813  0.4523
 4341SOL    HW224486   1.073   2.912  14.988  0.8798  2.0743 -0.5057
 4342SOL     OW24487   3.389   0.489   3.643 -0.1577 -0.0842  0.0258
 4342SOL    HW124488   3.428   0.568   3.681 -1.2971  0.1855  0.6424
 4342SOL    HW224489   3.309   0.516   3.599  0.6258 -0.5723 -1.7090
 4343SOL     OW24490   3.317   1.172   3.448 -0.5557 -0.0244 -0.0347
 4343SOL    HW124491   3.222   1.168   3.461 -0.6940 -0.3210 -1.1421
 4343SOL    HW224492   3.342   1.261   3.475 -1.1362  0.1429 -0.0363
 4344SOL     OW24493   3.860   0.433   2.140  0.2574  0.1873 -0.2914
 4344SOL    HW124494   3.774   0.473   2.135  0.1423 -0.1890 -1.3292
 4344SOL    HW224495   3.890   0.452   2.051 -1.1498  0.4108 -0.7118
 4345SOL     OW24496   1.987   2.942  13.195 -0.1672 -0.2105 -0.2808
 4345SOL    HW124497   2.050   3.014  13.193  0.4992 -0.7851 -0.0984
 4345SOL    HW224498   1.922   2.962  13.262 -1.1533  1.1178 -1.6391
 4346SOL     OW24499   4.121   2.723   5.293 -0.7645  0.0712 -0.2501
 4346SOL    HW124500   4.159   2.768   5.369 -0.1933  0.0083 -0.4925
 4346SOL    HW224501   4.036   2.700   5.330  0.5108  1.0302  3.2077
 4347SOL     OW24502   4.712   3.501   3.464 -0.1927  0.3710 -0.1373
 4347SOL    HW124503   4.689   3.452   3.385 -1.1726  1.0770 -0.2850
 4347SOL    HW224504   4.634   3.487   3.517 -1.0343 -0.9500 -1.7141
 4348SOL     OW24505   1.163   1.816   7.460 -0.3573  0.8172  0.5629
 4348SOL    HW124506   1.215   1.854   7.389 -1.1825 -0.6479 -0.8151
 4348SOL    HW224507   1.204   1.732   7.480  0.2884  0.3391 -2.6571
 4349SOL     OW24508   4.125   4.655  16.157 -0.2099 -0.1491 -0.6375
 4349SOL    HW124509   4.045   4.698  16.187 -1.3639 -1.4409 -1.9346
 4349SOL    HW224510   4.197   4.712  16.185 -0.6728 -0.6275  1.5808
 4350SOL     OW24511   0.792   0.984   5.946  0.2368 -0.5117 -0.3521
 4350SOL    HW124512   0.808   0.890   5.950  2.2742 -0.2806 -2.6327
 4350SOL    HW224513   0.698   0.982   5.967 -0.2411  0.1930 -2.3889
 4351SOL     OW24514   1.781   1.816   1.812  0.1566 -0.2332 -0.1787
 4351SOL    HW124515   1.764   1.795   1.904  0.8622  0.9783  0.2191
 4351SOL    HW224516   1.695   1.842   1.779  0.2834 -1.8295 -1.7701
 4352SOL     OW24517   2.427   1.665   2.593 -0.2453 -0.1941  0.5281
 4352SOL    HW124518   2.521   1.661   2.577 -0.1133 -0.1844  1.2911
 4352SOL    HW224519   2.421   1.746   2.643  4.0933 -0.2190  1.1328
 4353SOL     OW24520   2.372   3.310   8.412  0.1006 -0.0439  0.1573
 4353SOL    HW124521   2.408   3.332   8.498  2.3122 -0.6856 -0.6020
 4353SOL    HW224522   2.438   3.270   8.356  0.6726  0.6983  0.3011
 4354SOL     OW24523   4.625   2.775   4.742  0.2498  0.3924  0.0492
 4354SOL    HW124524   4.667   2.857   4.769 -0.0035  0.1351  1.2385
 4354SOL    HW224525   4.537   2.810   4.724  0.3841 -0.3015 -1.8860
 4355SOL     OW24526   2.403   3.888   1.627  0.2828  0.2768 -0.4014
 4355SOL    HW124527   2.469   3.856   1.689 -1.8795 -1.3115  1.0531
 4355SOL    HW224528   2.389   3.811   1.572  0.1786 -0.5606  0.8099
 4356SOL     OW24529   0.628   2.018   4.530  0.6074  0.1335 -0.4227
 4356SOL    HW124530   0.635   2.078   4.603  1.3528  0.7768 -1.0294
 4356SOL    HW224531   0.720   2.015   4.505  0.9641  0.7137  0.8524
 4357SOL     OW24532   1.236   4.565   6.096  0.0260  0.2427  0.5577
 4357SOL    HW124533   1.230   4.483   6.144 -0.5184 -0.5087 -0.8056
 4357SOL    HW224534   1.306   4.533   6.038 -0.4593  1.1480 -0.5203
 4358SOL     OW24535   4.315   1.080  11.197  0.3724 -0.4042  0.2717
 4358SOL    HW124536   4.308   1.085  11.293  2.5226  0.5906  0.3732
 4358SOL    HW224537   4.407   1.062  11.182  0.1213  0.2601 -2.1241
 4359SOL     OW24538   2.588   2.564   2.784  0.4542 -0.3297 -0.1739
 4359SOL    HW124539   2.593   2.648   2.740  3.6586 -0.1216  0.5993
 4359SOL    HW224540   2.678   2.549   2.813  0.6867  0.7563 -0.3343
 4360SOL     OW24541   0.175   1.086  12.411 -0.2979 -0.2578  0.3976
 4360SOL    HW124542   0.170   1.018  12.478  1.1103 -0.2633  0.5038
 4360SOL    HW224543   0.086   1.117  12.428  0.1403  0.9127  0.5717
 4361SOL     OW24544   0.971   4.485   4.671  0.5379 -0.2741  0.7927
 4361SOL    HW124545   1.045   4.542   4.693 -0.5209  0.8780  1.4470
 4361SOL    HW224546   0.934   4.451   4.753 -0.4916  0.4837  0.6473
 4362SOL     OW24547   4.662   3.487   7.261 -0.2497  0.4090 -0.1300
 4362SOL    HW124548   4.632   3.420   7.323 -1.4381  1.4556  0.4162
 4362SOL    HW224549   0.009   3.450   7.205 -0.9750 -0.9760 -0.0988
 4363SOL     OW24550   0.415   0.132   6.414  0.3560  0.2514  0.3622
 4363SOL    HW124551   0.488   0.176   6.458 -0.2312  3.1226 -1.5184
 4363SOL    HW224552   0.348   0.195   6.442 -1.7559 -1.8930  0.0827
 4364SOL     OW24553   0.990   1.630   2.664 -0.1088  0.5319  0.3019
 4364SOL    HW124554   1.048   1.568   2.620 -1.5183 -0.4046 -0.2324
 4364SOL    HW224555   1.058   1.680   2.709  0.7856  0.9677 -1.5318
 4365SOL     OW24556   2.415   3.894   7.172 -0.4306 -0.4060 -0.1625
 4365SOL    HW124557   2.507   3.869   7.162 -0.2526  0.8043 -1.5519
 4365SOL    HW224558   2.388   3.832   7.240 -0.3618  0.2134  0.4354
 4366SOL     OW24559   2.517   2.786   9.315 -0.3712 -0.1965 -0.2030
 4366SOL    HW124560   2.456   2.794   9.242 -1.9770  2.3646  1.4328
 4366SOL    HW224561   2.502   2.701   9.357  0.6814 -0.4838 -0.4009
 4367SOL     OW24562   3.612   2.917   7.107  0.4798  0.1284  0.8225
 4367SOL    HW124563   3.689   2.936   7.054  0.4700  0.4889  0.9373
 4367SOL    HW224564   3.570   3.002   7.125  1.4691  0.0648  3.4306
 4368SOL     OW24565   1.643   1.787   9.221  0.0743 -0.2608 -0.0130
 4368SOL    HW124566   1.548   1.797   9.229  0.2680 -0.9316  3.3072
 4368SOL    HW224567   1.645   1.692   9.208 -0.3541 -0.3466  0.5323
 4369SOL     OW24568   3.353   3.168  11.060 -0.3242  0.0615 -0.0170
 4369SOL    HW124569   3.328   3.080  11.033 -0.2481  0.3086 -0.8976
 4369SOL    HW224570   3.360   3.151  11.154  0.2442  0.2788 -0.0231
 4370SOL     OW24571   0.955   2.578  16.496 -0.0591  0.1379 -0.4848
 4370SOL    HW124572   0.933   2.567  16.588  0.7184 -0.9892 -0.4415
 4370SOL    HW224573   0.956   2.674  16.496  1.9231  0.1033  0.5338
 4371SOL     OW24574   2.623   1.004   8.819  0.0683 -0.0287 -0.3505
 4371SOL    HW124575   2.582   1.090   8.819  1.9415  0.8698 -1.4719
 4371SOL    HW224576   2.695   1.010   8.882 -0.0010  0.0929 -0.2846
 4372SOL     OW24577   3.854   3.674  16.367 -0.1272 -0.3146  0.1678
 4372SOL    HW124578   3.822   3.724  16.442 -1.0769  0.1196 -0.5268
 4372SOL    HW224579   3.845   3.730  16.290 -0.9117  0.6055  0.9344
 4373SOL     OW24580   3.613   4.038   5.410 -0.6258 -0.1285 -0.0005
 4373SOL    HW124581   3.610   3.958   5.462 -0.4341 -0.0347  0.1561
 4373SOL    HW224582   3.664   4.099   5.463  0.0661 -1.9215  1.4145
 4374SOL     OW24583   4.326   0.502   6.317  0.4838 -0.2152  0.7469
 4374SOL    HW124584   4.334   0.441   6.244 -2.6832 -0.2178  0.4169
 4374SOL    HW224585   4.320   0.578   6.259  3.3152  0.0391  0.7905
 4375SOL     OW24586   1.139   1.544  17.484 -0.3749 -0.1419  0.1024
 4375SOL    HW124587   1.062   1.554  17.539 -1.0416  1.1289 -1.0574
 4375SOL    HW224588   1.102   1.520  17.399  0.5977  0.9848 -0.6387
 4376SOL     OW24589   0.704   3.863   0.742 -0.3708 -0.1890 -0.5942
 4376SOL    HW124590   0.781   3.883   0.688 -0.4208 -2.1244 -1.3668
 4376SOL    HW224591   0.631   3.848   0.683 -1.5777  1.5420  0.4700
 4377SOL     OW24592   3.435   2.102   6.019 -0.7101  0.2732  0.1504
 4377SOL    HW124593   3.355   2.072   6.061 -0.0233  0.3146  1.4918
 4377SOL    HW224594   3.479   2.132   6.098 -1.7978 -0.5991  1.0810
 4378SOL     OW24595   0.688   1.410   7.906  0.0934 -0.1200 -0.1537
 4378SOL    HW124596   0.751   1.385   7.974  0.8288 -1.9719 -1.4990
 4378SOL    HW224597   0.715   1.501   7.893 -0.7583  0.4005  1.8509
 4379SOL     OW24598   2.773   4.048   5.454 -0.2206 -0.2304 -0.0581
 4379SOL    HW124599   2.689   4.053   5.410 -0.9725  4.3329  1.8644
 4379SOL    HW224600   2.761   4.085   5.541 -1.1015 -2.1001  0.6224
 4380SOL     OW24601   1.029   2.505   1.849 -0.8670  0.4724 -0.5244
 4380SOL    HW124602   1.005   2.485   1.759  0.7034 -1.0213 -0.6270
 4380SOL    HW224603   0.976   2.439   1.894  1.3472 -0.1117  1.2706
 4381SOL     OW24604   2.768   3.603   7.831 -0.4065 -0.6389 -0.1325
 4381SOL    HW124605   2.808   3.517   7.843 -1.2698 -0.7847  1.7049
 4381SOL    HW224606   2.821   3.633   7.758 -0.7638  0.5750  0.1116
 4382SOL     OW24607   3.346   1.250   5.322 -0.1143 -0.0441  0.1761
 4382SOL    HW124608   3.383   1.209   5.400  0.0301  0.4620  0.3731
 4382SOL    HW224609   3.326   1.173   5.269  0.8083 -1.0188  1.2408
 4383SOL     OW24610   2.340   4.473   2.308 -0.2925  0.1993 -0.0942
 4383SOL    HW124611   2.436   4.474   2.304 -0.3964 -2.0614 -3.6627
 4383SOL    HW224612   2.323   4.549   2.253 -0.8599  0.5950  0.6305
 4384SOL     OW24613   3.819   3.306   6.514 -0.5978 -0.2973 -0.3254
 4384SOL    HW124614   3.871   3.236   6.553  2.5617  2.5685  0.6128
 4384SOL    HW224615   3.730   3.271   6.514 -1.4615  1.8820 -2.3089
 4385SOL     OW24616   3.643   1.789   9.233  0.5383 -0.3513  0.0978
 4385SOL    HW124617   3.629   1.848   9.159  0.9634  0.8112  0.9422
 4385SOL    HW224618   3.737   1.777   9.237  0.6826  1.7089  2.8880
 4386SOL     OW24619   0.355   1.291   5.679  0.0338  0.6961  0.4842
 4386SOL    HW124620   0.420   1.228   5.649  0.0008 -0.2660  2.4138
 4386SOL    HW224621   0.392   1.373   5.647  0.7857  0.0940 -0.1988
 4387SOL     OW24622   4.412   4.276   2.076 -0.3685  0.0123  0.5173
 4387SOL    HW124623   4.369   4.356   2.046  0.4582 -0.5399 -2.0845
 4387SOL    HW224624   4.485   4.276   2.014  0.6230  1.0970  1.6697
 4388SOL     OW24625   1.439   1.802   8.265  0.2707  0.2820  0.2895
 4388SOL    HW124626   1.427   1.859   8.341  0.7747 -0.6967  1.1101
 4388SOL    HW224627   1.429   1.872   8.200 -0.7826  0.2072  0.3781
 4389SOL     OW24628   3.899   4.170   8.702  0.0649  0.1437  0.1341
 4389SOL    HW124629   3.965   4.188   8.770  0.8828  0.0367 -0.6315
 4389SOL    HW224630   3.877   4.079   8.721 -2.3955  0.9531  1.2053
 4390SOL     OW24631   2.423   2.234   0.591  0.2469 -0.3613 -0.1993
 4390SOL    HW124632   2.343   2.287   0.599  0.9851  1.0688 -2.1291
 4390SOL    HW224633   2.399   2.169   0.656 -1.2040 -2.0378 -2.4012
 4391SOL     OW24634   0.872   4.614   5.394  0.2295  0.2794 -0.1082
 4391SOL    HW124635   0.948   4.624   5.337 -1.8971  1.8872 -2.6709
 4391SOL    HW224636   0.850   4.521   5.396 -0.5309  0.4541 -0.1626
 4392SOL     OW24637   0.191   1.598  11.202  0.5718 -0.1861  0.5279
 4392SOL    HW124638   0.234   1.547  11.271  1.0002  0.3974  0.6940
 4392SOL    HW224639   0.161   1.682  11.238  0.2776 -0.5156  1.0483
 4393SOL     OW24640   1.402   2.244  11.660 -0.2126  0.2935 -0.0068
 4393SOL    HW124641   1.459   2.231  11.584 -0.7569  0.8664 -0.5177
 4393SOL    HW224642   1.326   2.194  11.632 -1.1815  0.6709  1.9372
 4394SOL     OW24643   4.187   0.732   4.608 -0.1970 -0.6820  0.1346
 4394SOL    HW124644   4.140   0.795   4.662 -0.3822 -0.3396 -0.4275
 4394SOL    HW224645   4.266   0.725   4.663 -0.7678 -1.5519  0.8529
 4395SOL     OW24646   0.982   3.970   6.951 -0.5373 -0.1134 -0.3047
 4395SOL    HW124647   0.940   3.996   7.033 -2.5965 -1.6752 -0.8485
 4395SOL    HW224648   0.992   4.056   6.910  1.0469  0.0594  0.4746
 4396SOL     OW24649   2.382   2.259  15.308 -0.0072 -0.2634  0.2082
 4396SOL    HW124650   2.362   2.305  15.390  1.1596  1.8425 -0.6773
 4396SOL    HW224651   2.298   2.260  15.262  0.2103 -0.7748 -0.1957
 4397SOL     OW24652   3.528   1.217  11.903  0.0621  0.3228 -0.1480
 4397SOL    HW124653   3.570   1.286  11.955  0.7002 -1.4490  1.7124
 4397SOL    HW224654   3.436   1.239  11.889  0.2777  1.0212 -0.4477
 4398SOL     OW24655   1.311   2.750   8.009  1.0518 -0.0132  0.0235
 4398SOL    HW124656   1.261   2.670   7.998 -1.0803  1.4545 -1.0092
 4398SOL    HW224657   1.249   2.817   7.979  0.6335 -0.3222  0.2064
 4399SOL     OW24658   0.520   3.798   0.542  0.3897 -0.5571 -0.3787
 4399SOL    HW124659   0.586   3.811   0.474 -0.1181  1.8316 -0.4267
 4399SOL    HW224660   0.448   3.764   0.490  0.3410 -1.8282  0.5371
 4400SOL     OW24661   4.328   2.806   0.838 -0.5671  0.2737 -0.5936
 4400SOL    HW124662   4.374   2.772   0.915 -1.1677  2.0851  0.5629
 4400SOL    HW224663   4.296   2.891   0.869  0.6031  0.8266 -0.8784
 4401SOL     OW24664   4.465   3.112   2.400 -0.0027  0.0987  0.2995
 4401SOL    HW124665   4.380   3.096   2.358  0.1702  0.6888 -0.2891
 4401SOL    HW224666   4.445   3.101   2.493 -1.9868  1.3504  0.0189
 4402SOL     OW24667   1.118   3.256   9.316  0.3282  0.2952  0.3092
 4402SOL    HW124668   1.200   3.298   9.290  2.2943 -2.5899  1.8128
 4402SOL    HW224669   1.132   3.179   9.261  1.2876  0.4490  0.3296
 4403SOL     OW24670   0.091   3.146   7.242  0.3086 -0.4442 -0.4662
 4403SOL    HW124671   0.013   3.097   7.269  1.1985 -1.1689  0.8149
 4403SOL    HW224672   0.138   3.085   7.186  1.6871 -0.8030  1.1014
 4404SOL     OW24673   3.055   1.484   7.397 -0.0317 -0.0993 -0.3108
 4404SOL    HW124674   3.021   1.397   7.416  1.4438 -0.3130  1.3364
 4404SOL    HW224675   3.078   1.473   7.305 -0.2761  0.1198 -0.3955
 4405SOL     OW24676   1.847   0.145   4.040  0.5168  0.1274  0.1408
 4405SOL    HW124677   1.873   0.225   3.995 -0.6114 -0.2536 -1.1948
 4405SOL    HW224678   1.757   0.140   4.009  1.0113 -0.2125 -1.2474
 4406SOL     OW24679   0.768   2.800   3.648 -0.3192  0.1889  0.2007
 4406SOL    HW124680   0.812   2.720   3.676 -0.9050  0.5249  2.0781
 4406SOL    HW224681   0.843   2.849   3.614 -0.2736 -0.1254 -0.1493
 4407SOL     OW24682   2.885   2.908  13.822 -0.3901  0.2740  0.3670
 4407SOL    HW124683   2.855   2.974  13.760  1.7831 -0.5053 -1.5637
 4407SOL    HW224684   2.840   2.919  13.905  0.4679 -1.2360  1.0378
 4408SOL     OW24685   3.335   4.454   5.243  0.2693 -0.6800 -0.1520
 4408SOL    HW124686   3.296   4.493   5.320  1.6530 -0.3662  0.3943
 4408SOL    HW224687   3.257   4.430   5.194  0.0460  3.0030 -1.6230
 4409SOL     OW24688   0.955   3.545   4.849 -0.0322 -0.2712 -0.6068
 4409SOL    HW124689   1.021   3.541   4.918 -3.6971 -0.5487  2.9081
 4409SOL    HW224690   0.988   3.491   4.777  0.6780  0.5939 -0.9260
 4410SOL     OW24691   3.690   4.287   3.139  0.3878 -0.2722 -0.2096
 4410SOL    HW124692   3.620   4.263   3.200 -0.0356  2.0083  0.2035
 4410SOL    HW224693   3.769   4.274   3.191 -0.0442  2.6226  1.1759
 4411SOL     OW24694   0.567   0.701  11.349  0.2226  0.2410  0.2815
 4411SOL    HW124695   0.477   0.703  11.383 -0.1547 -0.7727 -0.6760
 4411SOL    HW224696   0.573   0.606  11.348  1.0048  0.2994 -0.7322
 4412SOL     OW24697   0.497   2.728  11.906 -0.4572 -0.5158  0.3254
 4412SOL    HW124698   0.458   2.769  11.983 -1.9347  0.2929 -0.8553
 4412SOL    HW224699   0.434   2.656  11.913  1.3153 -1.9023  2.1789
 4413SOL     OW24700   3.451   3.868   0.836 -0.1319 -0.0293 -0.4044
 4413SOL    HW124701   3.377   3.815   0.806 -0.1269 -1.1570  1.5843
 4413SOL    HW224702   3.511   3.793   0.830 -1.5231 -1.2779  1.3272
 4414SOL     OW24703   1.989   2.768   3.106  0.0944  0.4512 -0.0394
 4414SOL    HW124704   1.943   2.747   3.024 -1.2910  2.0595  0.3357
 4414SOL    HW224705   2.042   2.688   3.114  0.5587  0.7574 -0.0424
 4415SOL     OW24706   2.441   4.357  11.474  0.6993 -0.1908  0.2753
 4415SOL    HW124707   2.529   4.387  11.450  1.1900 -0.8209  1.3247
 4415SOL    HW224708   2.383   4.407  11.416  0.3521  0.7714  1.4410
 4416SOL     OW24709   2.642   1.299   3.487  0.3107  0.3062 -0.4380
 4416SOL    HW124710   2.718   1.324   3.540 -1.0096  1.0853  1.0713
 4416SOL    HW224711   2.686   1.277   3.405 -0.4244  2.4602 -1.4099
 4417SOL     OW24712   2.689   2.901   2.821  0.8342  0.0277  0.0594
 4417SOL    HW124713   2.666   2.907   2.914  0.2973  1.0967 -0.1471
 4417SOL    HW224714   2.762   2.839   2.817 -0.3972 -1.2124 -2.5795
 4418SOL     OW24715   4.579   0.521  14.208 -0.0384  0.1247  0.1155
 4418SOL    HW124716   4.663   0.565  14.222 -0.7379  1.5821 -0.2967
 4418SOL    HW224717   4.606   0.462  14.137  2.2898  0.9243  0.3388
 4419SOL     OW24718   3.404   2.867   3.780 -0.2818  0.4093  0.2421
 4419SOL    HW124719   3.482   2.905   3.740 -0.1305 -1.5757 -1.2979
 4419SOL    HW224720   3.333   2.876   3.716  0.0942  2.1411  0.0694
 4420SOL     OW24721   3.068   0.582  13.728  0.5496 -0.0151 -0.0377
 4420SOL    HW124722   3.012   0.601  13.653  1.5203  1.2247 -0.4635
 4420SOL    HW224723   3.153   0.596  13.686  0.4247 -0.5056 -0.4462
 4421SOL     OW24724   1.548   3.642   6.674  0.9619 -0.3224  0.0519
 4421SOL    HW124725   1.593   3.644   6.758 -1.5334  0.3963  1.3755
 4421SOL    HW224726   1.512   3.553   6.675  2.9633 -1.1033  2.3882
 4422SOL     OW24727   4.025   1.689   3.750 -0.4841  0.6082 -0.0722
 4422SOL    HW124728   4.089   1.619   3.757 -2.1728 -1.2040 -3.1334
 4422SOL    HW224729   4.042   1.711   3.659 -3.1500 -0.4618 -0.8379
 4423SOL     OW24730   2.345   2.982   3.931 -0.2391 -0.4464  0.1643
 4423SOL    HW124731   2.267   3.036   3.928  0.5557  0.6912 -0.0670
 4423SOL    HW224732   2.327   2.918   4.000  1.3384 -0.4844  0.5481
 4424SOL     OW24733   2.317   0.307   8.390  0.6050  0.3095  0.4098
 4424SOL    HW124734   2.236   0.304   8.441  2.2293  1.6024  3.0413
 4424SOL    HW224735   2.360   0.250   8.453 -2.3941 -1.6146  0.7053
 4425SOL     OW24736   3.206   4.623   6.317 -0.1929 -0.2708  0.0364
 4425SOL    HW124737   3.255   4.692   6.273  1.6373 -0.9212  1.0647
 4425SOL    HW224738   3.275   4.559   6.335 -1.0102 -0.4841  2.3985
 4426SOL     OW24739   1.189   2.437   8.269  0.6935  0.0486  0.0872
 4426SOL    HW124740   1.128   2.474   8.205  0.5314  1.4273  1.0413
 4426SOL    HW224741   1.135   2.380   8.323 -0.8163  0.8567 -0.5604
 4427SOL     OW24742   3.763   0.204   0.570  0.0346  0.4206 -0.2557
 4427SOL    HW124743   3.783   0.296   0.554 -0.9514  0.7593  0.4494
 4427SOL    HW224744   3.813   0.199   0.652  0.0459  2.5099 -0.1536
 4428SOL     OW24745   0.597   2.886   9.398 -0.0093 -0.0809 -0.1148
 4428SOL    HW124746   0.614   2.925   9.484 -1.2888  0.1997  0.0158
 4428SOL    HW224747   0.598   2.969   9.351 -2.6240 -0.5590 -1.0171
 4429SOL     OW24748   2.466   3.378   8.665  0.1047  0.2880  0.2427
 4429SOL    HW124749   2.422   3.462   8.678 -0.7955 -0.4018  1.5910
 4429SOL    HW224750   2.447   3.328   8.744 -1.1061  0.9362  0.3567
 4430SOL     OW24751   3.338   2.480   3.109  0.3025  0.2093  0.0763
 4430SOL    HW124752   3.300   2.526   3.183  1.5474  2.3015 -0.5652
 4430SOL    HW224753   3.324   2.392   3.144 -0.1145  0.8112  1.4335
 4431SOL     OW24754   2.939   2.592   2.229 -0.4610  0.0576 -0.5129
 4431SOL    HW124755   3.031   2.568   2.213 -0.5627 -1.2252  0.8293
 4431SOL    HW224756   2.938   2.676   2.182  1.3379 -0.1480 -0.9469
 4432SOL     OW24757   1.595   1.720  15.237 -0.5128 -0.3187  0.2347
 4432SOL    HW124758   1.611   1.625  15.236 -0.4218 -0.2874 -0.8479
 4432SOL    HW224759   1.574   1.745  15.147  0.7290 -0.3340 -0.0573
 4433SOL     OW24760   3.136   4.608   1.683 -0.1122 -0.0988 -0.2729
 4433SOL    HW124761   3.162   4.698   1.699  1.6444 -0.7573  0.5789
 4433SOL    HW224762   3.109   4.610   1.591 -0.1569  2.9888 -0.1665
 4434SOL     OW24763   0.607   1.478  14.423  0.1303  0.0826  0.0717
 4434SOL    HW124764   0.623   1.538  14.350  0.0100 -0.2003 -0.1851
 4434SOL    HW224765   0.513   1.466  14.408 -0.3677  1.6440  1.8025
 4435SOL     OW24766   0.443   4.033   7.142  0.4089 -0.4098 -0.1627
 4435SOL    HW124767   0.515   3.980   7.108 -0.7173 -2.5654  0.8275
 4435SOL    HW224768   0.388   3.967   7.184 -1.2110  0.7239 -0.4936
 4436SOL     OW24769   1.895   4.261   3.668 -0.1432 -0.5207 -0.2913
 4436SOL    HW124770   1.811   4.240   3.627 -0.4175 -0.2268  0.1231
 4436SOL    HW224771   1.958   4.205   3.622 -0.5552 -1.1074 -0.1426
 4437SOL     OW24772   4.547   1.435  16.310 -0.0656 -0.4543 -0.2483
 4437SOL    HW124773   4.491   1.496  16.262  0.7372  0.4234 -0.0890
 4437SOL    HW224774   4.629   1.436  16.260  0.5730  0.1424  0.8278
 4438SOL     OW24775   4.260   3.527  17.186  0.0853  0.0684  0.6952
 4438SOL    HW124776   4.252   3.584  17.262 -1.3873 -2.8834  2.7489
 4438SOL    HW224777   4.310   3.577  17.121  0.1937  0.2406  0.9130
 4439SOL     OW24778   1.273   1.956   0.715  0.2563 -0.0153  0.8768
 4439SOL    HW124779   1.309   1.978   0.801  0.2619 -1.6926  1.2895
 4439SOL    HW224780   1.187   1.999   0.717 -0.1558 -0.7844 -0.4520
 4440SOL     OW24781   1.414   2.424   3.424 -0.1920 -0.1776  0.2422
 4440SOL    HW124782   1.456   2.398   3.506 -0.4400 -0.6141  0.2283
 4440SOL    HW224783   1.490   2.411   3.367  0.1534 -2.5543  1.2607
 4441SOL     OW24784   1.153   2.492   3.433  0.0552  0.6184 -0.5607
 4441SOL    HW124785   1.248   2.478   3.432 -0.0890 -0.4557  1.9584
 4441SOL    HW224786   1.133   2.454   3.347 -0.8077 -1.3211  0.5180
 4442SOL     OW24787   3.666   4.414   4.749  0.7211 -0.3678 -0.1802
 4442SOL    HW124788   3.580   4.384   4.722  0.9766 -0.6769 -0.6343
 4442SOL    HW224789   3.669   4.364   4.831  0.5960 -1.5542 -0.9116
 4443SOL     OW24790   2.596   4.335   2.608  0.6457 -1.0813  0.0532
 4443SOL    HW124791   2.605   4.363   2.517 -0.5792  0.0084  0.2611
 4443SOL    HW224792   2.613   4.241   2.608  1.3863 -0.9514 -0.0549
 4444SOL     OW24793   4.411   1.137   8.365 -0.8920 -0.2600 -0.0771
 4444SOL    HW124794   4.346   1.179   8.421 -2.0083 -1.6933 -0.2863
 4444SOL    HW224795   4.470   1.208   8.339  0.2095 -0.8503  0.8068
 4445SOL     OW24796   0.645   1.595   6.273  0.0855 -0.6249 -0.7996
 4445SOL    HW124797   0.642   1.538   6.350  1.6085  0.2714 -0.0771
 4445SOL    HW224798   0.552   1.580   6.253 -0.7935  2.1819  1.2208
 4446SOL     OW24799   1.293   3.528   8.552 -0.8524  0.2436  0.0905
 4446SOL    HW124800   1.251   3.520   8.467 -0.9843 -0.5554  0.2371
 4446SOL    HW224801   1.352   3.602   8.535 -0.4466 -0.3411 -1.0254
 4447SOL     OW24802   0.046   0.322   7.277 -0.3493  0.4040 -0.1790
 4447SOL    HW124803   0.127   0.371   7.289 -0.0390 -0.2412  0.3454
 4447SOL    HW224804   0.064   0.255   7.212 -1.0894 -1.5802  1.6652
 4448SOL     OW24805   1.766   2.842   4.762 -0.1564  0.0593  0.5371
 4448SOL    HW124806   1.738   2.933   4.760 -1.1099 -0.2526 -1.2379
 4448SOL    HW224807   1.779   2.828   4.856 -0.9401  2.2332  0.9580
 4449SOL     OW24808   3.404   1.709   9.315 -0.8963  0.0919 -0.2895
 4449SOL    HW124809   3.490   1.733   9.280  0.1700 -1.8506  1.0102
 4449SOL    HW224810   3.374   1.794   9.348  0.1032 -0.0173  0.8888
 4450SOL     OW24811   2.636   3.196   8.344 -0.0679 -0.0510  0.3204
 4450SOL    HW124812   2.651   3.259   8.415 -1.3183 -1.8765  2.1811
 4450SOL    HW224813   2.724   3.178   8.311  0.3329  1.3724  0.5878
 4451SOL     OW24814   3.073   2.462  11.096 -0.1083  0.3278 -0.2447
 4451SOL    HW124815   3.117   2.381  11.123 -2.7964 -0.5893  1.4719
 4451SOL    HW224816   3.120   2.532  11.141  1.7226 -1.7857  1.1372
 4452SOL     OW24817   1.463   3.967   5.177 -0.5189 -0.6407 -0.7546
 4452SOL    HW124818   1.529   3.899   5.186 -0.5600 -0.5645  0.1020
 4452SOL    HW224819   1.385   3.921   5.209 -0.8250  1.4041  1.4728
 4453SOL     OW24820   3.066   3.037   2.636  0.4616 -0.6191  0.0632
 4453SOL    HW124821   3.078   2.970   2.704  2.2426  1.8938  2.2360
 4453SOL    HW224822   3.011   3.099   2.685  0.5447  0.4547 -1.2086
 4454SOL     OW24823   3.143   4.525  15.310 -0.2019  0.2187  0.3244
 4454SOL    HW124824   3.160   4.601  15.365 -0.4199  0.6372 -0.1826
 4454SOL    HW224825   3.062   4.551  15.265  0.1830 -0.2219 -0.6402
 4455SOL     OW24826   0.884   3.893  14.721 -0.4260  0.1856  0.4319
 4455SOL    HW124827   0.893   3.799  14.705  1.3530  0.3959  0.1487
 4455SOL    HW224828   0.899   3.901  14.815 -0.0608  1.1402  0.2934
 4456SOL     OW24829   2.432   0.089  13.689  0.2658 -0.1095 -0.1340
 4456SOL    HW124830   2.403   0.180  13.682  0.2190 -0.3480 -2.9965
 4456SOL    HW224831   2.492   0.105  13.761 -0.4563 -0.6132  0.5769
 4457SOL     OW24832   0.773   2.239   3.467 -0.3542 -0.1777  0.2622
 4457SOL    HW124833   0.796   2.146   3.463  0.0368 -0.0462 -0.4937
 4457SOL    HW224834   0.697   2.240   3.408 -0.4731  2.2197  0.4609
 4458SOL     OW24835   0.990   0.248  12.624  0.0373 -0.0399  0.3732
 4458SOL    HW124836   1.000   0.191  12.700 -0.4720  0.3804  0.7577
 4458SOL    HW224837   0.921   0.197  12.580  0.3002  0.5626 -0.7223
 4459SOL     OW24838   3.739   3.190   4.358  0.0416 -0.0397 -0.0962
 4459SOL    HW124839   3.796   3.266   4.354  3.1101 -2.1868  2.8931
 4459SOL    HW224840   3.761   3.153   4.272  1.1165 -0.2420  0.2716
 4460SOL     OW24841   3.428   3.833   3.767 -0.0106  0.1760 -0.0650
 4460SOL    HW124842   3.475   3.751   3.782  0.3559  0.0870 -1.6835
 4460SOL    HW224843   3.381   3.839   3.850 -2.4082  0.8832 -1.4754
 4461SOL     OW24844   2.892   4.439   4.641 -0.0942 -0.2745  0.2406
 4461SOL    HW124845   2.830   4.407   4.707 -0.3692 -2.0938 -0.9295
 4461SOL    HW224846   2.854   4.524   4.616 -0.7938 -0.7333 -0.2377
 4462SOL     OW24847   2.393   2.426   8.635  0.0631 -0.3304  0.1384
 4462SOL    HW124848   2.324   2.491   8.644  1.1363  0.6704  1.2603
 4462SOL    HW224849   2.354   2.340   8.648  1.3168 -1.0528 -0.8445
 4463SOL     OW24850   1.624   3.595   8.514 -0.1038  0.5334 -0.3648
 4463SOL    HW124851   1.665   3.667   8.562  2.3479 -0.5454 -0.8586
 4463SOL    HW224852   1.574   3.654   8.457 -1.5968  1.7004  2.1286
 4464SOL     OW24853   1.840   2.991   0.779 -0.1398  0.0874 -0.0153
 4464SOL    HW124854   1.791   3.072   0.762 -0.2452 -0.0332 -0.2810
 4464SOL    HW224855   1.930   3.020   0.761  0.1576 -1.9080 -1.6385
 4465SOL     OW24856   0.150   1.126   2.478  0.6502 -0.8168 -0.0350
 4465SOL    HW124857   0.186   1.137   2.566  3.3590 -0.8948 -1.1420
 4465SOL    HW224858   0.060   1.158   2.478  0.7056 -0.6691 -1.0005
 4466SOL     OW24859   4.550   3.590  12.096  0.2546  0.3899  0.2790
 4466SOL    HW124860   4.571   3.501  12.124  1.1961  1.9121  4.4264
 4466SOL    HW224861   4.633   3.613  12.054 -1.0556  0.0476 -2.4955
 4467SOL     OW24862   1.049   1.826   8.801  0.0058 -0.4165 -0.1299
 4467SOL    HW124863   0.959   1.796   8.797 -0.9260  2.0188  2.2639
 4467SOL    HW224864   1.067   1.835   8.895  2.8079 -3.5591 -0.3552
 4468SOL     OW24865   4.349   0.018   5.813 -0.1715  0.1250  0.4150
 4468SOL    HW124866   4.420   0.054   5.759 -0.8623  2.3245  0.9716
 4468SOL    HW224867   4.337   4.651   5.778  1.3587  0.9643 -2.1948
 4469SOL     OW24868   4.171   2.105   2.128 -0.3352  0.3847  0.1670
 4469SOL    HW124869   4.122   2.165   2.184 -2.5327  0.4647 -1.8092
 4469SOL    HW224870   4.235   2.159   2.082  0.9155 -0.1416  1.2897
 4470SOL     OW24871   4.715   1.582   7.199 -0.0637  0.5636  0.2436
 4470SOL    HW124872   4.714   1.671   7.235  2.0499 -0.1514  2.0635
 4470SOL    HW224873   0.046   1.544   7.269  0.5709  0.7648 -0.1210
 4471SOL     OW24874   2.383   3.308   4.809 -0.2962 -0.1644  0.1468
 4471SOL    HW124875   2.472   3.323   4.777 -0.2870  0.0993  0.2982
 4471SOL    HW224876   2.378   3.213   4.799  1.7739 -0.1496 -1.0453
 4472SOL     OW24877   0.085   0.406   9.186 -0.4666 -0.4163 -0.6929
 4472SOL    HW124878   0.054   0.316   9.185  2.0438 -1.2847 -0.5496
 4472SOL    HW224879   0.150   0.405   9.256 -0.0220  0.3057 -1.0946
 4473SOL     OW24880   4.428   1.796   4.963  0.2279 -0.0560 -0.1483
 4473SOL    HW124881   4.350   1.806   5.018 -0.4558 -2.1471 -0.7251
 4473SOL    HW224882   4.396   1.823   4.876  1.9844  0.7695 -0.5340
 4474SOL     OW24883   1.738   2.771   7.879 -0.6245  0.7384 -0.3689
 4474SOL    HW124884   1.810   2.723   7.839 -0.8059 -1.9149  2.5003
 4474SOL    HW224885   1.783   2.854   7.898  0.0446  0.8102 -2.2854
 4475SOL     OW24886   3.341   4.500  12.289  0.0440  0.1807  0.2370
 4475SOL    HW124887   3.412   4.524  12.348  0.5614  0.5156 -0.5158
 4475SOL    HW224888   3.388   4.468  12.212 -0.3692  2.4800 -1.0050
 4476SOL     OW24889   4.145   3.764   6.409  0.1158  0.4027 -0.5864
 4476SOL    HW124890   4.079   3.753   6.340 -0.6314  0.0617  0.1863
 4476SOL    HW224891   4.194   3.827   6.356  1.1395 -0.9342 -1.2503
 4477SOL     OW24892   3.599   1.479   2.192  0.1182  0.4417 -0.2591
 4477SOL    HW124893   3.606   1.396   2.144 -2.2099  0.6882 -1.0487
 4477SOL    HW224894   3.505   1.495   2.182  0.3769  2.2748  0.3531
 4478SOL     OW24895   1.616   0.104  17.056 -0.2776 -0.0159  0.1725
 4478SOL    HW124896   1.696   0.056  17.076 -0.2479  0.5700  1.4289
 4478SOL    HW224897   1.659   0.190  17.051  2.3826 -1.1538  3.5885
 4479SOL     OW24898   2.727   0.862   5.265 -0.0639  0.1613 -0.3135
 4479SOL    HW124899   2.683   0.801   5.325  1.9991  1.1301  2.2095
 4479SOL    HW224900   2.815   0.853   5.301  0.1672 -0.1343 -0.9495
 4480SOL     OW24901   4.254   1.607   4.211  0.6805 -0.5502 -0.3795
 4480SOL    HW124902   4.178   1.652   4.247  1.5227 -0.6567  1.5758
 4480SOL    HW224903   4.325   1.668   4.190  0.1511 -0.9002 -3.1053
 4481SOL     OW24904   3.124   3.480   5.617 -0.6781  0.1491 -0.0353
 4481SOL    HW124905   3.058   3.483   5.548 -0.2369  0.2145 -0.4542
 4481SOL    HW224906   3.184   3.549   5.590  0.8802 -0.8553  0.8683
 4482SOL     OW24907   3.562   4.322  17.676  0.2973 -0.6296  0.1396
 4482SOL    HW124908   3.511   4.317  17.595 -0.2053 -0.1868  0.4315
 4482SOL    HW224909   3.565   4.414   0.013 -0.0996 -0.5625 -0.0726
 4483SOL     OW24910   2.123   3.281   8.880  0.1270  0.1364  0.1984
 4483SOL    HW124911   2.052   3.264   8.942  0.8510  0.0544  1.0034
 4483SOL    HW224912   2.071   3.316   8.808  0.5652  0.5106  0.0598
 4484SOL     OW24913   2.122   2.444   1.245 -0.6190 -0.4371 -0.4098
 4484SOL    HW124914   2.077   2.521   1.211 -0.3138 -1.0986 -2.3226
 4484SOL    HW224915   2.193   2.433   1.181 -0.5840  0.9878 -0.6130
 4485SOL     OW24916   1.597   0.061   4.652  0.2596  0.1177 -0.1305
 4485SOL    HW124917   1.595   4.688   4.666 -1.0655  0.5558  2.6550
 4485SOL    HW224918   1.618   0.083   4.743 -1.1414  0.7226  0.0465
 4486SOL     OW24919   2.623   3.392   6.085 -0.7346  0.2422 -0.2480
 4486SOL    HW124920   2.634   3.311   6.035 -2.7638  0.6451 -1.3490
 4486SOL    HW224921   2.535   3.418   6.057 -0.4204  1.2737 -0.2475
 4487SOL     OW24922   0.622   1.633  11.529  0.0878  0.3195 -0.1503
 4487SOL    HW124923   0.689   1.647  11.596  1.7561 -3.0856 -1.1126
 4487SOL    HW224924   0.550   1.610  11.588 -1.3699  2.0407 -1.2465
 4488SOL     OW24925   3.317   4.516  14.924  0.3053 -0.4116  0.0116
 4488SOL    HW124926   3.275   4.431  14.912  1.3645 -1.0781  0.9677
 4488SOL    HW224927   3.352   4.496  15.011  0.5633  0.5072  0.1108
 4489SOL     OW24928   2.562   0.497   6.273 -0.3974  0.4574 -0.3415
 4489SOL    HW124929   2.621   0.477   6.200 -0.9901  1.4501 -1.1013
 4489SOL    HW224930   2.569   0.414   6.320 -1.7763 -0.6773 -2.1091
 4490SOL     OW24931   4.313   1.926  14.313 -0.3279 -0.0142 -0.9885
 4490SOL    HW124932   4.317   1.912  14.407 -0.6575  3.6877 -0.4218
 4490SOL    HW224933   4.329   2.020  14.318 -0.2703  0.0311 -1.9353
 4491SOL     OW24934   1.674   1.951   8.713 -0.1145 -0.2257 -0.3665
 4491SOL    HW124935   1.716   1.885   8.769 -0.9007  0.1101  0.6169
 4491SOL    HW224936   1.632   1.884   8.659 -1.5581  1.2362 -1.0378
 4492SOL     OW24937   3.984   0.853   9.461  0.0058 -0.2730  0.1380
 4492SOL    HW124938   3.894   0.866   9.432 -0.3009  0.8902  1.6121
 4492SOL    HW224939   4.008   0.767   9.427  1.3628 -0.8981  2.6622
 4493SOL     OW24940   3.027   1.448   7.814  0.1321 -0.3172  0.0346
 4493SOL    HW124941   2.994   1.536   7.831  1.7454  0.8304 -2.6740
 4493SOL    HW224942   2.950   1.414   7.769 -0.3981 -1.5846  1.9361
 4494SOL     OW24943   4.713   0.443  10.479 -0.4265  0.2204 -0.4426
 4494SOL    HW124944   4.650   0.379  10.446  0.6060 -0.6626 -0.7038
 4494SOL    HW224945   4.671   0.458  10.563  1.1521 -1.1635  0.5957
 4495SOL     OW24946   0.209   0.638  14.703 -0.3911 -0.3001 -0.0955
 4495SOL    HW124947   0.150   0.691  14.649  1.0391  0.3570 -0.9863
 4495SOL    HW224948   0.283   0.635  14.643 -0.8774  0.4440 -0.7282
 4496SOL     OW24949   3.057   3.614  12.058  0.0911  0.4059 -0.3876
 4496SOL    HW124950   2.982   3.570  12.097  0.9906 -0.2948  0.5506
 4496SOL    HW224951   3.022   3.700  12.035  0.7554  0.4913 -1.0953
 4497SOL     OW24952   1.894   1.578  16.582  0.6134  0.0263 -0.0690
 4497SOL    HW124953   1.986   1.593  16.604  0.8913  0.0700 -1.2713
 4497SOL    HW224954   1.879   1.598  16.489 -2.2243  0.9611  0.5931
 4498SOL     OW24955   2.044   2.004   7.878 -0.1732  0.5049 -0.0303
 4498SOL    HW124956   2.023   1.998   7.971 -0.0112  0.4248  0.0018
 4498SOL    HW224957   2.113   2.069   7.891  0.5285 -1.1149  4.3903
 4499SOL     OW24958   3.532   0.151  14.065 -0.1371 -0.5965  0.5461
 4499SOL    HW124959   3.554   0.228  14.011 -2.0813 -0.6557 -0.3161
 4499SOL    HW224960   3.460   0.109  14.019  0.9882 -0.2528 -1.5643
 4500SOL     OW24961   2.525   4.537   0.616 -0.1548 -0.1533  0.5289
 4500SOL    HW124962   2.439   4.578   0.619  0.8963  2.2062 -2.4701
 4500SOL    HW224963   2.506   4.474   0.686 -0.4347  0.6876  1.2140
 4501SOL     OW24964   2.541   3.235   4.267 -0.2524 -0.5256 -0.5422
 4501SOL    HW124965   2.527   3.212   4.175  2.5193 -1.1761 -0.8001
 4501SOL    HW224966   2.519   3.328   4.266  1.5451 -0.1061 -2.3066
 4502SOL     OW24967   2.239   4.437   1.945  0.1453 -0.4087 -0.1274
 4502SOL    HW124968   2.234   4.398   1.858  1.9047 -0.7440 -0.0827
 4502SOL    HW224969   2.217   4.528   1.927 -1.0110 -1.1285 -2.3321
 4503SOL     OW24970   0.733   4.243  14.505 -0.4040  0.6182  0.3984
 4503SOL    HW124971   0.697   4.237  14.416 -0.4241 -1.0295  0.5010
 4503SOL    HW224972   0.789   4.320  14.499 -0.8126  0.9827  1.3669
 4504SOL     OW24973   1.185   0.248   8.250 -0.0367 -0.3662  0.2101
 4504SOL    HW124974   1.183   0.255   8.154  2.1117  0.9753  0.2636
 4504SOL    HW224975   1.266   0.294   8.274 -0.4298  0.7332 -0.5701
 4505SOL     OW24976   0.964   1.312   7.417 -0.1403  0.1804 -0.2741
 4505SOL    HW124977   1.038   1.272   7.461  0.1154  0.2360 -0.6547
 4505SOL    HW224978   1.006   1.393   7.389 -1.9919  1.4399  0.5960
 4506SOL     OW24979   1.240   4.014   1.758 -0.2301 -0.0395  0.2878
 4506SOL    HW124980   1.299   4.021   1.683  0.4379 -3.9725  0.4109
 4506SOL    HW224981   1.182   3.943   1.731  0.3055 -0.8823  1.3521
 4507SOL     OW24982   3.654   0.244   6.005 -0.4498  0.6165  0.4308
 4507SOL    HW124983   3.627   0.308   6.072 -1.3249  0.9101 -0.2131
 4507SOL    HW224984   3.660   0.167   6.062  2.6974  0.0278 -0.6643
 4508SOL     OW24985   1.519   3.313   3.144  0.0505 -0.4483 -0.6235
 4508SOL    HW124986   1.593   3.257   3.168 -0.8192 -1.8159 -1.0727
 4508SOL    HW224987   1.450   3.250   3.124  0.6219 -1.3188  0.1300
 4509SOL     OW24988   2.928   2.444   9.491  0.3674 -0.9331 -0.1848
 4509SOL    HW124989   2.954   2.360   9.528  0.9443 -0.7018 -0.0668
 4509SOL    HW224990   2.987   2.462   9.417  0.0478 -2.0097 -0.7004
 4510SOL     OW24991   1.613   2.110   8.487  0.4270 -0.5121 -0.1515
 4510SOL    HW124992   1.531   2.061   8.479  0.9643 -1.4752  0.2751
 4510SOL    HW224993   1.641   2.092   8.577  1.1669 -0.5664 -0.3903
 4511SOL     OW24994   3.613   1.403   4.833 -0.1108  0.7869 -0.5057
 4511SOL    HW124995   3.584   1.403   4.741  0.6073 -1.0476 -0.7493
 4511SOL    HW224996   3.667   1.324   4.838 -1.9967 -0.3843  1.4697
 4512SOL     OW24997   3.988   0.617  10.003  0.6679 -0.1582 -0.1871
 4512SOL    HW124998   4.009   0.664  10.084 -2.1724 -2.2896  1.7906
 4512SOL    HW224999   4.076   0.598   9.968  0.3208 -1.6146 -0.2889
 4513SOL     OW25000   3.585   1.963  17.366 -0.0095 -0.3020 -0.1508
 4513SOL    HW125001   3.588   1.930  17.276 -0.2279 -0.9679  0.0851
 4513SOL    HW225002   3.490   1.965  17.374  0.0598 -0.0175  0.5737
 4514SOL     OW25003   0.825   2.360   4.400 -0.3698 -0.0932 -0.2903
 4514SOL    HW125004   0.874   2.418   4.341 -0.5566 -1.6615 -2.0070
 4514SOL    HW225005   0.801   2.422   4.469  1.2093  1.0507 -0.7682
 4515SOL     OW25006   1.685   0.746   4.166 -0.3006 -0.2567 -0.2208
 4515SOL    HW125007   1.683   0.650   4.171 -2.2162 -0.2095 -0.1752
 4515SOL    HW225008   1.704   0.756   4.072 -2.6671  0.0364 -0.6510
 4516SOL     OW25009   1.453   0.244   2.762  0.0512 -0.1067 -0.5668
 4516SOL    HW125010   1.400   0.262   2.839  1.2956 -3.0541  0.9902
 4516SOL    HW225011   1.526   0.204   2.809 -0.2590 -1.2374 -1.0496
 4517SOL     OW25012   1.657   4.116   6.638  0.6383  0.0810 -0.0510
 4517SOL    HW125013   1.656   4.023   6.614  1.1651 -0.1432  0.7903
 4517SOL    HW225014   1.584   4.154   6.589  0.8942 -0.1968 -0.6526
 4518SOL     OW25015   1.667   0.074   8.446 -0.1758 -0.3122  0.1039
 4518SOL    HW125016   1.679   0.115   8.360  1.0542  0.4545  0.6555
 4518SOL    HW225017   1.571   0.076   8.447 -0.2513 -2.9225  0.1935
 4519SOL     OW25018   0.004   4.306   4.811  0.3157 -0.2082 -0.1829
 4519SOL    HW125019   4.643   4.304   4.763  0.8817 -0.8212 -1.1034
 4519SOL    HW225020   0.054   4.242   4.761 -1.2946 -0.6447 -1.2209
 4520SOL     OW25021   0.525   1.461   8.394 -0.5079 -0.0305 -0.2746
 4520SOL    HW125022   0.586   1.422   8.455 -1.1641 -0.6706 -0.0294
 4520SOL    HW225023   0.479   1.384   8.361 -1.1560  0.1108  0.3113
 4521SOL     OW25024   0.821   0.744  10.224  0.2576 -0.3565  0.0780
 4521SOL    HW125025   0.771   0.816  10.264  3.8178  1.8240  0.6625
 4521SOL    HW225026   0.829   0.694  10.305 -2.1832  0.0192  0.5589
 4522SOL     OW25027   1.695   1.712   2.043  0.4268 -0.3076 -0.0592
 4522SOL    HW125028   1.611   1.715   2.088 -0.2152 -0.2255 -1.2741
 4522SOL    HW225029   1.750   1.717   2.121 -0.8449  2.3537  0.6695
 4523SOL     OW25030   1.324   0.689  15.229  0.3446  0.2745  0.6744
 4523SOL    HW125031   1.305   0.708  15.137  2.2360  0.9439  0.4193
 4523SOL    HW225032   1.419   0.676  15.226  0.2644 -0.3258  0.8165
 4524SOL     OW25033   0.348   3.194   1.992  0.1487  0.1806  0.3945
 4524SOL    HW125034   0.440   3.202   2.019  0.5452  1.6844 -1.4391
 4524SOL    HW225035   0.320   3.181   2.083  0.2610  1.8258  0.6584
 4525SOL     OW25036   2.737   2.787  15.165  0.0205 -0.5783  0.3883
 4525SOL    HW125037   2.829   2.791  15.139  0.3802 -0.0490  1.7223
 4525SOL    HW225038   2.739   2.727  15.240 -0.6802 -1.1468 -0.0520
 4526SOL     OW25039   2.849   2.531  10.289  0.3312  0.7068  0.5138
 4526SOL    HW125040   2.930   2.542  10.340 -0.5319  0.2123  1.9868
 4526SOL    HW225041   2.831   2.615  10.246 -0.4998  1.0232  1.4921
 4527SOL     OW25042   3.311   1.843  11.233  0.6388 -0.3125  0.5496
 4527SOL    HW125043   3.219   1.858  11.257 -0.0332 -0.4481 -1.9528
 4527SOL    HW225044   3.313   1.750  11.254 -0.0694 -0.0820  1.6687
 4528SOL     OW25045   3.376   2.974   3.509  0.3472  0.4583  0.2236
 4528SOL    HW125046   3.389   3.052   3.455 -1.2188  1.3822  1.1605
 4528SOL    HW225047   3.457   2.929   3.486  0.3079  0.3462  0.3021
 4529SOL     OW25048   4.153   3.385   7.690  0.8279 -0.3122 -0.7423
 4529SOL    HW125049   4.096   3.308   7.680  0.1905 -0.1336  1.5309
 4529SOL    HW225050   4.131   3.409   7.780  1.2608  1.5166 -1.1173
 4530SOL     OW25051   0.748   4.173   2.491 -0.6463 -0.1901  0.1117
 4530SOL    HW125052   0.828   4.141   2.533 -0.4571  1.6457  1.1539
 4530SOL    HW225053   0.780   4.217   2.412 -0.6088 -2.0843 -0.9206
 4531SOL     OW25054   2.617   3.771  13.106 -0.0517  0.3147 -0.6513
 4531SOL    HW125055   2.654   3.857  13.087 -1.5000  1.9010  3.6296
 4531SOL    HW225056   2.529   3.793  13.139  0.3031  2.2252 -0.9992
 4532SOL     OW25057   1.076   0.972  16.281  0.6298  0.1491 -0.1311
 4532SOL    HW125058   1.149   0.997  16.224 -0.2878 -1.2970 -1.9631
 4532SOL    HW225059   1.036   1.054  16.311 -1.5927 -0.4865 -1.3017
 4533SOL     OW25060   3.453   4.170   1.629 -0.6194  0.3646  0.2298
 4533SOL    HW125061   3.512   4.172   1.704  0.0877 -0.4348 -0.3050
 4533SOL    HW225062   3.460   4.261   1.599  0.8132 -0.3678 -1.6592
 4534SOL     OW25063   3.890   2.384   3.807  0.1461  0.1867 -0.7215
 4534SOL    HW125064   3.973   2.408   3.767  0.2480 -0.2952 -0.8084
 4534SOL    HW225065   3.922   2.329   3.879  1.2825  0.8616 -0.7169
 4535SOL     OW25066   3.421   3.237   2.521 -0.0397 -0.7960  0.4299
 4535SOL    HW125067   3.452   3.327   2.524  0.4933 -0.8643 -3.1914
 4535SOL    HW225068   3.339   3.245   2.471 -0.9133  0.4299  2.0518
 4536SOL     OW25069   2.282   3.455   3.287 -0.0030 -0.0152  0.4573
 4536SOL    HW125070   2.353   3.399   3.319 -2.4385 -2.9655  0.6229
 4536SOL    HW225071   2.255   3.398   3.215 -0.8161 -0.7673  1.3636
 4537SOL     OW25072   3.988   1.292   8.121 -0.2110  0.3838 -0.4241
 4537SOL    HW125073   3.898   1.326   8.113  0.2356  0.3467 -5.4948
 4537SOL    HW225074   4.031   1.377   8.131  0.1126  0.3883 -1.9339
 4538SOL     OW25075   1.827   2.885  11.184 -0.0232  0.8586  0.0070
 4538SOL    HW125076   1.745   2.887  11.235 -0.2688  1.1408 -0.3996
 4538SOL    HW225077   1.873   2.962  11.217  0.5933  0.2306  0.5983
 4539SOL     OW25078   2.081   3.376   9.667  0.4125 -0.5516  0.4769
 4539SOL    HW125079   2.147   3.350   9.603  1.9535  2.4625  0.8215
 4539SOL    HW225080   2.103   3.338   9.753  1.1383  0.3591  0.6989
 4540SOL     OW25081   1.192   1.291   2.154 -0.3456 -0.2667 -0.3029
 4540SOL    HW125082   1.190   1.295   2.249  0.3531 -2.5707 -0.2019
 4540SOL    HW225083   1.207   1.385   2.146 -1.4018  0.1157  2.5938
 4541SOL     OW25084   4.122   1.702   9.890  0.0657 -0.1072  0.2787
 4541SOL    HW125085   4.192   1.659   9.940  0.7400 -0.7454 -1.2119
 4541SOL    HW225086   4.051   1.643   9.917  0.5878 -0.4272  0.9779
 4542SOL     OW25087   1.259   3.044   6.446 -0.3565 -0.2205  0.2294
 4542SOL    HW125088   1.199   2.987   6.495 -0.5188 -0.9060 -0.7698
 4542SOL    HW225089   1.321   2.985   6.404 -0.1256 -1.8383  2.8225
 4543SOL     OW25090   3.011   4.693   0.125  0.1111 -0.6565  0.2348
 4543SOL    HW125091   3.005   4.686   0.220 -2.9091 -1.1464  0.0347
 4543SOL    HW225092   2.920   4.674   0.101  0.3045 -0.1442 -0.9136
 4544SOL     OW25093   0.026   2.190  16.513 -0.1400 -0.1575  0.0175
 4544SOL    HW125094   4.681   2.180  16.581  0.6320 -1.0466  0.6403
 4544SOL    HW225095   4.714   2.140  16.438 -1.6609  0.4803  0.2676
 4545SOL     OW25096   0.731   3.386   3.119  0.1335 -0.4931  0.7025
 4545SOL    HW125097   0.748   3.447   3.047 -0.3988  0.2706  1.2198
 4545SOL    HW225098   0.697   3.314   3.066  0.3512 -0.5054  0.5813
 4546SOL     OW25099   2.609   4.011   4.727 -0.4387 -0.2726  0.3028
 4546SOL    HW125100   2.687   4.035   4.676 -1.1476  3.6206  1.0710
 4546SOL    HW225101   2.546   4.020   4.656 -2.3015 -0.4204  1.9453
 4547SOL     OW25102   3.012   2.338   1.079 -0.9023 -0.3146 -0.0783
 4547SOL    HW125103   3.093   2.292   1.056 -0.1694  1.0209 -0.1644
 4547SOL    HW225104   3.001   2.388   0.999  0.7380  1.6977  0.9505
 4548SOL     OW25105   0.473   3.385   3.964  0.9061  1.2051 -0.3310
 4548SOL    HW125106   0.431   3.329   4.028 -0.5227  0.5057 -1.8679
 4548SOL    HW225107   0.516   3.329   3.899  1.4633  0.3736  0.7704
 4549SOL     OW25108   0.805   4.476   3.776  0.3204  0.3642 -0.4202
 4549SOL    HW125109   0.838   4.538   3.711  1.0201  0.1035 -0.3159
 4549SOL    HW225110   0.878   4.414   3.772 -0.9321 -1.2177  1.1794
 4550SOL     OW25111   1.205   3.562   7.845 -0.0002  0.9335 -0.5085
 4550SOL    HW125112   1.179   3.650   7.815 -0.6252  0.9538  0.1092
 4550SOL    HW225113   1.174   3.510   7.770  1.1607 -1.6547  0.8243
 4551SOL     OW25114   1.365   0.907   5.603  0.0542 -0.1640 -0.4961
 4551SOL    HW125115   1.449   0.865   5.622 -0.3476 -0.3991  0.7905
 4551SOL    HW225116   1.378   0.924   5.510 -1.9932 -1.0266 -0.9208
 4552SOL     OW25117   4.637   1.802   0.014  0.3068  0.2970  0.0543
 4552SOL    HW125118   4.590   1.880   0.043  0.6015  1.1413 -1.7325
 4552SOL    HW225119   4.578   1.728   0.028  0.4864  0.0842 -0.3260
 4553SOL     OW25120   3.202   0.217   6.917  0.2556 -0.9166 -0.4400
 4553SOL    HW125121   3.248   0.175   6.990  1.3892  0.3327 -0.4350
 4553SOL    HW225122   3.277   0.230   6.858 -2.2843  0.7445 -3.2639
 4554SOL     OW25123   3.528   1.534   9.499  0.2567  0.1751 -0.3649
 4554SOL    HW125124   3.460   1.568   9.441 -0.6641 -2.6079 -0.9296
 4554SOL    HW225125   3.604   1.592   9.495  0.2856 -0.0296 -2.6510
 4555SOL     OW25126   0.577   1.943   2.063  0.0562  0.1743  0.5065
 4555SOL    HW125127   0.618   1.870   2.110  0.3140 -1.5947 -2.4710
 4555SOL    HW225128   0.484   1.928   2.077  0.1064 -0.3913  0.2409
 4556SOL     OW25129   2.940   3.249   7.107 -0.0376  0.1997  0.5130
 4556SOL    HW125130   2.962   3.187   7.177  0.8818 -1.4506 -1.2406
 4556SOL    HW225131   2.938   3.332   7.153  1.2540  0.4511  0.1282
 4557SOL     OW25132   1.617   0.530  16.279 -0.2451 -0.4136  0.0808
 4557SOL    HW125133   1.674   0.463  16.316  1.2458 -0.6844 -2.7881
 4557SOL    HW225134   1.676   0.604  16.267  0.3706 -1.0676 -0.8715
 4558SOL     OW25135   2.874   2.461   2.522  0.1421 -0.7245 -0.2358
 4558SOL    HW125136   2.947   2.407   2.490 -0.5132 -0.3220 -2.4527
 4558SOL    HW225137   2.808   2.393   2.531  0.3261 -0.9372 -0.4793
 4559SOL     OW25138   1.634   3.084   4.180  0.5169 -0.3833  0.5833
 4559SOL    HW125139   1.699   3.057   4.115  0.0156 -1.0179  0.3484
 4559SOL    HW225140   1.588   3.001   4.195 -0.2740  0.1280  0.9767
 4560SOL     OW25141   1.604   1.125   4.950  0.3245 -0.4893 -0.3417
 4560SOL    HW125142   1.648   1.149   5.032 -0.8791  0.2764  0.0910
 4560SOL    HW225143   1.521   1.173   4.953  1.6163  1.6280  1.4804
 4561SOL     OW25144   1.285   4.205  14.240  0.0737  0.0600 -0.1251
 4561SOL    HW125145   1.309   4.288  14.199 -1.1476 -0.5917 -2.1950
 4561SOL    HW225146   1.209   4.182  14.186  1.6156 -0.6476 -2.0277
 4562SOL     OW25147   0.733   0.791  13.186  0.5329  0.0742  0.1445
 4562SOL    HW125148   0.825   0.766  13.177  1.2869  2.2571  1.6906
 4562SOL    HW225149   0.737   0.887  13.188  2.0008 -0.0005  1.4963
 4563SOL     OW25150   4.502   0.621   6.731 -0.2752  0.3198  0.4800
 4563SOL    HW125151   4.545   0.566   6.665 -1.5551  1.1187 -1.0192
 4563SOL    HW225152   4.520   0.582   6.816  1.8546  1.9370  0.7628
 4564SOL     OW25153   0.488   0.790   7.572 -0.3814 -0.2414  0.5363
 4564SOL    HW125154   0.452   0.782   7.660 -0.7142  1.8860  0.5981
 4564SOL    HW225155   0.574   0.751   7.585 -1.2665 -1.2961  3.2002
 4565SOL     OW25156   2.963   3.132   0.193  0.0448  0.5342 -0.0923
 4565SOL    HW125157   2.960   3.203   0.258 -2.3018 -0.1650  0.5319
 4565SOL    HW225158   2.879   3.090   0.208  1.3131 -1.2691  1.8325
 4566SOL     OW25159   3.486   0.483   7.973  0.4796  0.1819  0.1678
 4566SOL    HW125160   3.578   0.456   7.969  0.0366 -1.2448 -0.5459
 4566SOL    HW225161   3.472   0.477   7.879 -0.5964 -0.4129  0.3629
 4567SOL     OW25162   3.798   0.854  17.095 -0.5337  0.3275 -0.1126
 4567SOL    HW125163   3.734   0.803  17.046 -1.4711  1.2001  0.2188
 4567SOL    HW225164   3.769   0.944  17.083  1.6640  1.4325  2.7154
 4568SOL     OW25165   1.310   1.367   7.428 -0.1951  0.3521 -0.3028
 4568SOL    HW125166   1.258   1.296   7.465  1.1661  0.8390  2.5244
 4568SOL    HW225167   1.395   1.324   7.420 -0.2808  0.1778 -0.2575
 4569SOL     OW25168   2.499   1.029   5.815 -0.6356  0.2744  0.8217
 4569SOL    HW125169   2.527   1.112   5.775 -0.5302  0.0715  0.4725
 4569SOL    HW225170   2.581   0.982   5.830 -1.1580 -1.5778 -2.1960
 4570SOL     OW25171   4.607   0.182   3.417 -0.0773  0.0323  0.0532
 4570SOL    HW125172   4.609   0.112   3.483 -1.9722  0.4234  0.5398
 4570SOL    HW225173   4.621   0.131   3.337 -0.2860 -2.0788  1.3631
 4571SOL     OW25174   4.164   3.479   4.209 -0.0913 -0.1060  0.3774
 4571SOL    HW125175   4.171   3.528   4.291 -2.7450  3.0617 -1.2762
 4571SOL    HW225176   4.190   3.389   4.229  0.5139  0.0362  0.2246
 4572SOL     OW25177   3.008   3.413   6.703 -0.4330  0.4619  0.4364
 4572SOL    HW125178   3.000   3.370   6.618 -0.5875 -0.7717  1.0727
 4572SOL    HW225179   3.041   3.340   6.756  0.7875  0.0971 -0.8308
 4573SOL     OW25180   1.697   3.806   2.482 -0.0849  0.0611 -0.0454
 4573SOL    HW125181   1.665   3.896   2.495 -1.0141 -0.3748  0.6979
 4573SOL    HW225182   1.621   3.760   2.447 -0.5176  0.4226  0.4155
 4574SOL     OW25183   4.670   1.211  14.803  0.0777 -0.0203  0.9167
 4574SOL    HW125184   0.007   1.247  14.736 -1.9976  0.1803 -0.7885
 4574SOL    HW225185   4.587   1.221  14.757  0.6164  0.3131  0.0157
 4575SOL     OW25186   2.726   4.452   2.818  0.3515 -0.1643  0.1692
 4575SOL    HW125187   2.792   4.516   2.789  0.6378  0.3468  1.8868
 4575SOL    HW225188   2.680   4.429   2.738 -0.7483  1.1837  0.4180
 4576SOL     OW25189   1.439   2.215   5.600 -0.2366 -0.0539  0.6128
 4576SOL    HW125190   1.397   2.270   5.666  0.5658  0.7404  0.4615
 4576SOL    HW225191   1.429   2.133   5.649  1.2627  0.4607  1.7807
 4577SOL     OW25192   4.144   0.722   5.244  0.0061 -0.3795 -0.2967
 4577SOL    HW125193   4.191   0.664   5.303 -0.2295  1.7295  1.9795
 4577SOL    HW225194   4.144   0.665   5.167  0.0075 -1.0073  0.1727
 4578SOL     OW25195   1.655   4.142   3.604  0.1441 -0.1900 -0.1297
 4578SOL    HW125196   1.578   4.144   3.661  0.1858  0.2774 -0.0875
 4578SOL    HW225197   1.663   4.049   3.584  1.1774  0.2016 -1.5878
 4579SOL     OW25198   4.142   4.570   2.710 -0.4545 -0.4383  0.6837
 4579SOL    HW125199   4.207   4.505   2.738  2.7360  1.9829 -1.0172
 4579SOL    HW225200   4.099   4.526   2.637  0.9463 -0.6053 -0.0492
 4580SOL     OW25201   3.619   0.032  17.396 -0.0346 -0.4202 -0.1718
 4580SOL    HW125202   3.551   0.095  17.374  0.9516  0.3805 -0.9554
 4580SOL    HW225203   3.588   0.012  17.484 -3.1955 -0.5829 -1.3277
 4581SOL     OW25204   2.092   3.991  16.953 -0.3016  0.0879  0.0439
 4581SOL    HW125205   2.084   3.899  16.930 -1.4866  0.1724  0.1169
 4581SOL    HW225206   2.147   4.028  16.884 -1.3226  1.4676 -0.0337
 4582SOL     OW25207   4.314   3.471   0.917 -0.2021  0.0769  0.6552
 4582SOL    HW125208   4.374   3.472   0.843 -1.5913 -1.4196 -0.4639
 4582SOL    HW225209   4.307   3.566   0.929  1.1036  0.0479  1.6404
 4583SOL     OW25210   3.631   4.429   6.044  0.1617 -0.6762 -0.0095
 4583SOL    HW125211   3.545   4.388   6.043 -0.4784  0.6917 -1.2123
 4583SOL    HW225212   3.684   4.350   6.034 -0.4401 -1.3023  1.8106
 4584SOL     OW25213   3.538   0.836  11.725 -0.4975 -0.3755  0.2901
 4584SOL    HW125214   3.459   0.872  11.763  0.5047 -0.4241  2.4189
 4584SOL    HW225215   3.551   0.900  11.654 -0.0207 -0.9859 -0.1734
 4585SOL     OW25216   3.470   2.034  13.222 -0.3577  0.2876  0.1278
 4585SOL    HW125217   3.404   1.994  13.166  1.2745 -1.2219 -0.7117
 4585SOL    HW225218   3.433   2.121  13.234 -1.0216  0.5111 -3.5490
 4586SOL     OW25219   3.070   3.841   2.549  0.5691 -0.1950 -0.3729
 4586SOL    HW125220   3.045   3.759   2.592  1.3304 -0.4743 -0.4643
 4586SOL    HW225221   3.044   3.899   2.621  0.6880 -0.7552  0.1270
 4587SOL     OW25222   0.923   1.163  14.543  0.0615  0.4248 -0.2268
 4587SOL    HW125223   1.017   1.178  14.554 -0.3836  1.1331  2.6814
 4587SOL    HW225224   0.917   1.070  14.519  0.7135  0.0385  1.0823
 4588SOL     OW25225   0.567   2.087   1.629  0.5941  1.1018 -0.1406
 4588SOL    HW125226   0.485   2.049   1.597  1.0446  1.0468 -1.2373
 4588SOL    HW225227   0.624   2.013   1.648 -3.0766 -1.2682  1.5865
 4589SOL     OW25228   3.895   1.279   7.571 -0.2430  0.3329  0.4167
 4589SOL    HW125229   3.880   1.322   7.655  0.9888  1.4009  0.0824
 4589SOL    HW225230   3.847   1.197   7.581 -1.9636  1.0645 -1.6158
 4590SOL     OW25231   3.462   0.653   6.457 -0.0705  0.0485 -0.0271
 4590SOL    HW125232   3.395   0.596   6.419  0.5634 -0.7861  0.1075
 4590SOL    HW225233   3.428   0.743   6.451  0.2006  0.2584  1.8585
 4591SOL     OW25234   0.011   1.401  14.525 -0.2825 -0.4024 -0.1557
 4591SOL    HW125235   4.674   1.395  14.601  0.4645  1.6416  0.5781
 4591SOL    HW225236   0.095   1.381  14.566  0.4189  0.8083 -1.0078
 4592SOL     OW25237   4.425   0.615   3.562  0.4602  0.4253  0.0646
 4592SOL    HW125238   4.465   0.687   3.513 -2.9859  1.8554 -0.6143
 4592SOL    HW225239   4.483   0.607   3.638 -0.1429 -0.2190  0.4515
 4593SOL     OW25240   3.454   1.403   6.832  0.3304 -0.6554 -0.1162
 4593SOL    HW125241   3.491   1.461   6.766 -0.4366 -0.6702 -0.5646
 4593SOL    HW225242   3.412   1.461   6.896 -1.0401  1.3216 -2.8204
 4594SOL     OW25243   2.606   2.356  12.241 -0.1675  0.2724  0.1238
 4594SOL    HW125244   2.567   2.413  12.307  0.5248  1.8647 -0.8397
 4594SOL    HW225245   2.659   2.294  12.290 -0.1654  0.8583  0.8575
 4595SOL     OW25246   3.930   1.956   5.639 -0.1038 -0.0781 -0.3301
 4595SOL    HW125247   3.889   1.970   5.725 -1.2830 -0.4111 -0.8437
 4595SOL    HW225248   3.866   2.001   5.584 -0.8109  0.0527  0.6017
 4596SOL     OW25249   2.608   1.853   8.597 -0.0662 -0.1461  0.4355
 4596SOL    HW125250   2.587   1.785   8.661 -0.0435 -1.8669 -1.3726
 4596SOL    HW225251   2.610   1.930   8.652 -1.2469 -1.3320  2.1163
 4597SOL     OW25252   4.227   0.968   6.680  0.5185 -0.2445  0.0178
 4597SOL    HW125253   4.240   0.999   6.770  0.6710 -1.6176  0.4715
 4597SOL    HW225254   4.298   1.012   6.634 -0.3388  1.3355  0.2168
 4598SOL     OW25255   3.509   3.463  10.908 -0.5176  0.1367 -0.1293
 4598SOL    HW125256   3.445   3.510  10.961 -0.6082  1.3001 -1.2982
 4598SOL    HW225257   3.593   3.471  10.954 -0.8994  0.0785  0.5749
 4599SOL     OW25258   3.695   3.788   7.694  0.1535 -0.0368 -0.4993
 4599SOL    HW125259   3.611   3.825   7.721 -0.6985 -1.3329 -1.3793
 4599SOL    HW225260   3.736   3.865   7.656 -2.0955  1.6778  0.4965
 4600SOL     OW25261   0.414   2.882   6.451  0.2430  0.3512  0.4304
 4600SOL    HW125262   0.491   2.881   6.393  0.9070 -0.0779  1.3178
 4600SOL    HW225263   0.380   2.796   6.427  2.8477 -1.2422  2.4383
 4601SOL     OW25264   2.973   3.626   2.730  0.5597 -0.1245  0.5957
 4601SOL    HW125265   3.006   3.557   2.787 -1.8333  0.6430  2.8981
 4601SOL    HW225266   2.994   3.692   2.796 -1.1783  1.3008 -0.2615
 4602SOL     OW25267   2.396   2.787   8.745 -0.1155 -0.0545 -0.3685
 4602SOL    HW125268   2.370   2.878   8.754  0.5831  0.0591  0.4761
 4602SOL    HW225269   2.311   2.745   8.731  0.3040 -0.8932 -0.4428
 4603SOL     OW25270   3.525   1.095   4.362 -0.1945  0.1886  0.2159
 4603SOL    HW125271   3.529   1.024   4.425 -1.7248 -0.3326 -0.2606
 4603SOL    HW225272   3.458   1.071   4.297 -0.2175 -1.6365  0.9214
 4604SOL     OW25273   3.634   3.126   9.716 -0.5745  0.0546 -0.2903
 4604SOL    HW125274   3.695   3.190   9.751 -0.6155 -1.1787  2.0787
 4604SOL    HW225275   3.699   3.061   9.690  1.7844  3.1953 -2.1868
 4605SOL     OW25276   4.131   3.715   2.822  0.2821 -0.1052 -0.4494
 4605SOL    HW125277   4.105   3.722   2.914 -0.4129  1.7437 -0.7902
 4605SOL    HW225278   4.138   3.619   2.815 -1.6786 -0.2103 -1.1064
 4606SOL     OW25279   0.222   1.017  11.276 -0.0231 -0.2519  0.2433
 4606SOL    HW125280   0.289   0.972  11.326 -0.0485 -0.2953  0.2386
 4606SOL    HW225281   0.146   1.009  11.333  0.7335  0.5125  1.3550
 4607SOL     OW25282   0.211   4.136   4.748 -0.0711 -0.0673  0.1600
 4607SOL    HW125283   0.235   4.146   4.656  2.3925  1.0394  0.9127
 4607SOL    HW225284   0.249   4.049   4.760  1.1943  0.2720 -1.4170
 4608SOL     OW25285   3.078   2.897  16.756  0.5246  0.2100  0.1306
 4608SOL    HW125286   3.126   2.855  16.828 -0.6615 -2.4239 -0.6109
 4608SOL    HW225287   3.138   2.961  16.718 -0.3762  1.5499  0.9865
 4609SOL     OW25288   3.926   4.153   8.008  0.2264 -0.2702 -0.0613
 4609SOL    HW125289   4.019   4.136   7.999  0.9674  3.3905  0.7481
 4609SOL    HW225290   3.917   4.186   8.097 -0.2774 -3.1880  0.9532
 4610SOL     OW25291   1.186   4.701   4.287 -0.3169 -0.0927  0.2705
 4610SOL    HW125292   1.103   4.713   4.332 -0.9157  0.2653 -0.9331
 4610SOL    HW225293   1.238   4.650   4.350 -0.2548  1.9663  1.8869
 4611SOL     OW25294   2.331   1.683   6.999 -0.3529  0.1929 -0.7455
 4611SOL    HW125295   2.322   1.636   7.081  3.0871  0.2684 -0.3130
 4611SOL    HW225296   2.424   1.673   6.979 -1.1905 -1.1957 -3.9519
 4612SOL     OW25297   2.018   1.794  11.850 -0.1886  0.5218 -0.1698
 4612SOL    HW125298   1.960   1.733  11.806 -0.7766  1.2082 -0.3428
 4612SOL    HW225299   2.007   1.871  11.794 -1.8304  0.2570 -0.1901
 4613SOL     OW25300   3.586   3.016   1.358 -0.4012 -0.7195 -0.1942
 4613SOL    HW125301   3.526   3.090   1.352 -0.6319 -0.7933  1.3055
 4613SOL    HW225302   3.553   2.976   1.438  0.2384 -1.5075 -0.3161
 4614SOL     OW25303   0.372   1.009  14.660 -0.4410 -0.6421  0.3541
 4614SOL    HW125304   0.303   0.956  14.700 -0.7302  0.3931  1.2267
 4614SOL    HW225305   0.409   1.057  14.734  0.6762 -0.1498 -0.5278
 4615SOL     OW25306   3.981   1.432   3.119  0.2432 -0.2751 -0.0955
 4615SOL    HW125307   3.956   1.519   3.150 -1.6983 -0.7422 -0.3240
 4615SOL    HW225308   4.014   1.449   3.031  1.4641 -1.1574  0.1865
 4616SOL     OW25309   1.330   2.599   0.703 -0.1406 -0.0593 -0.0410
 4616SOL    HW125310   1.315   2.505   0.692 -0.1018  0.0766 -1.1836
 4616SOL    HW225311   1.373   2.620   0.620  0.6479  0.2699  0.4495
 4617SOL     OW25312   0.021   3.827   1.437  0.3519  0.3169 -0.8238
 4617SOL    HW125313   0.102   3.814   1.389  0.8694 -0.8191  0.3523
 4617SOL    HW225314   0.035   3.795   1.526 -0.0252  3.0278  0.2181
 4618SOL     OW25315   3.659   3.619   0.221  0.2752  0.0361 -0.3536
 4618SOL    HW125316   3.610   3.563   0.280 -1.0005  0.5748 -0.8957
 4618SOL    HW225317   3.718   3.662   0.284 -1.9628 -0.8949  2.3389
 4619SOL     OW25318   4.475   1.510   2.406 -0.1278 -0.1416 -0.7586
 4619SOL    HW125319   4.459   1.599   2.375  2.1204  0.6206  0.2429
 4619SOL    HW225320   4.436   1.533   2.491 -0.6405 -2.1236 -0.4563
 4620SOL     OW25321   0.575   4.613  15.300  0.3927 -0.1421 -0.5495
 4620SOL    HW125322   0.605   4.619  15.210  2.0841 -1.9019 -0.1121
 4620SOL    HW225323   0.609   4.690  15.347 -1.4393  0.9216 -0.9929
 4621SOL     OW25324   4.459   1.440   6.488  0.1119  0.0019  0.0722
 4621SOL    HW125325   4.543   1.395   6.503  0.1689 -0.2793 -1.0712
 4621SOL    HW225326   4.400   1.372   6.456 -0.4073  0.0125  1.0133
 4622SOL     OW25327   1.701   2.798   1.471 -0.2461 -0.4025  0.0661
 4622SOL    HW125328   1.671   2.779   1.560 -0.9070  1.3542  0.2191
 4622SOL    HW225329   1.715   2.892   1.477  0.8886 -0.4483 -1.8918
 4623SOL     OW25330   0.020   0.905   3.061  0.2683 -0.3532  0.6095
 4623SOL    HW125331   0.090   0.953   3.015 -1.0653  0.2314 -0.7911
 4623SOL    HW225332   0.041   0.813   3.047 -0.5056 -0.7981  2.4388
 4624SOL     OW25333   1.510   0.074  13.659 -0.0814 -0.9733  0.9004
 4624SOL    HW125334   1.592   0.095  13.704  0.1771 -0.8298  0.3679
 4624SOL    HW225335   1.457   0.036  13.729 -0.7255  1.4061  1.7083
 4625SOL     OW25336   3.096   3.085   7.258  0.5892  0.3310  0.0144
 4625SOL    HW125337   3.142   3.136   7.325  0.2619  0.4271  0.1680
 4625SOL    HW225338   3.115   2.995   7.286 -1.8038 -0.0995  0.3256
 4626SOL     OW25339   2.122   2.412   4.900  0.6021  0.4049 -0.0559
 4626SOL    HW125340   2.039   2.449   4.871  1.2010  0.5099 -1.6609
 4626SOL    HW225341   2.107   2.406   4.994 -0.1056 -0.0842 -0.2012
 4627SOL     OW25342   0.830   1.834   0.583 -0.8747  0.3913  0.1416
 4627SOL    HW125343   0.779   1.761   0.548 -2.2031  1.3408  0.0974
 4627SOL    HW225344   0.855   1.796   0.668  1.0423  0.3665 -0.4233
 4628SOL     OW25345   4.653   1.944  10.156  0.0459 -0.4916 -0.0232
 4628SOL    HW125346   4.678   1.999  10.082  2.0008 -0.6667  0.5051
 4628SOL    HW225347   4.579   1.895  10.119  1.7279 -2.4789 -0.7740
 4629SOL     OW25348   1.975   1.704   5.662  0.0616  0.4011 -0.1035
 4629SOL    HW125349   1.914   1.705   5.588 -1.4460 -0.0464  1.1402
 4629SOL    HW225350   1.916   1.725   5.734 -0.4931 -4.0394  0.7207
 4630SOL     OW25351   2.172   4.527   5.700 -0.1401 -0.2806  1.2371
 4630SOL    HW125352   2.237   4.459   5.683  0.2203  0.8415 -1.8638
 4630SOL    HW225353   2.211   4.610   5.673 -2.2290 -0.4010 -2.1551
 4631SOL     OW25354   2.064   0.794   1.593 -0.4192  0.5905 -0.1806
 4631SOL    HW125355   2.144   0.833   1.627  0.0423  0.2663 -0.9042
 4631SOL    HW225356   2.051   0.836   1.508  0.1235  1.0137 -0.0531
 4632SOL     OW25357   2.251   2.130   3.292 -0.3501  0.6193 -0.4352
 4632SOL    HW125358   2.182   2.190   3.321 -2.1313 -2.0362  0.7409
 4632SOL    HW225359   2.322   2.190   3.266  0.8532 -0.7374 -0.2965
 4633SOL     OW25360   2.471   2.654  13.520 -0.2016 -0.2408  0.0737
 4633SOL    HW125361   2.474   2.588  13.451 -0.2644  0.0833 -0.2375
 4633SOL    HW225362   2.521   2.723  13.475  0.6854 -0.4139  0.7806
 4634SOL     OW25363   3.956   0.922   6.651 -0.5649  0.1059  0.0832
 4634SOL    HW125364   3.942   1.000   6.597 -1.2915 -0.0147  0.0994
 4634SOL    HW225365   4.033   0.945   6.703 -0.7489  1.4251 -0.2374
 4635SOL     OW25366   1.672   0.609  15.851  0.1079 -0.5834 -0.2103
 4635SOL    HW125367   1.702   0.655  15.929 -0.6654  1.7575 -1.2822
 4635SOL    HW225368   1.745   0.630  15.792 -0.2376 -1.3987 -0.9228
 4636SOL     OW25369   2.579   1.363  16.451  0.0186 -0.2055 -0.4506
 4636SOL    HW125370   2.572   1.361  16.356  0.2472  0.8512 -0.4889
 4636SOL    HW225371   2.664   1.333  16.484 -0.0066 -0.4316 -0.5939
 4637SOL     OW25372   0.839   0.701   1.822  0.1895  0.3535  0.4897
 4637SOL    HW125373   0.756   0.702   1.773  0.2643 -2.6390  0.3310
 4637SOL    HW225374   0.835   0.762   1.896  1.6260 -0.4563  1.2167
 4638SOL     OW25375   2.613   0.962   1.191 -0.0884  0.3960  0.4541
 4638SOL    HW125376   2.523   0.937   1.213 -0.7750  1.9704 -0.5487
 4638SOL    HW225377   2.671   0.887   1.202 -2.6947 -1.7756 -0.3644
 4639SOL     OW25378   1.524   2.465  16.007 -0.2045 -0.4935  0.0398
 4639SOL    HW125379   1.568   2.410  16.071 -0.9498 -0.4849  0.5574
 4639SOL    HW225380   1.520   2.411  15.929  1.3578  0.0227 -0.4042
 4640SOL     OW25381   2.814   2.801   9.190 -0.6385  0.5669  0.1001
 4640SOL    HW125382   2.817   2.886   9.145  0.1597  0.7348  0.4608
 4640SOL    HW225383   2.757   2.807   9.266 -3.0973 -0.0435 -1.6891
 4641SOL     OW25384   4.028   0.478   8.592  0.8550 -0.1736  0.5331
 4641SOL    HW125385   3.976   0.444   8.519  0.1920  2.0251 -0.0083
 4641SOL    HW225386   3.960   0.494   8.657  0.7772 -0.1016  0.4325
 4642SOL     OW25387   3.280   1.625   2.998  0.2227  0.3885 -0.4583
 4642SOL    HW125388   3.299   1.585   3.083  0.8573 -2.0502 -1.7358
 4642SOL    HW225389   3.338   1.701   3.002 -0.3961  0.8500 -0.2112
 4643SOL     OW25390   1.729   1.942  12.405 -0.2666 -0.3195  0.5844
 4643SOL    HW125391   1.810   1.931  12.455  0.1389  2.6004  0.5448
 4643SOL    HW225392   1.692   2.018  12.450 -0.1667 -0.0770  0.2499
 4644SOL     OW25393   2.571   3.570   2.480  0.3952  0.4779  0.0069
 4644SOL    HW125394   2.566   3.666   2.481 -0.0284  0.3972  3.9719
 4644SOL    HW225395   2.501   3.543   2.421 -1.3406  0.9663  1.8638
 4645SOL     OW25396   4.045   0.442  14.722  0.2185  0.8268  0.4249
 4645SOL    HW125397   4.096   0.362  14.704  0.1045  0.0657  3.4652
 4645SOL    HW225398   3.976   0.417  14.783 -1.8559 -0.1231 -2.2628
 4646SOL     OW25399   3.857   0.607  15.505  0.3229  0.0953  0.2060
 4646SOL    HW125400   3.906   0.535  15.465 -0.2921 -0.5911  0.6862
 4646SOL    HW225401   3.769   0.578  15.478 -1.1310  1.2202  3.7577
 4647SOL     OW25402   0.212   3.848   4.787  0.1681 -0.1660  0.1836
 4647SOL    HW125403   0.148   3.886   4.727  1.6263 -0.5182 -1.6087
 4647SOL    HW225404   0.239   3.765   4.747  2.1379 -0.6446  2.4961
 4648SOL     OW25405   2.454   2.363   6.075  0.5478 -0.0012 -0.1333
 4648SOL    HW125406   2.366   2.353   6.039  0.9356  1.0071 -1.3756
 4648SOL    HW225407   2.499   2.414   6.008 -2.3836  1.5878 -0.8695
 4649SOL     OW25408   0.484   3.958  17.521 -0.6552  0.1418  1.0108
 4649SOL    HW125409   0.537   3.924  17.449 -1.8597 -0.2662  0.3006
 4649SOL    HW225410   0.437   4.030  17.480  0.4098 -0.4097 -1.1509
 4650SOL     OW25411   2.287   2.914  11.258 -0.1901 -0.2804 -0.3777
 4650SOL    HW125412   2.268   2.947  11.171 -3.5849 -0.2848  0.3632
 4650SOL    HW225413   2.208   2.864  11.281  0.6404 -1.1582  0.5952
 4651SOL     OW25414   4.088   4.176  11.550  0.3897 -0.4313 -0.1976
 4651SOL    HW125415   4.002   4.218  11.551 -0.2782 -1.8059 -1.3293
 4651SOL    HW225416   4.136   4.246  11.505  1.2921 -0.4738  0.6704
 4652SOL     OW25417   1.065   0.656   6.540  0.3104  0.1217 -0.0342
 4652SOL    HW125418   1.135   0.639   6.602 -0.0457  0.6589  0.5196
 4652SOL    HW225419   1.101   0.717   6.475  0.1091  0.6050  0.3094
 4653SOL     OW25420   4.501   4.473   8.378 -0.8187 -0.2463 -0.5530
 4653SOL    HW125421   4.429   4.416   8.405  0.8886 -2.8322 -1.3932
 4653SOL    HW225422   4.573   4.435   8.431 -0.5293  0.9333 -0.1093
 4654SOL     OW25423   3.538   0.771   3.681  0.5092  0.1614  0.0504
 4654SOL    HW125424   3.561   0.786   3.772 -0.7895  0.8662  0.2681
 4654SOL    HW225425   3.508   0.859   3.660 -0.4232 -0.5368 -1.5991
 4655SOL     OW25426   1.400   0.490   8.570  0.4830 -0.0519  0.5069
 4655SOL    HW125427   1.323   0.443   8.601 -1.3203  1.3648 -1.7859
 4655SOL    HW225428   1.367   0.580   8.562 -0.6869 -0.3623  1.7420
 4656SOL     OW25429   3.897   4.312  13.487 -0.2336  0.1830 -0.3980
 4656SOL    HW125430   3.840   4.333  13.413 -1.3566  0.2320  0.4799
 4656SOL    HW225431   3.924   4.230  13.445 -1.0756  1.9676 -4.4679
 4657SOL     OW25432   4.079   2.146   3.618 -0.1590  0.1165 -0.5157
 4657SOL    HW125433   4.069   2.230   3.664 -0.0967 -0.9094  1.3630
 4657SOL    HW225434   4.174   2.151   3.619 -0.1847 -0.3391  2.7932
 4658SOL     OW25435   0.799   0.874   7.267  0.3531 -0.1170  0.2644
 4658SOL    HW125436   0.708   0.859   7.245  0.0044 -0.5526  2.0314
 4658SOL    HW225437   0.810   0.967   7.247  1.5331 -0.0612  1.1401
 4659SOL     OW25438   0.429   4.639   3.763  0.2015  0.0355 -0.4545
 4659SOL    HW125439   0.508   4.647   3.710 -0.2606  1.8894 -0.8485
 4659SOL    HW225440   0.412   0.008   3.791  0.7936 -0.2805  0.9365
 4660SOL     OW25441   1.212   3.545   1.188  1.1105 -0.3664  0.5436
 4660SOL    HW125442   1.128   3.527   1.145  1.1133  0.5539  0.1395
 4660SOL    HW225443   1.247   3.608   1.125  0.1873  1.5549  1.9539
 4661SOL     OW25444   1.063   0.712   5.171 -0.5285 -0.1152 -0.0490
 4661SOL    HW125445   1.015   0.655   5.111 -0.0159 -0.8803  0.2571
 4661SOL    HW225446   0.997   0.764   5.216 -2.2517 -0.9217 -1.6597
 4662SOL     OW25447   3.582   4.316   2.867  0.1592 -0.3613  0.4092
 4662SOL    HW125448   3.573   4.316   2.962  0.3771  2.9948  0.4303
 4662SOL    HW225449   3.616   4.405   2.855  2.0033 -1.3972 -2.3004
 4663SOL     OW25450   2.732   4.300  10.637  0.7074 -0.1075  0.3677
 4663SOL    HW125451   2.670   4.274  10.570  2.5443  2.2678 -2.2629
 4663SOL    HW225452   2.799   4.236  10.613  1.3198  1.1006 -1.1296
 4664SOL     OW25453   1.154   4.666   2.096  0.0336 -0.0341 -0.1602
 4664SOL    HW125454   1.152   4.596   2.161  3.0051 -0.5530 -0.6312
 4664SOL    HW225455   1.114   4.621   2.022 -2.8171  1.7757  0.2827
 4665SOL     OW25456   3.247   1.694   1.975  0.0207  0.3500 -0.5277
 4665SOL    HW125457   3.213   1.657   1.893 -0.7892 -1.3665  0.6053
 4665SOL    HW225458   3.341   1.679   1.968 -0.0643 -0.4738  0.2918
 4666SOL     OW25459   2.078   1.892  17.686 -0.0291  0.1735  0.1481
 4666SOL    HW125460   2.115   1.965  17.638 -0.7084  0.6104  0.2899
 4666SOL    HW225461   2.107   1.905   0.089 -1.6915  0.4502  0.6354
 4667SOL     OW25462   0.984   2.365   8.466  0.2340  0.1514  0.0214
 4667SOL    HW125463   0.986   2.287   8.522 -2.9715 -0.9429 -1.3635
 4667SOL    HW225464   1.005   2.438   8.523 -1.5522  1.4304 -0.9621
 4668SOL     OW25465   1.804   2.031   2.057  0.6359 -0.1783 -0.2148
 4668SOL    HW125466   1.872   2.007   2.119  1.1673 -1.0311 -1.1361
 4668SOL    HW225467   1.819   1.966   1.988  0.9351 -0.0311 -0.2877
 4669SOL     OW25468   0.295   4.400  16.131  0.5239  0.5572 -0.1188
 4669SOL    HW125469   0.353   4.354  16.070  2.1374  0.6839  1.3196
 4669SOL    HW225470   0.222   4.338  16.128  0.5319  0.4399  1.9803
 4670SOL     OW25471   3.561   4.276  14.921  0.2417 -0.3774 -0.2245
 4670SOL    HW125472   3.648   4.273  14.961  0.6481  0.2361 -1.0648
 4670SOL    HW225473   3.567   4.192  14.877  2.9806 -1.0056  1.3359
 4671SOL     OW25474   2.142   3.289   6.224  0.2945  0.2035  0.7768
 4671SOL    HW125475   2.206   3.228   6.188 -1.5392 -0.9875 -0.4937
 4671SOL    HW225476   2.183   3.375   6.213 -0.1865  0.3994  0.5210
 4672SOL     OW25477   3.553   4.398   2.228  0.5861  0.1262  0.1661
 4672SOL    HW125478   3.607   4.329   2.188 -1.4449 -0.2293 -2.0311
 4672SOL    HW225479   3.510   4.439   2.153  1.9271  3.0014  0.9894
 4673SOL     OW25480   0.542   1.101   1.708 -0.1330 -0.1654  0.1797
 4673SOL    HW125481   0.449   1.104   1.728 -0.3783  4.2191 -1.5939
 4673SOL    HW225482   0.550   1.128   1.616 -1.0351 -1.1679 -0.1916
 4674SOL     OW25483   2.493   3.064  14.268  0.0006  0.3313  0.6725
 4674SOL    HW125484   2.541   3.078  14.187 -0.1510 -1.6609  0.2320
 4674SOL    HW225485   2.564   3.038  14.327  1.6015 -0.4152 -1.6018
 4675SOL     OW25486   0.836   3.569   0.803  0.0074 -0.0279 -0.3705
 4675SOL    HW125487   0.772   3.519   0.752  0.8048 -1.6076  0.1725
 4675SOL    HW225488   0.823   3.662   0.790 -0.9680 -0.3922 -2.0472
 4676SOL     OW25489   0.629   4.065  16.298 -0.1010 -0.1986  0.0811
 4676SOL    HW125490   0.652   3.984  16.252  0.4509  0.6952 -1.2146
 4676SOL    HW225491   0.640   4.132  16.231 -1.3016  0.4093  0.4845
 4677SOL     OW25492   3.944   1.411   3.493  0.2536  0.2946 -0.1023
 4677SOL    HW125493   4.002   1.385   3.422 -1.3107 -1.9535 -0.5460
 4677SOL    HW225494   3.970   1.337   3.548  0.9162  2.3213  2.3557
 4678SOL     OW25495   1.341   2.384   2.123 -0.3678  0.0839 -0.4848
 4678SOL    HW125496   1.366   2.376   2.215  0.8948  2.3434 -0.6316
 4678SOL    HW225497   1.427   2.367   2.085 -0.4623 -1.1296 -0.1682
 4679SOL     OW25498   0.572   2.570   4.338 -0.0251 -0.3576 -0.4278
 4679SOL    HW125499   0.501   2.521   4.379  0.0550  0.6230  0.9117
 4679SOL    HW225500   0.638   2.550   4.404  0.1184  2.3691  0.2518
 4680SOL     OW25501   0.622   4.176   5.676  0.0186 -0.3093  0.5707
 4680SOL    HW125502   0.668   4.163   5.758 -0.3716 -0.4281  0.7723
 4680SOL    HW225503   0.561   4.245   5.704 -0.4106 -1.1604  1.7148
 4681SOL     OW25504   1.157   3.587   6.493 -0.3863 -0.3814  0.7630
 4681SOL    HW125505   1.088   3.630   6.442  0.6744  0.5387  0.0940
 4681SOL    HW225506   1.236   3.635   6.467 -0.7063 -0.2783 -0.0293
 4682SOL     OW25507   1.749   3.644  15.476 -0.1778 -0.1636  0.5956
 4682SOL    HW125508   1.689   3.579  15.513 -0.0039 -1.6673 -1.7512
 4682SOL    HW225509   1.719   3.723  15.521 -1.3730 -0.6294  0.6342
 4683SOL     OW25510   0.245   2.174   6.880 -0.4040 -0.1731 -0.2360
 4683SOL    HW125511   0.291   2.090   6.878  0.7283  0.4254  0.3417
 4683SOL    HW225512   0.202   2.173   6.966 -2.3113  2.5116 -1.1303
 4684SOL     OW25513   1.880   2.000   1.304  0.1029  0.3017  0.3286
 4684SOL    HW125514   1.825   2.060   1.354 -0.2822 -1.4118  1.9446
 4684SOL    HW225515   1.921   2.067   1.249  1.3938  0.7403  1.8039
 4685SOL     OW25516   2.817   1.983   5.649 -0.2881 -0.5281  0.1546
 4685SOL    HW125517   2.734   1.974   5.697 -0.7266  0.0665 -0.4800
 4685SOL    HW225518   2.873   1.924   5.698  0.6951  0.9990  0.8761
 4686SOL     OW25519   2.130   0.391   6.547 -0.6181 -0.3399  0.3702
 4686SOL    HW125520   2.083   0.351   6.474  1.7155 -0.6555 -0.9638
 4686SOL    HW225521   2.216   0.347   6.542 -0.6994 -0.5703  0.9742
 4687SOL     OW25522   3.209   2.594   5.195  0.2895 -0.3045 -0.1285
 4687SOL    HW125523   3.225   2.643   5.114 -2.5751  0.4522 -0.2339
 4687SOL    HW225524   3.120   2.627   5.212 -0.2049 -0.3684 -2.5874
 4688SOL     OW25525   2.073   3.638  17.271  0.8050  0.3323  0.0342
 4688SOL    HW125526   2.152   3.692  17.276  0.7636  0.4819 -0.9429
 4688SOL    HW225527   2.111   3.550  17.268  1.9521  0.8009  0.7168
 4689SOL     OW25528   4.573   1.763   2.099 -0.2476 -0.0710 -0.4817
 4689SOL    HW125529   4.578   1.716   2.016 -0.4240 -0.3665 -0.3223
 4689SOL    HW225530   4.660   1.803   2.112  0.5626 -2.2427  0.7028
 4690SOL     OW25531   2.229   4.465   6.516 -0.2146 -0.3519 -0.1930
 4690SOL    HW125532   2.299   4.442   6.455 -0.3585  1.6207 -1.0955
 4690SOL    HW225533   2.280   4.522   6.574 -1.1195  1.3158 -1.0705
 4691SOL     OW25534   0.832   0.241  12.224  0.0794 -0.0223 -0.2764
 4691SOL    HW125535   0.787   0.194  12.295  3.0056  0.4959  1.9534
 4691SOL    HW225536   0.885   0.167  12.194  0.4469 -0.4157  1.2885
 4692SOL     OW25537   1.545   1.508   4.022  0.5464  0.0661 -0.2098
 4692SOL    HW125538   1.606   1.558   3.967  0.8244  2.9278  2.7125
 4692SOL    HW225539   1.561   1.425   3.977  1.3424 -1.2103  2.4433
 4693SOL     OW25540   1.630   4.332   8.367 -0.0862  0.0102  0.0833
 4693SOL    HW125541   1.707   4.281   8.392  1.0080  0.5070 -2.3674
 4693SOL    HW225542   1.648   4.414   8.413  0.7455  0.8829 -1.7994
 4694SOL     OW25543   2.454   0.250   9.806 -0.0823  0.3104 -0.0750
 4694SOL    HW125544   2.524   0.188   9.824  1.2228  1.4959 -1.0276
 4694SOL    HW225545   2.467   0.325   9.865 -0.8644  1.2000 -1.0387
 4695SOL     OW25546   0.013   0.471   5.265  0.1541  0.5535  0.6227
 4695SOL    HW125547   4.641   0.462   5.287  0.0993  0.1963  0.2469
 4695SOL    HW225548   0.023   0.425   5.181  0.8481  1.3856  0.2535
 4696SOL     OW25549   2.160   1.525   5.137  0.3427  0.3418 -0.1676
 4696SOL    HW125550   2.234   1.585   5.129 -0.4002  1.4209  1.0199
 4696SOL    HW225551   2.092   1.592   5.135 -1.8705 -1.9358 -0.7440
 4697SOL     OW25552   3.280   0.525   1.696 -0.3239 -0.1045 -0.0515
 4697SOL    HW125553   3.271   0.580   1.775 -1.3428  0.2416 -0.4022
 4697SOL    HW225554   3.196   0.540   1.653 -0.6047  0.1063  0.5624
 4698SOL     OW25555   0.950   2.678   8.822  0.3746 -0.1687  0.2300
 4698SOL    HW125556   1.029   2.671   8.769 -0.3028 -0.9979 -0.6738
 4698SOL    HW225557   0.935   2.772   8.831  2.4230  0.2955 -1.3815
 4699SOL     OW25558   4.133   2.005   4.220  0.4608  0.1305 -0.4091
 4699SOL    HW125559   4.093   2.033   4.302  0.2013  0.9661 -0.8233
 4699SOL    HW225560   4.143   1.911   4.237  1.2833  0.2585 -0.1678
 4700SOL     OW25561   0.758   1.289   2.144  0.2498  0.0206  0.3611
 4700SOL    HW125562   0.822   1.227   2.109 -0.2814  0.1446 -0.8434
 4700SOL    HW225563   0.671   1.255   2.125 -0.2581  1.2681  0.4522
 4701SOL     OW25564   4.336   1.150   9.203 -0.5406 -0.1161  0.1836
 4701SOL    HW125565   4.403   1.082   9.205  0.3048  0.7463  1.3308
 4701SOL    HW225566   4.261   1.100   9.170  0.3554 -0.9037 -0.6867
 4702SOL     OW25567   0.938   2.314   6.590 -0.0253 -0.4071 -0.0360
 4702SOL    HW125568   0.964   2.367   6.666  0.3023 -0.1445 -0.3275
 4702SOL    HW225569   0.921   2.237   6.644 -0.2958  0.0002  0.4572
 4703SOL     OW25570   1.434   3.768   8.966  0.4577  0.1963  0.2106
 4703SOL    HW125571   1.445   3.674   8.948  0.9207  0.2193  0.3826
 4703SOL    HW225572   1.417   3.807   8.880 -0.5770  1.5385  1.0144
 4704SOL     OW25573   0.130   1.077  14.283 -0.2668  0.1168  0.2032
 4704SOL    HW125574   0.088   1.162  14.290  0.0716  0.1483  1.8919
 4704SOL    HW225575   0.174   1.094  14.200  0.3001 -1.1683  0.2380
 4705SOL     OW25576   3.918   3.543  17.014  0.2562  0.6736 -0.0287
 4705SOL    HW125577   3.980   3.589  16.957 -1.0571  1.0383 -1.1632
 4705SOL    HW225578   3.981   3.501  17.073 -0.1480 -0.5447 -0.4546
 4706SOL     OW25579   2.295   3.729   0.576  0.1567 -0.2725 -0.5620
 4706SOL    HW125580   2.267   3.821   0.578  0.1280 -0.3162  1.1325
 4706SOL    HW225581   2.362   3.730   0.644 -0.4650  1.0382  0.0260
 4707SOL     OW25582   2.731   2.092  14.220  0.1541 -0.0947 -0.2859
 4707SOL    HW125583   2.736   2.083  14.316 -0.9635  0.8901 -0.1293
 4707SOL    HW225584   2.720   2.186  14.207  1.6998 -0.1009 -1.6792
 4708SOL     OW25585   4.039   0.269   2.299 -0.2455  0.1868 -0.4005
 4708SOL    HW125586   3.975   0.286   2.229  2.0850  1.2354 -2.2594
 4708SOL    HW225587   4.122   0.246   2.259 -0.5019 -0.8741 -0.3328
 4709SOL     OW25588   2.154   4.598   7.441 -0.4474  0.5632  0.3077
 4709SOL    HW125589   2.216   4.667   7.465  0.5981  0.1514 -1.2064
 4709SOL    HW225590   2.198   4.553   7.369 -1.2092 -0.7476  0.6590
 4710SOL     OW25591   3.924   0.813   8.046  0.2045 -0.4638 -0.3814
 4710SOL    HW125592   3.954   0.903   8.038  0.9413 -0.9101 -2.3677
 4710SOL    HW225593   3.839   0.819   8.090 -1.1411 -0.6509 -2.9868
 4711SOL     OW25594   1.925   2.661   0.031  0.3067  0.4604  0.0055
 4711SOL    HW125595   1.879   2.580   0.008 -0.4626  0.9614 -0.2133
 4711SOL    HW225596   1.899   2.717  17.646  1.8259  0.7302 -0.3287
 4712SOL     OW25597   3.016   2.107  17.040 -0.1333  0.2825 -0.1037
 4712SOL    HW125598   3.072   2.183  17.028 -1.8304  1.4681 -0.5515
 4712SOL    HW225599   3.000   2.114  17.134 -0.9880 -2.9047 -0.0101
 4713SOL     OW25600   4.400   1.124   2.891 -0.2257  0.0866  0.3373
 4713SOL    HW125601   4.397   1.041   2.939 -1.8811 -1.0673 -1.7692
 4713SOL    HW225602   4.386   1.099   2.800 -1.1921 -0.4993  0.6502
 4714SOL     OW25603   3.032   2.562  13.504  0.3109 -0.4670 -0.0191
 4714SOL    HW125604   2.985   2.641  13.531  0.3560 -0.1916 -0.7491
 4714SOL    HW225605   3.079   2.546  13.586 -0.8907 -2.0213  0.3675
 4715SOL     OW25606   1.561   2.775   4.149  0.0503 -0.3091 -0.5766
 4715SOL    HW125607   1.618   2.731   4.211 -1.4407  1.5630  2.1453
 4715SOL    HW225608   1.584   2.728   4.069 -0.0171 -0.5682 -0.4412
 4716SOL     OW25609   1.959   0.781   2.997 -0.0102 -0.0320 -0.7134
 4716SOL    HW125610   1.967   0.816   2.909  1.0326 -0.7812 -0.9147
 4716SOL    HW225611   1.974   0.688   2.978 -1.4767 -0.8938  2.3496
 4717SOL     OW25612   0.075   3.735   8.456 -0.0863  0.8961  0.1868
 4717SOL    HW125613   4.711   3.741   8.497 -0.2820 -2.6234  0.3014
 4717SOL    HW225614   0.084   3.645   8.423  0.6011  1.0702 -0.1182
 4718SOL     OW25615   0.474   0.720   5.429 -0.1346  0.3769  0.3038
 4718SOL    HW125616   0.473   0.651   5.362  0.1333 -1.2250  1.9531
 4718SOL    HW225617   0.524   0.675   5.497 -1.4169  0.8188  1.5240
 4719SOL     OW25618   2.825   0.112   7.493 -0.1874  0.0418 -0.3986
 4719SOL    HW125619   2.801   0.148   7.407  2.9939  0.0361 -1.2778
 4719SOL    HW225620   2.798   0.183   7.550 -0.0845  1.1483 -1.7281
 4720SOL     OW25621   1.009   4.578   5.874 -0.2286  0.5874 -0.0122
 4720SOL    HW125622   1.067   4.594   5.949 -0.5477 -0.3477  0.4366
 4720SOL    HW225623   0.928   4.612   5.913 -0.5104 -0.2392  0.1296
 4721SOL     OW25624   0.886   1.297  15.441  0.0168  0.3106  0.2425
 4721SOL    HW125625   0.812   1.348  15.474 -0.7209 -0.6289  0.0412
 4721SOL    HW225626   0.953   1.365  15.436  0.2655  0.2257  2.4771
 4722SOL     OW25627   0.783   1.927  15.382  0.0404  0.3179  0.3942
 4722SOL    HW125628   0.853   1.976  15.340 -0.9385 -1.0722 -2.9002
 4722SOL    HW225629   0.702   1.977  15.371 -0.7383 -0.7004  1.3679
 4723SOL     OW25630   0.940   2.552  16.230  0.0035 -0.5761  0.5880
 4723SOL    HW125631   0.952   2.578  16.321 -0.7910 -1.0161  0.8138
 4723SOL    HW225632   1.030   2.519  16.227  0.3122  0.5081 -2.2710
 4724SOL     OW25633   4.147   0.663   3.525 -0.4612 -0.2566 -0.0029
 4724SOL    HW125634   4.156   0.685   3.432 -2.0611  1.4911  0.2566
 4724SOL    HW225635   4.221   0.603   3.536 -1.5291 -1.4621  0.6210
 4725SOL     OW25636   2.389   2.992   6.654  0.1126  0.7031 -0.3300
 4725SOL    HW125637   2.363   3.035   6.735  0.6450  0.8230 -0.2284
 4725SOL    HW225638   2.307   2.945   6.638 -1.1059  2.9136 -0.5072
 4726SOL     OW25639   4.491   3.548  16.586 -0.3957 -0.1863  0.4948
 4726SOL    HW125640   4.544   3.498  16.649  0.5861  0.8387  0.4865
 4726SOL    HW225641   4.524   3.516  16.502  1.9673 -0.7215  1.6009
 4727SOL     OW25642   2.597   3.716   6.174  0.4628 -0.8130  0.2578
 4727SOL    HW125643   2.546   3.654   6.226 -0.5330  0.1095  0.3674
 4727SOL    HW225644   2.541   3.729   6.098  0.3665 -2.5892  0.0131
 4728SOL     OW25645   2.145   2.470  12.429  0.1161  0.0620  0.5997
 4728SOL    HW125646   2.165   2.554  12.472 -0.2269  0.7103 -0.5110
 4728SOL    HW225647   2.177   2.403  12.490  0.1397  0.4019  0.9645
 4729SOL     OW25648   4.685   2.673   7.112 -0.1081  0.6162 -0.2604
 4729SOL    HW125649   0.034   2.614   7.085 -1.1130 -0.5548 -0.2857
 4729SOL    HW225650   4.645   2.689   7.026 -0.3125  1.2949 -0.0380
 4730SOL     OW25651   2.314   1.716   9.289 -0.3724 -0.1883  0.8686
 4730SOL    HW125652   2.350   1.727   9.377  0.5508  1.2758  0.3110
 4730SOL    HW225653   2.394   1.706   9.238 -0.7984 -1.1320  0.3867
 4731SOL     OW25654   0.793   0.449   8.314 -0.1419 -0.5261 -0.0493
 4731SOL    HW125655   0.728   0.511   8.347 -0.8333 -0.3228 -1.8117
 4731SOL    HW225656   0.873   0.493   8.343  0.3260 -0.7630 -0.9598
 4732SOL     OW25657   3.209   0.962  16.438 -0.5188 -0.5226  0.0397
 4732SOL    HW125658   3.142   1.017  16.399 -0.5554  1.4957  2.9313
 4732SOL    HW225659   3.184   0.971  16.530  1.2230  0.2456  0.4489
 4733SOL     OW25660   1.950   4.405   3.256 -0.0266  0.1511  0.2220
 4733SOL    HW125661   1.968   4.445   3.341 -0.6817 -1.4015  1.1136
 4733SOL    HW225662   1.879   4.349   3.287 -0.3040  0.1111 -0.4981
 4734SOL     OW25663   2.743   3.906   3.177 -0.6184  0.0405 -0.1743
 4734SOL    HW125664   2.776   3.849   3.108  1.9636  1.5653 -0.2127
 4734SOL    HW225665   2.731   3.992   3.137 -0.8741  0.2469  0.3423
 4735SOL     OW25666   1.263   3.673   3.631 -0.2355 -0.7413  0.7867
 4735SOL    HW125667   1.355   3.671   3.658  0.3840  0.7206 -1.2471
 4735SOL    HW225668   1.273   3.602   3.568  0.1510 -2.9836  3.3336
 4736SOL     OW25669   1.233   0.896  12.432 -0.0547 -0.4427  0.6299
 4736SOL    HW125670   1.316   0.889  12.478 -0.5906  0.0997  1.6968
 4736SOL    HW225671   1.190   0.824  12.479 -1.4610  0.1888  0.3271
 4737SOL     OW25672   0.073   2.063   7.805 -0.1479 -0.0443  0.2235
 4737SOL    HW125673   0.006   2.070   7.737  1.8848  1.1042 -1.6729
 4737SOL    HW225674   0.048   1.982   7.848  1.8968 -0.1744  1.1430
 4738SOL     OW25675   4.602   1.277   2.484  0.0913  0.1017 -0.2001
 4738SOL    HW125676   4.561   1.354   2.444 -0.7987 -1.7611 -2.9122
 4738SOL    HW225677   4.561   1.210   2.429 -0.7112  0.3346  0.1021
 4739SOL     OW25678   3.871   0.780   4.515  0.1200 -0.8255  0.3323
 4739SOL    HW125679   3.877   0.687   4.537 -1.2212 -0.9288  0.2686
 4739SOL    HW225680   3.919   0.775   4.433  0.2246 -2.0459  0.4593
 4740SOL     OW25681   2.055   2.145   2.281 -0.3910 -0.1269  0.0519
 4740SOL    HW125682   2.111   2.176   2.210 -0.6050 -0.8980 -0.4584
 4740SOL    HW225683   2.120   2.128   2.349  0.4259 -0.3895 -0.7969
 4741SOL     OW25684   4.311   0.766   8.335 -0.3529  0.4748  0.0753
 4741SOL    HW125685   4.229   0.717   8.337 -0.2871  0.3309 -0.9540
 4741SOL    HW225686   4.290   0.835   8.273 -1.0342 -1.1768 -1.5243
 4742SOL     OW25687   2.002   3.339   2.188 -0.0875 -0.8168 -0.1482
 4742SOL    HW125688   2.097   3.343   2.191 -0.0772 -0.9601 -0.2826
 4742SOL    HW225689   1.982   3.409   2.127  0.6778 -0.6706 -0.2282
 4743SOL     OW25690   1.799   3.337  11.201 -0.0832  0.5266 -0.1753
 4743SOL    HW125691   1.708   3.362  11.189 -0.5213 -1.9933 -2.1956
 4743SOL    HW225692   1.824   3.319  11.110  0.6510 -1.6324  0.4431
 4744SOL     OW25693   0.370   4.017   8.111  0.6263  0.7795  0.3144
 4744SOL    HW125694   0.322   3.936   8.129  0.1415  1.2327  1.0720
 4744SOL    HW225695   0.394   4.011   8.019  1.4736  0.5923  0.5500
 4745SOL     OW25696   3.820   0.627   9.677  0.1978 -0.3037  0.1918
 4745SOL    HW125697   3.811   0.533   9.692 -1.3770 -0.5142 -2.0978
 4745SOL    HW225698   3.816   0.632   9.582 -0.9847 -3.3313  0.0987
 4746SOL     OW25699   0.855   2.310   6.334  0.0485  0.4933 -0.3159
 4746SOL    HW125700   0.860   2.307   6.430  3.0315  0.4629 -0.4500
 4746SOL    HW225701   0.944   2.285   6.309  0.8392  1.1418  1.7696
 4747SOL     OW25702   4.698   0.399   8.512 -0.2127  0.0199  0.1768
 4747SOL    HW125703   0.035   0.459   8.558 -1.3115 -0.0390  1.6630
 4747SOL    HW225704   4.713   0.430   8.423  0.6661 -0.4680  0.1630
 4748SOL     OW25705   0.176   3.427   1.948 -0.3294 -0.1417 -0.0251
 4748SOL    HW125706   0.124   3.381   2.014 -0.6168 -0.3340 -0.3784
 4748SOL    HW225707   0.252   3.370   1.941  1.0398  1.6918  0.1437
 4749SOL     OW25708   1.974   3.253   7.854  0.0768 -0.3751  0.4444
 4749SOL    HW125709   1.991   3.197   7.778 -0.1294 -3.1775  2.4821
 4749SOL    HW225710   1.897   3.210   7.890 -1.1342  2.2490  1.0157
 4750SOL     OW25711   2.887   4.450   4.927 -0.2003  0.0123 -0.6507
 4750SOL    HW125712   2.792   4.437   4.928 -0.0660 -0.7373  0.8710
 4750SOL    HW225713   2.894   4.530   4.875  0.4729  1.5233  1.7817
 4751SOL     OW25714   0.447   0.955   3.681  0.1312  0.0075  0.0442
 4751SOL    HW125715   0.389   0.984   3.611  2.0303  0.2574 -1.4255
 4751SOL    HW225716   0.523   1.013   3.674  0.8293 -0.9645 -0.3816
 4752SOL     OW25717   0.414   2.416   5.924  0.5630 -0.3210 -0.5916
 4752SOL    HW125718   0.463   2.335   5.939 -1.7772 -1.4510  0.9990
 4752SOL    HW225719   0.433   2.438   5.833 -0.0140  0.3299 -0.5559
 4753SOL     OW25720   0.382   3.282   2.284  0.2273  0.6687  0.2114
 4753SOL    HW125721   0.416   3.360   2.241  1.9946  0.4274  1.1744
 4753SOL    HW225722   0.463   3.252   2.326 -0.8328 -1.2445  0.9292
 4754SOL     OW25723   2.920   1.426   5.209 -0.0180 -0.1419 -0.1282
 4754SOL    HW125724   3.000   1.477   5.198  1.1598 -2.3876 -1.9237
 4754SOL    HW225725   2.940   1.356   5.146  0.7810 -1.3779  1.4778
 4755SOL     OW25726   3.953   0.346   8.315  0.3946  0.8829  1.4332
 4755SOL    HW125727   4.000   0.387   8.242  1.2233 -1.1032  0.8338
 4755SOL    HW225728   4.006   0.266   8.317 -0.9379  0.0386  3.0413
 4756SOL     OW25729   4.632   0.907   9.705 -0.6434  0.1200  0.5107
 4756SOL    HW125730   4.644   0.961   9.627 -0.2544  0.0017  0.4877
 4756SOL    HW225731   0.002   0.880   9.714 -0.9788 -1.4284 -0.6628
 4757SOL     OW25732   0.581   2.127  15.320 -0.3376 -0.6716  0.1115
 4757SOL    HW125733   0.536   2.187  15.260 -1.8247  0.0856  1.9878
 4757SOL    HW225734   0.670   2.163  15.320 -2.1772  3.8240  0.5720
 4758SOL     OW25735   2.995   3.837   6.497 -0.3629 -0.0886  0.9194
 4758SOL    HW125736   3.030   3.840   6.408 -0.3604  3.6022  1.0616
 4758SOL    HW225737   2.923   3.774   6.492 -0.1157 -0.2919  0.0213
 4759SOL     OW25738   1.016   3.082   4.658  0.0355  0.1762  0.1782
 4759SOL    HW125739   1.039   3.000   4.702  0.1840 -0.6198 -1.3899
 4759SOL    HW225740   0.922   3.090   4.670 -0.5848 -3.0628 -2.4938
 4760SOL     OW25741   3.355   3.239   4.719  0.1419 -0.4464  0.4127
 4760SOL    HW125742   3.306   3.310   4.677 -0.2994 -1.7066 -1.2075
 4760SOL    HW225743   3.400   3.196   4.647 -0.6556 -0.1636 -0.2499
 4761SOL     OW25744   4.310   2.669   5.093 -0.8884 -0.5441  0.0495
 4761SOL    HW125745   4.260   2.622   5.026 -2.4454  2.0391 -0.5759
 4761SOL    HW225746   4.242   2.714   5.142 -1.8553  0.8233 -2.5668
 4762SOL     OW25747   1.488   1.525   5.817 -0.3049  0.0683 -0.5128
 4762SOL    HW125748   1.482   1.451   5.877  2.4921 -0.2311 -0.6047
 4762SOL    HW225749   1.579   1.516   5.788 -0.1467 -0.3158  0.1198
 4763SOL     OW25750   0.624   3.724  15.434  0.1678 -0.3029  0.2164
 4763SOL    HW125751   0.627   3.762  15.346  2.6795 -0.2814  0.3248
 4763SOL    HW225752   0.662   3.638  15.418  1.3374 -0.0046  1.4325
 4764SOL     OW25753   1.318   1.303   0.762  0.0175 -0.0729  0.4248
 4764SOL    HW125754   1.246   1.285   0.822  0.4781  0.0900  1.0291
 4764SOL    HW225755   1.269   1.303   0.680  2.0563 -0.3406 -0.7804
 4765SOL     OW25756   4.230   2.789   4.322 -0.1385 -0.0991  0.4154
 4765SOL    HW125757   4.252   2.708   4.277 -0.0371 -1.0372  2.1588
 4765SOL    HW225758   4.140   2.771   4.351 -0.3973  1.2623  0.4704
 4766SOL     OW25759   3.081   2.817   9.594 -0.1593  0.3824  0.0316
 4766SOL    HW125760   3.122   2.830   9.508 -1.4084  1.9205 -0.3361
 4766SOL    HW225761   3.149   2.776   9.648  1.3584  2.2843 -0.4142
 4767SOL     OW25762   0.236   3.743   5.067  0.6790  0.4997  0.2471
 4767SOL    HW125763   0.189   3.666   5.035  2.9011 -0.8968  0.3185
 4767SOL    HW225764   0.218   3.803   4.994 -0.3873 -1.3424 -1.0087
 4768SOL     OW25765   1.019   0.325   6.749  0.5325 -0.3782  0.1047
 4768SOL    HW125766   1.045   0.411   6.781  0.2097  0.1886 -1.1684
 4768SOL    HW225767   0.965   0.347   6.673  1.8633  1.9133 -0.1599
 4769SOL     OW25768   4.496   1.266  10.585  0.6353  0.1354  0.3599
 4769SOL    HW125769   4.530   1.177  10.587  0.2280 -0.0009  1.1721
 4769SOL    HW225770   4.443   1.274  10.664 -1.0813 -2.5439 -0.5402
 4770SOL     OW25771   1.291   3.755  13.178  0.3935 -0.5247  0.2083
 4770SOL    HW125772   1.236   3.813  13.230 -2.1472 -5.0955  2.6636
 4770SOL    HW225773   1.314   3.804  13.099  0.2664 -0.2532  0.3403
 4771SOL     OW25774   4.342   4.565   0.494  0.2867  0.2580 -0.5631
 4771SOL    HW125775   4.338   4.481   0.541  0.8912  0.4572 -0.1518
 4771SOL    HW225776   4.266   4.611   0.528  1.8263  1.1612  1.6442
 4772SOL     OW25777   4.073   0.796   0.934 -0.5439  0.6606 -0.0855
 4772SOL    HW125778   4.101   0.705   0.938  1.4980  1.3272  0.7834
 4772SOL    HW225779   4.016   0.802   1.011 -1.2538 -1.5760 -0.4664
 4773SOL     OW25780   0.444   4.133   7.860  0.5428 -0.2758 -0.5634
 4773SOL    HW125781   0.521   4.100   7.813  0.4025 -2.3981  0.6917
 4773SOL    HW225782   0.480   4.219   7.881  0.6431 -0.7656  1.2101
 4774SOL     OW25783   3.822   3.451   5.416  0.0646  0.4352  0.5030
 4774SOL    HW125784   3.808   3.400   5.336  0.9628  1.2978 -0.2111
 4774SOL    HW225785   3.821   3.373   5.470 -1.2326  0.1573  0.0705
 4775SOL     OW25786   1.083   0.082   5.174 -0.0008 -0.0230  0.7309
 4775SOL    HW125787   1.063   0.173   5.152  0.0022 -0.1696  0.1276
 4775SOL    HW225788   1.105   0.098   5.266  2.4904 -0.1310  0.1645
 4776SOL     OW25789   4.528   2.096  13.669 -0.1203 -0.9160  0.6455
 4776SOL    HW125790   4.459   2.151  13.707  2.1161  1.3415  1.4152
 4776SOL    HW225791   4.479   2.033  13.615 -0.9809 -0.8372  1.3256
 4777SOL     OW25792   0.189   4.003   4.182 -0.3184 -0.5772  0.3283
 4777SOL    HW125793   0.160   3.949   4.109 -0.1327  0.1801 -0.3044
 4777SOL    HW225794   0.124   4.073   4.173 -0.1375 -0.6708 -1.8040
 4778SOL     OW25795   1.493   3.930   4.098 -0.0740 -0.0053  0.8626
 4778SOL    HW125796   1.516   3.841   4.072  1.3541  0.5988  0.0617
 4778SOL    HW225797   1.400   3.915   4.114 -0.4331  2.3957  1.0039
 4779SOL     OW25798   2.295   0.034   8.509  0.2880  0.0960  0.2049
 4779SOL    HW125799   2.336   0.073   8.587  0.6852  0.4437 -0.1751
 4779SOL    HW225800   2.372   0.008   8.459 -0.3989  0.9258 -1.2890
 4780SOL     OW25801   1.124   1.246  11.423  0.1255 -0.1102 -0.3331
 4780SOL    HW125802   1.173   1.167  11.399 -0.0561 -0.4679  0.4947
 4780SOL    HW225803   1.038   1.208  11.406 -0.5387  0.4701  1.6986
 4781SOL     OW25804   0.719   2.275  14.771 -0.0235  0.2281  0.1177
 4781SOL    HW125805   0.674   2.356  14.795 -0.3346  0.8152 -2.4795
 4781SOL    HW225806   0.698   2.283  14.678  2.0129 -1.9488 -0.5401
 4782SOL     OW25807   3.751   2.405   4.939  0.2206  0.3301 -0.3117
 4782SOL    HW125808   3.718   2.334   4.884 -0.0671 -0.9268  1.5096
 4782SOL    HW225809   3.671   2.450   4.967 -0.0360 -0.8792  0.8802
 4783SOL     OW25810   1.797   0.834   8.512 -0.2410 -0.2156 -0.3698
 4783SOL    HW125811   1.832   0.766   8.456  0.3624 -0.2713  0.0754
 4783SOL    HW225812   1.798   0.792   8.598 -0.4220  0.5193 -0.0025
 4784SOL     OW25813   2.301   0.811  15.445  0.3349 -0.0196 -0.2317
 4784SOL    HW125814   2.292   0.744  15.514 -1.4386  1.4891  1.0210
 4784SOL    HW225815   2.309   0.745  15.376 -2.1925 -1.4559  0.8075
 4785SOL     OW25816   3.814   0.531   8.759 -0.6188  0.1896  0.1430
 4785SOL    HW125817   3.756   0.548   8.833  0.2821 -0.7511  1.0759
 4785SOL    HW225818   3.765   0.564   8.684 -0.2001  0.2363 -0.1144
 4786SOL     OW25819   0.205   0.373  13.837  0.0293  0.5622 -0.3411
 4786SOL    HW125820   0.139   0.368  13.768 -2.2357 -1.1378  1.9326
 4786SOL    HW225821   0.277   0.411  13.787  1.4548  1.0441  2.0702
 4787SOL     OW25822   2.102   1.553   4.773  0.0493 -0.3684 -0.0085
 4787SOL    HW125823   2.189   1.525   4.803 -0.1226 -0.1310  0.6999
 4787SOL    HW225824   2.069   1.477   4.725  0.1045 -0.0151 -0.6015
 4788SOL     OW25825   2.934   0.723  16.368 -0.9516 -0.8343  0.1999
 4788SOL    HW125826   2.921   0.635  16.333 -0.2606 -0.9235  0.1652
 4788SOL    HW225827   3.027   0.737  16.352 -1.4822  0.7816 -1.4523
 4789SOL     OW25828   2.075   4.202  12.427  0.2201  0.3657 -0.4549
 4789SOL    HW125829   2.114   4.116  12.410 -0.8861 -0.8315  3.1246
 4789SOL    HW225830   2.026   4.177  12.505 -2.9877 -1.5654 -3.0676
 4790SOL     OW25831   3.571   3.109   4.105  0.1680 -0.6558  0.3505
 4790SOL    HW125832   3.509   3.139   4.039 -0.4499 -0.3615  1.0602
 4790SOL    HW225833   3.640   3.176   4.099  1.0679 -1.6719 -0.5606
 4791SOL     OW25834   2.020   3.250   3.661 -0.1179  0.2981 -0.9350
 4791SOL    HW125835   1.987   3.163   3.637  0.2628  0.2404 -1.2479
 4791SOL    HW225836   2.102   3.266   3.614  0.1791  0.6873 -0.2890
 4792SOL     OW25837   2.570   2.759   6.639  0.5084 -0.5517 -0.0635
 4792SOL    HW125838   2.541   2.849   6.623 -0.3056 -0.5300  1.5664
 4792SOL    HW225839   2.486   2.717   6.619  0.4860  0.1791 -1.5553
 4793SOL     OW25840   2.060   0.144   6.420  0.8869  0.9842 -0.1224
 4793SOL    HW125841   2.100   0.058   6.411  0.5917  0.9245 -0.8538
 4793SOL    HW225842   1.993   0.130   6.487  1.4039 -1.8322 -0.1931
 4794SOL     OW25843   3.702   4.099  17.620 -0.1746 -0.3408  0.1442
 4794SOL    HW125844   3.644   4.170  17.647  0.3919  0.9649 -2.0086
 4794SOL    HW225845   3.783   4.151  17.618  0.4513 -1.3400 -0.4954
 4795SOL     OW25846   2.860   2.261   4.823  0.1119  0.0250  0.8021
 4795SOL    HW125847   2.823   2.340   4.863 -1.3900  0.2866 -1.0969
 4795SOL    HW225848   2.845   2.280   4.730  1.5697  1.4598  0.8653
 4796SOL     OW25849   1.582   4.672   5.166  1.1089 -0.2157 -0.1473
 4796SOL    HW125850   1.636   4.602   5.129  1.5865  0.7382 -1.2909
 4796SOL    HW225851   1.644   0.024   5.158  0.9580  0.0594  1.1463
 4797SOL     OW25852   1.931   3.435   6.723  0.0497  0.1510  0.2571
 4797SOL    HW125853   2.005   3.374   6.728  0.2894  0.3450 -1.0006
 4797SOL    HW225854   1.957   3.485   6.646 -0.8638 -0.3574 -0.3701
 4798SOL     OW25855   3.709   2.871   5.241 -0.2319 -0.6482  0.0113
 4798SOL    HW125856   3.614   2.869   5.248 -0.3281  0.1707 -0.9624
 4798SOL    HW225857   3.729   2.908   5.327  0.3844  0.8628 -0.7776
 4799SOL     OW25858   4.254   0.373   4.011  0.6772  0.5078 -0.0506
 4799SOL    HW125859   4.345   0.370   4.039  0.4420  1.3733  0.8017
 4799SOL    HW225860   4.245   0.457   3.967 -0.0828  0.9854  1.0087
 4800SOL     OW25861   1.857   1.395  11.909  0.0799 -0.1180  0.0533
 4800SOL    HW125862   1.839   1.301  11.913 -1.2770  0.1395 -0.2038
 4800SOL    HW225863   1.894   1.406  11.997 -0.3963  0.4247  0.1793
 4801SOL     OW25864   3.785   2.280  15.927  0.2077  0.1723 -0.1190
 4801SOL    HW125865   3.829   2.326  15.999 -2.8166  1.2510  1.0427
 4801SOL    HW225866   3.735   2.348  15.883 -1.3646 -0.7696  0.2303
 4802SOL     OW25867   2.840   0.063  17.376 -0.1060 -0.3045  0.2149
 4802SOL    HW125868   2.775   0.061  17.446  0.7900 -0.5340  1.0316
 4802SOL    HW225869   2.902   0.006  17.422  2.9991  1.2414 -2.0393
 4803SOL     OW25870   3.561   4.144   9.137 -0.4445 -0.2393  0.2463
 4803SOL    HW125871   3.482   4.196   9.143  1.7322  3.1536 -0.8181
 4803SOL    HW225872   3.561   4.124   9.043 -0.2906 -1.2497  0.4619
 4804SOL     OW25873   4.349   2.017  16.429  0.1077  0.2567 -0.0365
 4804SOL    HW125874   4.317   1.931  16.400 -0.5028 -0.2157  2.0098
 4804SOL    HW225875   4.439   2.008  16.397  0.4726 -1.2645  1.3768
 4805SOL     OW25876   1.711   0.323   0.207  0.0502  0.1096  0.3637
 4805SOL    HW125877   1.649   0.350   0.140 -0.4789 -0.1234  0.7655
 4805SOL    HW225878   1.739   0.409   0.238  0.6987  0.0227  0.0285
 4806SOL     OW25879   1.343   1.858   8.797 -0.2068 -0.6479 -0.0256
 4806SOL    HW125880   1.253   1.847   8.768  0.2960 -1.0220 -1.4635
 4806SOL    HW225881   1.329   1.925   8.864 -1.5104 -1.3567  0.3965
 4807SOL     OW25882   0.055   4.673  16.663  0.1634 -0.1872  0.5441
 4807SOL    HW125883   0.018   4.677  16.575  0.3461  1.0461  0.5263
 4807SOL    HW225884   0.070   0.044  16.682  0.4563 -0.5481  2.0711
 4808SOL     OW25885   3.163   2.073   7.246  0.1359  0.5579 -0.1053
 4808SOL    HW125886   3.174   2.154   7.297 -1.6675  0.5995  0.2102
 4808SOL    HW225887   3.129   2.017   7.315  2.1697  0.4460  0.8001
 4809SOL     OW25888   2.242   2.450   2.638 -0.1329 -0.8067 -0.0138
 4809SOL    HW125889   2.176   2.514   2.611  1.3485  0.3273 -0.9223
 4809SOL    HW225890   2.290   2.434   2.557  0.8754  0.2678  0.3819
 4810SOL     OW25891   3.249   2.828   3.992 -0.5610  0.1579 -0.4965
 4810SOL    HW125892   3.326   2.837   4.049 -1.4355 -0.5229  0.8060
 4810SOL    HW225893   3.292   2.810   3.909 -0.2771 -2.6017  0.2472
 4811SOL     OW25894   1.893   0.145   8.634 -0.1874  0.1224  0.0239
 4811SOL    HW125895   1.806   0.113   8.609  1.3439 -2.5381 -1.9306
 4811SOL    HW225896   1.870   0.231   8.670  1.5196  0.7481 -0.3700
 4812SOL     OW25897   2.447   4.299   4.382  0.4329 -0.0238 -0.3702
 4812SOL    HW125898   2.490   4.368   4.432 -0.1333 -0.1798  0.3382
 4812SOL    HW225899   2.387   4.353   4.331 -0.0172  0.9453  1.1796
 4813SOL     OW25900   4.243   4.230   5.682  0.6582  0.0351 -0.1956
 4813SOL    HW125901   4.286   4.312   5.708 -1.2543  1.1037 -0.4046
 4813SOL    HW225902   4.276   4.155   5.732  0.8209  0.2901  0.0876
 4814SOL     OW25903   0.965   1.851   4.028  0.2228  0.3007 -0.3824
 4814SOL    HW125904   0.912   1.801   3.967 -0.6841  0.5945  0.1692
 4814SOL    HW225905   0.916   1.851   4.110  1.8696 -0.2631  0.6166
 4815SOL     OW25906   1.195   1.906   5.436  0.1194  0.2311 -0.1209
 4815SOL    HW125907   1.276   1.955   5.419  1.3450 -2.0224 -0.7694
 4815SOL    HW225908   1.233   1.837   5.490  0.6655  1.3095  0.8846
 4816SOL     OW25909   1.595   2.087   4.358  0.0117  0.1528 -0.0308
 4816SOL    HW125910   1.687   2.079   4.382  0.0473  1.8349  0.3893
 4816SOL    HW225911   1.606   2.089   4.263 -2.2067 -0.8433 -0.3323
 4817SOL     OW25912   0.078   3.928   4.551 -0.2006  0.2789 -0.7966
 4817SOL    HW125913   0.100   3.941   4.459 -1.3368 -0.0295 -1.1121
 4817SOL    HW225914   4.712   3.890   4.542  0.0595 -0.2143 -1.2860
 4818SOL     OW25915   1.836   3.888   4.713 -0.0636 -0.3686 -0.2282
 4818SOL    HW125916   1.914   3.853   4.756  0.1677 -0.2700 -0.5614
 4818SOL    HW225917   1.847   3.983   4.722  2.7892 -0.6174 -1.2881
 4819SOL     OW25918   1.651   0.946   3.395  0.4654  0.5816 -0.2525
 4819SOL    HW125919   1.736   0.963   3.435  0.0956 -2.0414  1.6083
 4819SOL    HW225920   1.675   0.900   3.315  1.8514  0.3004  0.3218
 4820SOL     OW25921   4.263   2.153   3.888 -0.4186  0.2318  0.0262
 4820SOL    HW125922   4.338   2.208   3.868  0.2963 -0.7770 -0.0695
 4820SOL    HW225923   4.295   2.075   3.842 -0.8450  1.3041 -2.0783
 4821SOL     OW25924   1.045   3.793   3.773  0.0534 -0.1615 -0.3307
 4821SOL    HW125925   1.112   3.739   3.730  2.7525  0.7274  2.7777
 4821SOL    HW225926   0.986   3.719   3.788  1.0559 -0.9829 -0.3477
 4822SOL     OW25927   2.308   1.106  13.008  0.5800  0.6544 -0.1615
 4822SOL    HW125928   2.303   1.011  13.000 -0.3709  0.9550 -2.8013
 4822SOL    HW225929   2.367   1.125  13.082  0.0214  1.4698  0.0789
 4823SOL     OW25930   2.257   2.094   7.471 -0.2352 -0.0465  0.3478
 4823SOL    HW125931   2.323   2.137   7.417 -0.8924 -0.5312 -0.8685
 4823SOL    HW225932   2.277   2.001   7.486  2.6506  0.5192 -0.0617
 4824SOL     OW25933   4.171   0.496   3.173 -0.0572 -0.3733 -0.2381
 4824SOL    HW125934   4.123   0.461   3.249 -0.0025 -1.6131 -0.7853
 4824SOL    HW225935   4.212   0.413   3.149 -1.6570 -0.9774 -0.8769
 4825SOL     OW25936   0.461   0.983   9.432  0.3113  0.4205  0.5151
 4825SOL    HW125937   0.387   0.971   9.491 -1.5596 -0.5668 -2.0203
 4825SOL    HW225938   0.516   0.906   9.450  0.0732 -0.1123 -1.0132
 4826SOL     OW25939   3.294   1.559  14.645 -0.4131 -0.1468 -0.6125
 4826SOL    HW125940   3.275   1.630  14.706 -0.7176  0.1762 -1.0799
 4826SOL    HW225941   3.204   1.541  14.617 -0.4224  1.4740 -1.6332
 4827SOL     OW25942   2.619   1.700   5.130  0.2374 -0.1505  0.5508
 4827SOL    HW125943   2.682   1.738   5.192 -0.7980  2.0161  0.2954
 4827SOL    HW225944   2.617   1.606   5.147  0.8896 -0.9986 -3.9713
 4828SOL     OW25945   3.528   3.755   4.923  0.4015 -0.1934  0.0154
 4828SOL    HW125946   3.505   3.840   4.886 -0.4642  0.0725  1.1668
 4828SOL    HW225947   3.499   3.757   5.014 -2.4009 -2.4308 -0.8129
 4829SOL     OW25948   1.931   3.978   7.962  0.5072 -1.1632  0.4117
 4829SOL    HW125949   1.988   4.049   7.932 -1.6457  0.1014 -0.7201
 4829SOL    HW225950   1.969   3.970   8.049 -0.1044 -1.7225  0.6259
 4830SOL     OW25951   0.439   4.534   4.094  0.4435  0.3013  0.4850
 4830SOL    HW125952   0.488   4.602   4.139  0.5057  0.8132 -0.3444
 4830SOL    HW225953   0.503   4.494   4.033 -0.2533 -0.0303 -0.0332
 4831SOL     OW25954   0.705   1.292   3.972 -0.2682  0.1350  0.6869
 4831SOL    HW125955   0.626   1.292   3.917 -0.0241 -1.0671  0.3508
 4831SOL    HW225956   0.675   1.328   4.056 -1.6517  2.6649 -0.8705
 4832SOL     OW25957   1.735   4.003   9.750 -0.4088 -0.2239  0.2592
 4832SOL    HW125958   1.704   3.948   9.822 -0.2638  0.2442  0.6788
 4832SOL    HW225959   1.827   4.014   9.774 -0.2661 -1.1524  0.1512
 4833SOL     OW25960   2.975   1.367   9.013 -0.7543 -0.3201 -0.1257
 4833SOL    HW125961   2.913   1.375   8.940 -0.5807 -0.0912 -0.2461
 4833SOL    HW225962   2.926   1.300   9.061  3.0505 -3.1541 -0.2435
 4834SOL     OW25963   2.192   2.038  13.046  0.0079 -0.6659 -0.1286
 4834SOL    HW125964   2.253   2.056  13.117  0.2450 -0.1987 -0.4584
 4834SOL    HW225965   2.222   1.947  13.038  1.3350  0.0230 -2.8429
 4835SOL     OW25966   3.708   3.082   6.281 -0.2505 -0.7086 -0.3317
 4835SOL    HW125967   3.798   3.050   6.292  0.2682  0.7974 -0.1382
 4835SOL    HW225968   3.663   3.047   6.357 -2.3408  1.2963 -0.6601
 4836SOL     OW25969   4.245   0.993   8.182  0.2078 -0.4869 -0.4477
 4836SOL    HW125970   4.280   1.062   8.239  0.7896 -0.4929 -0.8038
 4836SOL    HW225971   4.191   1.039   8.118 -0.1339  1.7572  1.4075
 4837SOL     OW25972   0.864   4.661  13.906  0.1702  0.5020  0.5274
 4837SOL    HW125973   0.911   4.657  13.989  0.8709 -2.5967 -0.0186
 4837SOL    HW225974   0.822   4.575  13.912 -0.7906  0.8943 -0.5558
 4838SOL     OW25975   2.735   2.627   8.080  0.0261 -0.0893  0.6810
 4838SOL    HW125976   2.670   2.664   8.140 -0.0924 -1.0470  1.1430
 4838SOL    HW225977   2.740   2.537   8.112 -1.8230 -0.2828  0.3996
 4839SOL     OW25978   1.886   1.260   3.303 -0.0452 -0.3139 -0.1717
 4839SOL    HW125979   1.921   1.341   3.341 -0.3150  0.7279 -2.1423
 4839SOL    HW225980   1.955   1.236   3.241  0.1873  0.9351 -0.3893
 4840SOL     OW25981   1.215   0.748   5.804  0.1291  0.4436  0.5063
 4840SOL    HW125982   1.239   0.799   5.726 -1.6491 -0.0583 -0.3628
 4840SOL    HW225983   1.239   0.807   5.875 -0.4335  0.9964  0.2363
 4841SOL     OW25984   0.566   2.386  17.436  0.0971 -0.3431  0.2010
 4841SOL    HW125985   0.629   2.373  17.366 -1.5857 -0.2668 -1.3391
 4841SOL    HW225986   0.483   2.413  17.397  0.7480  0.0971 -0.8640
 4842SOL     OW25987   1.935   3.556   5.934  0.5715  0.0273  0.2561
 4842SOL    HW125988   1.856   3.548   5.986 -1.7817  1.4397 -3.0940
 4842SOL    HW225989   1.974   3.629   5.982 -0.9277 -0.8315  2.7616
 4843SOL     OW25990   4.360   0.067  15.953 -0.1789  0.5669  0.0108
 4843SOL    HW125991   4.452   0.054  15.978 -0.1256  1.4216  0.2646
 4843SOL    HW225992   4.326   0.089  16.040 -0.0944 -1.4543  0.5461
 4844SOL     OW25993   4.353   0.273   4.954 -0.0203 -0.7114  0.1660
 4844SOL    HW125994   4.402   0.223   4.889  0.6834  2.2575 -1.5816
 4844SOL    HW225995   4.311   0.203   5.003  1.4957 -0.2552  2.1514
 4845SOL     OW25996   3.170   4.302   5.457 -0.3194 -0.2367 -0.7364
 4845SOL    HW125997   3.110   4.227   5.465 -0.0686 -0.5516 -1.7486
 4845SOL    HW225998   3.257   4.265   5.471 -0.0055  1.7750  2.4041
 4846SOL     OW25999   1.442   4.579   7.254 -0.0197 -0.2249 -0.1515
 4846SOL    HW126000   1.519   4.562   7.307  0.7642  0.2920 -1.1263
 4846SOL    HW226001   1.432   4.495   7.210  1.2113 -1.1735  1.4076
 4847SOL     OW26002   4.470   2.643   3.438 -0.1477  0.5191  0.5267
 4847SOL    HW126003   4.422   2.568   3.402 -1.2912  1.3888  0.2606
 4847SOL    HW226004   4.423   2.713   3.394  0.7138  0.6598 -0.1780
 4848SOL     OW26005   4.129   2.740   6.947 -0.2309 -0.0193  0.1035
 4848SOL    HW126006   4.101   2.737   6.855 -1.1871 -1.9780  0.4596
 4848SOL    HW226007   4.050   2.758   6.997 -0.6498  0.8681 -0.8812
 4849SOL     OW26008   4.298   0.675   5.592  0.3932 -0.1534  0.6095
 4849SOL    HW126009   4.356   0.697   5.665 -0.6608  0.5784  1.2186
 4849SOL    HW226010   4.243   0.609   5.634 -0.6962  0.0968 -0.4293
 4850SOL     OW26011   1.519   0.392   0.039  0.0460  0.8458 -0.2126
 4850SOL    HW126012   1.483   0.472   0.079 -3.0663 -0.8582  0.3674
 4850SOL    HW226013   1.449   0.336   0.072  1.0597 -0.1397  0.2633
 4851SOL     OW26014   1.202   2.538   4.398 -0.3832 -0.0123 -0.3575
 4851SOL    HW126015   1.249   2.532   4.481  1.6423 -2.1952 -1.6575
 4851SOL    HW226016   1.247   2.468   4.350  2.9583  0.7626  1.6189
 4852SOL     OW26017   2.405   2.021   9.661  0.2292 -0.2703 -0.5947
 4852SOL    HW126018   2.357   2.034   9.579 -0.9530 -0.0698  0.1348
 4852SOL    HW226019   2.415   2.115   9.674  0.4917 -0.7087  2.2949
 4853SOL     OW26020   4.324   0.085   1.907 -0.4840 -0.1225 -0.2716
 4853SOL    HW126021   4.388   0.036   1.854  1.0811  0.3795  1.1456
 4853SOL    HW226022   4.256   0.097   1.842 -1.3163  1.6804  0.9266
 4854SOL     OW26023   0.057   1.228  10.312  0.0612  0.1734  0.3071
 4854SOL    HW126024   0.141   1.183  10.304  0.8384  1.8457 -0.9739
 4854SOL    HW226025   0.079   1.312  10.272 -1.4795 -0.0191 -0.9173
 4855SOL     OW26026   0.808   1.639   7.982 -0.5931  0.1641 -0.7419
 4855SOL    HW126027   0.873   1.701   8.014  0.9167 -1.1845 -1.2034
 4855SOL    HW226028   0.791   1.596   8.067  0.4699  1.3465  0.0547
 4856SOL     OW26029   1.509   1.347   7.792 -0.2940 -0.3512  0.6115
 4856SOL    HW126030   1.589   1.386   7.827 -0.7138  0.2003  0.9467
 4856SOL    HW226031   1.453   1.423   7.808 -1.3091 -1.3878  1.8681
 4857SOL     OW26032   0.022   1.254   4.184  0.0369 -0.0641 -0.0365
 4857SOL    HW126033   4.659   1.229   4.221  0.0483  1.5881  1.1159
 4857SOL    HW226034   0.012   1.249   4.088 -0.2720 -1.4362  0.0648
 4858SOL     OW26035   0.078   4.167   1.956 -0.0181 -0.4700  0.5115
 4858SOL    HW126036   0.105   4.164   1.865  0.1914 -0.1528  0.5621
 4858SOL    HW226037   0.121   4.246   1.989  1.8634 -0.7600 -1.2534
 4859SOL     OW26038   3.942   1.121   3.932 -0.6631  0.1084 -0.0197
 4859SOL    HW126039   3.995   1.067   3.991  2.6780  0.7091 -2.4607
 4859SOL    HW226040   3.905   1.173   4.003  1.5902 -1.8480  2.5696
 4860SOL     OW26041   4.333   2.652   7.083 -0.2919  0.1621  0.2237
 4860SOL    HW126042   4.253   2.680   7.038 -0.2441 -3.3338 -2.0809
 4860SOL    HW226043   4.406   2.677   7.028  1.6842  0.3715  2.9525
 4861SOL     OW26044   0.862   4.385   4.953 -0.3934 -0.1044  0.2564
 4861SOL    HW126045   0.937   4.409   5.007 -1.1548  1.2644  0.7365
 4861SOL    HW226046   0.837   4.475   4.929  1.3656  0.8426  2.0117
 4862SOL     OW26047   4.192   3.275   4.857  0.3757 -0.0380  0.5826
 4862SOL    HW126048   4.117   3.325   4.826 -0.2215  0.1096  2.2525
 4862SOL    HW226049   4.144   3.203   4.898  1.1691 -1.8879 -1.7089
 4863SOL     OW26050   0.523   4.229   6.927 -0.2946 -0.6401 -0.2419
 4863SOL    HW126051   0.480   4.314   6.921  0.3513 -0.4510 -2.0248
 4863SOL    HW226052   0.494   4.191   7.010  0.8676  2.8549  1.7966
 4864SOL     OW26053   1.883   4.033   0.504 -0.7152  0.6988 -0.4616
 4864SOL    HW126054   1.948   4.080   0.452 -0.0449  1.0836  0.7060
 4864SOL    HW226055   1.827   3.990   0.439 -0.4209 -0.5476  0.1093
 4865SOL     OW26056   2.584   2.173   7.149  0.8993 -0.1751 -0.3292
 4865SOL    HW126057   2.616   2.084   7.162  0.2564 -0.3799 -0.1423
 4865SOL    HW226058   2.666   2.207   7.185 -0.3864  0.8699  1.6418
 4866SOL     OW26059   1.510   1.089   8.256 -0.3339  0.2123  0.1158
 4866SOL    HW126060   1.555   1.123   8.334 -0.1084 -1.8826  0.8950
 4866SOL    HW226061   1.505   1.173   8.211  0.4727  0.1301 -0.1354
 4867SOL     OW26062   1.572   0.522   6.099 -0.4216 -0.3473 -0.1207
 4867SOL    HW126063   1.547   0.507   6.008 -1.3487 -0.9402  0.2369
 4867SOL    HW226064   1.579   0.618   6.098  0.5263 -0.4159 -0.3219
 4868SOL     OW26065   1.240   2.544  12.891 -0.1621 -0.6408 -0.2140
 4868SOL    HW126066   1.286   2.592  12.960 -0.8548 -0.6017  0.2156
 4868SOL    HW226067   1.150   2.575  12.881 -0.3361 -1.2853 -0.6675
 4869SOL     OW26068   2.247   1.993   4.154  0.3372  0.6368  0.1650
 4869SOL    HW126069   2.197   1.957   4.227 -1.1920 -1.3113 -1.8691
 4869SOL    HW226070   2.325   2.016   4.204 -0.8171  1.0451  1.7468
 4870SOL     OW26071   0.085   3.504   9.763  0.3979 -0.0701  0.1321
 4870SOL    HW126072   0.046   3.419   9.784 -0.8559  0.0895 -1.5228
 4870SOL    HW226073   0.057   3.515   9.672  1.6886 -1.7003 -0.4624
 4871SOL     OW26074   1.160   0.975  15.403  0.5649  0.2820 -0.1519
 4871SOL    HW126075   1.253   0.953  15.409  0.3274 -0.2403  1.6062
 4871SOL    HW226076   1.122   0.900  15.357  0.4504 -0.5289  1.2761
 4872SOL     OW26077   2.331   3.577  10.436  0.1651  0.0100  0.0786
 4872SOL    HW126078   2.280   3.512  10.484 -0.5848  0.4213 -0.1674
 4872SOL    HW226079   2.405   3.584  10.497 -0.7367  0.6997  1.0919
 4873SOL     OW26080   0.192   1.900  10.106  0.9909  0.0698  0.2445
 4873SOL    HW126081   0.219   1.910  10.015 -0.4759  2.1635  0.0327
 4873SOL    HW226082   0.100   1.881  10.086  2.0122 -2.9645 -1.4708
 4874SOL     OW26083   3.257   4.010   3.636  0.2408 -0.0292  0.0158
 4874SOL    HW126084   3.183   3.991   3.693 -1.2953  1.0701 -1.6202
 4874SOL    HW226085   3.316   3.953   3.687 -0.8263 -0.7600  0.4205
 4875SOL     OW26086   1.063   1.769   8.064  0.2137 -0.3984 -0.0845
 4875SOL    HW126087   1.118   1.826   8.010 -1.1172  0.7701 -0.2163
 4875SOL    HW226088   1.103   1.792   8.148 -1.5773  0.7866  0.4353
 4876SOL     OW26089   1.207   2.606   0.023 -0.2888  0.6721 -0.2035
 4876SOL    HW126090   1.122   2.630  17.673  0.4686  2.1110 -0.9664
 4876SOL    HW226091   1.181   2.586   0.113 -0.7948  1.0301 -0.2686
 4877SOL     OW26092   3.707   3.223   8.849  0.0104 -0.6005 -0.3513
 4877SOL    HW126093   3.720   3.143   8.900 -2.5543 -0.1279  1.0477
 4877SOL    HW226094   3.685   3.285   8.918  0.1730  0.1447 -0.9773
 4878SOL     OW26095   1.025   2.865   7.177  0.0535 -0.6002  0.2195
 4878SOL    HW126096   1.102   2.872   7.233  0.9862 -0.9795 -1.0085
 4878SOL    HW226097   0.960   2.899   7.238  0.3938  0.5126 -0.0164
 4879SOL     OW26098   0.068   4.525   1.803  0.5835  0.1055  0.2554
 4879SOL    HW126099   0.116   4.497   1.880 -1.2149 -0.8701  1.0221
 4879SOL    HW226100   0.144   4.525   1.744 -0.1209  0.6462 -0.6589
 4880SOL     OW26101   1.034   4.378   7.909  0.5290  0.3176  0.8144
 4880SOL    HW126102   1.054   4.328   7.830 -1.1621  0.4885  0.2590
 4880SOL    HW226103   0.959   4.327   7.940  0.1134  1.6761  2.0655
 4881SOL     OW26104   0.835   3.188  15.339 -0.0526 -0.1543  0.4912
 4881SOL    HW126105   0.831   3.162  15.431  2.0620  2.1175  1.2172
 4881SOL    HW226106   0.749   3.175  15.298  0.8616  0.4940 -1.6489
 4882SOL     OW26107   1.286   2.811   7.320  0.6665  0.2876  0.1302
 4882SOL    HW126108   1.296   2.770   7.234  1.5674 -1.0875  0.8874
 4882SOL    HW226109   1.371   2.854   7.320  1.7128 -1.7930 -0.1554
 4883SOL     OW26110   4.350   0.491   0.766  0.6023  0.9777 -0.6531
 4883SOL    HW126111   4.427   0.452   0.808  1.1874  0.7880 -1.8903
 4883SOL    HW226112   4.307   0.548   0.829 -1.0444 -0.0853 -0.8014
 4884SOL     OW26113   1.609   3.340   5.058 -0.2801  0.1606 -0.3532
 4884SOL    HW126114   1.683   3.302   5.105  0.1941  0.1788 -1.1025
 4884SOL    HW226115   1.538   3.310   5.115 -0.8707  1.5331 -0.3447
 4885SOL     OW26116   1.563   4.196   6.885  0.3435 -0.0088  0.0040
 4885SOL    HW126117   1.545   4.189   6.791 -1.2734 -1.4208  0.4369
 4885SOL    HW226118   1.658   4.181   6.887  0.3492 -0.0153 -0.3579
 4886SOL     OW26119   1.018   2.673   2.996 -0.4239 -0.0589  0.3011
 4886SOL    HW126120   1.006   2.644   2.905 -2.2263  0.4276  0.3745
 4886SOL    HW226121   1.094   2.624   3.027 -0.0189 -0.3242 -1.0934
 4887SOL     OW26122   4.277   3.481   9.063 -0.3301 -0.4153  0.2318
 4887SOL    HW126123   4.228   3.469   9.145  2.2943 -0.1180  1.8303
 4887SOL    HW226124   4.256   3.566   9.022 -1.7369  0.1219  2.0669
 4888SOL     OW26125   1.037   3.640  14.669 -0.2339  0.2304 -0.1265
 4888SOL    HW126126   1.095   3.716  14.673  2.2694 -1.6181 -2.0954
 4888SOL    HW226127   1.033   3.624  14.575 -0.8197 -0.4868  0.0198
 4889SOL     OW26128   2.853   2.815   6.138 -1.1321  0.0592 -0.3208
 4889SOL    HW126129   2.890   2.829   6.051 -2.1563 -0.7183 -0.8807
 4889SOL    HW226130   2.862   2.721   6.155 -0.6110 -0.0441 -1.2097
 4890SOL     OW26131   3.322   1.836   7.396 -0.4686  0.5376 -0.2418
 4890SOL    HW126132   3.366   1.753   7.376 -0.6261  0.5702 -0.7324
 4890SOL    HW226133   3.237   1.797   7.416  0.1956 -0.0085  1.5186
 4891SOL     OW26134   2.304   0.353   6.104 -0.6366  0.2155 -0.0793
 4891SOL    HW126135   2.224   0.341   6.155 -0.2391 -1.1397  0.2431
 4891SOL    HW226136   2.291   0.442   6.071 -0.4645 -0.3481 -1.6610
 4892SOL     OW26137   1.784   4.329  15.590 -0.9008  0.7642 -0.0212
 4892SOL    HW126138   1.730   4.362  15.519 -1.1385 -0.1431 -0.2676
 4892SOL    HW226139   1.853   4.395  15.597  1.0116 -1.2767  0.6014
 4893SOL     OW26140   1.085   3.225   0.405  0.1680 -0.1826 -0.2847
 4893SOL    HW126141   1.117   3.315   0.409  2.0538 -0.7991 -1.4642
 4893SOL    HW226142   1.034   3.225   0.486  0.1687 -1.2389 -0.2845
 4894SOL     OW26143   3.296   4.305   9.214  0.6849 -0.0705  0.6452
 4894SOL    HW126144   3.243   4.349   9.280 -1.1514 -0.3404 -0.6742
 4894SOL    HW226145   3.331   4.381   9.167  0.3231  0.8451  1.8689
 4895SOL     OW26146   2.395   1.938   2.684  0.2582  0.4905 -0.1188
 4895SOL    HW126147   2.454   1.979   2.622  0.6217  2.5893  1.6321
 4895SOL    HW226148   2.401   1.977   2.771 -2.2856 -0.6073  0.5594
 4896SOL     OW26149   0.232   1.547   4.403  0.7838 -0.0408  1.1521
 4896SOL    HW126150   0.247   1.621   4.462 -0.3483  2.0819 -1.1690
 4896SOL    HW226151   0.205   1.474   4.458 -0.1187 -1.8979 -1.7093
 4897SOL     OW26152   1.489   3.459   4.435  0.6564 -0.0164 -0.4884
 4897SOL    HW126153   1.522   3.539   4.393  1.1679  0.4926  0.8881
 4897SOL    HW226154   1.492   3.402   4.358  0.8627  0.8557 -1.1305
 4898SOL     OW26155   0.056   0.394  12.482  0.0413  0.0627  0.5706
 4898SOL    HW126156   4.700   0.449  12.491  1.4260  2.0985  0.0331
 4898SOL    HW226157   0.075   0.365  12.571  1.6945 -0.5432  0.0217
 4899SOL     OW26158   3.402   1.016   5.485  0.1249 -0.8633  0.5967
 4899SOL    HW126159   3.471   1.017   5.419  0.1285  2.2235  0.6471
 4899SOL    HW226160   3.422   0.934   5.531  0.3082 -1.7190 -1.0390
 4900SOL     OW26161   4.281   2.277  16.453  0.0519  0.4863  0.7479
 4900SOL    HW126162   4.303   2.267  16.546  1.9831  0.5558  0.2856
 4900SOL    HW226163   4.294   2.187  16.424 -4.2391  0.8513 -2.3379
 4901SOL     OW26164   2.046   2.552   1.914  0.1370  0.3964 -0.6382
 4901SOL    HW126165   1.964   2.594   1.940  0.5152  0.0233  1.1389
 4901SOL    HW226166   2.080   2.522   1.998 -0.3279  1.7411  0.0326
 4902SOL     OW26167   1.173   2.044   6.784  0.1700 -0.2570  0.0396
 4902SOL    HW126168   1.087   2.068   6.750  0.8360 -1.1078 -2.2485
 4902SOL    HW226169   1.203   2.129   6.815  2.2689 -1.2032  0.5513
 4903SOL     OW26170   3.320   3.790   5.400 -0.2712  0.2472 -0.6643
 4903SOL    HW126171   3.244   3.835   5.438 -0.1814  0.3238 -0.5745
 4903SOL    HW226172   3.386   3.800   5.470 -0.1461  0.6926 -0.8480
 4904SOL     OW26173   3.444   1.184   7.220  0.4698 -0.6733 -0.7896
 4904SOL    HW126174   3.461   1.261   7.273 -0.3581 -0.3416 -1.0093
 4904SOL    HW226175   3.474   1.112   7.275  3.8108 -0.4859 -2.3463
 4905SOL     OW26176   1.172   3.345   0.886 -0.2401  0.5065 -0.1346
 4905SOL    HW126177   1.216   3.303   0.960 -2.1734 -0.6498  0.3381
 4905SOL    HW226178   1.113   3.402   0.935 -2.0748 -0.4459 -1.2474
 4906SOL     OW26179   1.553   0.647   8.860  0.4036  0.2205 -0.1194
 4906SOL    HW126180   1.505   0.715   8.907 -1.3348  0.0521 -1.6795
 4906SOL    HW226181   1.554   0.568   8.915 -3.9556 -0.6436 -1.3138
 4907SOL     OW26182   4.259   4.168   2.809 -0.4975 -0.6289 -0.1029
 4907SOL    HW126183   4.354   4.163   2.808 -0.3933  1.2526 -1.5966
 4907SOL    HW226184   4.233   4.244   2.862 -0.5078 -0.2012 -0.7194
 4908SOL     OW26185   1.303   4.484  17.178  0.0791 -0.5912  0.2826
 4908SOL    HW126186   1.349   4.563  17.207 -1.6047 -0.0722  1.5496
 4908SOL    HW226187   1.366   4.438  17.122 -1.8170 -0.0811 -2.2785
 4909SOL     OW26188   0.756   0.098   7.183  0.1771  0.4780 -0.0218
 4909SOL    HW126189   0.841   0.064   7.210  0.6549  1.0699 -0.7874
 4909SOL    HW226190   0.705   0.030   7.227  0.6394 -0.9735 -1.7444
 4910SOL     OW26191   3.083   0.222   2.350 -0.2779  0.0699  0.1449
 4910SOL    HW126192   3.009   0.282   2.353 -0.9019 -0.7342  0.7947
 4910SOL    HW226193   3.100   0.214   2.256 -1.5049 -0.2571 -0.0441
 4911SOL     OW26194   4.594   2.473   8.077 -0.6942  0.3798 -0.2617
 4911SOL    HW126195   4.679   2.451   8.038 -0.1609 -1.4508  1.9212
 4911SOL    HW226196   4.605   2.396   8.132 -2.7287  0.1510 -0.1662
 4912SOL     OW26197   1.470   1.070   6.612 -0.1808  0.1945 -0.2573
 4912SOL    HW126198   1.428   1.104   6.533 -0.3676  1.0889  0.2285
 4912SOL    HW226199   1.548   1.027   6.575  0.8359  0.4877  1.5407
 4913SOL     OW26200   3.399   2.475   7.521  0.0739 -1.0681  0.0663
 4913SOL    HW126201   3.448   2.556   7.507 -0.2891 -0.8915 -0.1568
 4913SOL    HW226202   3.450   2.422   7.461 -0.2381 -1.0449 -0.2168
 4914SOL     OW26203   3.081   0.258   7.466 -0.0599 -0.3286 -0.1576
 4914SOL    HW126204   3.057   0.308   7.543  3.0550  1.7061 -0.5649
 4914SOL    HW226205   2.995   0.244   7.425 -1.2788 -1.2070  2.6712
 4915SOL     OW26206   0.230   4.270   8.226  0.1998 -0.1073  0.8056
 4915SOL    HW126207   0.290   4.205   8.191 -0.0113  0.7198 -1.0784
 4915SOL    HW226208   0.158   4.225   8.270  2.4104 -2.7062  1.7545
 4916SOL     OW26209   4.684   3.731  11.086  0.0940 -0.2318  0.3753
 4916SOL    HW126210   4.698   3.646  11.128  2.3113 -1.2306 -2.3339
 4916SOL    HW226211   0.010   3.714  11.004  0.7124  0.8414  0.5086
 4917SOL     OW26212   4.055   3.290  16.804 -0.1402  0.3433 -0.3152
 4917SOL    HW126213   4.099   3.258  16.726  1.0891 -0.4399  0.7124
 4917SOL    HW226214   4.056   3.384  16.783 -1.9464  0.3582 -0.3331
 4918SOL     OW26215   1.784   1.417   7.694 -0.1671  0.0423  0.3475
 4918SOL    HW126216   1.843   1.402   7.768 -0.1052 -0.7587  0.1273
 4918SOL    HW226217   1.815   1.356   7.627 -2.7165  0.4917 -1.2568
 4919SOL     OW26218   3.374   2.561  10.035 -0.3555  0.0550 -0.3492
 4919SOL    HW126219   3.322   2.541  10.113 -0.9250  0.2353 -0.6788
 4919SOL    HW226220   3.447   2.499  10.042  0.4440  0.9553 -0.8381
 4920SOL     OW26221   2.790   1.947   8.450 -0.5053  0.0875  0.0884
 4920SOL    HW126222   2.822   1.990   8.529  1.8359  0.2957 -0.9734
 4920SOL    HW226223   2.706   1.918   8.484 -1.3300  2.2972 -0.0266
 4921SOL     OW26224   1.041   2.688   7.459 -0.1064 -0.0511  0.2285
 4921SOL    HW126225   1.072   2.600   7.435  2.3645  0.3805  1.7496
 4921SOL    HW226226   1.121   2.733   7.431  1.8075 -2.5414  1.6875
 4922SOL     OW26227   2.792   0.874   7.377 -0.2796 -0.0715 -0.3322
 4922SOL    HW126228   2.765   0.945   7.318 -1.2219 -0.3153 -0.1968
 4922SOL    HW226229   2.832   0.916   7.453  2.4409 -2.1370 -0.6475
 4923SOL     OW26230   3.934   1.180   5.791 -0.1984 -0.5270  0.2247
 4923SOL    HW126231   3.985   1.261   5.791  0.5527 -1.0019 -0.0089
 4923SOL    HW226232   3.880   1.186   5.713  4.5335 -1.3531 -3.0696
 4924SOL     OW26233   3.603   2.891   3.085  0.4957  0.0443  0.6175
 4924SOL    HW126234   3.560   2.807   3.066  0.3734  0.2440 -0.0119
 4924SOL    HW226235   3.543   2.951   3.041  0.8872  1.0837  1.5285
 4925SOL     OW26236   2.697   3.686  10.336  0.1620  0.4836 -0.0536
 4925SOL    HW126237   2.608   3.720  10.329  0.9901  2.1159 -2.5167
 4925SOL    HW226238   2.711   3.632  10.259 -0.6156  0.5329 -0.2223
 4926SOL     OW26239   0.045   4.599   2.976 -0.5256  0.4899  0.5838
 4926SOL    HW126240   4.674   4.621   2.965 -0.2094  1.1368 -0.7457
 4926SOL    HW226241   0.060   4.544   2.899  0.7345 -0.1875  1.3211
 4927SOL     OW26242   2.935   2.930  14.176 -0.2137  0.4406  1.0086
 4927SOL    HW126243   2.974   2.870  14.113 -1.3816  0.5998  0.1287
 4927SOL    HW226244   3.013   2.977  14.205 -0.7200  0.5767  2.1647
 4928SOL     OW26245   2.663   4.485   3.374  0.1149 -0.2434  0.1708
 4928SOL    HW126246   2.642   4.556   3.435 -0.1497  1.3931 -1.8600
 4928SOL    HW226247   2.575   4.466   3.344 -1.1477  1.8058  2.5927
 4929SOL     OW26248   3.926   2.010   4.803  1.1156 -0.3561 -0.1391
 4929SOL    HW126249   4.010   2.056   4.802  0.0623  1.5359 -1.7177
 4929SOL    HW226250   3.920   2.034   4.896  1.7167 -1.7675  0.2631
 4930SOL     OW26251   1.515   3.444   7.222 -0.1369 -0.8345 -0.5502
 4930SOL    HW126252   1.463   3.505   7.275  0.5874 -1.6652  1.1467
 4930SOL    HW226253   1.449   3.388   7.181 -1.3179 -0.4079  0.7600
 4931SOL     OW26254   2.734   0.635  11.660  0.2235  0.3066 -0.4336
 4931SOL    HW126255   2.655   0.669  11.702 -0.9543 -0.8286 -1.7386
 4931SOL    HW226256   2.772   0.597  11.739 -0.9048 -2.1216 -1.0645
 4932SOL     OW26257   2.971   0.851   1.192 -0.2074  0.2148  0.3810
 4932SOL    HW126258   2.904   0.826   1.128 -0.1870 -1.3644  0.9889
 4932SOL    HW226259   3.042   0.849   1.129 -0.3824  0.1695  0.1842
 4933SOL     OW26260   1.279   4.237   5.591 -0.5636 -0.5322  0.0229
 4933SOL    HW126261   1.201   4.261   5.641  0.6260  3.3154 -0.0080
 4933SOL    HW226262   1.292   4.147   5.621  1.5164 -0.5268 -0.8948
 4934SOL     OW26263   3.042   0.137   8.812 -1.0186 -0.5229 -0.1144
 4934SOL    HW126264   2.971   0.092   8.858  0.6992 -2.8152  0.3155
 4934SOL    HW226265   2.998   0.220   8.795 -1.2672 -0.4905  0.6907
 4935SOL     OW26266   1.051   1.476   8.030  0.9392  0.1633  0.4299
 4935SOL    HW126267   1.114   1.517   8.090 -0.9044  2.2122  0.9682
 4935SOL    HW226268   0.975   1.492   8.087  1.1487  1.7154  0.2628
 4936SOL     OW26269   0.845   1.450  16.947 -0.0830  0.4294 -0.8192
 4936SOL    HW126270   0.919   1.394  16.967  0.9244  2.8720  2.2948
 4936SOL    HW226271   0.861   1.528  17.000  1.0301 -0.4928  0.1823
 4937SOL     OW26272   0.349   2.306  16.780 -0.6965  0.5996  0.5631
 4937SOL    HW126273   0.256   2.293  16.800 -0.4544  0.1106  1.3820
 4937SOL    HW226274   0.364   2.272  16.692 -1.0460  0.8845  0.3932
 4938SOL     OW26275   3.067   1.621   9.057  0.7856 -0.4402 -0.2188
 4938SOL    HW126276   3.020   1.540   9.035  0.7412 -0.1782 -1.0950
 4938SOL    HW226277   3.045   1.619   9.150 -1.0669 -0.0569 -0.6564
 4939SOL     OW26278   0.472   3.273   6.064 -0.5303  0.1955  0.4388
 4939SOL    HW126279   0.495   3.181   6.053  1.5871  0.9529 -1.3777
 4939SOL    HW226280   0.556   3.313   6.087  0.7808 -2.3343  0.0832
 4940SOL     OW26281   0.088   1.438   5.643 -0.1158  0.1512  0.5004
 4940SOL    HW126282   0.174   1.401   5.660  0.2300  2.3322  3.3715
 4940SOL    HW226283   0.036   1.357   5.636  0.7826 -0.0538 -3.5539
 4941SOL     OW26284   1.417   4.427  13.653 -0.0067  0.1645  0.2294
 4941SOL    HW126285   1.351   4.421  13.584 -0.8172 -1.2985  1.1401
 4941SOL    HW226286   1.475   4.359  13.618 -0.9646 -1.4169  1.7160
 4942SOL     OW26287   0.364   2.973  14.430  0.2717  0.8430 -0.2121
 4942SOL    HW126288   0.399   2.908  14.490 -1.1962 -0.0397 -0.2999
 4942SOL    HW226289   0.271   2.960  14.450  0.1414  3.2985  0.8376
 4943SOL     OW26290   3.863   1.242   6.052 -0.0523  0.0684  0.0281
 4943SOL    HW126291   3.908   1.223   5.970  0.0048  2.8689 -0.5873
 4943SOL    HW226292   3.827   1.328   6.031 -0.6279 -0.6581 -1.9708
 4944SOL     OW26293   0.330   2.843  14.931  0.3180  0.8555  0.8346
 4944SOL    HW126294   0.354   2.765  14.881  0.7797  1.1469  0.6048
 4944SOL    HW226295   0.283   2.802  15.004 -1.8395  2.0624  0.1170
 4945SOL     OW26296   4.150   3.535   3.939 -0.0310  0.5351 -0.3197
 4945SOL    HW126297   4.152   3.543   4.034 -2.9107 -1.3757 -0.1004
 4945SOL    HW226298   4.197   3.451   3.933 -1.3968 -0.2144 -0.5405
 4946SOL     OW26299   1.323   0.347  13.423  0.3296  0.3036  0.1005
 4946SOL    HW126300   1.339   0.438  13.396 -0.0602  0.6530  1.0264
 4946SOL    HW226301   1.396   0.329  13.482 -0.4757 -2.7821  0.1293
 4947SOL     OW26302   3.630   0.023   3.526 -0.1502 -0.7141 -0.3307
 4947SOL    HW126303   3.646   0.096   3.585  1.2083 -1.6786  0.4898
 4947SOL    HW226304   3.547   0.040   3.481  1.6236 -0.1629 -3.4435
 4948SOL     OW26305   0.063   2.510  10.750 -0.0338 -0.1505  0.1863
 4948SOL    HW126306   0.016   2.453  10.810  0.7036 -2.1552 -1.1077
 4948SOL    HW226307   0.151   2.492  10.783 -0.2123  0.6789  1.1117
 4949SOL     OW26308   2.804   1.166   0.264  0.4124 -0.8921 -0.2576
 4949SOL    HW126309   2.848   1.164   0.349  1.7953  1.1292 -0.9452
 4949SOL    HW226310   2.718   1.146   0.302  1.0428  0.0592  1.6637
 4950SOL     OW26311   1.676   3.490   6.026 -0.1039  0.3566 -0.1523
 4950SOL    HW126312   1.597   3.445   6.054  1.0169 -0.7262  1.2783
 4950SOL    HW226313   1.718   3.474   6.110 -0.0235  1.5682  0.0487
 4951SOL     OW26314   4.109   0.664   0.628  0.1499  0.1233  0.1930
 4951SOL    HW126315   4.038   0.729   0.626  0.9696  1.0316  0.3379
 4951SOL    HW226316   4.171   0.729   0.660 -0.3188  0.8198 -0.2838
 4952SOL     OW26317   4.512   1.678   5.341  0.2634 -0.7952  0.0300
 4952SOL    HW126318   4.455   1.753   5.319  1.7450  0.8321  1.7408
 4952SOL    HW226319   4.544   1.660   5.253  1.2315 -1.8769  0.6041
 4953SOL     OW26320   1.673   3.668   9.166 -0.3622 -0.9641 -0.6792
 4953SOL    HW126321   1.650   3.746   9.217  0.3637 -0.9147 -0.4161
 4953SOL    HW226322   1.602   3.671   9.102 -1.0363  1.4571  0.2000
 4954SOL     OW26323   1.429   2.438   7.344  0.0195 -0.1861 -0.2576
 4954SOL    HW126324   1.351   2.472   7.300 -1.4468 -1.1261  1.6336
 4954SOL    HW226325   1.392   2.359   7.383 -2.3791  2.1392  2.1881
 4955SOL     OW26326   2.104   3.210   6.674 -0.1268  0.3770 -0.0729
 4955SOL    HW126327   2.039   3.199   6.605 -1.1877 -0.2881  1.0296
 4955SOL    HW226328   2.103   3.125   6.719  0.9075  0.6025  0.3758
 4956SOL     OW26329   0.399   2.646  13.420 -0.1953  0.4868  0.0404
 4956SOL    HW126330   0.451   2.726  13.424  0.8424 -0.1375 -1.2182
 4956SOL    HW226331   0.313   2.666  13.383 -1.8379 -4.0103  1.3925
 4957SOL     OW26332   1.272   0.817   6.417  0.5974  0.0970 -0.6852
 4957SOL    HW126333   1.278   0.769   6.335 -2.0124  1.7128 -1.8479
 4957SOL    HW226334   1.268   0.906   6.382 -0.0247  0.3171 -0.0799
 4958SOL     OW26335   2.324   0.322   2.597  0.1494  0.8982 -0.2803
 4958SOL    HW126336   2.391   0.273   2.549 -0.7144  0.1330 -0.7136
 4958SOL    HW226337   2.322   0.406   2.551 -1.0202  0.6361 -0.7232
 4959SOL     OW26338   3.499   0.153   4.252  0.1892 -0.0426 -0.1394
 4959SOL    HW126339   3.590   0.181   4.241 -0.1794  1.7859  1.4664
 4959SOL    HW226340   3.480   0.081   4.191  0.3864  0.1649 -0.4481
 4960SOL     OW26341   4.230   1.389   9.798 -0.2320  0.3280  0.0781
 4960SOL    HW126342   4.177   1.462   9.831  1.7716  1.6852  0.2842
 4960SOL    HW226343   4.272   1.431   9.723  1.7173 -0.2404  0.8445
 4961SOL     OW26344   2.151   1.033   4.185  0.0119  0.1603 -0.0374
 4961SOL    HW126345   2.214   1.100   4.157  3.5398 -3.3527 -0.5367
 4961SOL    HW226346   2.190   0.951   4.156  0.5987  0.5011 -0.2299
 4962SOL     OW26347   0.437   0.589  11.923 -0.1921  0.4608  0.5949
 4962SOL    HW126348   0.343   0.574  11.915 -0.1813  1.6999 -1.9317
 4962SOL    HW226349   0.451   0.612  11.831 -1.4484  1.2914  0.6122
 4963SOL     OW26350   1.539   3.025   6.249  0.5620 -0.5062 -0.1781
 4963SOL    HW126351   1.545   3.112   6.288  1.3916 -1.4740  1.8227
 4963SOL    HW226352   1.483   3.039   6.172 -2.0975  1.0042  2.0345
 4964SOL     OW26353   4.018   3.507   4.769 -0.1500 -0.6943 -0.4521
 4964SOL    HW126354   4.017   3.600   4.792 -0.1478  0.0518 -3.5697
 4964SOL    HW226355   3.959   3.468   4.834  2.0198 -3.1961 -0.0016
 4965SOL     OW26356   4.007   0.650   1.441  0.1786  0.5593  0.7469
 4965SOL    HW126357   4.081   0.690   1.487 -1.6014  2.7021  1.7696
 4965SOL    HW226358   3.939   0.699   1.486 -0.5763 -0.4808  0.7357
 4966SOL     OW26359   1.188   1.164   8.431  0.4767 -0.1404 -0.3221
 4966SOL    HW126360   1.106   1.132   8.469  2.1950 -2.4237  1.4881
 4966SOL    HW226361   1.195   1.110   8.352  2.5505 -1.1123  0.5301
 4967SOL     OW26362   4.023   1.914  17.479  0.0427  0.2466 -0.1846
 4967SOL    HW126363   4.010   1.875  17.393  0.7311 -0.9784  0.2711
 4967SOL    HW226364   3.950   1.976  17.476 -0.9295 -0.9009 -0.1095
 4968SOL     OW26365   0.030   2.029   3.868 -0.2971 -0.2090 -0.0894
 4968SOL    HW126366   4.682   1.981   3.912 -0.8611  1.6780  1.0952
 4968SOL    HW226367   0.072   1.951   3.832 -0.4732 -0.7149  0.7967
 4969SOL     OW26368   0.078   2.719   5.086 -0.2483  0.7359 -0.3808
 4969SOL    HW126369   0.021   2.655   5.128  1.6716 -1.6637 -1.4449
 4969SOL    HW226370   0.155   2.663   5.079  0.3975  1.4550  0.9365
 4970SOL     OW26371   1.222   3.314  11.842  0.5882  0.2078 -0.1382
 4970SOL    HW126372   1.277   3.385  11.873  2.1117 -1.8942  1.9030
 4970SOL    HW226373   1.266   3.243  11.887 -0.5108 -0.4602 -0.1105
 4971SOL     OW26374   2.307   2.261  10.387 -0.1663 -0.3521 -0.2435
 4971SOL    HW126375   2.252   2.336  10.367 -0.3574  0.4393  3.2044
 4971SOL    HW226376   2.370   2.307  10.442 -2.4311  2.4115 -0.0055
 4972SOL     OW26377   3.836   2.246   1.226 -0.5129 -0.4699  0.8232
 4972SOL    HW126378   3.809   2.167   1.180  0.3249 -0.4357  0.2666
 4972SOL    HW226379   3.779   2.254   1.302 -1.3734 -3.2234  0.4524
 4973SOL     OW26380   3.503   0.342   8.434  0.0093  0.0867 -0.1281
 4973SOL    HW126381   3.412   0.365   8.455  0.2176  0.8639 -0.0731
 4973SOL    HW226382   3.520   0.265   8.489 -0.1681 -1.3502 -2.0935
 4974SOL     OW26383   2.156   0.591   5.080  0.1262 -0.2726 -0.9029
 4974SOL    HW126384   2.189   0.681   5.078  0.7748 -0.5034 -0.8250
 4974SOL    HW226385   2.119   0.592   5.168  2.9247  1.7100  0.2848
 4975SOL     OW26386   1.901   1.922   5.139  0.5787 -0.2459 -0.4471
 4975SOL    HW126387   1.944   1.994   5.095 -1.1150 -0.0424 -1.7988
 4975SOL    HW226388   1.968   1.891   5.200  1.8234  2.0983 -0.6513
 4976SOL     OW26389   0.287   2.843   8.198  0.4070 -0.0077  0.1544
 4976SOL    HW126390   0.269   2.811   8.109  0.5465 -1.4958  0.6578
 4976SOL    HW226391   0.304   2.933   8.171 -0.0430  0.8875  2.8454
 4977SOL     OW26392   1.227   0.656  13.114  0.0053 -0.1118 -0.1270
 4977SOL    HW126393   1.142   0.637  13.154 -0.9423  1.9263 -1.1316
 4977SOL    HW226394   1.279   0.624  13.188 -2.9198  0.6803  2.2575
 4978SOL     OW26395   4.518   2.217   2.989 -0.4117  0.1374  0.2596
 4978SOL    HW126396   4.450   2.243   2.928  0.3531  1.3754 -0.0715
 4978SOL    HW226397   4.559   2.301   3.009  0.4221  0.0900 -1.1980
 4979SOL     OW26398   2.836   3.755   4.836  0.2605  0.3412  0.0554
 4979SOL    HW126399   2.823   3.726   4.926 -0.5533  0.4118 -0.0388
 4979SOL    HW226400   2.883   3.680   4.801 -1.4122 -1.3973  1.5492
 4980SOL     OW26401   1.920   0.965   6.082 -0.2382 -0.4691 -0.2674
 4980SOL    HW126402   1.991   0.993   6.024 -0.2384  0.1193  0.0186
 4980SOL    HW226403   1.955   0.883   6.116  0.0479 -0.7068 -1.1206
 4981SOL     OW26404   1.822   2.716  12.090  0.3426 -0.5873  0.1503
 4981SOL    HW126405   1.814   2.690  12.182  0.2545 -0.3540  0.2084
 4981SOL    HW226406   1.825   2.629  12.051  0.1064 -0.2738 -0.5554
 4982SOL     OW26407   2.645   2.351   2.550 -0.4813 -0.3681 -0.2768
 4982SOL    HW126408   2.578   2.398   2.600  0.9826 -0.0804  1.4168
 4982SOL    HW226409   2.597   2.326   2.471  1.9488  0.1067 -1.8932
 4983SOL     OW26410   1.546   1.420   8.817 -0.3011 -0.2825 -0.4991
 4983SOL    HW126411   1.508   1.333   8.801 -1.6613  0.5260 -1.6949
 4983SOL    HW226412   1.509   1.463   8.740 -0.1882  2.1368  0.8158
 4984SOL     OW26413   3.983   0.910   9.996  0.0531 -0.3480  0.4068
 4984SOL    HW126414   3.980   0.868  10.082 -0.8238  1.3422  1.1962
 4984SOL    HW226415   4.048   0.977  10.018 -0.2743  0.1747 -0.2197
 4985SOL     OW26416   2.969   4.582  11.506  0.4077 -0.1877 -0.5657
 4985SOL    HW126417   3.000   4.631  11.430  0.7056 -0.4778 -0.6291
 4985SOL    HW226418   3.050   4.543  11.537 -0.6998 -0.1507  2.3469
 4986SOL     OW26419   1.796   0.469   2.570  0.3996 -0.0996  0.1456
 4986SOL    HW126420   1.838   0.397   2.616  1.1426  0.2355  0.0036
 4986SOL    HW226421   1.723   0.487   2.629  0.5638 -1.8145  0.8632
 4987SOL     OW26422   4.411   2.201   7.576  0.3784  0.3069  0.7892
 4987SOL    HW126423   4.327   2.247   7.577 -0.5559 -1.3462 -0.1990
 4987SOL    HW226424   4.457   2.252   7.642  1.1184 -1.1419  1.3920
 4988SOL     OW26425   3.944   4.198   3.811  0.2265  0.4017 -0.2315
 4988SOL    HW126426   3.856   4.201   3.849  0.2345 -1.4867 -0.0516
 4988SOL    HW226427   3.993   4.235   3.884  0.5912 -0.4518 -0.0445
 4989SOL     OW26428   2.295   1.278   1.051  0.2944  0.4783 -0.4096
 4989SOL    HW126429   2.210   1.278   1.009 -0.4672  1.6753  1.1422
 4989SOL    HW226430   2.296   1.218   1.125 -0.0063  0.7022 -0.2296
 4990SOL     OW26431   4.484   0.340   9.120 -0.1114  0.1005  0.1685
 4990SOL    HW126432   4.554   0.316   9.059 -0.2016  1.7716 -0.6054
 4990SOL    HW226433   4.413   0.349   9.055  1.4953 -2.3690 -1.9484
 4991SOL     OW26434   1.730   1.623  15.606  0.1190  0.3518 -0.3186
 4991SOL    HW126435   1.750   1.664  15.523  1.1901 -1.0137 -0.7250
 4991SOL    HW226436   1.785   1.545  15.600 -0.0531  0.1747  0.3278
 4992SOL     OW26437   1.888   1.627   7.870  0.4058 -0.1502  0.1255
 4992SOL    HW126438   1.851   1.601   7.786 -3.2316 -0.3532  1.7543
 4992SOL    HW226439   1.981   1.618   7.849  0.6785  1.9929  0.4433
 4993SOL     OW26440   0.979   4.221  15.423  0.1336  0.2383 -0.7016
 4993SOL    HW126441   0.902   4.277  15.416  1.2435  2.1522  2.2354
 4993SOL    HW226442   0.940   4.139  15.392  0.2235 -0.0304 -0.1110
 4994SOL     OW26443   4.641   1.658   5.588 -0.2996  0.2798 -0.3453
 4994SOL    HW126444   4.709   1.595   5.611 -1.6841 -0.9964  0.2822
 4994SOL    HW226445   4.631   1.655   5.493  1.5695  0.4579 -0.5366
 4995SOL     OW26446   0.723   0.649   2.962  0.1537 -0.5740  0.5110
 4995SOL    HW126447   0.784   0.700   2.908 -1.8839  0.4288 -0.8488
 4995SOL    HW226448   0.642   0.700   2.963 -0.6560 -1.8587  0.0285
 4996SOL     OW26449   1.283   1.926   7.903  0.3794 -0.0072 -0.0561
 4996SOL    HW126450   1.280   2.021   7.919 -2.2296  0.2372 -1.8762
 4996SOL    HW226451   1.226   1.921   7.826  1.2265  2.0329 -0.8177
 4997SOL     OW26452   1.191   2.347   0.588  0.0590 -0.4633 -0.4037
 4997SOL    HW126453   1.126   2.306   0.531 -1.1818 -0.1286  0.7833
 4997SOL    HW226454   1.264   2.341   0.527 -1.0118 -2.6579 -1.4603
 4998SOL     OW26455   2.955   1.946  14.748 -0.2827 -0.2789  0.1192
 4998SOL    HW126456   2.922   1.998  14.675 -1.1390 -1.1126 -0.0845
 4998SOL    HW226457   2.910   1.985  14.822  2.1055  2.2914  0.2147
 4999SOL     OW26458   4.038   2.807   2.832 -0.4675 -0.0627 -0.7619
 4999SOL    HW126459   3.983   2.796   2.910 -2.1172  1.4887 -1.7102
 4999SOL    HW226460   3.983   2.869   2.786 -1.0648 -0.4644 -0.5911
 5000SOL     OW26461   2.935   1.804   5.793  0.7701  0.0228  0.2835
 5000SOL    HW126462   2.863   1.766   5.843 -1.6811  2.1076 -1.6942
 5000SOL    HW226463   2.969   1.721   5.757  0.2635 -0.3381  0.6456
 5001SOL     OW26464   4.622   4.700   3.592  0.0395  0.1361  0.3475
 5001SOL    HW126465   4.700   4.720   3.644  0.4628 -0.1538 -0.1856
 5001SOL    HW226466   4.610   4.606   3.597  1.0711  0.0824  1.7073
 5002SOL     OW26467   4.317   1.979   8.557  0.2207 -0.3187 -0.0781
 5002SOL    HW126468   4.392   2.014   8.510 -0.8463  1.1647 -0.6724
 5002SOL    HW226469   4.330   2.015   8.645  0.3284  3.8464 -1.8096
 5003SOL     OW26470   2.839   2.689  15.735 -0.2355  0.2964  0.0447
 5003SOL    HW126471   2.816   2.603  15.772 -2.7476  1.1404  0.4848
 5003SOL    HW226472   2.783   2.742  15.792 -1.4967 -0.0988 -0.8087
 5004SOL     OW26473   4.323   0.284  11.774 -0.0118  0.1326 -0.5036
 5004SOL    HW126474   4.234   0.282  11.740 -0.9681 -1.8786  2.1025
 5004SOL    HW226475   4.371   0.324  11.701 -0.3453  0.3831 -0.5845
 5005SOL     OW26476   0.555   4.043  15.264  0.4467  0.5357  0.0691
 5005SOL    HW126477   0.489   3.999  15.319  0.7020  0.0767  0.0041
 5005SOL    HW226478   0.618   3.980  15.230 -1.0855 -0.8961 -0.0937
 5006SOL     OW26479   0.520   1.987  16.089 -0.0619  0.1164 -0.1032
 5006SOL    HW126480   0.447   2.036  16.051  0.2776 -1.2944 -2.5695
 5006SOL    HW226481   0.589   2.001  16.023  0.4708 -0.0475  0.4216
 5007SOL     OW26482   1.302   0.879   6.742  0.3234  0.0978  0.6144
 5007SOL    HW126483   1.368   0.944   6.718  0.3541 -0.0311  0.3485
 5007SOL    HW226484   1.222   0.918   6.706  1.7009  1.7630 -0.6903
 5008SOL     OW26485   1.047   4.649  13.109  0.6240 -0.0626  0.3772
 5008SOL    HW126486   1.123   4.688  13.065  1.6820  0.2423  2.4822
 5008SOL    HW226487   1.006   4.597  13.040  0.1579  1.3512 -0.3893
 5009SOL     OW26488   4.108   1.167   2.730  0.1957  0.5815  0.4611
 5009SOL    HW126489   4.096   1.137   2.640 -1.5659 -0.5958  1.0702
 5009SOL    HW226490   4.183   1.219   2.703 -0.1482  1.7744  1.7819
 5010SOL     OW26491   3.981   3.133   8.429 -0.3442 -0.4018 -1.1550
 5010SOL    HW126492   3.907   3.081   8.398 -0.3978 -0.0313 -1.6625
 5010SOL    HW226493   3.943   3.191   8.495  2.2691 -1.1004  0.9779
 5011SOL     OW26494   4.238   2.742   7.919  0.2055  0.4849  0.3714
 5011SOL    HW126495   4.257   2.720   7.828 -0.0409 -1.2114  0.7181
 5011SOL    HW226496   4.318   2.790   7.938  1.1060  0.1719 -2.5554
 5012SOL     OW26497   2.513   1.681  13.278  0.1548  0.0472 -0.4468
 5012SOL    HW126498   2.512   1.638  13.192  1.0944  0.2702 -0.5720
 5012SOL    HW226499   2.602   1.706  13.300 -0.5171  3.3170 -1.4372
 5013SOL     OW26500   1.206   1.780   6.866  0.0904 -0.2240  0.3365
 5013SOL    HW126501   1.295   1.807   6.888 -0.6148  0.0860  2.7849
 5013SOL    HW226502   1.192   1.850   6.803  0.4605  1.7865  2.4739
 5014SOL     OW26503   3.735   4.309   8.909 -0.3271 -0.1098 -0.2738
 5014SOL    HW126504   3.810   4.263   8.947  0.6796  1.2140 -0.6654
 5014SOL    HW226505   3.662   4.247   8.914  1.3687 -1.9516  1.6282
 5015SOL     OW26506   4.716   4.199   2.490  0.5126  0.6169  0.1421
 5015SOL    HW126507   4.636   4.239   2.456  1.4566  1.5972 -0.9300
 5015SOL    HW226508   0.045   4.215   2.410  1.2187  0.0259  0.4632
 5016SOL     OW26509   0.189   3.529   5.496 -0.3396  0.5510  0.2955
 5016SOL    HW126510   0.199   3.613   5.452  0.2324  0.3229 -0.0060
 5016SOL    HW226511   0.160   3.556   5.584  0.6510  2.8844 -0.0754
 5017SOL     OW26512   4.168   2.842   7.284  0.0174 -0.2466 -0.1792
 5017SOL    HW126513   4.134   2.758   7.317  1.3554 -0.4510  0.6497
 5017SOL    HW226514   4.194   2.817   7.196 -1.5836  0.7361 -0.9339
 5018SOL     OW26515   4.290   2.856   9.765  0.1527  0.1503 -0.2138
 5018SOL    HW126516   4.200   2.883   9.747  0.3706  0.3387 -1.0338
 5018SOL    HW226517   4.298   2.784   9.702  0.6620  0.0874 -0.0742
 5019SOL     OW26518   4.521   3.627   9.344 -0.2453 -0.2049 -0.0544
 5019SOL    HW126519   4.428   3.604   9.345 -0.3720  0.3916  2.8564
 5019SOL    HW226520   4.521   3.658   9.435  0.0568  1.8716 -0.7598
 5020SOL     OW26521   3.397   1.094  17.444  0.4497  0.2663  0.3747
 5020SOL    HW126522   3.458   1.043  17.391 -0.6797  0.1671 -0.8295
 5020SOL    HW226523   3.390   1.160  17.376  2.6867  0.3663  0.2540
 5021SOL     OW26524   2.947   1.056  11.022  0.4811 -0.4140  0.1715
 5021SOL    HW126525   3.027   1.064  11.074 -0.2115 -0.8323  1.3048
 5021SOL    HW226526   2.906   0.973  11.045 -0.3353 -0.6528 -2.1194
 5022SOL     OW26527   0.109   4.345   3.508  0.4144  0.2626 -0.1656
 5022SOL    HW126528   0.023   4.370   3.542 -1.1181 -2.3848 -2.1762
 5022SOL    HW226529   0.172   4.348   3.580  0.4976 -1.3541 -0.1877
 5023SOL     OW26530   4.666   1.094   5.898 -0.6403  0.3559 -0.9486
 5023SOL    HW126531   4.673   1.061   5.987  0.2475  0.5135 -0.9554
 5023SOL    HW226532   0.034   1.116   5.870  0.9745 -1.1285  2.9710
 5024SOL     OW26533   3.162   0.076   3.804 -0.2702 -0.1582  0.6667
 5024SOL    HW126534   3.156   0.008   3.737 -0.2664 -1.8630  2.3846
 5024SOL    HW226535   3.149   0.017   3.879  0.1476 -1.7368 -0.4951
 5025SOL     OW26536   4.608   2.326   6.501  0.0833  0.6116 -0.1807
 5025SOL    HW126537   4.554   2.248   6.487 -0.0716  0.7976 -0.6170
 5025SOL    HW226538   4.684   2.292   6.547 -0.6678  0.8697  1.2643
 5026SOL     OW26539   4.551   3.799   4.507 -0.9910 -0.5886  0.0986
 5026SOL    HW126540   4.496   3.802   4.429  1.6468 -2.9549 -1.8687
 5026SOL    HW226541   4.573   3.706   4.503  0.6128 -0.2464  1.2782
 5027SOL     OW26542   3.344   2.417   4.292 -0.5512  0.1447 -0.3850
 5027SOL    HW126543   3.361   2.332   4.251  0.1964 -1.7116  3.8796
 5027SOL    HW226544   3.275   2.386   4.350  0.3835 -0.3759  0.4445
 5028SOL     OW26545   0.542   3.536   2.484 -0.0979 -0.2390  0.0208
 5028SOL    HW126546   0.452   3.547   2.453  0.4707  0.2131 -1.4412
 5028SOL    HW226547   0.581   3.539   2.397 -1.7177 -0.3519 -0.7051
 5029SOL     OW26548   4.288   2.507   5.708  0.1188 -0.0481  0.2445
 5029SOL    HW126549   4.302   2.434   5.647 -1.3865  0.6035 -0.9023
 5029SOL    HW226550   4.371   2.553   5.699  0.2953 -0.7031 -1.5745
 5030SOL     OW26551   1.622   3.804  12.831  0.4207 -0.2077  0.2614
 5030SOL    HW126552   1.607   3.886  12.784 -2.1715 -0.8786 -0.1123
 5030SOL    HW226553   1.544   3.753  12.808  2.0537 -2.3200 -0.5857
 5031SOL     OW26554   2.072   4.547   5.384 -0.3895  0.1486  0.2168
 5031SOL    HW126555   2.082   4.524   5.476 -0.8511  1.9804  0.7201
 5031SOL    HW226556   1.977   4.550   5.372 -0.6987  2.8561  3.3535
 5032SOL     OW26557   4.217   3.038  10.820  0.2541 -0.7003 -0.0281
 5032SOL    HW126558   4.196   3.021  10.911  0.0563 -1.2993 -0.1853
 5032SOL    HW226559   4.170   3.121  10.809  0.4459 -0.4221  1.3416
 5033SOL     OW26560   4.394   2.857  13.199  0.4178 -0.0737  0.4361
 5033SOL    HW126561   4.404   2.833  13.107 -1.9829 -0.4999  0.2984
 5033SOL    HW226562   4.299   2.857  13.191  0.4959  1.2671 -0.6279
 5034SOL     OW26563   3.715   2.366   5.295  0.0710 -0.3269 -0.2856
 5034SOL    HW126564   3.785   2.373   5.231  0.6558 -4.1964 -0.0524
 5034SOL    HW226565   3.700   2.456   5.326 -0.6610 -0.6888  0.4158
 5035SOL     OW26566   3.090   2.593  10.427 -0.2413  0.3332  0.5852
 5035SOL    HW126567   3.140   2.674  10.437  0.8324 -0.7204  3.6209
 5035SOL    HW226568   3.040   2.594  10.508 -1.1083  0.4039  0.0536
 5036SOL     OW26569   0.986   1.891  15.970  0.0744 -0.3736 -0.5765
 5036SOL    HW126570   0.975   1.931  15.884 -1.7177 -4.0836 -2.0935
 5036SOL    HW226571   1.015   1.964  16.024 -0.9873  0.0293 -0.5488
 5037SOL     OW26572   4.400   1.062   4.571 -0.3033 -0.0335  0.1635
 5037SOL    HW126573   4.448   1.118   4.632  2.8270  0.2513 -2.5172
 5037SOL    HW226574   4.402   0.981   4.623 -1.6967  0.7087  1.3620
 5038SOL     OW26575   1.607   3.812  11.626  0.4490 -0.0220 -0.5956
 5038SOL    HW126576   1.513   3.825  11.615  0.2235 -0.9414  0.2506
 5038SOL    HW226577   1.617   3.757  11.548  1.6476  0.4688 -0.7848
 5039SOL     OW26578   1.664   1.001   5.902  0.4186 -0.4224  0.6115
 5039SOL    HW126579   1.713   1.070   5.858 -0.0964  0.0904  0.8388
 5039SOL    HW226580   1.724   0.989   5.976  0.7013  0.6996  0.5640
 5040SOL     OW26581   1.514   1.003   2.412 -0.3418 -0.4854  0.8685
 5040SOL    HW126582   1.511   0.918   2.456  0.7890  0.0679  2.0276
 5040SOL    HW226583   1.428   0.994   2.371 -0.5867  2.4685  0.7575
 5041SOL     OW26584   4.423   2.693   1.133 -0.8849  0.4764 -0.6229
 5041SOL    HW126585   4.441   2.689   1.227 -1.5320 -3.3019 -0.6235
 5041SOL    HW226586   4.329   2.679   1.135 -0.5596 -1.4488  1.2878
 5042SOL     OW26587   2.773   3.534   8.217  0.1417  0.2782  0.4707
 5042SOL    HW126588   2.839   3.604   8.214 -0.1570  0.5503  0.1922
 5042SOL    HW226589   2.727   3.556   8.298 -1.7977 -0.1213 -0.5114
 5043SOL     OW26590   0.749   0.518  12.449 -0.1400  0.3503  0.0884
 5043SOL    HW126591   0.746   0.603  12.494 -1.4830  0.7332 -0.7291
 5043SOL    HW226592   0.828   0.518  12.395  2.3386 -1.4030  3.6868
 5044SOL     OW26593   1.005   1.569   1.977  0.0474 -0.8706  0.7762
 5044SOL    HW126594   1.036   1.577   2.068  0.6497 -5.0070  0.9266
 5044SOL    HW226595   0.957   1.487   1.970  2.1630 -1.9476 -1.0816
 5045SOL     OW26596   0.224   0.228  12.125 -0.0025 -0.4540  0.5468
 5045SOL    HW126597   0.227   0.138  12.094 -0.1236 -0.0385 -0.6354
 5045SOL    HW226598   0.149   0.263  12.078  0.8958  1.4780  0.5701
 5046SOL     OW26599   3.748   0.073  16.891  0.2375  0.5683 -0.1760
 5046SOL    HW126600   3.735   0.011  16.819 -0.2030 -0.8724  1.1358
 5046SOL    HW226601   3.829   0.037  16.928 -0.5467 -3.2478 -2.2462
 5047SOL     OW26602   1.630   0.137   7.752  0.3259  0.2361 -0.4095
 5047SOL    HW126603   1.616   0.053   7.707  1.2522  0.5903 -1.3456
 5047SOL    HW226604   1.684   0.186   7.691  1.4539  0.9016  1.1210
 5048SOL     OW26605   3.352   0.993   5.168 -0.5227  0.0722  0.0269
 5048SOL    HW126606   3.441   0.984   5.200 -0.4517  0.3820 -0.0899
 5048SOL    HW226607   3.358   0.912   5.116 -0.1599  1.4610 -2.0975
 5049SOL     OW26608   3.240   0.383   4.557 -0.0079  0.0736 -0.3882
 5049SOL    HW126609   3.228   0.469   4.516 -0.5429  1.3975  2.5400
 5049SOL    HW226610   3.269   0.332   4.481  0.2603 -0.9473  0.3971
 5050SOL     OW26611   1.506   0.908  17.685 -0.4164 -0.4077 -0.1324
 5050SOL    HW126612   1.445   0.835  17.672 -0.0777 -0.5330 -1.0577
 5050SOL    HW226613   1.443   0.980   0.002 -1.1434 -1.1936  1.8461
 5051SOL     OW26614   2.995   2.630   8.136 -0.7186  0.3648  0.1379
 5051SOL    HW126615   2.912   2.669   8.108 -1.9005 -0.2299  2.8344
 5051SOL    HW226616   2.978   2.612   8.229 -1.0140  0.0243  0.0156
 5052SOL     OW26617   2.719   2.810   0.130 -0.8716  0.0862 -0.5848
 5052SOL    HW126618   2.743   2.885   0.184  1.6368 -0.9170 -0.3051
 5052SOL    HW226619   2.643   2.774   0.175  0.4566  0.1299  1.6989
 5053SOL     OW26620   1.593   0.330  13.518  0.1212  0.2779 -0.0562
 5053SOL    HW126621   1.646   0.373  13.585  0.1572  0.4010 -0.1613
 5053SOL    HW226622   1.599   0.238  13.543  0.3305  0.3045 -0.0040
 5054SOL     OW26623   1.363   1.931   2.455  0.9168  0.0959  0.1068
 5054SOL    HW126624   1.453   1.898   2.459  0.2413 -1.7553 -0.1275
 5054SOL    HW226625   1.312   1.850   2.460 -0.4235  0.9287 -0.1598
 5055SOL     OW26626   1.552   0.209   4.391 -0.2407 -0.3164  0.1824
 5055SOL    HW126627   1.495   0.161   4.451  0.3717  0.9973  1.8123
 5055SOL    HW226628   1.617   0.243   4.452  0.5550  0.5517 -1.1594
 5056SOL     OW26629   2.122   1.085   1.589 -0.5321  0.2660 -0.6769
 5056SOL    HW126630   2.087   1.125   1.668  0.5903  1.1822 -0.6440
 5056SOL    HW226631   2.214   1.110   1.599 -0.9864  1.2685  0.8670
 5057SOL     OW26632   0.515   2.948   2.817  0.0250 -0.4467  0.4793
 5057SOL    HW126633   0.554   2.905   2.740  1.6414  1.9020 -0.0240
 5057SOL    HW226634   0.423   2.925   2.807 -0.0619 -0.1489  0.5985
 5058SOL     OW26635   1.943   1.538   8.923 -0.1265  0.6898 -0.8791
 5058SOL    HW126636   1.972   1.498   8.841  0.1615  1.7093 -1.2702
 5058SOL    HW226637   2.035   1.542   8.950 -0.9710  1.9213  1.8016
 5059SOL     OW26638   4.124   2.968   8.750  0.4393  0.0833  0.3092
 5059SOL    HW126639   4.157   2.998   8.665 -2.4542 -1.9516 -1.5219
 5059SOL    HW226640   4.114   2.874   8.733  3.0703  0.0270 -0.9543
 5060SOL     OW26641   0.976   0.057  13.684 -0.4243  0.2573 -0.1194
 5060SOL    HW126642   0.921   0.040  13.761 -1.7647 -1.5581 -1.4731
 5060SOL    HW226643   0.942   4.704  13.634 -1.4842 -0.3187  1.4548
 5061SOL     OW26644   3.770   4.554  12.800 -0.4228 -0.1024  0.3513
 5061SOL    HW126645   3.745   4.644  12.818 -0.0861  0.6524 -2.9724
 5061SOL    HW226646   3.793   4.527  12.890  0.1051  1.3824  0.6620
 5062SOL     OW26647   2.495   3.114   9.101  0.0716 -0.0224 -0.0868
 5062SOL    HW126648   2.525   3.074   9.183 -1.8938 -0.7859  0.2592
 5062SOL    HW226649   2.572   3.170   9.095  0.3953 -0.6044 -1.3188
 5063SOL     OW26650   0.356   1.737  10.997 -0.1528  0.4096 -0.2971
 5063SOL    HW126651   0.381   1.651  10.964 -0.2293 -0.1563  1.1142
 5063SOL    HW226652   0.305   1.706  11.072 -0.8218  0.6934 -0.6378
 5064SOL     OW26653   4.694   1.628  10.987  0.2643  0.2698  0.4529
 5064SOL    HW126654   0.016   1.611  11.070  1.3936 -1.3235 -0.4612
 5064SOL    HW226655   4.715   1.558  10.925  0.3626  2.6701 -2.2305
 5065SOL     OW26656   2.432   2.354   1.410 -0.4683 -0.4827  0.1066
 5065SOL    HW126657   2.528   2.359   1.413 -0.5092  0.6846 -0.6304
 5065SOL    HW226658   2.415   2.360   1.316  1.5086 -0.7806 -0.2711
 5066SOL     OW26659   2.618   3.315   0.242 -0.2171 -0.1153 -0.2617
 5066SOL    HW126660   2.639   3.348   0.155  2.1257  2.1774  1.1822
 5066SOL    HW226661   2.524   3.313   0.225 -0.0729  0.4106 -1.0932
 5067SOL     OW26662   1.552   3.667   4.065  0.6831  0.8445  0.5827
 5067SOL    HW126663   1.630   3.649   4.012 -0.6457 -0.0703 -1.0878
 5067SOL    HW226664   1.477   3.609   4.051  2.3316 -1.6570  2.2304
 5068SOL     OW26665   0.555   4.303   6.222 -0.2449  0.1748  0.0371
 5068SOL    HW126666   0.633   4.356   6.203  1.3640 -2.6225 -1.3135
 5068SOL    HW226667   0.584   4.256   6.300  4.5756 -0.0799 -1.8923
 5069SOL     OW26668   0.972   2.249  15.614 -0.5429 -0.8556  0.6017
 5069SOL    HW126669   1.056   2.230  15.572  0.6983 -1.3305  3.2588
 5069SOL    HW226670   0.990   2.198  15.694  1.2036 -0.0247  0.7308
 5070SOL     OW26671   4.137   0.173   5.892  0.3131  0.0872 -0.2679
 5070SOL    HW126672   4.150   0.146   5.983 -0.4723 -1.4215 -0.6090
 5070SOL    HW226673   4.198   0.118   5.843  1.9123  1.6946 -0.0984
 5071SOL     OW26674   2.549   3.691   6.567  0.4271  0.0900  0.4718
 5071SOL    HW126675   2.572   3.618   6.624  2.3341  1.2325  1.1623
 5071SOL    HW226676   2.631   3.726   6.533 -0.0692  1.7200  0.9429
 5072SOL     OW26677   1.711   1.135   7.955  0.1699 -0.6245 -0.2722
 5072SOL    HW126678   1.697   1.221   7.994  0.2496 -1.5005  1.6906
 5072SOL    HW226679   1.643   1.085   8.000 -1.0409  1.4064  0.1543
 5073SOL     OW26680   2.878   2.748   4.958 -0.0680 -0.1042  0.0584
 5073SOL    HW126681   2.883   2.833   4.914  0.3823 -0.6729 -0.9867
 5073SOL    HW226682   2.788   2.729   4.931 -1.0689  0.0923  3.2771
 5074SOL     OW26683   3.914   3.346   3.123 -0.8056  0.3534 -0.9482
 5074SOL    HW126684   3.930   3.269   3.178  2.0347  1.7034  0.1607
 5074SOL    HW226685   3.928   3.418   3.184 -3.0355 -0.2835  0.3192
 5075SOL     OW26686   1.315   4.534   4.447 -0.0204  0.2320 -0.6111
 5075SOL    HW126687   1.328   4.453   4.496 -0.2595  1.1649  1.0047
 5075SOL    HW226688   1.274   4.588   4.516  0.9311 -1.2269  1.0975
 5076SOL     OW26689   2.839   4.633   8.287  0.2800 -0.2881  1.0233
 5076SOL    HW126690   2.879   4.654   8.372  3.3887  4.1578 -1.5257
 5076SOL    HW226691   2.912   4.629   8.225 -0.3603  0.4430  0.2218
 5077SOL     OW26692   0.512   3.206   4.569 -0.1556 -0.4390 -0.3360
 5077SOL    HW126693   0.483   3.236   4.656 -0.3845 -0.7525 -0.3054
 5077SOL    HW226694   0.434   3.233   4.521 -0.9603 -0.3114  1.0407
 5078SOL     OW26695   3.021   2.040   5.920 -0.1155 -0.4048 -0.3395
 5078SOL    HW126696   2.994   2.110   5.860  0.1120  1.6263  1.9011
 5078SOL    HW226697   3.007   1.961   5.869 -0.7216 -0.0191 -0.7725
 5079SOL     OW26698   4.623   3.381  10.028 -0.4366 -0.2452 -0.0059
 5079SOL    HW126699   4.603   3.302  10.078  1.3823 -0.9480 -0.3985
 5079SOL    HW226700   4.655   3.338   9.948  0.2422  0.0017  0.1325
 5080SOL     OW26701   2.228   2.219  11.920 -0.1275 -0.2696 -0.0340
 5080SOL    HW126702   2.224   2.199  12.013  1.8282  1.1686  0.3589
 5080SOL    HW226703   2.288   2.293  11.922  0.2050 -0.4978 -1.2303
 5081SOL     OW26704   2.684   1.539   4.422 -1.1590  0.0602  0.5228
 5081SOL    HW126705   2.740   1.465   4.399 -0.1190  2.1534 -3.6675
 5081SOL    HW226706   2.742   1.596   4.472  0.1126  1.0604 -2.1050
 5082SOL     OW26707   2.432   0.545   7.657 -0.3657 -0.1868 -0.5131
 5082SOL    HW126708   2.370   0.554   7.729  2.2189  0.0078  1.6750
 5082SOL    HW226709   2.418   0.628   7.610  2.9728 -0.4612 -2.0098
 5083SOL     OW26710   3.118   0.378   7.209 -0.4341 -0.0444  0.0891
 5083SOL    HW126711   3.070   0.309   7.163 -0.7662  0.7008 -0.6702
 5083SOL    HW226712   3.100   0.355   7.301 -0.4485 -0.4738 -0.0224
 5084SOL     OW26713   0.476   3.069   7.110  0.3867  0.6577 -0.8040
 5084SOL    HW126714   0.419   3.001   7.074 -1.6004  1.0374  1.6230
 5084SOL    HW226715   0.429   3.071   7.193 -0.6785  2.6817 -1.4642
 5085SOL     OW26716   3.949   4.239   9.173 -0.0332  0.1084 -0.3831
 5085SOL    HW126717   3.955   4.328   9.208  1.9555 -0.5061  0.8083
 5085SOL    HW226718   3.922   4.196   9.255  0.5986  0.9601  0.2654
 5086SOL     OW26719   3.880   2.885  10.975  0.0710 -0.1187 -0.2617
 5086SOL    HW126720   3.962   2.834  10.978 -0.4219 -0.8117  1.1952
 5086SOL    HW226721   3.816   2.820  10.947 -0.9575  0.7665  0.0704
 5087SOL     OW26722   3.019   0.962   3.693  0.3846  0.2464  0.0836
 5087SOL    HW126723   3.073   0.887   3.720  0.4338 -0.8952 -3.1546
 5087SOL    HW226724   2.933   0.928   3.718 -0.2502 -0.7735 -3.4840
 5088SOL     OW26725   3.922   2.840   7.099 -0.6896 -0.0279  0.4821
 5088SOL    HW126726   3.855   2.833   7.168 -2.2356  2.1853 -0.7918
 5088SOL    HW226727   3.915   2.931   7.071 -0.7395  0.2837  1.5168
 5089SOL     OW26728   1.408   4.503   7.648  0.1175 -0.0765  0.2185
 5089SOL    HW126729   1.496   4.540   7.659 -0.1156 -0.2568  2.5762
 5089SOL    HW226730   1.359   4.582   7.672 -1.1594 -0.3393 -1.5237
 5090SOL     OW26731   2.473   4.349   2.948 -0.2010  0.7910  0.0827
 5090SOL    HW126732   2.494   4.418   3.011 -1.0364  1.4784 -0.3996
 5090SOL    HW226733   2.533   4.366   2.876  0.9292  2.2208  1.3558
 5091SOL     OW26734   2.235   1.624   3.712  0.4339 -0.2850 -1.2474
 5091SOL    HW126735   2.229   1.533   3.742  0.1409  0.2965  0.4836
 5091SOL    HW226736   2.172   1.659   3.775  0.1810  1.1881 -2.3263
 5092SOL     OW26737   1.327   4.296   4.956  0.0853  0.8822 -0.0249
 5092SOL    HW126738   1.287   4.214   4.927 -0.6476  1.2517 -0.0392
 5092SOL    HW226739   1.307   4.296   5.050  1.2590 -0.3628  0.2277
 5093SOL     OW26740   1.503   4.211   9.199 -0.5815  0.3727  0.4261
 5093SOL    HW126741   1.524   4.129   9.154  0.6981  0.6135  0.5829
 5093SOL    HW226742   1.585   4.254   9.174  0.2072 -1.4785 -0.1631
 5094SOL     OW26743   4.497   3.031   6.670 -0.1449  0.1707  0.0889
 5094SOL    HW126744   4.524   3.086   6.743  0.0822  0.2553 -0.0585
 5094SOL    HW226745   4.418   2.986   6.699  1.2138 -1.0060  1.9822
 5095SOL     OW26746   3.492   1.713   8.584  0.2388 -0.0814  0.2735
 5095SOL    HW126747   3.508   1.772   8.657  0.0849 -1.1427  1.1641
 5095SOL    HW226748   3.422   1.668   8.631 -0.8648  1.3817  0.0414
 5096SOL     OW26749   3.694   3.486  15.730 -0.3751 -0.0283 -0.1798
 5096SOL    HW126750   3.685   3.525  15.816  0.5810  0.8625 -0.4779
 5096SOL    HW226751   3.764   3.423  15.750 -1.2479 -0.0824  2.6269
 5097SOL     OW26752   2.457   1.777   4.164 -0.6542 -0.2664  0.0163
 5097SOL    HW126753   2.446   1.700   4.108  0.9480  0.0662 -0.7765
 5097SOL    HW226754   2.432   1.753   4.253 -1.1391  0.5278  0.1007
 5098SOL     OW26755   1.739   4.292   3.373 -0.5168  0.8785  0.4736
 5098SOL    HW126756   1.678   4.282   3.446  0.0002  0.3615  0.8310
 5098SOL    HW226757   1.751   4.203   3.341 -0.1366  0.8644  0.6563
 5099SOL     OW26758   1.932   1.946   4.806 -0.1444 -0.6312  0.0063
 5099SOL    HW126759   1.850   1.901   4.825 -0.0437 -1.2678 -1.0646
 5099SOL    HW226760   1.995   1.903   4.864  1.5900  0.2281 -1.2242
 5100SOL     OW26761   0.913   2.021   4.538 -0.7939 -0.3961 -0.1561
 5100SOL    HW126762   0.967   1.977   4.603  0.3068  3.6424  1.6332
 5100SOL    HW226763   0.944   2.111   4.545 -2.6077  0.3546 -1.4978
 5101SOL     OW26764   4.305   0.991   9.706  0.4241  0.3506 -0.1268
 5101SOL    HW126765   4.396   0.972   9.684  0.5657  0.7266  0.1248
 5101SOL    HW226766   4.304   1.028   9.794 -2.0387 -1.8451  0.7564
 5102SOL     OW26767   1.897   1.396   3.743 -0.0451  0.0286 -0.6334
 5102SOL    HW126768   1.976   1.385   3.690 -0.0573  0.7359 -0.7946
 5102SOL    HW226769   1.937   1.378   3.828 -0.8869 -0.1628 -0.2790
 5103SOL     OW26770   3.157   2.734   7.270  0.3458 -0.2022 -0.2732
 5103SOL    HW126771   3.225   2.781   7.318  0.7377 -0.2859 -0.7505
 5103SOL    HW226772   3.105   2.706   7.346 -0.8079  2.3490 -0.1050
 5104SOL     OW26773   2.216   2.788   5.139 -0.0099  0.1225  0.1468
 5104SOL    HW126774   2.245   2.879   5.138 -0.2399  0.1989  1.0379
 5104SOL    HW226775   2.269   2.743   5.205 -0.0539  0.5186  0.4448
 5105SOL     OW26776   0.700   1.529  14.959  0.4482  0.1711  0.7927
 5105SOL    HW126777   0.746   1.591  15.015  1.1977  0.6989 -0.4025
 5105SOL    HW226778   0.664   1.460  15.015 -0.9737 -0.7258 -1.2046
 5106SOL     OW26779   2.527   1.498  14.599  0.4201  0.2837 -0.1492
 5106SOL    HW126780   2.546   1.407  14.577 -0.0184  0.2689 -0.4636
 5106SOL    HW226781   2.436   1.483  14.624  0.2838  0.5479 -0.4856
 5107SOL     OW26782   3.431   0.786  12.259  0.1977  0.3880 -1.0099
 5107SOL    HW126783   3.425   0.778  12.354  0.4075  0.7695 -0.9617
 5107SOL    HW226784   3.415   0.880  12.248  1.4397  0.6439 -0.7075
 5108SOL     OW26785   0.662   2.970  10.774 -0.0240  0.1353 -0.0220
 5108SOL    HW126786   0.722   2.895  10.771 -3.2108 -2.3843  0.0190
 5108SOL    HW226787   0.710   3.039  10.820 -0.6778  1.7087 -1.7019
 5109SOL     OW26788   0.529   0.295   4.965 -0.0902  0.1532 -0.0645
 5109SOL    HW126789   0.576   0.312   4.883 -0.5525 -0.6722 -0.4997
 5109SOL    HW226790   0.445   0.338   4.951 -1.3520 -0.9895  4.0636
 5110SOL     OW26791   1.145   3.034   9.142  0.4362 -0.0254 -0.3700
 5110SOL    HW126792   1.062   2.991   9.121  0.5474 -0.6350  0.4589
 5110SOL    HW226793   1.202   2.977   9.091  0.1744 -1.4270  0.8946
 5111SOL     OW26794   3.105   3.305   4.849 -0.3416  0.1967 -0.1583
 5111SOL    HW126795   3.197   3.287   4.826 -0.1904 -1.0317  1.4119
 5111SOL    HW226796   3.115   3.349   4.934  0.6984  1.7198 -1.0616
 5112SOL     OW26797   0.642   2.609   1.510 -0.9480 -0.5368 -0.4728
 5112SOL    HW126798   0.635   2.540   1.575  0.1907  1.5475  1.8529
 5112SOL    HW226799   0.735   2.608   1.485 -1.1480  0.2788 -1.2469
 5113SOL     OW26800   0.619   4.172   8.160 -0.4546  0.2820 -0.9285
 5113SOL    HW126801   0.558   4.098   8.159 -0.3065  0.1382  0.9049
 5113SOL    HW226802   0.608   4.204   8.249 -0.7134  0.8853 -1.1725
 5114SOL     OW26803   1.980   2.354   1.719 -0.1821  0.0140 -0.2498
 5114SOL    HW126804   2.008   2.404   1.642  0.7711 -0.4168 -0.1896
 5114SOL    HW226805   2.028   2.410   1.781  0.2644  0.9143 -1.4050
 5115SOL     OW26806   4.314   3.641   5.775  0.6346  0.3737  0.0176
 5115SOL    HW126807   4.251   3.711   5.793  0.9898  0.1744  2.0568
 5115SOL    HW226808   4.306   3.599   5.861 -0.7806 -0.4335 -0.5140
 5116SOL     OW26809   0.422   3.577   4.959  0.1683  0.6432  0.0037
 5116SOL    HW126810   0.512   3.584   4.990  0.1418 -2.4987  0.7977
 5116SOL    HW226811   0.378   3.649   5.004 -1.9072  0.2127 -1.2794
 5117SOL     OW26812   3.811   1.828   4.288  0.0877  0.4583 -0.2608
 5117SOL    HW126813   3.744   1.857   4.226  0.1125 -1.3004 -1.1052
 5117SOL    HW226814   3.795   1.885   4.363 -1.3145  1.1196 -1.0777
 5118SOL     OW26815   4.043   0.082   2.806  0.4034 -0.4182  0.2696
 5118SOL    HW126816   4.096   0.150   2.763 -1.2892 -0.0644 -1.2492
 5118SOL    HW226817   4.090   0.003   2.780  1.9190  0.8302 -0.8224
 5119SOL     OW26818   0.365   4.296   9.978 -0.3176  0.3522 -0.5337
 5119SOL    HW126819   0.320   4.269  10.058  0.6359 -1.3291 -0.5796
 5119SOL    HW226820   0.321   4.381   9.968  0.0305  0.8004  1.7465
 5120SOL     OW26821   1.170   4.671  13.944  0.2464 -0.1492 -0.1181
 5120SOL    HW126822   1.259   4.653  13.913  1.4019  0.5376  2.8182
 5120SOL    HW226823   1.115   4.659  13.866 -0.8571 -0.7917  0.7631
 5121SOL     OW26824   2.369   3.771   8.487 -0.2196 -0.2300  0.3911
 5121SOL    HW126825   2.294   3.830   8.493  2.2009  2.6950  2.0199
 5121SOL    HW226826   2.351   3.726   8.405  2.9620 -2.8510  1.1448
 5122SOL     OW26827   1.482   0.281   3.649 -0.1159 -0.3949 -0.5604
 5122SOL    HW126828   1.435   0.345   3.704  0.5999  1.7194 -2.4173
 5122SOL    HW226829   1.558   0.273   3.706 -1.0883  0.8609  0.9202
 5123SOL     OW26830   0.569   1.131  11.228  0.7248  0.1405  0.2760
 5123SOL    HW126831   0.618   1.057  11.192 -2.7161 -1.6193 -0.7357
 5123SOL    HW226832   0.561   1.093  11.315 -0.9625  0.7017  0.3525
 5124SOL     OW26833   2.153   2.485   8.315 -0.1201  0.3953  0.8739
 5124SOL    HW126834   2.121   2.453   8.399 -4.0308  2.1618  0.0694
 5124SOL    HW226835   2.069   2.518   8.282  0.2692  0.6519  0.1327
 5125SOL     OW26836   3.078   2.278   2.438  0.2484  0.6692  0.4548
 5125SOL    HW126837   3.070   2.188   2.470  2.0659  0.3464  0.0195
 5125SOL    HW226838   3.173   2.290   2.438  0.2360  0.7358  1.0448
 5126SOL     OW26839   3.797   1.804   0.891 -0.1391 -0.6181 -0.2697
 5126SOL    HW126840   3.726   1.765   0.840 -0.2126  0.7146 -1.1676
 5126SOL    HW226841   3.843   1.724   0.916  0.0659  0.3408  2.4293
 5127SOL     OW26842   0.144   0.712   5.207 -0.2274 -0.5652 -0.3988
 5127SOL    HW126843   0.235   0.692   5.229  0.2962 -1.2998 -3.1524
 5127SOL    HW226844   0.105   0.624   5.212 -0.1703 -0.5928 -0.4348
 5128SOL     OW26845   0.838   3.529   7.387  0.3409 -0.4250 -0.1067
 5128SOL    HW126846   0.873   3.494   7.305  0.0256  0.6608 -0.7136
 5128SOL    HW226847   0.765   3.580   7.353 -1.9692 -2.6756  1.5490
 5129SOL     OW26848   4.063   4.112   5.087 -0.0655  0.3746  0.2194
 5129SOL    HW126849   3.971   4.132   5.102 -0.5586 -0.8670 -1.2575
 5129SOL    HW226850   4.093   4.200   5.061  0.2478 -0.1720 -1.2359
 5130SOL     OW26851   4.223   2.331   6.525  0.8871  0.3019  0.7025
 5130SOL    HW126852   4.176   2.411   6.503 -0.1061 -0.7566 -1.1091
 5130SOL    HW226853   4.164   2.303   6.595 -1.6199  0.3269 -1.4007
 5131SOL     OW26854   4.396   2.843   8.473 -0.4782  0.5884  0.2022
 5131SOL    HW126855   4.325   2.907   8.475 -1.6772 -0.7643  1.2712
 5131SOL    HW226856   4.469   2.903   8.476 -0.1206  0.1234  0.7254
 5132SOL     OW26857   0.800   1.057   2.823  0.2705  0.1880  0.1441
 5132SOL    HW126858   0.850   0.977   2.834  0.2772  0.3988  1.6899
 5132SOL    HW226859   0.724   1.025   2.775 -1.1702  2.3427  0.9879
 5133SOL     OW26860   0.324   4.559   2.606 -0.5162  0.1424  0.1243
 5133SOL    HW126861   0.410   4.542   2.645 -0.4321 -0.7798 -0.4604
 5133SOL    HW226862   0.279   4.519   2.681 -0.2080  0.5655  0.5300
 5134SOL     OW26863   1.259   3.857   6.897  0.0589 -0.3465 -0.0238
 5134SOL    HW126864   1.314   3.817   6.964 -0.3708 -2.0294 -0.6619
 5134SOL    HW226865   1.187   3.796   6.878 -0.0785 -0.1738 -0.0637
 5135SOL     OW26866   1.231   0.292   8.921  0.4595 -0.1615  0.2101
 5135SOL    HW126867   1.326   0.302   8.930  0.7187 -1.3833 -1.2573
 5135SOL    HW226868   1.197   0.368   8.969  0.5808 -0.0083  0.0559
 5136SOL     OW26869   0.654   0.783   9.800 -0.3070  0.2288 -0.1821
 5136SOL    HW126870   0.614   0.767   9.714 -1.2662  0.4507  0.2217
 5136SOL    HW226871   0.612   0.867   9.817 -2.0501 -0.6314 -0.1530
 5137SOL     OW26872   0.277   3.173   4.133 -0.0516 -0.0579 -0.3101
 5137SOL    HW126873   0.274   3.079   4.154  1.6552 -0.0182  0.1109
 5137SOL    HW226874   0.194   3.184   4.087 -0.2453  0.9889  0.3033
 5138SOL     OW26875   3.706   1.355   8.341  0.0867  0.3448 -0.1221
 5138SOL    HW126876   3.716   1.377   8.248 -1.3620 -1.3425 -0.6776
 5138SOL    HW226877   3.686   1.442   8.377 -1.1682  0.8265 -1.9443
 5139SOL     OW26878   1.612   3.753   7.570 -0.1086 -0.2654 -0.7014
 5139SOL    HW126879   1.705   3.730   7.572 -0.1331 -0.2604  0.1698
 5139SOL    HW226880   1.615   3.827   7.630 -4.2439 -0.7773  0.0904
 5140SOL     OW26881   2.994   4.208  17.229 -0.5039  0.2772  0.1734
 5140SOL    HW126882   2.996   4.301  17.254  0.1021  0.1732  0.5087
 5140SOL    HW226883   3.010   4.217  17.135 -1.0338  2.2755  0.2749
 5141SOL     OW26884   1.779   3.659   3.930 -0.0427 -0.5965 -0.0098
 5141SOL    HW126885   1.829   3.740   3.936 -1.1287 -0.0628  1.8166
 5141SOL    HW226886   1.843   3.598   3.895  1.1784 -1.2423  3.3459
 5142SOL     OW26887   0.457   3.547   6.625 -0.1258 -0.0958  0.6344
 5142SOL    HW126888   0.513   3.493   6.569  0.6146 -0.1108  1.3748
 5142SOL    HW226889   0.439   3.622   6.568  1.6590  1.8442  2.6101
 5143SOL     OW26890   3.755   0.717   2.532 -0.4769  0.0590  0.5876
 5143SOL    HW126891   3.814   0.736   2.459 -0.2915  2.1779  1.2875
 5143SOL    HW226892   3.749   0.800   2.578 -1.3766  0.1740  0.2552
 5144SOL     OW26893   4.058   3.108   2.610  0.0679  0.3914  0.1087
 5144SOL    HW126894   4.060   3.178   2.675  0.5462 -0.7060  1.2699
 5144SOL    HW226895   3.984   3.060   2.646  0.4988 -0.6387 -0.3769
 5145SOL     OW26896   1.284   0.143   6.315 -0.1792 -0.0778  0.5063
 5145SOL    HW126897   1.244   0.229   6.322 -2.5658 -1.2938  1.7404
 5145SOL    HW226898   1.359   0.152   6.375 -0.6164 -2.5181  1.4212
 5146SOL     OW26899   3.214   3.328   8.825 -0.3983  0.0593  0.0918
 5146SOL    HW126900   3.243   3.238   8.807  1.5883  0.5862  0.5674
 5146SOL    HW226901   3.292   3.372   8.792  0.1663 -0.6098  0.5171
 5147SOL     OW26902   1.248   4.606   2.891 -0.3797  0.2711 -0.7119
 5147SOL    HW126903   1.236   4.684   2.837  0.5880  2.4186  2.2214
 5147SOL    HW226904   1.172   4.607   2.948 -0.8995 -0.0579 -1.3952
 5148SOL     OW26905   4.105   3.703   2.345  0.7585 -0.5555 -0.1857
 5148SOL    HW126906   4.116   3.677   2.253  0.3954  0.6995 -0.5932
 5148SOL    HW226907   4.163   3.779   2.349 -1.7385  1.4461 -1.7878
 5149SOL     OW26908   1.220   2.371   6.527  0.1869 -0.0990 -0.3681
 5149SOL    HW126909   1.133   2.335   6.542 -0.0981  0.5463 -0.4769
 5149SOL    HW226910   1.235   2.445   6.586 -2.7713  0.2057  0.0192
 5150SOL     OW26911   3.803   2.132  17.363  0.2308 -0.4610 -0.7243
 5150SOL    HW126912   3.736   2.064  17.372 -1.3852  1.0616 -1.2906
 5150SOL    HW226913   3.823   2.146  17.270 -0.0622 -1.0576 -0.8751
 5151SOL     OW26914   3.478   2.441   8.727 -0.5488  0.4050  0.1867
 5151SOL    HW126915   3.385   2.457   8.739 -1.0826 -1.2543 -1.7164
 5151SOL    HW226916   3.483   2.346   8.729  0.1693  0.4545  0.6929
 5152SOL     OW26917   0.221   2.388   4.558  0.6720  0.2076 -0.4258
 5152SOL    HW126918   0.149   2.361   4.501  0.2568  0.6707 -0.1228
 5152SOL    HW226919   0.300   2.348   4.523 -0.4494  0.0121 -2.7202
 5153SOL     OW26920   0.493   1.036   8.229 -0.3357  0.1719 -0.1431
 5153SOL    HW126921   0.585   1.050   8.248 -0.7756  1.4671  1.0836
 5153SOL    HW226922   0.451   1.119   8.255  1.0698  0.6804  0.5084
 5154SOL     OW26923   2.744   0.319   0.905  0.2960  0.2881  0.2121
 5154SOL    HW126924   2.684   0.265   0.956  1.8991 -0.6219  1.1444
 5154SOL    HW226925   2.830   0.281   0.924  0.6930  2.5969  2.9539
 5155SOL     OW26926   3.014   3.918  17.117 -0.3699 -0.2352 -1.0311
 5155SOL    HW126927   3.046   3.989  17.062  2.1344 -1.5340 -1.3021
 5155SOL    HW226928   2.971   3.957  17.193  1.9917 -2.2836  1.3801
 5156SOL     OW26929   3.839   3.071   3.846  0.6188 -0.1380 -0.2101
 5156SOL    HW126930   3.897   3.124   3.790  0.9227  0.7739  0.9636
 5156SOL    HW226931   3.843   3.122   3.927 -2.3174 -0.7048  0.2827
 5157SOL     OW26932   4.686   3.429   3.206  0.2041 -0.1661 -0.3468
 5157SOL    HW126933   4.711   3.350   3.159  1.7069 -0.9902  1.8409
 5157SOL    HW226934   0.019   3.490   3.155 -1.2070 -1.2474 -3.1301
 5158SOL     OW26935   2.673   1.801   6.363 -0.2454 -0.0780  0.0238
 5158SOL    HW126936   2.602   1.739   6.383 -0.7226  0.2269 -0.7196
 5158SOL    HW226937   2.733   1.758   6.424  0.4546 -1.1678 -1.4233
 5159SOL     OW26938   1.227   0.217   4.157 -0.5176 -0.2239  0.3161
 5159SOL    HW126939   1.228   0.177   4.070  1.2369  0.5184  0.0077
 5159SOL    HW226940   1.220   0.144   4.219 -0.9168 -1.2924 -0.9750
 5160SOL     OW26941   4.414   3.114  10.434  0.2930 -0.4501 -0.3263
 5160SOL    HW126942   4.415   3.026  10.472 -2.3735  1.0904  3.3185
 5160SOL    HW226943   4.430   3.162  10.515 -1.7635 -0.4978  0.1091
 5161SOL     OW26944   1.832   4.150   2.258  0.2875  0.0043  0.1196
 5161SOL    HW126945   1.881   4.100   2.323  1.8403 -0.1877 -1.1998
 5161SOL    HW226946   1.899   4.158   2.190  0.7329 -3.0224  0.1796
 5162SOL     OW26947   1.851   0.943   0.620 -0.3723  0.4995  0.0468
 5162SOL    HW126948   1.932   0.993   0.636  1.3430 -2.6041  1.1835
 5162SOL    HW226949   1.795   1.012   0.655  1.9931  0.8832  3.1656
 5163SOL     OW26950   2.153   2.546   3.044  0.3397  0.7166 -0.2719
 5163SOL    HW126951   2.214   2.511   2.979 -0.3744 -3.1087  1.1084
 5163SOL    HW226952   2.102   2.470   3.072  1.4172 -0.0940 -0.4686
 5164SOL     OW26953   1.524   0.352  12.246 -0.5493  1.1678  0.0639
 5164SOL    HW126954   1.485   0.401  12.318  1.6921  1.0126  1.3727
 5164SOL    HW226955   1.528   0.421  12.179 -0.4294  1.3250  0.2327
 5165SOL     OW26956   4.061   2.270   6.725 -0.5971 -0.3827  0.3598
 5165SOL    HW126957   4.061   2.322   6.806  0.7568  0.7725 -0.3993
 5165SOL    HW226958   3.993   2.207   6.749  0.6088 -2.3952 -1.5265
 5166SOL     OW26959   2.846   0.180   3.506  0.1293  0.2292  0.6822
 5166SOL    HW126960   2.917   0.173   3.443  0.2411 -0.6472  0.9105
 5166SOL    HW226961   2.875   0.255   3.558  0.0839  1.8537 -1.6418
 5167SOL     OW26962   0.245   2.713   3.614  0.3065  0.3405  0.3805
 5167SOL    HW126963   0.333   2.744   3.593  0.9853 -1.7939  0.0510
 5167SOL    HW226964   0.239   2.637   3.555  1.6050  1.1760 -0.8326
 5168SOL     OW26965   1.116   2.790   6.250 -0.3403  0.3503  0.4136
 5168SOL    HW126966   1.194   2.825   6.292  0.2871 -0.5317 -0.0243
 5168SOL    HW226967   1.151   2.757   6.168 -0.0874  0.0350  0.6500
 5169SOL     OW26968   1.784   0.689   8.747  0.1939 -0.3729  0.5139
 5169SOL    HW126969   1.771   0.778   8.781  2.3912  0.4940 -0.9669
 5169SOL    HW226970   1.707   0.645   8.785 -1.9380  0.0415 -3.4200
 5170SOL     OW26971   3.105   4.633   4.918 -0.3524  0.2734 -0.7407
 5170SOL    HW126972   3.193   4.667   4.902  0.0687 -0.0153  0.9653
 5170SOL    HW226973   3.055   4.705   4.958 -0.1417 -0.2485  0.4592
 5171SOL     OW26974   4.001   2.436   9.787  0.4474  0.0683 -0.0802
 5171SOL    HW126975   3.934   2.437   9.856  0.3769  1.5907 -0.1794
 5171SOL    HW226976   4.053   2.362   9.820 -0.1823 -0.1504  0.4186
 5172SOL     OW26977   3.785   2.365   8.460 -0.4439  0.0242 -0.6160
 5172SOL    HW126978   3.841   2.359   8.382  0.0991 -1.4335 -0.1235
 5172SOL    HW226979   3.840   2.416   8.520 -0.2949  0.3587 -1.0367
 5173SOL     OW26980   3.528   2.366   5.595 -0.0072 -0.4434  0.2850
 5173SOL    HW126981   3.485   2.424   5.532 -0.2545  0.0270  0.8884
 5173SOL    HW226982   3.488   2.379   5.681  2.6306 -1.1969  1.6299
 5174SOL     OW26983   4.060   0.461   9.042 -0.1851  0.0748  0.3553
 5174SOL    HW126984   4.036   0.450   9.134  1.3415  1.5307  0.9159
 5174SOL    HW226985   4.155   0.459   9.036 -0.1931  1.1298 -0.1653
 5175SOL     OW26986   2.795   3.806   8.051  0.0144 -0.1714 -0.0731
 5175SOL    HW126987   2.878   3.796   8.099  0.5927  3.2200 -0.3857
 5175SOL    HW226988   2.782   3.725   8.002 -0.1653 -0.9443  1.2312
 5176SOL     OW26989   1.467   4.032   6.107  0.4804  0.4239  0.3151
 5176SOL    HW126990   1.484   3.943   6.074 -0.0010 -0.4425  2.4240
 5176SOL    HW226991   1.461   4.000   6.197 -1.4264  0.1204  0.0669
 5177SOL     OW26992   0.171   2.977   6.539 -0.1130  0.1154 -0.3207
 5177SOL    HW126993   0.253   2.952   6.496  1.9359  0.9399  3.0764
 5177SOL    HW226994   0.165   2.905   6.602  1.2655 -1.0590 -1.5535
 5178SOL     OW26995   2.106   2.782   8.062 -0.0467  0.3152 -0.0661
 5178SOL    HW126996   2.144   2.867   8.084  0.2567  0.0868  0.2985
 5178SOL    HW226997   2.177   2.723   8.087 -0.7081 -0.0401  0.9865
 5179SOL     OW26998   2.096   3.623   2.142 -0.2764  0.4120 -0.5105
 5179SOL    HW126999   2.111   3.717   2.140  1.3220  0.1146 -2.8703
 5179SOL    HW227000   2.152   3.590   2.071 -0.1496  1.7986 -1.0486
 5180SOL     OW27001   1.668   0.837   8.232  0.1691  0.5625 -0.3300
 5180SOL    HW127002   1.655   0.909   8.293 -0.1755 -2.2889  2.9927
 5180SOL    HW227003   1.616   0.866   8.158  0.8015 -0.7338 -1.2876
 5181SOL     OW27004   3.871   1.686   3.123 -0.0926 -0.0990 -0.4645
 5181SOL    HW127005   3.797   1.677   3.062 -0.3619 -2.5618  0.2370
 5181SOL    HW227006   3.907   1.773   3.103  1.4553 -0.9355 -1.3600
 5182SOL     OW27007   1.990   1.897  11.572 -0.2247  0.4633  0.3561
 5182SOL    HW127008   2.033   1.880  11.489  0.2667  2.2726  0.2504
 5182SOL    HW227009   1.911   1.843  11.567  1.3264 -1.6115 -2.0492
 5183SOL     OW27010   4.282   1.128   0.898  0.2187 -0.2003 -0.4619
 5183SOL    HW127011   4.316   1.052   0.945 -1.6784 -0.3408  0.6628
 5183SOL    HW227012   4.363   1.178   0.890  0.9388 -0.6470  4.0729
 5184SOL     OW27013   0.808   2.355   5.881  0.2197 -0.3208 -0.3330
 5184SOL    HW127014   0.737   2.300   5.913 -0.5461  0.5681 -0.5049
 5184SOL    HW227015   0.876   2.288   5.889  2.6372  1.8441 -2.4377
 5185SOL     OW27016   0.275   2.717  17.521 -0.1380 -0.4423  0.0450
 5185SOL    HW127017   0.291   2.655  17.449  2.2571  2.4917 -1.9509
 5185SOL    HW227018   0.213   2.779  17.482  1.3223 -0.3972 -2.2383
 5186SOL     OW27019   1.516   1.619   2.689 -0.1156 -0.8401 -0.1614
 5186SOL    HW127020   1.574   1.577   2.752 -0.8281 -2.6866 -0.7401
 5186SOL    HW227021   1.464   1.543   2.660 -1.6281  0.0947  0.0797
 5187SOL     OW27022   2.802   3.159  17.084  0.2728 -0.6522  0.7722
 5187SOL    HW127023   2.829   3.167  16.993 -0.8244  0.0918  0.5163
 5187SOL    HW227024   2.886   3.142  17.128  0.5268 -1.3768  0.0188
 5188SOL     OW27025   4.601   2.479   1.209 -0.6507  0.4906  0.3766
 5188SOL    HW127026   4.550   2.528   1.145 -1.1894 -1.4168 -0.6625
 5188SOL    HW227027   4.651   2.543   1.260 -2.1304  0.9910  1.2029
 5189SOL     OW27028   1.073   1.205   7.984  0.4181  0.1682 -0.4289
 5189SOL    HW127029   1.061   1.299   7.973  0.3264 -0.0231 -1.9836
 5189SOL    HW227030   1.031   1.180   7.902 -1.8288  0.1518  0.7307
 5190SOL     OW27031   1.531   4.364   9.450  0.4247  1.0184 -0.1222
 5190SOL    HW127032   1.506   4.311   9.374  0.0394  1.1899 -0.1193
 5190SOL    HW227033   1.529   4.299   9.520 -0.6754  0.9503 -0.2056
 5191SOL     OW27034   4.586   1.935   7.299  0.3780 -0.0811  0.7027
 5191SOL    HW127035   4.524   1.973   7.237  1.0664  1.9675  1.2719
 5191SOL    HW227036   4.531   1.882   7.356 -0.4752 -0.3635 -0.3861
 5192SOL     OW27037   3.892   4.639  13.424 -0.1982 -0.3301 -0.3069
 5192SOL    HW127038   3.972   4.692  13.412 -1.7999  1.8704 -1.3325
 5192SOL    HW227039   3.916   4.550  13.398  4.6191  0.6054  0.7780
 5193SOL     OW27040   0.924   2.995   1.994 -0.7193 -0.4030 -0.2278
 5193SOL    HW127041   0.974   2.936   1.937  0.3427  1.2345 -0.9931
 5193SOL    HW227042   0.918   3.078   1.947  0.5739 -1.3752 -2.1480
 5194SOL     OW27043   0.492   0.845  15.461  0.3103 -0.1279  0.0220
 5194SOL    HW127044   0.403   0.828  15.430  0.9337 -1.1920 -1.1347
 5194SOL    HW227045   0.473   0.935  15.487 -0.1918 -0.5555  1.1665
 5195SOL     OW27046   4.242   3.419   8.590  0.0272 -0.0526  0.3950
 5195SOL    HW127047   4.289   3.388   8.668  1.2634  0.5824 -0.0842
 5195SOL    HW227048   4.151   3.410   8.616  0.0692  1.8454  1.2573
 5196SOL     OW27049   0.462   0.067   3.383  0.1560 -0.0996  0.9735
 5196SOL    HW127050   0.400   0.017   3.436  0.8861 -0.4178  1.5300
 5196SOL    HW227051   0.544   0.033   3.420  0.4125 -1.0861 -0.5088
 5197SOL     OW27052   0.564   3.282  14.044  0.5484 -0.3038 -0.2478
 5197SOL    HW127053   0.617   3.360  14.026  0.0140  0.1241  0.0551
 5197SOL    HW227054   0.486   3.316  14.087  2.7714  0.5423  3.1051
 5198SOL     OW27055   1.237   4.098   7.263  0.3049 -0.0718 -0.0639
 5198SOL    HW127056   1.290   4.147   7.325  1.0835  0.3591 -1.0790
 5198SOL    HW227057   1.292   4.091   7.185 -0.1219 -2.0512 -0.2109
 5199SOL     OW27058   0.809   1.464   1.555  0.5495  0.2921 -0.5356
 5199SOL    HW127059   0.803   1.547   1.508 -1.3427  0.0588 -0.7070
 5199SOL    HW227060   0.901   1.436   1.556 -0.0580 -1.6445  1.2456
 5200SOL     OW27061   4.491   2.901  11.634 -0.8371 -0.4971 -0.0714
 5200SOL    HW127062   4.475   2.992  11.660 -3.0847 -1.7087  2.8860
 5200SOL    HW227063   4.452   2.883  11.549 -1.9322 -1.6884  0.6867
 5201SOL     OW27064   3.276   1.187  11.592 -0.0376 -0.3091 -0.2650
 5201SOL    HW127065   3.363   1.159  11.563  0.7157  1.1563  0.5628
 5201SOL    HW227066   3.250   1.114  11.647  2.8471 -0.1022  1.3684
 5202SOL     OW27067   1.307   2.653  13.136  0.5419  0.0653  0.2293
 5202SOL    HW127068   1.364   2.589  13.179  0.9699  0.8449  0.8316
 5202SOL    HW227069   1.283   2.716  13.204  0.8626  0.4854 -0.0497
 5203SOL     OW27070   3.986   0.609   3.887 -0.2964  0.0434  0.0808
 5203SOL    HW127071   3.983   0.621   3.982 -0.3558  1.2274 -0.0757
 5203SOL    HW227072   4.076   0.638   3.871 -0.5191  0.7030  0.0489
 5204SOL     OW27073   0.229   0.353   6.387  0.3759 -0.4859 -0.3082
 5204SOL    HW127074   0.159   0.403   6.344  0.2222 -0.5022 -0.0772
 5204SOL    HW227075   0.296   0.387   6.327  0.1637  1.0361  0.3111
 5205SOL     OW27076   0.878   1.111  10.142  0.3255 -0.4145 -0.1921
 5205SOL    HW127077   0.948   1.168  10.110 -0.0327 -0.9985 -2.0159
 5205SOL    HW227078   0.809   1.177  10.134 -1.2359 -1.7979  1.9253
 5206SOL     OW27079   1.696   0.399   2.327  0.4369  0.5358  0.3473
 5206SOL    HW127080   1.726   0.436   2.410 -1.1365  0.6036  0.8833
 5206SOL    HW227081   1.729   0.310   2.332 -0.3685  0.1746 -0.8733
 5207SOL     OW27082   3.069   3.084  11.219  0.5385  0.0897  0.1318
 5207SOL    HW127083   2.989   3.136  11.212  0.3505 -0.0580  1.1735
 5207SOL    HW227084   3.077   3.034  11.138  1.0734 -3.2737  2.2618
 5208SOL     OW27085   4.202   3.818   4.113 -0.0019 -0.3215  0.1943
 5208SOL    HW127086   4.252   3.890   4.077 -2.1412  1.4857  0.8388
 5208SOL    HW227087   4.269   3.780   4.170  0.6621  0.6790  0.0855
 5209SOL     OW27088   4.716   2.849   4.128 -0.6677  0.2226 -0.0902
 5209SOL    HW127089   4.670   2.924   4.166  0.7981  0.1067  1.8866
 5209SOL    HW227090   0.013   2.798   4.207 -1.9838  0.9975  0.7120
 5210SOL     OW27091   1.659   0.964   6.455 -0.3446 -0.0559 -0.2592
 5210SOL    HW127092   1.640   0.963   6.361  1.0922  4.6775 -0.6320
 5210SOL    HW227093   1.613   0.883   6.474  2.5129 -1.4501  0.6811
 5211SOL     OW27094   0.272   4.666   7.613 -0.0596  0.1240 -0.0615
 5211SOL    HW127095   0.202   4.603   7.627 -1.4848  1.7553  0.0818
 5211SOL    HW227096   0.342   4.609   7.644 -0.9627 -1.3291 -0.7236
 5212SOL     OW27097   3.058   4.514   5.291  0.2708  0.0479  0.1404
 5212SOL    HW127098   2.978   4.485   5.247  1.9223  1.1562 -3.5959
 5212SOL    HW227099   3.048   4.453   5.364  0.4786  1.7126  1.5393
 5213SOL     OW27100   1.834   0.883  15.193  0.6516 -0.4159 -0.0584
 5213SOL    HW127101   1.852   0.860  15.102  2.8294 -1.5026  0.6456
 5213SOL    HW227102   1.922   0.901  15.227 -0.4109 -0.1532  2.5429
 5214SOL     OW27103   3.262   3.741   5.672  0.3056  0.6917  0.0858
 5214SOL    HW127104   3.335   3.702   5.720  2.5963  0.7646 -3.3410
 5214SOL    HW227105   3.217   3.795   5.736 -1.5575  2.6584 -2.8849
 5215SOL     OW27106   0.318   3.314  11.661 -0.5049  0.0834  0.6315
 5215SOL    HW127107   0.359   3.235  11.626 -0.9107  1.2360 -2.5005
 5215SOL    HW227108   0.230   3.296  11.696 -0.3645 -0.4318  0.7232
 5216SOL     OW27109   0.464   3.616  13.601  0.1938  0.0763  0.3863
 5216SOL    HW127110   0.423   3.685  13.550 -0.9731 -1.9976 -1.4729
 5216SOL    HW227111   0.550   3.655  13.619 -0.1945  0.4543  1.4182
 5217SOL     OW27112   2.019   0.248   4.554  0.2340  0.2580 -0.2442
 5217SOL    HW127113   1.990   0.339   4.562 -2.7173 -0.6241 -0.5946
 5217SOL    HW227114   2.059   0.247   4.467 -0.1579  0.8768 -0.4349
 5218SOL     OW27115   1.242   3.579   3.102 -0.1072  0.0615 -0.4681
 5218SOL    HW127116   1.338   3.577   3.104 -0.1090  0.2858 -0.2475
 5218SOL    HW227117   1.231   3.585   3.007  0.2563  0.1725 -0.5004
 5219SOL     OW27118   0.742   0.200   8.367  0.2666  0.1995 -0.3420
 5219SOL    HW127119   0.760   0.294   8.368  1.0845  0.0041  2.3848
 5219SOL    HW227120   0.650   0.199   8.391 -0.3457 -0.3100 -2.7575
 5220SOL     OW27121   2.020   2.476  17.357  0.0941 -0.6291  0.5800
 5220SOL    HW127122   1.973   2.522  17.287  0.1870 -0.4816  0.6141
 5220SOL    HW227123   2.049   2.552  17.406  2.6399  0.5895 -2.8142
 5221SOL     OW27124   3.149   2.851   6.555  0.0481 -0.4136  0.3473
 5221SOL    HW127125   3.065   2.844   6.601 -0.4241 -1.1579 -0.6260
 5221SOL    HW227126   3.186   2.932   6.591 -1.7258  0.7094 -0.3363
 5222SOL     OW27127   0.060   1.158   7.636 -0.4740  0.4136 -0.3197
 5222SOL    HW127128   0.088   1.125   7.721  0.0105  3.1416  0.5595
 5222SOL    HW227129   4.692   1.125   7.644 -0.4900  1.1608  2.3104
 5223SOL     OW27130   3.651   0.350   6.571 -0.3028  0.0988  0.3320
 5223SOL    HW127131   3.699   0.311   6.643 -0.4822 -1.8297 -0.6043
 5223SOL    HW227132   3.651   0.443   6.595  0.8956  0.5290 -1.3066
 5224SOL     OW27133   3.389   4.332   3.456  0.2768  0.3935  0.0083
 5224SOL    HW127134   3.326   4.330   3.384 -0.0184 -0.6426  0.3048
 5224SOL    HW227135   3.450   4.268   3.421 -0.4446 -2.0928  3.3745
 5225SOL     OW27136   4.022   1.119  12.545  0.2131  0.7790 -0.2244
 5225SOL    HW127137   4.012   1.175  12.467  3.3876 -0.8286 -1.7724
 5225SOL    HW227138   4.074   1.048  12.508 -0.8459  0.2847 -0.7894
 5226SOL     OW27139   1.736   1.069   4.432  0.6787 -0.2120 -0.6531
 5226SOL    HW127140   1.688   1.006   4.379 -1.4654  1.6208 -0.8912
 5226SOL    HW227141   1.758   1.130   4.361  1.3319  1.8231  1.3058
 5227SOL     OW27142   0.505   0.146   6.984 -0.1979  0.5858  0.1519
 5227SOL    HW127143   0.592   0.106   6.992 -1.1536 -1.3122  1.1147
 5227SOL    HW227144   0.441   0.084   7.019  0.4741 -0.6213 -0.7573
 5228SOL     OW27145   0.830   1.277   8.804  0.3683  0.2741  0.3201
 5228SOL    HW127146   0.817   1.247   8.894 -2.4016  2.5110  0.6616
 5228SOL    HW227147   0.911   1.327   8.809  0.0942  0.6598  0.9526
 5229SOL     OW27148   0.027   2.505   0.206  0.5359 -0.5992  0.4896
 5229SOL    HW127149   0.030   2.564   0.130 -1.0148 -0.7900  0.2832
 5229SOL    HW227150   0.017   2.419   0.164  0.2819  0.0214 -0.7271
 5230SOL     OW27151   4.399   0.078   8.110  0.1687 -0.5833  0.3397
 5230SOL    HW127152   4.397   0.044   8.199 -2.8672 -1.9878 -0.2521
 5230SOL    HW227153   4.485   0.120   8.115 -0.0838  0.2605 -2.4881
 5231SOL     OW27154   0.178   0.055  14.040 -0.1597 -0.4267 -0.5297
 5231SOL    HW127155   0.200   4.689  14.073 -1.5787 -0.2706  0.8346
 5231SOL    HW227156   0.263   0.076  14.003  1.4727 -1.4380  2.5999
 5232SOL     OW27157   2.783   4.698   4.400  0.3053  0.2989 -0.2822
 5232SOL    HW127158   2.871   0.004   4.374 -0.2924  1.0342 -1.5172
 5232SOL    HW227159   2.777   4.645   4.321  0.6356 -1.3149  0.7775
 5233SOL     OW27160   0.068   2.124   0.731 -0.1456  0.5341 -0.2058
 5233SOL    HW127161   0.084   2.193   0.795  0.5449 -1.3585  1.6270
 5233SOL    HW227162   0.120   2.152   0.656  1.3444 -0.1794  0.5725
 5234SOL     OW27163   3.992   4.233   2.725 -0.1546 -0.2733 -0.0279
 5234SOL    HW127164   4.065   4.198   2.777  0.8602  2.7425  0.5578
 5234SOL    HW227165   3.921   4.212   2.785  0.1764 -0.2020  0.3864
 5235SOL     OW27166   3.612   2.861   2.178 -0.1871  0.0067  0.1579
 5235SOL    HW127167   3.550   2.793   2.153 -2.9956  2.3499  0.7739
 5235SOL    HW227168   3.561   2.937   2.204 -0.7197  0.1565 -1.3252
 5236SOL     OW27169   4.566   3.987   4.786  0.6688 -0.2719 -0.3495
 5236SOL    HW127170   4.523   3.920   4.733 -0.0065 -1.2121  1.3867
 5236SOL    HW227171   4.641   3.999   4.727 -0.3472 -2.3282 -2.0505
 5237SOL     OW27172   1.933   2.597  14.017 -0.3304 -0.1866  0.0967
 5237SOL    HW127173   1.975   2.574  14.100  0.3082 -0.1012 -0.2037
 5237SOL    HW227174   1.842   2.608  14.046 -1.0442 -2.1655 -1.4043
 5238SOL     OW27175   3.882   2.922   3.333  0.2972 -0.4355 -0.3717
 5238SOL    HW127176   3.820   2.995   3.344  2.3981  1.5829 -1.9586
 5238SOL    HW227177   3.959   2.945   3.385  1.1068  0.6633 -2.0414
 5239SOL     OW27178   1.312   2.808   7.626  0.0326  0.0566  0.2531
 5239SOL    HW127179   1.354   2.722   7.632  0.8598  0.5332  1.2836
 5239SOL    HW227180   1.299   2.799   7.532  2.6818  0.9720 -0.1943
 5240SOL     OW27181   1.572   1.425   0.287 -0.4079 -0.4962 -0.6134
 5240SOL    HW127182   1.630   1.406   0.213 -0.2628  0.6488 -0.7885
 5240SOL    HW227183   1.524   1.496   0.246 -0.9254  0.1946  1.1947
 5241SOL     OW27184   2.925   0.658   7.334 -0.2507  0.0734  0.0752
 5241SOL    HW127185   2.874   0.739   7.328  0.1803  0.4076  1.0911
 5241SOL    HW227186   2.954   0.656   7.425  0.8721  0.4124 -0.2772
 5242SOL     OW27187   0.785   2.348  11.442 -0.4763  0.0163  0.4955
 5242SOL    HW127188   0.791   2.439  11.414  0.0190  0.2599  1.3864
 5242SOL    HW227189   0.695   2.336  11.412 -0.4766 -1.2966  1.0343
 5243SOL     OW27190   2.043   3.599   2.735 -0.4479  0.7259 -0.1564
 5243SOL    HW127191   2.079   3.663   2.798 -1.0545  1.0056 -0.0917
 5243SOL    HW227192   1.972   3.647   2.692 -0.3342  0.7879 -0.2762
 5244SOL     OW27193   3.006   0.887  13.115 -0.5651  0.1745  0.7112
 5244SOL    HW127194   2.938   0.941  13.155  0.8442  1.4563  1.3805
 5244SOL    HW227195   3.052   0.961  13.075 -2.1122  0.1390 -1.1432
 5245SOL     OW27196   0.274   3.496   1.201 -0.0748 -0.9414  0.0586
 5245SOL    HW127197   0.228   3.493   1.286 -0.4644 -1.7757 -0.1820
 5245SOL    HW227198   0.342   3.558   1.228 -0.3892 -0.4060 -0.3909
 5246SOL     OW27199   4.535   3.002   3.670  0.4830  0.4325 -0.0130
 5246SOL    HW127200   4.608   3.037   3.620  1.9645 -2.9405 -0.2334
 5246SOL    HW227201   4.586   2.937   3.718 -1.1605 -0.3321  0.7042
 5247SOL     OW27202   1.270   3.973   3.380  0.6241 -0.0299  0.4411
 5247SOL    HW127203   1.318   3.904   3.334 -0.9598 -1.2674  0.6537
 5247SOL    HW227204   1.200   3.921   3.419  0.8310 -1.2134 -0.7951
 5248SOL     OW27205   1.187   0.554   3.526  0.6603  0.0690 -0.4226
 5248SOL    HW127206   1.190   0.528   3.618 -3.5600 -0.6218 -0.5010
 5248SOL    HW227207   1.230   0.480   3.483 -0.1581  0.1647 -1.4047
 5249SOL     OW27208   4.564   4.330   7.199  0.6917  0.3618  0.9372
 5249SOL    HW127209   4.527   4.396   7.257  0.2884 -1.4478  2.7280
 5249SOL    HW227210   4.624   4.293   7.264 -0.1445 -0.1351  1.4125
 5250SOL     OW27211   0.893   3.987  14.224 -1.0568  0.9655  0.1848
 5250SOL    HW127212   0.855   4.037  14.151  0.6312  0.3094 -1.1388
 5250SOL    HW227213   0.921   4.058  14.281 -0.1717  0.5333  0.2861
 5251SOL     OW27214   3.857   2.095  11.323  0.0080 -0.2166 -0.0984
 5251SOL    HW127215   3.948   2.094  11.355  0.1624 -0.4204 -0.5356
 5251SOL    HW227216   3.812   2.100  11.407 -1.6649 -1.7670 -0.9190
 5252SOL     OW27217   3.150   0.629   0.856 -0.1512  0.4336 -0.0075
 5252SOL    HW127218   3.199   0.632   0.773 -0.2784  2.1104 -0.0312
 5252SOL    HW227219   3.068   0.596   0.821  0.0544 -1.9170  1.7484
 5253SOL     OW27220   2.876   0.193   1.129  0.4368  0.6439 -0.0354
 5253SOL    HW127221   2.829   0.157   1.204 -0.0342 -1.2416 -1.2336
 5253SOL    HW227222   2.927   0.263   1.171  1.6149 -0.0926 -0.2423
 5254SOL     OW27223   3.498   0.776  15.903 -0.2486  0.4770  0.2562
 5254SOL    HW127224   3.531   0.765  15.814  0.8781  1.6368  0.5241
 5254SOL    HW227225   3.466   0.866  15.898 -1.2258  0.1328  0.3141
 5255SOL     OW27226   4.402   3.817   2.080  0.6011  0.4108  0.2698
 5255SOL    HW127227   4.470   3.850   2.022  1.6003 -1.4299  0.3876
 5255SOL    HW227228   4.445   3.741   2.120  0.6793  0.6192  0.5873
 5256SOL     OW27229   0.324   4.253   4.100 -0.2728  0.5372  0.2164
 5256SOL    HW127230   0.366   4.327   4.143 -0.1132  0.8894 -0.5453
 5256SOL    HW227231   0.235   4.256   4.137 -0.6168 -0.3019 -0.5356
 5257SOL     OW27232   3.866   1.667  11.323  0.4555  0.1225 -0.6938
 5257SOL    HW127233   3.780   1.684  11.283  0.1160  1.4274  0.6312
 5257SOL    HW227234   3.909   1.738  11.275 -0.9190  0.9676 -0.6781
 5258SOL     OW27235   2.182   4.696   4.916 -0.4194 -1.1964  0.3346
 5258SOL    HW127236   2.217   4.634   4.980 -0.8358 -0.0811  1.6320
 5258SOL    HW227237   2.191   0.056   4.966  1.3793  0.0218 -1.9624
 5259SOL     OW27238   2.299   1.381   3.325 -0.2584  0.4091 -0.3162
 5259SOL    HW127239   2.271   1.430   3.248  0.2398  0.6452 -0.3497
 5259SOL    HW227240   2.329   1.453   3.380  1.9399  0.0023 -0.9490
 5260SOL     OW27241   2.702   0.664   2.546  0.0615  0.1010 -0.4978
 5260SOL    HW127242   2.680   0.751   2.581  1.0534 -0.7198  2.1824
 5260SOL    HW227243   2.647   0.651   2.469 -1.9390  2.1744  0.5574
 5261SOL     OW27244   1.850   0.083   7.980  0.3431 -0.3054 -0.3904
 5261SOL    HW127245   1.922   0.139   7.952  0.2900  0.9671  2.0362
 5261SOL    HW227246   1.787   0.099   7.910 -2.0976 -2.2555  1.3605
 5262SOL     OW27247   4.112   0.060   3.416  0.4574 -0.0505 -0.5243
 5262SOL    HW127248   4.089   0.046   3.324  0.2369 -0.3549 -0.4235
 5262SOL    HW227249   4.035   0.107   3.447  0.0089 -0.7753 -0.5290
 5263SOL     OW27250   0.786   1.515   5.017  0.4957  0.2253 -0.2317
 5263SOL    HW127251   0.710   1.464   4.990  1.7445 -2.2964  1.0305
 5263SOL    HW227252   0.749   1.553   5.097  0.2843  0.0565 -0.2510
 5264SOL     OW27253   1.041   0.123  13.309 -0.0785 -0.2300  0.2666
 5264SOL    HW127254   1.074   0.062  13.244 -0.2968 -1.1015  0.9829
 5264SOL    HW227255   0.972   0.072  13.352 -0.3663 -1.2984 -1.4567
 5265SOL     OW27256   1.604   4.296  14.461  0.0731 -0.0055 -0.5121
 5265SOL    HW127257   1.698   4.285  14.478 -0.1657 -1.5882 -0.2365
 5265SOL    HW227258   1.600   4.299  14.365  1.0898  0.3849 -0.5482
 5266SOL     OW27259   4.482   1.740   8.709 -0.0204 -0.4245 -0.3848
 5266SOL    HW127260   4.550   1.786   8.658  0.7365  0.4483  1.4307
 5266SOL    HW227261   4.465   1.662   8.657  0.7871  0.5294 -2.0967
 5267SOL     OW27262   0.557   0.783   6.585 -0.0811  0.1256  0.1599
 5267SOL    HW127263   0.550   0.864   6.534  2.3418  1.0358  1.2340
 5267SOL    HW227264   0.653   0.784   6.593 -0.0001 -1.5491 -0.7065
 5268SOL     OW27265   1.745   1.756  11.547  0.7592  0.2748 -0.3360
 5268SOL    HW127266   1.787   1.673  11.568 -1.5459 -0.8815 -0.2948
 5268SOL    HW227267   1.774   1.764  11.456 -1.0751 -1.5731 -1.0804
 5269SOL     OW27268   0.465   3.695  13.234  0.2874 -0.0505 -0.9144
 5269SOL    HW127269   0.432   3.784  13.246 -0.3312 -0.8617  3.3413
 5269SOL    HW227270   0.385   3.661  13.194 -1.0695  0.9612  0.9690
 5270SOL     OW27271   2.729   3.046  14.047  0.4484  0.4990  0.1253
 5270SOL    HW127272   2.793   3.007  14.108 -0.2495  1.5402  1.5221
 5270SOL    HW227273   2.709   3.133  14.082 -1.6637 -0.4891  1.3402
 5271SOL     OW27274   1.180   0.196   1.737 -0.4277 -0.4301  0.1471
 5271SOL    HW127275   1.180   0.199   1.641 -0.8798  0.5875  0.1869
 5271SOL    HW227276   1.152   0.105   1.749  0.9550 -0.7552  0.8940
 5272SOL     OW27277   3.113   0.200   5.982 -0.2266  0.3541  0.0995
 5272SOL    HW127278   3.088   0.189   5.890  0.9680  3.3779 -0.6003
 5272SOL    HW227279   3.073   0.125   6.025 -0.0644 -0.2156 -0.7551
 5273SOL     OW27280   2.918   3.599   3.781 -0.2346  0.4805 -0.3230
 5273SOL    HW127281   2.987   3.577   3.718 -0.4742 -0.5055 -0.2532
 5273SOL    HW227282   2.868   3.517   3.774 -0.1994  0.4556 -0.2886
 5274SOL     OW27283   3.372   0.766  12.563 -0.6174  1.0310 -0.1534
 5274SOL    HW127284   3.390   0.672  12.571  0.6039  1.3329  0.6007
 5274SOL    HW227285   3.406   0.792  12.648 -0.9329 -2.8857  1.1710
 5275SOL     OW27286   2.701   1.392   6.774 -0.1921  0.3360  0.4984
 5275SOL    HW127287   2.749   1.472   6.796  1.2225 -0.6408  0.9798
 5275SOL    HW227288   2.686   1.417   6.683 -1.0174  1.5513  0.9740
 5276SOL     OW27289   3.953   4.632   7.098 -0.5598  0.3098  0.0479
 5276SOL    HW127290   3.871   4.599   7.061 -0.8118 -2.3245  2.9770
 5276SOL    HW227291   4.013   4.562   7.073 -0.4740 -0.1590  1.5754
 5277SOL     OW27292   4.153   4.566  16.456  0.4081 -0.2111  0.0297
 5277SOL    HW127293   4.154   4.528  16.368 -0.2835 -0.6149  0.1974
 5277SOL    HW227294   4.245   4.548  16.473 -0.0679 -1.7968  0.9879
 5278SOL     OW27295   2.746   1.888  13.068 -0.2772  0.6727 -0.4104
 5278SOL    HW127296   2.796   1.890  12.987 -3.3982 -0.4359 -2.3487
 5278SOL    HW227297   2.657   1.909  13.041  0.1533  2.8646 -0.1361
 5279SOL     OW27298   2.169   2.281   5.898 -0.4155 -0.1627 -0.1340
 5279SOL    HW127299   2.156   2.315   5.987  0.7539  0.1504 -0.0785
 5279SOL    HW227300   2.081   2.279   5.861 -0.4329 -0.9942 -0.0624
 5280SOL     OW27301   3.917   4.435   2.494  0.0400 -0.1389  0.3400
 5280SOL    HW127302   3.969   4.366   2.536  1.1766  0.3085 -0.3315
 5280SOL    HW227303   3.975   4.475   2.429  0.5652  1.1428  1.5899
 5281SOL     OW27304   1.194   1.138  14.552  0.0244 -0.3216 -0.3192
 5281SOL    HW127305   1.227   1.055  14.588  2.2442 -0.0126 -1.6818
 5281SOL    HW227306   1.275   1.186  14.566  0.5659 -1.3503  0.0530
 5282SOL     OW27307   3.699   2.707   5.680 -0.0846  0.0222 -0.6915
 5282SOL    HW127308   3.699   2.631   5.739  0.7403 -0.3608 -1.1982
 5282SOL    HW227309   3.638   2.757   5.735  0.3634 -0.2454  0.0468
 5283SOL     OW27310   1.399   1.061  16.220 -0.0466 -0.2735 -0.3387
 5283SOL    HW127311   1.375   1.010  16.142  0.1508 -2.5706  1.1145
 5283SOL    HW227312   1.431   0.990  16.275 -1.0279 -0.5053 -0.0595
 5284SOL     OW27313   0.166   3.883   8.236  0.2158 -0.0418  0.1818
 5284SOL    HW127314   0.096   3.942   8.266 -0.9635 -0.4965 -1.6377
 5284SOL    HW227315   0.150   3.815   8.301  1.0958 -2.1929 -1.8839
 5285SOL     OW27316   2.069   4.194   8.975  0.4470  0.0527  0.5058
 5285SOL    HW127317   2.075   4.270   9.034 -0.6520  0.4867  0.0481
 5285SOL    HW227318   2.114   4.218   8.894 -0.7092 -1.1070 -0.4597
 5286SOL     OW27319   2.107   4.023   3.335 -0.0233  0.4175 -0.1861
 5286SOL    HW127320   2.064   4.084   3.275  0.6813  1.0556 -0.0389
 5286SOL    HW227321   2.194   4.030   3.295 -0.2846 -1.2225 -1.0544
 5287SOL     OW27322   2.868   3.454   2.092 -0.3754 -0.3238 -0.0272
 5287SOL    HW127323   2.773   3.451   2.102 -0.3819  0.4911  0.1134
 5287SOL    HW227324   2.900   3.476   2.179 -1.0506  0.4794  0.0190
 5288SOL     OW27325   0.252   4.699  12.021  0.1735 -0.0685  0.3441
 5288SOL    HW127326   0.289   4.700  11.932 -1.1308  0.0976 -0.1998
 5288SOL    HW227327   0.165   4.659  12.011 -0.8598  2.3490 -0.2512
 5289SOL     OW27328   0.182   2.807   1.191  0.1139 -0.6365 -0.0633
 5289SOL    HW127329   0.098   2.840   1.224 -0.3943 -0.7703 -1.2209
 5289SOL    HW227330   0.222   2.892   1.172 -1.3764  0.4564  1.6185
 5290SOL     OW27331   0.519   3.903   3.585 -0.3620 -0.5543 -0.7037
 5290SOL    HW127332   0.498   3.822   3.538 -0.0373 -1.5329  0.8149
 5290SOL    HW227333   0.543   3.867   3.671  0.6846 -1.1185 -1.2395
 5291SOL     OW27334   2.241   4.609   3.691  0.2600 -0.1631  0.5017
 5291SOL    HW127335   2.199   4.523   3.683 -0.7672  0.2604  1.4942
 5291SOL    HW227336   2.215   4.643   3.605  0.7981 -0.2692  0.2938
 5292SOL     OW27337   1.133   2.213   1.102 -0.0589  0.1600 -0.0311
 5292SOL    HW127338   1.172   2.250   1.023 -1.9875  1.3664 -0.4344
 5292SOL    HW227339   1.192   2.260   1.161 -2.2591  3.1085 -0.1880
 5293SOL     OW27340   4.087   1.349   7.381 -0.5716  0.1607  0.3540
 5293SOL    HW127341   4.042   1.279   7.333 -0.3570  0.9924 -1.0442
 5293SOL    HW227342   4.044   1.322   7.462 -0.9166  1.4908  0.6186
 5294SOL     OW27343   4.188   4.492   7.307 -0.2934  0.5172  0.0100
 5294SOL    HW127344   4.127   4.438   7.357  0.6506  0.0076  0.6254
 5294SOL    HW227345   4.164   4.489   7.215  2.8889  2.3687 -0.8818
 5295SOL     OW27346   2.121   0.345   8.587 -0.5975 -0.4501  0.4766
 5295SOL    HW127347   2.037   0.355   8.632 -0.9534 -1.6808  0.0810
 5295SOL    HW227348   2.184   0.334   8.659  1.4320  1.8250 -0.9576
 5296SOL     OW27349   2.537   4.497   5.494 -0.0862  0.3194 -0.8728
 5296SOL    HW127350   2.559   4.411   5.457  0.6693 -0.0360  0.3873
 5296SOL    HW227351   2.488   4.525   5.416 -1.2874 -0.1445 -0.2770
 5297SOL     OW27352   0.926   4.300   4.472  0.7223 -0.6714 -0.3119
 5297SOL    HW127353   1.003   4.326   4.423  0.3800  1.4097  0.2348
 5297SOL    HW227354   0.945   4.351   4.551 -1.3101  1.6968 -1.3284
 5298SOL     OW27355   1.578   2.576   7.135 -0.2608  0.1189  0.2232
 5298SOL    HW127356   1.551   2.500   7.186  0.0396  0.6485  1.1859
 5298SOL    HW227357   1.622   2.634   7.198 -2.6005  1.2438  0.8287
 5299SOL     OW27358   0.880   1.532  13.884  0.2539 -0.1733 -0.0420
 5299SOL    HW127359   0.851   1.602  13.825 -0.9423 -1.4015 -0.9076
 5299SOL    HW227360   0.975   1.542  13.881  0.1259  0.6611 -1.3561
 5300SOL     OW27361   4.243   1.153   9.948 -0.3104 -0.2618  0.1543
 5300SOL    HW127362   4.232   1.225   9.887  1.9566  0.4437  0.5868
 5300SOL    HW227363   4.302   1.194  10.012 -1.5325  1.3908  0.2123
 5301SOL     OW27364   4.366   1.488   6.100 -0.4342  0.2897 -0.1384
 5301SOL    HW127365   4.308   1.416   6.123  1.2126 -0.8098  0.5520
 5301SOL    HW227366   4.317   1.520   6.024  0.7634  0.7609 -0.7200
 5302SOL     OW27367   4.291   0.363   8.952 -0.2195 -0.4429 -0.0857
 5302SOL    HW127368   4.287   0.385   8.859 -2.4386 -1.9391 -0.3598
 5302SOL    HW227369   4.256   0.275   8.945  1.1793 -1.0252  0.2409
 5303SOL     OW27370   4.070   1.065   7.963 -0.1485 -0.5086  0.2351
 5303SOL    HW127371   4.084   1.057   7.869 -0.5557  0.7747  0.0795
 5303SOL    HW227372   4.049   1.157   7.976 -1.1118 -0.4262 -1.8441
 5304SOL     OW27373   2.662   3.414  17.674 -0.2003 -0.0945 -0.3749
 5304SOL    HW127374   2.723   3.487   0.003 -1.4720  0.9054 -0.0804
 5304SOL    HW227375   2.734   3.370  17.628  1.6106  1.3881  1.0369
 5305SOL     OW27376   0.472   3.169   2.659 -0.0826 -0.0804  0.4054
 5305SOL    HW127377   0.527   3.105   2.614 -0.7809  0.0132 -0.5695
 5305SOL    HW227378   0.463   3.125   2.744  1.5092 -2.0087 -0.4123
 5306SOL     OW27379   4.230   1.804  16.331 -0.3852 -0.2596  0.0404
 5306SOL    HW127380   4.154   1.858  16.311 -1.1722 -0.5641  2.2244
 5306SOL    HW227381   4.179   1.724  16.347  0.2091 -0.8651 -1.1029
 5307SOL     OW27382   4.706   2.808   6.255  0.3270  0.4702  0.5924
 5307SOL    HW127383   4.665   2.859   6.325 -1.2599  1.2629 -0.9131
 5307SOL    HW227384   4.694   2.721   6.294  2.2030  0.2560  0.6857
 5308SOL     OW27385   2.814   0.826  11.075  0.7927  0.1564 -0.2110
 5308SOL    HW127386   2.855   0.761  11.019 -1.8720 -0.7072 -1.1740
 5308SOL    HW227387   2.736   0.781  11.108  0.8825  1.6654  2.0230
 5309SOL     OW27388   2.878   4.691   9.025  0.2773 -0.4438  0.3969
 5309SOL    HW127389   2.869   4.688   9.121  0.3546 -0.4657  0.4036
 5309SOL    HW227390   2.947   4.625   9.029  2.1492  1.5842  1.5133
 5310SOL     OW27391   3.457   0.398   7.436 -0.2305  0.4603 -0.1823
 5310SOL    HW127392   3.399   0.432   7.369 -1.3209 -2.3248 -0.6552
 5310SOL    HW227393   3.531   0.457   7.422  0.0168  0.7294  2.2236
 5311SOL     OW27394   3.016   3.425  15.878 -0.4921 -0.2732 -0.5905
 5311SOL    HW127395   3.077   3.408  15.806  0.4396 -0.7397  0.3153
 5311SOL    HW227396   2.940   3.414  15.820 -1.3156 -0.7246  0.5775
 5312SOL     OW27397   1.704   4.354   5.607 -0.7130  0.3225 -0.6911
 5312SOL    HW127398   1.749   4.425   5.653  0.0626 -0.4601 -0.2290
 5312SOL    HW227399   1.618   4.394   5.592  0.0712  2.7606  1.2288
 5313SOL     OW27400   2.175   1.092   8.344  0.3397  0.9672 -0.4764
 5313SOL    HW127401   2.158   1.099   8.250 -1.2916 -0.4466 -0.2836
 5313SOL    HW227402   2.202   1.000   8.345  1.7708  1.4395  2.6919
 5314SOL     OW27403   3.009   2.881   2.426  0.2248  0.2343  0.2014
 5314SOL    HW127404   3.096   2.899   2.390  0.6024  0.5247  1.2525
 5314SOL    HW227405   3.006   2.931   2.508 -0.4558 -2.1009  1.5937
 5315SOL     OW27406   2.896   1.990   6.259 -0.0075  0.4701 -0.3327
 5315SOL    HW127407   2.838   1.935   6.311  0.3911  1.8895  1.6302
 5315SOL    HW227408   2.924   1.922   6.198  0.7373  0.6180 -0.1576
 5316SOL     OW27409   3.486   4.084   2.098 -0.1706 -0.0194  0.6882
 5316SOL    HW127410   3.466   4.167   2.054  0.9766 -0.1997 -0.1774
 5316SOL    HW227411   3.442   4.084   2.183 -1.5889  0.2650 -0.0499
 5317SOL     OW27412   0.762   0.555   2.670  0.5979  0.0932 -0.0280
 5317SOL    HW127413   0.673   0.542   2.704  1.0493 -3.3734 -0.1939
 5317SOL    HW227414   0.797   0.475   2.709  0.9274  0.7140  0.9455
 5318SOL     OW27415   4.246   3.678  16.554  0.5468 -0.0351 -0.1765
 5318SOL    HW127416   4.333   3.639  16.561  0.4452 -0.1105  0.7112
 5318SOL    HW227417   4.210   3.648  16.471  0.3291 -0.9943  0.2668
 5319SOL     OW27418   2.570   2.730   6.946  0.1236  0.4553  0.1336
 5319SOL    HW127419   2.593   2.708   6.856  2.7220  1.4708  0.5407
 5319SOL    HW227420   2.591   2.823   6.939 -1.5039  0.7013 -1.4433
 5320SOL     OW27421   4.143   0.540   0.953 -0.1866 -0.4387 -0.0059
 5320SOL    HW127422   4.101   0.472   0.900  1.2744 -2.5783  1.6025
 5320SOL    HW227423   4.199   0.486   1.008 -0.1013 -0.2807  0.0627
 5321SOL     OW27424   4.102   3.039   8.031 -0.7864  0.0670  0.4258
 5321SOL    HW127425   4.197   3.038   8.021 -0.9753  0.8375 -1.3845
 5321SOL    HW227426   4.108   3.113   8.091  2.9081 -0.1997  0.3904
 5322SOL     OW27427   2.401   0.123  14.426 -0.5066 -0.2774  0.2441
 5322SOL    HW127428   2.493   0.138  14.404 -1.3237 -0.7123 -3.5312
 5322SOL    HW227429   2.393   0.196  14.488 -2.0322  0.6748 -1.0451
 5323SOL     OW27430   1.911   0.271   4.819 -0.3770  0.3452 -0.1693
 5323SOL    HW127431   1.945   0.192   4.778  0.7032 -0.5655  2.4646
 5323SOL    HW227432   1.918   0.342   4.754  2.3945  0.7607  0.5909
 5324SOL     OW27433   0.625   4.522   8.307  0.3876  1.2332  0.1769
 5324SOL    HW127434   0.547   4.543   8.256 -0.7679  0.5702  1.6678
 5324SOL    HW227435   0.685   4.522   8.233 -1.2557  0.1760 -1.1577
 5325SOL     OW27436   1.954   4.665  12.842 -0.4065  0.3985 -0.1338
 5325SOL    HW127437   1.864   4.677  12.873 -0.0788  1.4836  0.3816
 5325SOL    HW227438   1.955   4.711  12.759  0.2759 -0.7379 -0.7497
 5326SOL     OW27439   2.852   2.749   6.617  0.0529 -0.4127 -0.4125
 5326SOL    HW127440   2.757   2.751   6.629  0.4115  1.0814  2.0493
 5326SOL    HW227441   2.850   2.749   6.521  0.0040 -2.1697 -0.4237
 5327SOL     OW27442   2.719   2.901  12.716  0.5043 -0.6801 -0.1439
 5327SOL    HW127443   2.806   2.915  12.679  0.5583  0.1827  0.3128
 5327SOL    HW227444   2.738   2.851  12.795  1.2614  0.3053  0.2933
 5328SOL     OW27445   1.913   4.223   7.627  0.8535  0.6996 -0.3281
 5328SOL    HW127446   1.935   4.130   7.620  0.0187  0.4299  0.6232
 5328SOL    HW227447   1.818   4.211   7.617  1.1561 -0.7448 -1.3878
 5329SOL     OW27448   1.571   2.108   8.902  0.0074  0.3891 -0.1414
 5329SOL    HW127449   1.613   2.076   8.983  0.5530  1.5763  0.0621
 5329SOL    HW227450   1.596   2.041   8.839  1.3572 -0.3371  1.1588
 5330SOL     OW27451   2.758   2.556   7.382  0.7896  0.1114  0.3409
 5330SOL    HW127452   2.842   2.594   7.356  0.9055  0.9918  2.0118
 5330SOL    HW227453   2.787   2.506   7.458 -0.5090 -0.9828  0.1196
 5331SOL     OW27454   4.448   0.203   4.354 -0.4506  0.0443  0.0582
 5331SOL    HW127455   4.528   0.163   4.388 -0.3395  0.2720  0.0613
 5331SOL    HW227456   4.432   0.147   4.278 -1.2213 -1.7799  1.5646
 5332SOL     OW27457   0.988   1.511  15.920 -0.0640 -0.1944  0.0678
 5332SOL    HW127458   1.032   1.514  16.005  1.4071 -2.5587 -0.6087
 5332SOL    HW227459   1.016   1.422  15.898  0.3207  0.4630 -2.0728
 5333SOL     OW27460   1.772   2.342   0.421 -0.2090  0.0183 -0.1031
 5333SOL    HW127461   1.733   2.419   0.380  2.7140  1.8962  0.5873
 5333SOL    HW227462   1.823   2.311   0.346 -1.1371  0.7464 -1.0382
 5334SOL     OW27463   3.792   3.502   8.502 -0.0709  0.4057 -0.8730
 5334SOL    HW127464   3.790   3.552   8.584 -1.3172 -1.6502  0.3637
 5334SOL    HW227465   3.782   3.409   8.523 -0.1063  0.5762 -0.1393
 5335SOL     OW27466   2.423   3.049  12.981  0.2935 -0.2162 -0.5168
 5335SOL    HW127467   2.482   3.114  13.020  1.4753 -2.2909  1.1470
 5335SOL    HW227468   2.341   3.084  13.018 -0.5680 -1.2452 -1.4888
 5336SOL     OW27469   1.026   1.379   5.793  0.1311 -0.0232  0.0253
 5336SOL    HW127470   1.054   1.424   5.713 -0.4956  1.0791  0.4304
 5336SOL    HW227471   1.004   1.459   5.840 -1.9408 -0.7409  0.2893
 5337SOL     OW27472   2.556   2.323  15.715 -0.4427  0.2289  0.0251
 5337SOL    HW127473   2.589   2.353  15.800 -0.8132  1.1926 -0.1622
 5337SOL    HW227474   2.572   2.230  15.728  0.5034  0.6641  1.8966
 5338SOL     OW27475   3.172   1.148   5.034 -0.4737 -0.1207  0.0116
 5338SOL    HW127476   3.168   1.223   5.093  0.9578 -1.4057  1.7555
 5338SOL    HW227477   3.224   1.088   5.088 -0.3035  1.8970  2.0981
 5339SOL     OW27478   2.308   4.037   9.201  0.0162  0.0666 -0.3798
 5339SOL    HW127479   2.365   3.960   9.194 -2.3527 -1.5350 -1.9170
 5339SOL    HW227480   2.328   4.086   9.121 -2.6363  1.9646  0.1291
 5340SOL     OW27481   4.122   3.333  16.170  0.0310  0.2981  0.2400
 5340SOL    HW127482   4.206   3.292  16.191  0.1727  0.7026  0.4652
 5340SOL    HW227483   4.119   3.345  16.075  0.9622 -2.7085 -0.1586
 5341SOL     OW27484   3.911   0.077   7.793 -0.4925  0.5567  0.1752
 5341SOL    HW127485   3.897   4.712   7.755  2.0651 -0.1281  0.7891
 5341SOL    HW227486   3.935   0.056   7.883 -0.8602  2.1402  0.6515
 5342SOL     OW27487   2.425   0.261  14.668  0.0062 -0.7599 -0.5352
 5342SOL    HW127488   2.503   0.316  14.655 -0.5219  0.6330  2.1217
 5342SOL    HW227489   2.358   0.329  14.659  1.2263  0.4138 -0.8175
 5343SOL     OW27490   2.365   3.899   4.816  0.1445  0.6789 -0.5295
 5343SOL    HW127491   2.390   3.815   4.778 -0.6601 -0.0350  0.5081
 5343SOL    HW227492   2.448   3.946   4.809 -0.3916  1.4851 -1.6551
 5344SOL     OW27493   0.721   2.825   2.048  0.4456 -0.3250 -0.7019
 5344SOL    HW127494   0.666   2.847   1.973 -0.6980  1.0691  0.5468
 5344SOL    HW227495   0.799   2.876   2.029  0.5691 -0.8301 -1.5519
 5345SOL     OW27496   3.417   4.215  16.102  0.1914 -0.1034  0.7057
 5345SOL    HW127497   3.467   4.268  16.039  0.0648 -0.1554  0.5601
 5345SOL    HW227498   3.454   4.244  16.185  0.4166 -0.8569  0.8718
 5346SOL     OW27499   0.279   0.188   9.482  0.5943 -0.9553  0.2355
 5346SOL    HW127500   0.185   0.189   9.497  0.8318  0.4936  1.6703
 5346SOL    HW227501   0.303   0.122   9.548 -0.5811 -0.7425  0.8671
 5347SOL     OW27502   3.110   2.247   6.817  0.1208 -0.2238 -0.0390
 5347SOL    HW127503   3.184   2.237   6.877  0.1184 -0.5997 -0.0955
 5347SOL    HW227504   3.053   2.196   6.875 -1.4019  0.6689 -0.7547
 5348SOL     OW27505   1.129   1.481   7.276 -0.4462 -0.2205  0.4153
 5348SOL    HW127506   1.208   1.435   7.303  0.4680  1.9538  1.4885
 5348SOL    HW227507   1.152   1.508   7.187 -0.8623 -0.7253  0.1568
 5349SOL     OW27508   4.435   2.991   4.770 -0.1098 -0.0330 -0.1753
 5349SOL    HW127509   4.407   3.016   4.859  0.1038 -2.0682  0.4510
 5349SOL    HW227510   4.437   3.079   4.731 -0.1140  0.0099 -0.0806
 5350SOL     OW27511   1.276   4.338   8.592  0.0252 -0.1257 -0.2266
 5350SOL    HW127512   1.322   4.268   8.547  2.2352  0.5805  0.9311
 5350SOL    HW227513   1.262   4.392   8.515  0.5793  0.4473  0.0737
 5351SOL     OW27514   2.013   1.808   7.089 -0.1696 -0.0642  0.5293
 5351SOL    HW127515   2.059   1.878   7.135 -0.0910 -0.5294  1.1482
 5351SOL    HW227516   1.975   1.754   7.158  1.8689  0.1327  1.7951
 5352SOL     OW27517   1.698   0.675  11.040 -0.3634 -0.4437  0.1796
 5352SOL    HW127518   1.626   0.613  11.045  0.2725 -1.3784 -1.9691
 5352SOL    HW227519   1.671   0.736  11.108 -3.1627 -1.5812  0.0628
 5353SOL     OW27520   3.322   2.606   7.075  0.0292 -0.0031 -0.4521
 5353SOL    HW127521   3.240   2.571   7.041  1.0754 -2.8385 -0.0299
 5353SOL    HW227522   3.293   2.649   7.155  0.8257  2.3575 -1.4292
 5354SOL     OW27523   3.394   3.023  10.435 -0.5600  0.5258  0.0740
 5354SOL    HW127524   3.445   3.028  10.516 -0.8045  0.8155  0.2129
 5354SOL    HW227525   3.425   3.103  10.392 -0.3846  0.4611  0.0806
 5355SOL     OW27526   0.381   1.941   4.437  0.1992 -0.0074  0.3125
 5355SOL    HW127527   0.348   1.864   4.483 -0.0590 -0.2629 -0.3006
 5355SOL    HW227528   0.469   1.962   4.468 -0.2715  2.3220  0.0795
 5356SOL     OW27529   0.537   0.522  14.720 -0.2303  0.0491 -0.1159
 5356SOL    HW127530   0.527   0.603  14.770 -1.3706  1.0249 -1.9133
 5356SOL    HW227531   0.542   0.447  14.779  2.7742 -0.2466 -0.7271
 5357SOL     OW27532   0.088   3.421  15.929  0.1925  0.8889 -0.1379
 5357SOL    HW127533   0.172   3.447  15.966 -0.3096 -0.3217  1.9305
 5357SOL    HW227534   0.055   3.510  15.917 -3.0483 -0.2095  0.4647
 5358SOL     OW27535   2.664   2.818  13.418 -0.6406  0.1440  0.4665
 5358SOL    HW127536   2.681   2.771  13.337  1.6577  2.4160 -0.3605
 5358SOL    HW227537   2.720   2.896  13.411  0.7734 -0.7354  1.7978
 5359SOL     OW27538   2.892   2.227   3.038  0.4906 -0.9896  0.7872
 5359SOL    HW127539   2.821   2.253   2.979 -0.0847 -0.9935  1.4806
 5359SOL    HW227540   2.920   2.315   3.063  0.8323 -0.2789 -2.0757
 5360SOL     OW27541   1.015   2.947  10.721  0.0020 -0.2129  0.3075
 5360SOL    HW127542   1.055   3.004  10.787  0.7558 -2.0898  1.4530
 5360SOL    HW227543   1.091   2.892  10.705  0.4076  0.5537 -0.3954
 5361SOL     OW27544   0.865   3.425   9.299  0.2512  0.2759 -0.2371
 5361SOL    HW127545   0.816   3.438   9.380  0.0487 -0.5775 -0.2262
 5361SOL    HW227546   0.952   3.402   9.329  0.4141  0.5917 -0.4593
 5362SOL     OW27547   3.238   0.049   1.065  0.1996 -0.0837  0.4102
 5362SOL    HW127548   3.242   0.039   0.970  0.7414  1.5097  0.2764
 5362SOL    HW227549   3.157   0.004   1.091 -1.1812  1.5113 -1.1126
 5363SOL     OW27550   0.368   1.412  13.554 -0.2101 -0.3378 -0.4578
 5363SOL    HW127551   0.412   1.348  13.609  0.1393 -1.2825 -1.8610
 5363SOL    HW227552   0.400   1.379  13.470  0.2198  1.8373 -1.1510
 5364SOL     OW27553   1.730   2.469   8.051 -0.1189 -0.1924  0.1698
 5364SOL    HW127554   1.714   2.435   7.962 -0.9565 -2.7033  1.2640
 5364SOL    HW227555   1.805   2.525   8.031 -0.2444 -0.7265 -1.8523
 5365SOL     OW27556   2.705   2.385   5.034  0.1615  0.0604  0.0501
 5365SOL    HW127557   2.629   2.442   5.038 -1.2861 -1.8384 -0.3146
 5365SOL    HW227558   2.674   2.295   5.023  0.7562 -0.2497  0.8761
 5366SOL     OW27559   0.612   1.416   4.193 -0.2205  0.0795 -0.3853
 5366SOL    HW127560   0.616   1.509   4.213  0.8430  0.2561 -1.4209
 5366SOL    HW227561   0.686   1.373   4.234  0.6299  0.9762 -0.9805
 5367SOL     OW27562   0.241   1.255   7.436 -0.3404  0.5197 -0.0463
 5367SOL    HW127563   0.285   1.222   7.515 -1.9914  2.0510  1.5105
 5367SOL    HW227564   0.158   1.210   7.453 -0.1123  0.0793 -0.0837
 5368SOL     OW27565   1.806   0.172   6.954  0.3314 -0.3305 -0.3995
 5368SOL    HW127566   1.864   0.184   6.879  1.5693  1.8347  0.9103
 5368SOL    HW227567   1.843   0.100   7.004  3.4496  0.0472 -2.1606
 5369SOL     OW27568   4.159   1.745   7.840  0.1655  0.2702 -0.3230
 5369SOL    HW127569   4.084   1.692   7.866  0.4683  0.5325  1.1049
 5369SOL    HW227570   4.132   1.770   7.752 -1.1317 -0.5728 -0.1620
 5370SOL     OW27571   4.339   0.442   6.579  0.0750  0.7817 -0.1170
 5370SOL    HW127572   4.367   0.529   6.608  1.5004  1.2171 -2.7714
 5370SOL    HW227573   4.329   0.467   6.488 -5.5880 -2.5532 -0.3714
 5371SOL     OW27574   3.792   2.117   5.453 -0.1468 -0.3241  0.0076
 5371SOL    HW127575   3.733   2.177   5.407 -0.5345  0.9735  2.1771
 5371SOL    HW227576   3.881   2.153   5.460  0.6897 -2.1592 -1.2634
 5372SOL     OW27577   3.094   3.030   5.869  0.1536 -0.5204 -0.3187
 5372SOL    HW127578   3.147   3.095   5.821 -0.1170 -0.9536 -1.2069
 5372SOL    HW227579   3.129   2.949   5.833  3.6377 -0.0645  2.0382
 5373SOL     OW27580   0.925   2.668   8.522  0.8915  0.7888 -0.0837
 5373SOL    HW127581   0.905   2.758   8.495 -0.9662  0.5225  0.3681
 5373SOL    HW227582   0.924   2.622   8.438 -2.2105 -1.4195  1.1711
 5374SOL     OW27583   1.608   3.377   1.790 -0.4652  0.0662 -0.3776
 5374SOL    HW127584   1.678   3.436   1.818  0.1694 -0.1851 -1.4044
 5374SOL    HW227585   1.602   3.315   1.862  1.4157 -0.2754 -0.5268
 5375SOL     OW27586   3.384   0.754   5.042  0.2857  0.2560 -0.5540
 5375SOL    HW127587   3.457   0.719   4.992 -0.9560 -0.4910 -1.8380
 5375SOL    HW227588   3.315   0.698   5.007 -1.7235  3.2675 -1.4017
 5376SOL     OW27589   0.623   0.669   8.390  0.0503 -0.5649 -0.4385
 5376SOL    HW127590   0.653   0.743   8.444 -2.1165 -1.1577  1.5750
 5376SOL    HW227591   0.548   0.633   8.438 -1.2461  0.0953 -1.9654
 5377SOL     OW27592   1.357   2.711   0.297 -0.0580 -0.0005 -0.8274
 5377SOL    HW127593   1.352   2.724   0.202  0.5680  0.5882 -0.7823
 5377SOL    HW227594   1.292   2.642   0.310  0.3707  0.3366  3.1192
 5378SOL     OW27595   1.639   0.167   3.854  0.0314  0.1832 -0.1515
 5378SOL    HW127596   1.600   0.091   3.811  2.4723 -0.0905 -1.9029
 5378SOL    HW227597   1.593   0.162   3.938 -0.4065 -1.5063 -0.5003
 5379SOL     OW27598   3.771   2.270   2.393  0.4097 -0.0815 -0.1049
 5379SOL    HW127599   3.762   2.175   2.388  0.3368 -0.1026  0.3725
 5379SOL    HW227600   3.801   2.282   2.483 -2.5203 -1.7413  1.0840
 5380SOL     OW27601   1.028   4.154   2.262  0.5414 -0.3296 -0.4658
 5380SOL    HW127602   0.949   4.206   2.275 -0.3569 -1.8218  0.0921
 5380SOL    HW227603   1.017   4.136   2.169  1.0838 -2.5737 -0.1150
 5381SOL     OW27604   0.490   2.087   2.693  0.6218  0.1674 -0.4340
 5381SOL    HW127605   0.501   2.182   2.690 -0.6346  0.3157 -0.3968
 5381SOL    HW227606   0.501   2.063   2.601  1.3687  2.6069 -0.9564
 5382SOL     OW27607   4.187   3.377   2.559  0.0764 -0.4769 -0.1484
 5382SOL    HW127608   4.125   3.450   2.559 -0.0990 -0.6263 -0.1324
 5382SOL    HW227609   4.156   3.313   2.496 -0.5492  0.4100 -0.7317
 5383SOL     OW27610   4.037   1.476   6.413  0.2291 -0.0436  0.0143
 5383SOL    HW127611   4.066   1.552   6.463 -1.7179  0.5437  0.2590
 5383SOL    HW227612   4.049   1.504   6.322  0.3898  1.0051  0.3575
 5384SOL     OW27613   2.650   0.500   8.181  0.7320 -0.2742 -0.1442
 5384SOL    HW127614   2.563   0.533   8.157  0.8549  1.8790  2.4824
 5384SOL    HW227615   2.637   0.503   8.275  1.6660 -0.6336 -0.0100
 5385SOL     OW27616   1.928   0.344   6.716  0.3469  0.5319  0.2876
 5385SOL    HW127617   1.854   0.366   6.659  0.7706  1.8125  0.2296
 5385SOL    HW227618   1.998   0.347   6.651 -0.8552 -1.0450 -1.0794
 5386SOL     OW27619   1.433   3.313   2.825 -0.2212 -0.2368  0.1249
 5386SOL    HW127620   1.518   3.356   2.816 -1.0079  1.5943  1.3739
 5386SOL    HW227621   1.403   3.365   2.900 -0.4820  0.0952 -0.2106
 5387SOL     OW27622   3.139   4.513   6.637 -0.3903  0.6305  0.1121
 5387SOL    HW127623   3.178   4.464   6.708  0.1934  0.9669  0.0277
 5387SOL    HW227624   3.218   4.562   6.612  0.1147  0.3758  1.2152
 5388SOL     OW27625   2.521   4.670   3.558 -0.1934  0.3050 -0.1732
 5388SOL    HW127626   2.498   0.041   3.547  1.3447  0.9160  1.5982
 5388SOL    HW227627   2.438   4.636   3.592 -0.6581  0.5596 -1.0572
 5389SOL     OW27628   2.313   4.036  12.702  0.0279  0.1449 -0.1884
 5389SOL    HW127629   2.283   4.115  12.656  0.6900 -0.2144 -1.2365
 5389SOL    HW227630   2.267   4.055  12.784  1.9182  0.1791  0.8830
 5390SOL     OW27631   0.243   2.120   3.354 -0.2486  0.1406  0.3025
 5390SOL    HW127632   0.275   2.052   3.414 -0.5769 -0.8431 -0.6159
 5390SOL    HW227633   0.225   2.198   3.405  0.5963 -1.4277  3.0185
 5391SOL     OW27634   0.427   0.209   0.297  0.1295  0.0790  0.0798
 5391SOL    HW127635   0.431   0.115   0.278  1.8566 -0.0538  1.0402
 5391SOL    HW227636   0.519   0.218   0.324  0.4815  1.5991 -1.6209
 5392SOL     OW27637   1.989   3.559  16.633  0.5971 -0.0836  0.3013
 5392SOL    HW127638   2.041   3.564  16.552 -0.5183  2.3504 -0.2567
 5392SOL    HW227639   2.033   3.486  16.677 -0.8354 -1.3949 -0.4406
 5393SOL     OW27640   3.643   2.212   3.517 -0.6065  0.3236  0.4938
 5393SOL    HW127641   3.681   2.130   3.487  0.0398 -0.0492  2.3278
 5393SOL    HW227642   3.723   2.262   3.499 -0.7328  0.5097  0.4445
 5394SOL     OW27643   2.703   0.488  13.703 -0.2712  0.6745  0.1799
 5394SOL    HW127644   2.657   0.424  13.649 -2.2940  2.2237  0.0583
 5394SOL    HW227645   2.622   0.535  13.725  0.8652  3.0687 -0.7779
 5395SOL     OW27646   2.648   3.535  10.092 -0.3769  0.0833  0.4297
 5395SOL    HW127647   2.578   3.513  10.030 -2.0588  1.2653  1.9099
 5395SOL    HW227648   2.692   3.594  10.031 -2.7179  0.2146 -1.1551
 5396SOL     OW27649   4.636   2.630   3.067 -0.3629 -0.5814  0.5009
 5396SOL    HW127650   4.628   2.710   3.119  0.3251  1.5209 -2.5965
 5396SOL    HW227651   4.551   2.593   3.089 -0.6661 -0.4465 -0.4507
 5397SOL     OW27652   1.282   4.393   9.788  0.3142 -0.6863  0.2352
 5397SOL    HW127653   1.301   4.308   9.746 -1.5350 -0.8647 -0.2554
 5397SOL    HW227654   1.206   4.420   9.736  0.7010 -0.3136 -0.1358
 5398SOL     OW27655   0.525   1.391   1.430  0.3670  0.4026 -0.1161
 5398SOL    HW127656   0.600   1.447   1.446  0.2289  1.0287 -1.6336
 5398SOL    HW227657   0.569   1.308   1.449  0.6316  0.7026  0.5520
 5399SOL     OW27658   1.947   2.825  11.883 -0.4722 -0.5786  0.0046
 5399SOL    HW127659   1.879   2.799  11.945  0.6441 -0.8159  1.1295
 5399SOL    HW227660   1.893   2.866  11.816  0.3845  1.1879  0.3935
 5400SOL     OW27661   4.504   2.718   2.714 -0.2235  0.7354 -0.1704
 5400SOL    HW127662   4.430   2.761   2.670 -0.3585 -0.2428 -0.9054
 5400SOL    HW227663   4.459   2.700   2.797  1.7789  2.5448  1.2996
 5401SOL     OW27664   2.967   4.481  17.282  0.4852 -0.6932 -0.0206
 5401SOL    HW127665   2.998   4.571  17.268  0.2884 -0.3041  2.0155
 5401SOL    HW227666   2.880   4.483  17.242  0.7350 -2.4950 -0.6411
 5402SOL     OW27667   4.113   3.052   5.260 -0.3533  0.1936  0.8608
 5402SOL    HW127668   4.101   3.016   5.347  2.1732  0.0301  1.1526
 5402SOL    HW227669   4.165   3.127   5.288  1.3377 -0.5968 -0.1342
 5403SOL     OW27670   0.885   2.401   4.934 -0.0503  0.8902 -0.2942
 5403SOL    HW127671   0.854   2.441   4.853  0.2845  0.6992 -0.5176
 5403SOL    HW227672   0.905   2.313   4.900 -1.1728  0.0221  1.2687
 5404SOL     OW27673   4.661   0.682   1.699 -0.3814  0.0931 -0.6998
 5404SOL    HW127674   0.005   0.628   1.743 -2.7801 -1.0021  1.5722
 5404SOL    HW227675   4.687   0.655   1.612  0.8688  0.8589 -0.5585
 5405SOL     OW27676   3.270   4.167  10.917 -0.3856 -0.1429  0.1849
 5405SOL    HW127677   3.237   4.094  10.969 -2.9642  0.0602 -1.1658
 5405SOL    HW227678   3.243   4.141  10.829 -3.6737  1.9602  0.5873
 5406SOL     OW27679   1.215   4.097  14.658 -0.3268 -0.0841  0.3770
 5406SOL    HW127680   1.248   4.039  14.590 -0.0298 -1.8746  2.0464
 5406SOL    HW227681   1.242   4.183  14.623 -1.4451 -0.0224 -0.3160
 5407SOL     OW27682   2.909   2.832   1.855  0.5465 -0.3000  0.5014
 5407SOL    HW127683   2.857   2.883   1.793  0.5768 -1.1181 -0.2009
 5407SOL    HW227684   2.844   2.770   1.888 -2.1915  2.4385  0.2252
 5408SOL     OW27685   2.546   4.084  13.358  0.5173  0.8180 -0.2635
 5408SOL    HW127686   2.476   4.027  13.389  0.1161  0.7187 -1.3608
 5408SOL    HW227687   2.513   4.095  13.269  0.4080  0.4645 -0.2638
 5409SOL     OW27688   2.923   0.124  11.051  0.1177  0.7182  0.2803
 5409SOL    HW127689   2.850   0.117  11.114 -0.7004  0.5535 -0.6945
 5409SOL    HW227690   2.980   0.186  11.096  1.4816 -0.2125 -0.1830
 5410SOL     OW27691   1.085   1.835   1.867 -0.3625  0.4448 -0.4629
 5410SOL    HW127692   1.174   1.839   1.833  0.1539  0.5068  0.8756
 5410SOL    HW227693   1.071   1.741   1.882  0.6255  0.6412  1.6036
 5411SOL     OW27694   0.624   3.967   5.486 -0.1029 -0.2084  0.2191
 5411SOL    HW127695   0.628   4.037   5.551  1.7858  0.8267 -1.0061
 5411SOL    HW227696   0.622   4.010   5.401 -2.8059  1.9340  1.3923
 5412SOL     OW27697   1.855   4.239  14.552  0.4317  0.5880 -0.6541
 5412SOL    HW127698   1.858   4.261  14.645 -0.7956  1.7916 -0.8889
 5412SOL    HW227699   1.849   4.144  14.561  0.4182  0.7454  1.1082
 5413SOL     OW27700   3.693   4.214   2.627  0.2565  0.0002 -0.4904
 5413SOL    HW127701   3.659   4.223   2.716 -1.3269  2.3497 -1.3607
 5413SOL    HW227702   3.688   4.300   2.587  0.2824  0.6354  0.8507
 5414SOL     OW27703   1.725   1.125   2.986 -0.1074  0.3270  0.0636
 5414SOL    HW127704   1.766   1.203   2.949  1.6598  0.6647  2.7499
 5414SOL    HW227705   1.659   1.164   3.043 -1.0973 -1.7428  0.3510
 5415SOL     OW27706   1.907   1.585   4.503  0.0176  0.0113  0.0196
 5415SOL    HW127707   1.940   1.500   4.533 -0.6306 -0.6350 -1.0846
 5415SOL    HW227708   1.838   1.565   4.440  0.4567  0.7962 -0.6982
 5416SOL     OW27709   4.306   1.865   4.751  0.2474  0.1472 -0.1555
 5416SOL    HW127710   4.276   1.942   4.703  1.4200  0.9897  0.4563
 5416SOL    HW227711   4.220   1.840   4.785  1.0450 -0.4035  1.4256
 5417SOL     OW27712   1.646   1.483  13.309  0.4390  0.8834  0.1938
 5417SOL    HW127713   1.655   1.463  13.402 -2.9851  0.5608  0.4648
 5417SOL    HW227714   1.554   1.509  13.312  0.0214 -0.5515 -0.4935
 5418SOL     OW27715   3.309   3.100   2.075  0.4215  0.2883 -0.0628
 5418SOL    HW127716   3.216   3.120   2.083  0.2110 -0.5652 -0.4177
 5418SOL    HW227717   3.319   3.014   2.115  2.0410  0.9311  0.9387
 5419SOL     OW27718   3.929   0.825   8.675  0.3039  0.5623 -0.0129
 5419SOL    HW127719   3.972   0.773   8.742 -0.0666 -0.6027 -0.6702
 5419SOL    HW227720   4.001   0.868   8.628 -1.6586  2.9792 -0.8313
 5420SOL     OW27721   4.529   4.059   1.771 -0.1558  0.2535 -0.5349
 5420SOL    HW127722   4.436   4.072   1.748 -1.0406 -1.4431  2.1406
 5420SOL    HW227723   4.557   4.149   1.752 -2.1459  0.8739 -0.5593
 5421SOL     OW27724   4.089   4.655  13.707  0.1442  0.1752 -0.5412
 5421SOL    HW127725   4.173   4.699  13.721  0.6909 -0.8442 -0.5832
 5421SOL    HW227726   4.114   4.587  13.644  0.3792 -1.1093  0.9364
 5422SOL     OW27727   0.796   1.436  14.117 -0.0889  0.0923  0.2519
 5422SOL    HW127728   0.829   1.478  14.038  1.6122 -2.3312 -0.3522
 5422SOL    HW227729   0.704   1.461  14.117  0.1017  0.7867  0.4855
 5423SOL     OW27730   4.331   3.207   0.645  0.0111  0.2981 -0.6709
 5423SOL    HW127731   4.376   3.275   0.694  1.1537  0.0739 -1.3892
 5423SOL    HW227732   4.332   3.126   0.696  2.6397  0.2374 -0.8231
 5424SOL     OW27733   2.235   2.085  13.687  0.4008 -0.3601 -0.2181
 5424SOL    HW127734   2.214   2.090  13.594  0.1096 -2.2429 -0.2513
 5424SOL    HW227735   2.149   2.071  13.727  1.6366  0.1473  2.5827
 5425SOL     OW27736   2.766   1.390   2.467 -0.1460 -0.3148 -0.0994
 5425SOL    HW127737   2.749   1.438   2.385  3.5840 -2.3490 -2.0453
 5425SOL    HW227738   2.810   1.311   2.437  1.5445  0.8875 -0.7910
 5426SOL     OW27739   0.019   0.384   3.898  0.6782  0.5816  0.6172
 5426SOL    HW127740   0.094   0.353   3.948  1.3891  2.6207  0.8350
 5426SOL    HW227741   0.053   0.367   3.810  0.7024 -0.5768  0.8566
 5427SOL     OW27742   3.719   3.494  11.103  0.3972 -0.1339  0.0525
 5427SOL    HW127743   3.645   3.546  11.134  0.0194 -0.0990 -0.8959
 5427SOL    HW227744   3.781   3.556  11.065  0.4124 -1.9923 -2.9346
 5428SOL     OW27745   1.738   3.621   8.025  0.3577 -0.4397 -0.2423
 5428SOL    HW127746   1.737   3.716   8.035  3.0250 -0.3666 -0.8705
 5428SOL    HW227747   1.652   3.606   7.985  0.7483 -0.4460 -1.0746
 5429SOL     OW27748   3.084   4.209   2.992  0.4136 -0.4447 -0.0715
 5429SOL    HW127749   2.992   4.235   2.994  1.1278  2.2594 -1.8562
 5429SOL    HW227750   3.135   4.290   3.000  0.3486 -0.4860  0.6763
 5430SOL     OW27751   0.362   0.045  15.046  0.6953  0.1993 -0.8788
 5430SOL    HW127752   0.334   4.680  15.078  0.2219 -0.3630 -2.7930
 5430SOL    HW227753   0.443   0.057  15.096  1.0383  0.3706 -1.4790
 5431SOL     OW27754   4.532   3.233   8.015 -0.3400  0.1331 -0.9639
 5431SOL    HW127755   4.558   3.311   7.967  3.9181 -2.1382 -2.3342
 5431SOL    HW227756   4.456   3.279   8.050 -0.0225  0.2158 -0.3878
 5432SOL     OW27757   2.000   1.341   8.360 -0.0671  0.1931  0.3761
 5432SOL    HW127758   2.024   1.355   8.269 -0.6450  0.0581  0.2078
 5432SOL    HW227759   1.968   1.252   8.348  1.1429 -0.7788  4.1250
 5433SOL     OW27760   0.510   0.251  12.204  0.5992 -0.5745 -0.2753
 5433SOL    HW127761   0.415   0.240  12.197  0.2786  0.9559  1.8740
 5433SOL    HW227762   0.539   0.161  12.192 -0.7129 -1.1274  0.7059
 5434SOL     OW27763   0.621   3.838   6.635  0.3012 -0.2417 -0.6303
 5434SOL    HW127764   0.543   3.830   6.580 -0.0479 -0.3179 -0.1236
 5434SOL    HW227765   0.585   3.894   6.705 -0.1651 -0.9473 -0.3081
 5435SOL     OW27766   1.964   3.516   3.312 -0.2024  0.2340 -0.5858
 5435SOL    HW127767   1.975   3.603   3.274 -1.4608  0.1511 -1.1471
 5435SOL    HW227768   2.052   3.479   3.308 -1.4989 -2.8015 -0.8953
 5436SOL     OW27769   0.413   1.035  14.380  0.6209 -0.3095  0.2270
 5436SOL    HW127770   0.394   1.036  14.474 -0.3771  1.8523  0.0035
 5436SOL    HW227771   0.325   1.008  14.355  0.9212 -1.5034  0.4896
 5437SOL     OW27772   0.474   1.796  14.124 -0.7073  0.4554  0.0288
 5437SOL    HW127773   0.517   1.741  14.059 -2.1769  1.7791 -2.0580
 5437SOL    HW227774   0.445   1.735  14.192  0.0536  0.3500  0.2613
 5438SOL     OW27775   0.585   0.482   3.660  0.0164  0.5072  0.1423
 5438SOL    HW127776   0.618   0.570   3.638  2.6828 -0.8049 -1.0753
 5438SOL    HW227777   0.600   0.490   3.755 -1.6033  0.9541  0.3603
 5439SOL     OW27778   3.119   0.731   3.875 -0.4665  0.3375 -0.3763
 5439SOL    HW127779   3.047   0.668   3.863  0.0864 -0.4694  0.5361
 5439SOL    HW227780   3.109   0.758   3.966 -0.3049  0.9139 -0.5353
 5440SOL     OW27781   0.101   2.243   9.305 -0.4832 -0.3563 -0.0589
 5440SOL    HW127782   0.028   2.299   9.332 -1.2852 -0.1972 -2.5644
 5440SOL    HW227783   0.171   2.292   9.348  0.8970  0.1269 -2.8633
 5441SOL     OW27784   2.644   4.065   2.956 -0.3696  0.3566 -0.0037
 5441SOL    HW127785   2.638   4.147   3.006 -2.0346  0.2384 -0.0218
 5441SOL    HW227786   2.737   4.071   2.935 -0.3324  1.1814  0.4103
 5442SOL     OW27787   4.464   0.768   5.110  0.1911  0.3203 -0.5750
 5442SOL    HW127788   4.428   0.696   5.058  0.3793 -2.1000  2.6897
 5442SOL    HW227789   4.475   0.726   5.195  0.2072 -0.5169 -0.9869
 5443SOL     OW27790   1.427   0.764   7.397 -0.1856 -0.6181 -0.3158
 5443SOL    HW127791   1.365   0.695   7.422  0.2553 -0.4593  1.2554
 5443SOL    HW227792   1.516   0.730   7.403  0.9220  2.1359 -0.9879
 5444SOL     OW27793   0.225   3.881   6.660  0.0185 -0.5838  0.0297
 5444SOL    HW127794   0.267   3.821   6.598  0.5621  0.7000 -0.8406
 5444SOL    HW227795   0.256   3.966   6.628  1.7696 -0.4666  2.0844
 5445SOL     OW27796   0.995   3.325   3.291 -0.3411 -0.3303 -0.2230
 5445SOL    HW127797   0.988   3.419   3.273  0.8203 -0.4205 -1.1398
 5445SOL    HW227798   0.976   3.282   3.208  1.6714 -0.5833 -0.5617
 5446SOL     OW27799   2.419   2.546  16.194  0.1586  0.3902  0.6909
 5446SOL    HW127800   2.514   2.557  16.206  0.1653  0.2208  0.8055
 5446SOL    HW227801   2.404   2.454  16.215 -2.1956  0.3924 -1.0645
 5447SOL     OW27802   4.395   1.131  13.756 -0.1982 -0.0206  0.1470
 5447SOL    HW127803   4.309   1.089  13.749 -0.4484  0.2720  1.4072
 5447SOL    HW227804   4.452   1.071  13.709 -0.5150  1.1208 -1.7040
 5448SOL     OW27805   3.336   0.701   7.823 -0.1000 -0.0439 -0.1251
 5448SOL    HW127806   3.361   0.716   7.732  1.8175  0.2420  0.4653
 5448SOL    HW227807   3.414   0.723   7.874 -0.2811  1.6733 -0.5921
 5449SOL     OW27808   3.107   0.992   0.642 -0.0201 -0.5698 -0.1262
 5449SOL    HW127809   3.050   1.052   0.691 -0.8504 -0.5915 -1.0742
 5449SOL    HW227810   3.178   0.969   0.703 -0.6063  0.1537  0.8313
 5450SOL     OW27811   1.076   3.602   4.079  0.1865 -0.0233 -0.2182
 5450SOL    HW127812   1.021   3.572   4.151  0.4255  0.9027  0.3477
 5450SOL    HW227813   1.023   3.611   4.000  0.5050 -0.2518 -0.4572
 5451SOL     OW27814   2.521   1.931   9.364 -0.3236  0.1246  0.1227
 5451SOL    HW127815   2.523   1.861   9.428  1.0462 -0.0575 -0.1285
 5451SOL    HW227816   2.549   1.879   9.289  0.2620  0.1560  0.3230
 5452SOL     OW27817   2.633   0.936   6.716  0.9328 -0.6094  0.4605
 5452SOL    HW127818   2.600   1.025   6.702  1.1030 -0.2838  2.1239
 5452SOL    HW227819   2.690   0.955   6.791  0.9383  2.1176 -0.2264
 5453SOL     OW27820   0.974   3.591   6.083 -0.2922  0.2111 -0.5430
 5453SOL    HW127821   0.982   3.640   6.001 -0.3825  2.0206  0.5309
 5453SOL    HW227822   1.058   3.608   6.126  0.3111 -0.7141 -1.3495
 5454SOL     OW27823   3.746   0.322   9.310  0.4112  0.1819 -0.1817
 5454SOL    HW127824   3.831   0.321   9.267  1.0003  2.6231  0.9438
 5454SOL    HW227825   3.735   0.227   9.322  0.1038 -0.2890 -4.0797
 5455SOL     OW27826   1.836   0.049  13.579  0.2106  0.0890  0.2632
 5455SOL    HW127827   1.777   0.067  13.652 -3.3004 -0.3170 -2.4377
 5455SOL    HW227828   1.879   0.133  13.568 -0.4833  0.3270 -0.6034
 5456SOL     OW27829   2.417   1.554   5.270 -0.1303  0.6960  0.5282
 5456SOL    HW127830   2.343   1.515   5.223 -0.0041 -1.9310  2.5261
 5456SOL    HW227831   2.494   1.515   5.229  0.2085 -0.3577  2.1410
 5457SOL     OW27832   1.150   3.054  14.651 -0.5130 -0.1888 -0.0690
 5457SOL    HW127833   1.086   3.027  14.716 -3.9403  1.8043 -2.6467
 5457SOL    HW227834   1.104   3.131  14.618 -0.1685 -1.1150 -2.7077
 5458SOL     OW27835   3.792   0.597   9.372  0.2278  0.4099 -0.2340
 5458SOL    HW127836   3.769   0.514   9.331 -2.8825  0.1856  1.9472
 5458SOL    HW227837   3.740   0.654   9.315  2.0104  2.5052  0.2352
 5459SOL     OW27838   1.978   4.679  11.965 -0.0313  0.6106 -0.0091
 5459SOL    HW127839   1.931   4.715  12.040  1.2892  0.1952  1.0134
 5459SOL    HW227840   1.903   4.659  11.910  0.8387  2.5569 -1.9261
 5460SOL     OW27841   1.509   2.611  17.277  0.4298  0.4347 -0.2256
 5460SOL    HW127842   1.502   2.698  17.237  0.3339  0.3684 -0.3523
 5460SOL    HW227843   1.430   2.564  17.250  1.1737 -1.8996  1.6357
 5461SOL     OW27844   1.554   2.161   6.957  0.2506  0.1066 -0.1874
 5461SOL    HW127845   1.503   2.175   6.877 -0.2969 -0.6336  0.0410
 5461SOL    HW227846   1.609   2.239   6.951 -1.0983  1.0050 -1.0606
 5462SOL     OW27847   0.800   2.746   5.083  0.7134  0.2080 -0.2602
 5462SOL    HW127848   0.772   2.833   5.109 -3.0293 -0.6654 -1.3836
 5462SOL    HW227849   0.811   2.707   5.170 -0.5192 -2.2765 -1.2228
 5463SOL     OW27850   4.576   1.513   7.831  0.0686 -0.0519  0.7943
 5463SOL    HW127851   4.633   1.535   7.905  1.0736  0.5764 -0.1589
 5463SOL    HW227852   4.554   1.598   7.793 -1.0516 -0.9089 -0.4797
 5464SOL     OW27853   4.021   0.504   6.531 -0.3393  0.5823 -0.7503
 5464SOL    HW127854   3.987   0.497   6.620 -0.1202  0.6191 -0.6633
 5464SOL    HW227855   4.082   0.577   6.530 -2.0473  2.0217  0.9198
 5465SOL     OW27856   1.483   0.924   3.605  0.0040 -0.3212  0.0524
 5465SOL    HW127857   1.503   0.831   3.617  1.2096 -0.0370  0.3091
 5465SOL    HW227858   1.545   0.941   3.535 -0.5914 -0.4505 -0.5016
 5466SOL     OW27859   4.401   1.334   7.945 -0.0922 -0.0440  0.4067
 5466SOL    HW127860   4.453   1.402   7.901  1.8000 -0.5425  1.8703
 5466SOL    HW227861   4.470   1.268   7.946  0.5738  0.6016 -1.6976
 5467SOL     OW27862   2.962   0.669   5.962 -0.3365  0.7070 -0.1052
 5467SOL    HW127863   3.010   0.750   5.980  2.0431 -1.1732  1.9510
 5467SOL    HW227864   3.034   0.613   5.932  0.9495  1.2851  1.9278
 5468SOL     OW27865   1.612   1.679   7.616  0.1722  0.1075 -0.0669
 5468SOL    HW127866   1.521   1.669   7.587  0.6356 -0.5753 -1.2787
 5468SOL    HW227867   1.609   1.612   7.684  1.9972 -0.3455 -0.4375
 5469SOL     OW27868   0.832   3.911   4.034 -0.0999 -0.3723 -0.8329
 5469SOL    HW127869   0.793   3.847   4.093 -0.1557 -1.0672 -1.6228
 5469SOL    HW227870   0.839   3.860   3.954  1.2347 -1.3729 -0.0829
 5470SOL     OW27871   1.343   4.636   5.356  0.6576  0.1742  0.4492
 5470SOL    HW127872   1.397   4.642   5.276 -0.8080  1.4768 -0.4276
 5470SOL    HW227873   1.360   4.545   5.382  2.8758  0.6387  0.6431
 5471SOL     OW27874   1.958   0.044   2.419  0.2863  0.7325  0.2441
 5471SOL    HW127875   2.023   0.114   2.410  0.0844  0.7978 -0.6767
 5471SOL    HW227876   1.919   0.038   2.331  1.3255 -0.2928 -0.1400
 5472SOL     OW27877   2.902   3.180   9.488 -0.0960  0.3754 -0.1639
 5472SOL    HW127878   2.921   3.089   9.509 -0.7572 -0.0719 -1.5762
 5472SOL    HW227879   2.837   3.206   9.553 -1.4280 -1.6750 -0.7203
 5473SOL     OW27880   2.695   3.841   7.563  0.4315 -0.7080 -0.0415
 5473SOL    HW127881   2.752   3.767   7.585  0.5149 -0.1262  1.6670
 5473SOL    HW227882   2.646   3.858   7.643  0.7610  0.1535 -0.0261
 5474SOL     OW27883   0.575   4.332   4.982 -0.0409 -0.0971  0.0110
 5474SOL    HW127884   0.571   4.247   5.025 -0.5092  0.5127  1.1922
 5474SOL    HW227885   0.669   4.348   4.986 -0.2582  1.1852  0.1646
 5475SOL     OW27886   2.921   0.137  15.350  0.3521 -0.2845  0.4946
 5475SOL    HW127887   2.915   0.080  15.273 -0.2629 -1.8098  1.6548
 5475SOL    HW227888   3.013   0.158  15.333 -0.5680  1.3443 -2.3112
 5476SOL     OW27889   0.312   2.607   8.328  0.0951 -0.2730  0.3634
 5476SOL    HW127890   0.297   2.696   8.295 -0.4182  0.6422  3.1247
 5476SOL    HW227891   0.233   2.598   8.380  0.1622 -0.4595  0.4307
 5477SOL     OW27892   3.845   2.910   5.978 -0.6879  0.3220  0.0428
 5477SOL    HW127893   3.917   2.973   5.975  1.6673 -2.3658  0.5792
 5477SOL    HW227894   3.886   2.827   6.001 -0.2849  0.5714  0.2328
 5478SOL     OW27895   1.733   2.356   8.942  0.1280  0.8174  0.6508
 5478SOL    HW127896   1.647   2.320   8.919 -0.7814  1.3488  3.1623
 5478SOL    HW227897   1.780   2.296   8.883 -1.4276  0.6917 -0.4545
 5479SOL     OW27898   2.269   3.166   9.293 -0.0082 -0.5602 -0.2261
 5479SOL    HW127899   2.267   3.071   9.291  0.0279 -0.5970  1.1040
 5479SOL    HW227900   2.331   3.180   9.222 -0.7689 -1.6546 -1.1001
 5480SOL     OW27901   0.707   0.852  11.187  0.6800  0.2029  0.8681
 5480SOL    HW127902   0.660   0.807  11.257 -0.1165  0.9147  0.7873
 5480SOL    HW227903   0.722   0.786  11.119 -0.5233 -0.5640  1.3406
 5481SOL     OW27904   4.642   3.857   6.037  0.1199  1.0415 -0.5741
 5481SOL    HW127905   4.713   3.804   6.000 -0.0762  0.5157 -0.1943
 5481SOL    HW227906   4.615   3.899   5.955 -0.2012  0.2548 -0.8630
 5482SOL     OW27907   2.375   3.253  13.814  0.0723  0.1758  0.2308
 5482SOL    HW127908   2.464   3.268  13.846  0.8429 -1.7328 -1.0133
 5482SOL    HW227909   2.349   3.335  13.773  0.8824  0.0155 -0.6108
 5483SOL     OW27910   1.642   3.085   4.800 -0.2390  0.2553  0.1525
 5483SOL    HW127911   1.558   3.070   4.842 -0.6233 -0.4117 -0.8399
 5483SOL    HW227912   1.628   3.160   4.742  2.1860 -0.3090 -1.1804
 5484SOL     OW27913   4.492   0.949  10.292  0.2697 -0.3991  0.0345
 5484SOL    HW127914   4.468   1.032  10.332  1.5632  1.3397 -2.7832
 5484SOL    HW227915   4.475   0.979  10.203  1.2408  0.0595 -0.0010
 5485SOL     OW27916   3.511   1.399   5.591  0.4386 -0.3546  0.1906
 5485SOL    HW127917   3.602   1.404   5.618 -0.3718  0.7785  2.6190
 5485SOL    HW227918   3.474   1.435   5.671 -1.5113 -0.8628 -0.4701
 5486SOL     OW27919   4.414   2.551  11.297  0.4737 -0.3825 -0.0105
 5486SOL    HW127920   4.341   2.530  11.355 -0.0018 -0.5998 -0.6737
 5486SOL    HW227921   4.398   2.484  11.230  3.6965 -0.9541 -0.1862
 5487SOL     OW27922   4.525   0.507  12.471  0.4726 -0.0380  0.3002
 5487SOL    HW127923   4.481   0.445  12.529  0.2518 -0.2886 -0.1341
 5487SOL    HW227924   4.453   0.551  12.425 -0.9973 -2.0105  0.7198
 5488SOL     OW27925   0.881   1.680  15.137 -0.2237  0.3772 -0.5869
 5488SOL    HW127926   0.869   1.652  15.227  0.1527 -1.5459 -1.1397
 5488SOL    HW227927   0.943   1.753  15.146 -2.3148  2.1742 -0.6086
 5489SOL     OW27928   3.248   0.341   3.222  0.3333 -0.3060  0.8628
 5489SOL    HW127929   3.334   0.358   3.259  0.1739 -0.5215  1.3321
 5489SOL    HW227930   3.208   0.428   3.220  3.6191  1.2033  1.4086
 5490SOL     OW27931   3.028   1.596   8.181 -0.2239 -0.1649 -0.5528
 5490SOL    HW127932   3.106   1.644   8.210 -0.3539 -1.1333  1.4166
 5490SOL    HW227933   2.973   1.674   8.180 -1.0636 -0.7546  0.1637
 5491SOL     OW27934   2.725   3.373   7.415  0.5914  0.1353  0.0448
 5491SOL    HW127935   2.704   3.434   7.344  0.4187  0.7893  0.6629
 5491SOL    HW227936   2.820   3.378   7.404  0.7080  0.3194  1.1653
 5492SOL     OW27937   1.684   2.518   0.210 -0.0709 -0.4376  0.4634
 5492SOL    HW127938   1.700   2.612   0.225 -0.3583 -0.3748  0.3692
 5492SOL    HW227939   1.728   2.517   0.125 -1.3836 -2.5288 -0.1837
 5493SOL     OW27940   0.939   4.664   7.310 -0.2810 -0.1454 -0.1552
 5493SOL    HW127941   1.023   4.619   7.322  0.2104  1.5056  2.6222
 5493SOL    HW227942   0.887   4.593   7.347  0.0542  0.6893  1.9332
 5494SOL     OW27943   4.117   2.412   9.117 -0.1120  0.1686  0.7368
 5494SOL    HW127944   4.160   2.444   9.196 -1.1663  2.4571  0.3928
 5494SOL    HW227945   4.189   2.382   9.062 -1.0980  2.0516 -1.5601
 5495SOL     OW27946   0.639   0.255   5.250  0.2164  0.8708  0.0749
 5495SOL    HW127947   0.564   0.275   5.194  0.1629 -1.8894 -0.8476
 5495SOL    HW227948   0.632   0.322   5.318 -0.1246  0.1664  0.7340
 5496SOL     OW27949   2.559   2.922   7.886 -0.0903 -0.4113  0.3611
 5496SOL    HW127950   2.505   2.911   7.964 -2.3612  2.0355 -0.8428
 5496SOL    HW227951   2.642   2.956   7.920 -1.0085  2.2841 -0.1232
 5497SOL     OW27952   0.339   4.706   3.011  0.3768 -0.5693 -0.3304
 5497SOL    HW127953   0.254   4.685   2.972 -0.8448  0.9174  1.4931
 5497SOL    HW227954   0.337   4.640   3.080 -0.3474  0.6814  0.8736
 5498SOL     OW27955   3.542   0.120   7.268 -0.4516  0.4464 -0.0777
 5498SOL    HW127956   3.569   0.192   7.212  0.4656 -0.7919 -1.2430
 5498SOL    HW227957   3.626   0.078   7.285 -0.5919 -0.0392 -0.5535
 5499SOL     OW27958   0.155   3.649  11.424 -0.0863 -0.4035  0.7917
 5499SOL    HW127959   0.106   3.597  11.488 -1.4829 -1.6335 -1.3029
 5499SOL    HW227960   0.133   3.599  11.345  0.7469  1.1833 -0.4411
 5500SOL     OW27961   1.122   4.690   3.245 -0.2160 -0.7394  1.5794
 5500SOL    HW127962   1.114   0.057   3.282  0.9414 -1.2024  2.9249
 5500SOL    HW227963   1.073   4.690   3.163  2.1372  4.4571  0.2078
 5501SOL     OW27964   3.586   1.015   5.285 -0.3999  0.2537 -0.2649
 5501SOL    HW127965   3.660   1.068   5.255 -0.2131 -0.8156 -1.7156
 5501SOL    HW227966   3.630   0.932   5.307 -0.6907 -0.5876 -2.8021
 5502SOL     OW27967   1.626   0.809   3.892 -0.0031 -0.0078 -0.1592
 5502SOL    HW127968   1.709   0.830   3.849  1.4519 -3.5267  0.9580
 5502SOL    HW227969   1.576   0.889   3.876 -1.1153 -0.9218 -1.2901
 5503SOL     OW27970   0.303   1.282   9.086 -0.1492  0.0003 -0.3874
 5503SOL    HW127971   0.369   1.219   9.057  0.0692 -0.5313  1.2609
 5503SOL    HW227972   0.247   1.291   9.008 -2.5205 -0.0517  1.3120
 5504SOL     OW27973   2.565   0.053   8.208 -0.2471 -0.4989  0.3846
 5504SOL    HW127974   2.565   4.720   8.287  1.8222 -0.1523  0.6331
 5504SOL    HW227975   2.642   0.110   8.211 -0.4082 -0.3121  1.1062
 5505SOL     OW27976   4.022   0.983   2.951 -0.0331 -0.6167  0.1634
 5505SOL    HW127977   3.959   1.040   2.996 -1.4574 -2.0105 -0.0465
 5505SOL    HW227978   4.034   1.033   2.870 -1.8607  0.4531  0.5357
 5506SOL     OW27979   4.497   3.249   4.657  0.1157  0.2015  0.6366
 5506SOL    HW127980   4.547   3.228   4.578  0.2799  0.0096  0.7920
 5506SOL    HW227981   4.452   3.332   4.641  0.5839 -0.4306 -3.8166
 5507SOL     OW27982   2.203   0.302   0.410  0.7775 -0.3580  0.1446
 5507SOL    HW127983   2.285   0.259   0.389  1.0631  1.2303 -2.0723
 5507SOL    HW227984   2.137   0.233   0.406 -1.0068  1.3319 -0.1159
 5508SOL     OW27985   2.713   4.689  10.812 -0.0071  0.1171  0.2696
 5508SOL    HW127986   2.653   4.632  10.861 -0.2521  0.2400  0.1127
 5508SOL    HW227987   2.701   4.649  10.726 -3.2146 -0.1214  0.8323
 5509SOL     OW27988   0.762   2.097   5.460  0.4746  0.0644  0.4642
 5509SOL    HW127989   0.830   2.127   5.521 -1.0962  0.9862  1.7531
 5509SOL    HW227990   0.701   2.054   5.519  1.3820 -0.0758  1.3078
 5510SOL     OW27991   3.182   0.122   8.439 -0.4401  0.2521 -1.0647
 5510SOL    HW127992   3.152   0.052   8.496 -0.2336  1.0760  0.0410
 5510SOL    HW227993   3.258   0.150   8.489 -0.9205  0.9439 -0.7252
 5511SOL     OW27994   2.998   4.254   1.433 -0.6590 -0.4975 -0.1705
 5511SOL    HW127995   2.955   4.262   1.348 -2.8251  0.9811  1.0564
 5511SOL    HW227996   3.064   4.323   1.426 -2.3821  1.3174  1.5171
 5512SOL     OW27997   4.344   0.721   2.250  0.3555  0.2950  0.6220
 5512SOL    HW127998   4.293   0.800   2.229  2.8393  2.0614  1.2027
 5512SOL    HW227999   4.418   0.729   2.190 -1.1613 -1.1832 -1.4008
 5513SOL     OW28000   4.403   3.137   9.384 -0.2155  0.2914  0.1151
 5513SOL    HW128001   4.408   3.042   9.369 -1.7791  0.4847 -1.6473
 5513SOL    HW228002   4.476   3.171   9.333  0.1757 -0.8250 -0.0722
 5514SOL     OW28003   4.034   0.521   4.565 -0.1283  0.0685  0.2563
 5514SOL    HW128004   4.054   0.486   4.652  0.8761 -3.1022 -1.2345
 5514SOL    HW228005   4.093   0.596   4.573  2.6701 -2.0822 -0.0142
 5515SOL     OW28006   2.474   3.273   3.396  0.1246  0.4516  0.5508
 5515SOL    HW128007   2.516   3.355   3.424 -2.3940  1.0624  2.4584
 5515SOL    HW228008   2.533   3.204   3.427 -1.2635 -1.1610 -0.4134
 5516SOL     OW28009   0.394   3.646  12.126 -0.4851 -0.1691  0.5391
 5516SOL    HW128010   0.370   3.699  12.050 -0.3822 -0.0393  0.5968
 5516SOL    HW228011   0.473   3.688  12.160 -0.6977 -1.1234  2.2213
 5517SOL     OW28012   2.090   3.826   5.869  0.6547  0.8452 -0.2060
 5517SOL    HW128013   2.070   3.900   5.927  0.0474 -0.3772  1.1457
 5517SOL    HW228014   2.046   3.863   5.793 -0.4185 -0.4930 -0.2319
 5518SOL     OW28015   1.259   3.116   9.515 -0.4850  0.2644 -0.0904
 5518SOL    HW128016   1.298   3.038   9.475  1.4916  0.2601  1.8306
 5518SOL    HW228017   1.198   3.155   9.453 -0.4945  0.9204  0.3298
 5519SOL     OW28018   1.566   1.391  14.755  0.3762  0.1063 -0.2646
 5519SOL    HW128019   1.558   1.397  14.850 -0.7975 -0.1828 -0.3383
 5519SOL    HW228020   1.493   1.446  14.724  0.3364  0.1941 -0.0110
 5520SOL     OW28021   3.520   3.882   2.472  0.2045 -0.8285  0.4480
 5520SOL    HW128022   3.547   3.833   2.549  2.2619 -0.7195 -0.1836
 5520SOL    HW228023   3.449   3.821   2.451 -0.8263  0.5757 -0.1714
 5521SOL     OW28024   1.668   1.473   6.107 -0.3373  0.2726 -0.4022
 5521SOL    HW128025   1.666   1.524   6.188 -0.1896  1.5021 -1.1664
 5521SOL    HW228026   1.580   1.436   6.102 -0.1566 -0.4581  1.8476
 5522SOL     OW28027   0.827   1.025   9.566  0.4299 -0.2784 -0.1936
 5522SOL    HW128028   0.799   1.030   9.475  1.9711  1.4168 -0.5862
 5522SOL    HW228029   0.916   0.992   9.551  1.2545  1.7381  0.2694
 5523SOL     OW28030   0.699   4.619   0.107  0.3818 -0.9956 -0.4861
 5523SOL    HW128031   0.785   4.655   0.128  0.8685 -3.2698  1.3545
 5523SOL    HW228032   0.666   4.581   0.188 -0.6452  2.8203  0.9035
 5524SOL     OW28033   1.942   2.145   4.215  0.0040 -0.1396  0.6554
 5524SOL    HW128034   1.927   2.142   4.310 -2.0836 -1.0021  0.2796
 5524SOL    HW228035   1.927   2.238   4.194  1.0779  0.3744  2.1370
 5525SOL     OW28036   0.165   0.793   0.695  0.2359 -0.5324 -0.4020
 5525SOL    HW128037   0.188   0.725   0.632 -1.6390 -0.7872 -0.7916
 5525SOL    HW228038   0.196   0.874   0.656  1.1738 -0.2573  0.8895
 5526SOL     OW28039   4.641   4.420   3.253 -0.0435 -0.1096 -0.3293
 5526SOL    HW128040   4.716   4.387   3.205  0.0637 -0.4532  0.0732
 5526SOL    HW228041   4.681   4.505   3.273  0.7428  0.0767 -2.6876
 5527SOL     OW28042   4.417   3.053   5.075 -0.2458  0.0716  0.3250
 5527SOL    HW128043   4.378   3.141   5.081  1.2975  0.8226 -0.8309
 5527SOL    HW228044   4.342   3.003   5.045  0.6588 -1.1067  0.0569
 5528SOL     OW28045   0.885   2.797   6.449 -0.2311  0.5381  0.4074
 5528SOL    HW128046   0.919   2.860   6.386  1.2834  0.5918  1.2773
 5528SOL    HW228047   0.947   2.806   6.522  0.1407  0.0588  0.1517
 5529SOL     OW28048   0.697   2.113   7.601 -0.0407  0.3295 -0.3170
 5529SOL    HW128049   0.735   2.096   7.514 -0.3205  0.4614 -0.4661
 5529SOL    HW228050   0.762   2.175   7.635 -1.4594  1.9442 -0.5061
 5530SOL     OW28051   3.892   4.640   5.438  0.4256 -0.6443 -0.6469
 5530SOL    HW128052   3.821   4.576   5.435  0.4600 -0.7932  1.6053
 5530SOL    HW228053   3.855   0.007   5.431 -1.4465 -1.2396  1.6890
 5531SOL     OW28054   0.068   0.534   4.783 -0.0070  0.7995  0.5859
 5531SOL    HW128055   0.038   0.574   4.702 -0.2572  1.2402  0.8955
 5531SOL    HW228056   0.076   0.442   4.759 -0.4675  0.6695  0.9254
 5532SOL     OW28057   3.312   3.868  12.066 -0.0995 -0.3710  0.1683
 5532SOL    HW128058   3.345   3.856  11.977 -0.4018  0.8216 -0.1129
 5532SOL    HW228059   3.284   3.960  12.061  0.8899 -0.0701  0.2771
 5533SOL     OW28060   0.182   2.634   7.597  0.0024 -0.0269  0.1894
 5533SOL    HW128061   0.232   2.651   7.517 -0.9852  0.8212 -0.2358
 5533SOL    HW228062   0.104   2.597   7.557 -0.5755 -1.1161  2.3166
 5534SOL     OW28063   4.068   3.460   3.680 -0.2070 -0.3830  0.2499
 5534SOL    HW128064   4.115   3.526   3.629  0.1879  0.2496  1.4185
 5534SOL    HW228065   4.062   3.497   3.768 -0.9779 -1.5330  0.6707
 5535SOL     OW28066   2.038   3.084   4.618  0.1742 -0.4529  0.1457
 5535SOL    HW128067   1.970   3.097   4.552  1.3134  1.8901 -0.5613
 5535SOL    HW228068   2.104   3.036   4.568 -0.1649 -0.4824 -0.2681
 5536SOL     OW28069   2.809   1.018  14.615  0.1501 -0.6795 -0.0363
 5536SOL    HW128070   2.840   1.073  14.542  0.8280 -2.3448 -0.9907
 5536SOL    HW228071   2.831   1.078  14.686  1.5336 -1.3619  0.1035
 5537SOL     OW28072   3.777   1.737   1.234 -0.2416 -0.3542  0.6005
 5537SOL    HW128073   3.729   1.719   1.154  0.5558  1.9405 -0.3822
 5537SOL    HW228074   3.796   1.831   1.231  1.8880 -0.7613  1.1532
 5538SOL     OW28075   4.308   3.031   4.446 -0.0789 -0.2079  0.5053
 5538SOL    HW128076   4.281   2.945   4.414  2.0122  0.1617 -2.2697
 5538SOL    HW228077   4.346   3.012   4.532  0.0866  2.1967  0.9600
 5539SOL     OW28078   2.511   3.819  14.591  0.1004 -0.0645 -0.4868
 5539SOL    HW128079   2.599   3.812  14.555  0.8651  3.3331  0.8087
 5539SOL    HW228080   2.530   3.774  14.674  1.1581 -0.2844 -0.8553
 5540SOL     OW28081   1.407   2.172   3.676 -0.0180 -0.3113 -0.5258
 5540SOL    HW128082   1.314   2.166   3.700  0.4343  0.9472  1.5344
 5540SOL    HW228083   1.411   2.266   3.660 -1.0977 -0.4559 -1.6285
 5541SOL     OW28084   0.622   0.501  10.392  0.4185  0.1819 -0.0608
 5541SOL    HW128085   0.714   0.503  10.419  0.2828 -1.9519  0.6306
 5541SOL    HW228086   0.603   0.407  10.400  0.9711 -0.0841 -1.9939
 5542SOL     OW28087   2.367   4.652  12.235  0.4454  0.3654  0.6291
 5542SOL    HW128088   2.458   4.627  12.252 -0.1770 -2.4218 -0.0915
 5542SOL    HW228089   2.324   4.578  12.279  2.2904 -0.4055  1.1459
 5543SOL     OW28090   4.567   2.721   6.864 -0.1336  0.3518 -0.3719
 5543SOL    HW128091   4.579   2.803   6.815 -0.2388  0.2025 -0.6458
 5543SOL    HW228092   4.546   2.663   6.791 -3.1038  0.6501  0.2729
 5544SOL     OW28093   1.001   0.984   3.405 -0.8738 -0.5469  0.8255
 5544SOL    HW128094   1.048   0.908   3.441 -0.0441 -1.2975 -1.8899
 5544SOL    HW228095   0.983   0.953   3.316  2.5641  1.0389 -0.3961
 5545SOL     OW28096   2.108   1.538   8.508  0.5281 -0.3224  0.1030
 5545SOL    HW128097   2.117   1.585   8.425 -2.5174  0.7556  0.4233
 5545SOL    HW228098   2.100   1.453   8.464 -0.4996  0.2189 -0.7390
 5546SOL     OW28099   3.940   0.946   2.182 -0.5524  0.3040 -0.7501
 5546SOL    HW128100   3.857   0.994   2.176 -0.0292  1.4644  1.4501
 5546SOL    HW228101   3.934   0.906   2.095 -1.7493  0.3443 -0.6927
 5547SOL     OW28102   2.272   2.012   9.397  0.0598 -0.3371 -0.3921
 5547SOL    HW128103   2.224   1.952   9.339  2.2964 -2.2386 -0.2855
 5547SOL    HW228104   2.364   1.992   9.377  0.5872  1.5590  0.1463
 5548SOL     OW28105   2.589   4.242  12.175  0.4923  0.2233 -0.0676
 5548SOL    HW128106   2.502   4.277  12.154 -0.2330 -0.7653  1.3241
 5548SOL    HW228107   2.570   4.156  12.213 -0.9677  0.7987  0.5057
 5549SOL     OW28108   3.287   3.246   8.402  0.3458  0.0107 -0.4205
 5549SOL    HW128109   3.248   3.324   8.444  0.7475  0.7972 -1.5022
 5549SOL    HW228110   3.378   3.241   8.429  0.0242 -1.6575  0.3110
 5550SOL     OW28111   1.898   0.407   8.733 -0.0860 -0.1737 -0.2767
 5550SOL    HW128112   1.891   0.501   8.715 -2.1472 -0.1560  0.6633
 5550SOL    HW228113   1.806   0.396   8.707 -0.3289  1.5433 -0.1356
 5551SOL     OW28114   4.394   2.500   3.033  0.0983  0.0852 -0.0629
 5551SOL    HW128115   4.372   2.579   2.983  0.3596  2.3355  3.3567
 5551SOL    HW228116   4.358   2.435   2.972  1.3103 -0.0397 -0.6504
 5552SOL     OW28117   3.318   4.014   3.381 -1.0475 -0.6090 -0.5339
 5552SOL    HW128118   3.279   4.022   3.468  1.4165  2.0915  0.3386
 5552SOL    HW228119   3.250   4.064   3.336 -0.9043  0.2183  0.1648
 5553SOL     OW28120   2.316   0.297   3.012  0.2414 -0.4031  0.1839
 5553SOL    HW128121   2.406   0.266   3.015  0.0640 -0.8440  1.2007
 5553SOL    HW228122   2.297   0.284   2.919  3.0662 -1.5176 -0.2225
 5554SOL     OW28123   4.041   3.604   6.847  0.0354  0.2935  0.1072
 5554SOL    HW128124   3.969   3.633   6.903 -0.2384  2.4900 -1.4018
 5554SOL    HW228125   4.006   3.592   6.759  1.9086  1.9338 -0.8662
 5555SOL     OW28126   2.210   4.541   4.548  0.0672 -0.0289  0.0006
 5555SOL    HW128127   2.263   4.604   4.500  0.7291  0.7823  1.7861
 5555SOL    HW228128   2.127   4.580   4.522  0.6720  0.4048 -1.2478
 5556SOL     OW28129   1.325   0.933  17.223  0.5273 -0.1956  0.2923
 5556SOL    HW128130   1.320   1.005  17.285  1.8301  0.6886 -0.6372
 5556SOL    HW228131   1.328   0.856  17.280 -0.0414 -0.6549 -0.2969
 5557SOL     OW28132   0.915   0.207   3.918 -0.1121 -0.8968  0.0630
 5557SOL    HW128133   0.893   0.202   3.825  1.2755  1.0157 -0.3581
 5557SOL    HW228134   0.847   0.270   3.943 -1.0859 -1.3107 -1.5611
 5558SOL     OW28135   0.143   3.926  17.408  0.1361  0.0462 -0.2656
 5558SOL    HW128136   0.183   3.924  17.495  0.4672  2.9374 -0.3516
 5558SOL    HW228137   0.216   3.924  17.347  0.6074 -2.2832  0.3908
 5559SOL     OW28138   2.354   1.050  11.373 -0.0815 -0.2737  0.1508
 5559SOL    HW128139   2.261   1.028  11.377 -0.1160 -0.4779 -1.4543
 5559SOL    HW228140   2.349   1.144  11.358 -0.1353 -0.6153 -2.0292
 5560SOL     OW28141   2.954   2.444   4.200  0.2442 -0.2252  0.3858
 5560SOL    HW128142   2.870   2.454   4.245  0.1242  2.0994 -0.3795
 5560SOL    HW228143   3.011   2.486   4.265 -0.2683  0.6662  0.2606
 5561SOL     OW28144   1.077   1.503   3.396  0.5589  0.4514  0.1859
 5561SOL    HW128145   1.127   1.501   3.315  0.6069  1.1057  0.1952
 5561SOL    HW228146   1.123   1.427   3.432  0.3170 -0.8554 -2.2603
 5562SOL     OW28147   1.196   0.721  12.812  0.0033  0.4280 -0.0812
 5562SOL    HW128148   1.104   0.737  12.835 -0.1549 -1.1154  0.3572
 5562SOL    HW228149   1.249   0.745  12.888  0.6201  0.5841 -0.5620
 5563SOL     OW28150   1.794   4.627  14.974 -0.1332  0.0965  0.1345
 5563SOL    HW128151   1.700   4.631  14.995 -0.3464  2.0370 -1.2168
 5563SOL    HW228152   1.812   4.720  14.961 -0.6508 -0.0125 -1.3737
 5564SOL     OW28153   3.337   3.741   2.737 -0.2099 -0.2151  0.0247
 5564SOL    HW128154   3.321   3.715   2.646 -0.5633  0.1197 -0.0115
 5564SOL    HW228155   3.407   3.678   2.754  2.5522  2.8714  0.1494
 5565SOL     OW28156   0.699   0.850  11.572  0.4512 -0.1445  0.2312
 5565SOL    HW128157   0.664   0.780  11.516  2.4759 -0.6792 -0.3876
 5565SOL    HW228158   0.765   0.798  11.618 -0.1852 -1.4762 -0.3664
 5566SOL     OW28159   0.204   3.298  15.042  0.2401  0.2434 -0.0484
 5566SOL    HW128160   0.133   3.255  15.090  0.9585  0.0838  0.8652
 5566SOL    HW228161   0.169   3.309  14.953 -2.5180  1.6819  1.2202
 5567SOL     OW28162   1.614   2.816   8.601  0.5766 -0.2829  0.1280
 5567SOL    HW128163   1.523   2.813   8.574  0.7526  0.1069 -0.5036
 5567SOL    HW228164   1.648   2.737   8.559  0.0952 -0.3522 -0.1258
 5568SOL     OW28165   3.360   0.204   9.031 -0.0581 -0.0896  0.4273
 5568SOL    HW128166   3.450   0.226   9.005  0.0504 -0.3220  0.6108
 5568SOL    HW228167   3.341   0.260   9.107 -0.5027  0.3741 -0.0281
 5569SOL     OW28168   2.657   3.885   1.756  0.8154 -0.1843 -0.3398
 5569SOL    HW128169   2.687   3.944   1.825 -2.7941  1.7491 -0.4148
 5569SOL    HW228170   2.719   3.813   1.765  0.3320 -0.3637  1.6615
 5570SOL     OW28171   3.817   2.651   3.380  0.4654  0.3581 -0.9601
 5570SOL    HW128172   3.862   2.730   3.352  1.5267  0.3719  0.7849
 5570SOL    HW228173   3.844   2.651   3.472 -0.6698  1.9505 -0.6253
 5571SOL     OW28174   3.605   4.561  12.385  0.4097  0.1583  0.1552
 5571SOL    HW128175   3.683   4.506  12.385 -0.4897 -1.1334  1.0041
 5571SOL    HW228176   3.640   4.646  12.409 -1.6869  1.3093 -0.8586
 5572SOL     OW28177   4.416   2.449   0.049  0.2175 -0.4379 -0.3184
 5572SOL    HW128178   4.362   2.525   0.025  1.0828  0.4631  0.6213
 5572SOL    HW228179   4.482   2.458  17.668 -2.2560  0.1844 -2.6330
 5573SOL     OW28180   3.029   0.555   1.993  0.1417  0.4289  0.9133
 5573SOL    HW128181   3.008   0.494   1.922  1.7064 -0.8905  1.5847
 5573SOL    HW228182   3.122   0.535   2.005 -0.3683 -0.4143  3.4877
 5574SOL     OW28183   2.158   2.213  12.184  0.0841  0.1050  0.4441
 5574SOL    HW128184   2.089   2.201  12.250  0.2813 -0.1449  0.6027
 5574SOL    HW228185   2.227   2.157  12.219 -0.0983 -1.4241 -1.6649
 5575SOL     OW28186   4.022   4.520   9.283  0.8779 -0.0722  0.0706
 5575SOL    HW128187   4.100   4.518   9.338  0.7885 -1.3898  0.1502
 5575SOL    HW228188   3.961   4.534   9.354  0.6992 -0.6151  0.0230
 5576SOL     OW28189   2.242   2.780   2.686  0.0573  0.0692  0.0660
 5576SOL    HW128190   2.185   2.853   2.708  2.3377  1.0869  2.6272
 5576SOL    HW228191   2.189   2.721   2.632 -0.3499  1.0759 -0.6329
 5577SOL     OW28192   0.488   0.300   8.457  0.2698  0.6938 -0.3825
 5577SOL    HW128193   0.410   0.354   8.443 -0.5645 -0.4795 -0.3932
 5577SOL    HW228194   0.533   0.364   8.511  1.9683  1.4237 -2.7121
 5578SOL     OW28195   4.628   3.989  17.274  0.9176  0.2645  0.2357
 5578SOL    HW128196   4.709   3.983  17.326  1.5690  0.8329 -0.7085
 5578SOL    HW228197   4.623   3.899  17.243 -0.3235  0.5899 -0.5161
 5579SOL     OW28198   0.116   0.388   2.627  0.0207 -0.1238 -0.3578
 5579SOL    HW128199   0.054   0.452   2.593  0.1502 -0.7051 -1.6795
 5579SOL    HW228200   0.154   0.436   2.700 -1.6154 -0.2365  0.5671
 5580SOL     OW28201   1.499   1.035  13.358 -0.3224 -0.0896  0.6684
 5580SOL    HW128202   1.451   1.009  13.279  1.6846 -0.2719 -0.5069
 5580SOL    HW228203   1.590   1.048  13.329 -0.7101  2.2449  0.4541
 5581SOL     OW28204   2.077   0.228   7.826  0.1901  0.5211 -0.7317
 5581SOL    HW128205   2.044   0.235   7.736  1.0273 -0.6924 -1.1294
 5581SOL    HW228206   2.049   0.312   7.862 -3.0191 -0.9322  0.1380
 5582SOL     OW28207   1.605   2.890   7.653 -0.5755  0.1847  0.7917
 5582SOL    HW128208   1.524   2.848   7.682 -0.4169  1.2057  2.6632
 5582SOL    HW228209   1.675   2.858   7.710 -0.9425 -1.4488  0.3201
 5583SOL     OW28210   2.634   0.549  14.374  0.5497  0.4317 -0.3689
 5583SOL    HW128211   2.626   0.457  14.400  3.2245  0.3243  0.0911
 5583SOL    HW228212   2.563   0.587  14.426 -0.0604  0.1255 -0.9737
 5584SOL     OW28213   2.031   1.769   3.877  0.0255 -0.3497  0.8658
 5584SOL    HW128214   1.942   1.803   3.889  0.5080  0.9403  0.7650
 5584SOL    HW228215   2.085   1.848   3.870  0.5915 -0.7766  0.4113
 5585SOL     OW28216   3.857   1.767   2.707  0.1096 -0.4710 -0.5715
 5585SOL    HW128217   3.814   1.801   2.628 -0.3377  0.3513  0.0238
 5585SOL    HW228218   3.913   1.695   2.679 -0.3483 -0.2601 -2.0282
 5586SOL     OW28219   0.894   4.212   8.077  0.5952  0.2842  0.2435
 5586SOL    HW128220   0.821   4.222   8.138  0.1846  2.1982 -0.5654
 5586SOL    HW228221   0.962   4.189   8.141  0.1105 -0.5060  0.4734
 5587SOL     OW28222   1.194   2.960   3.881 -0.3059  0.3467 -0.1410
 5587SOL    HW128223   1.207   2.927   3.969 -0.0158  2.5583  0.6359
 5587SOL    HW228224   1.107   2.923   3.864 -0.8131  1.8659 -0.8603
 5588SOL     OW28225   1.361   0.597   5.605 -0.9702  0.2487 -0.1004
 5588SOL    HW128226   1.331   0.617   5.517 -1.1286  0.8160  0.0834
 5588SOL    HW228227   1.302   0.653   5.656  0.7437  0.3215  1.8054
 5589SOL     OW28228   0.933   1.741   3.332 -0.0454  0.5863 -0.1025
 5589SOL    HW128229   0.865   1.684   3.369 -1.8009  1.1292 -2.4379
 5589SOL    HW228230   1.014   1.691   3.328 -0.2701  0.4359 -2.8415
 5590SOL     OW28231   4.359   3.423  11.353  0.1213 -0.0117 -1.1190
 5590SOL    HW128232   4.393   3.456  11.436  0.2016 -1.1713 -0.6881
 5590SOL    HW228233   4.266   3.426  11.373  0.5580  2.3386  0.5518
 5591SOL     OW28234   3.759   2.176  13.643 -0.0588 -0.1632 -0.6674
 5591SOL    HW128235   3.710   2.220  13.712  0.1144 -2.6748  1.0550
 5591SOL    HW228236   3.845   2.154  13.680 -1.5735 -2.8530  1.3040
 5592SOL     OW28237   2.596   1.474  15.338 -0.1472  0.2784  0.5124
 5592SOL    HW128238   2.639   1.432  15.263  0.3963 -0.3162  1.1599
 5592SOL    HW228239   2.659   1.543  15.358  1.6706 -1.4178  0.5693
 5593SOL     OW28240   0.505   0.377   2.982  0.4296  0.2500  0.6637
 5593SOL    HW128241   0.570   0.314   3.014  1.0278  0.9069  0.7404
 5593SOL    HW228242   0.550   0.383   2.898  0.7091  1.7504  0.9158
 5594SOL     OW28243   0.592   1.641   0.256 -0.3492 -0.1276 -0.4159
 5594SOL    HW128244   0.627   1.657   0.344  1.7266 -3.3221 -0.6835
 5594SOL    HW228245   0.624   1.717   0.206  3.8288  0.1387  2.5922
 5595SOL     OW28246   2.891   3.527   3.378  0.2829  0.4504 -0.6150
 5595SOL    HW128247   2.944   3.535   3.458 -0.9876  2.5173  0.0236
 5595SOL    HW228248   2.931   3.595   3.323  0.3250  0.4469 -0.5886
 5596SOL     OW28249   3.224   1.797   8.911 -0.2658  0.1354  0.0764
 5596SOL    HW128250   3.169   1.800   8.833  0.5064 -0.5629 -0.4947
 5596SOL    HW228251   3.178   1.725   8.954  1.7015 -1.4169 -0.4185
 5597SOL     OW28252   0.321   0.330   4.347  0.5705  0.4148 -0.3246
 5597SOL    HW128253   0.386   0.327   4.417  0.6958  2.3598 -0.3570
 5597SOL    HW228254   0.266   0.394   4.393  0.3428  0.2281 -0.3378
 5598SOL     OW28255   2.598   4.715   7.624  0.2967 -0.0364  0.0429
 5598SOL    HW128256   2.580   0.044   7.704  1.5926 -1.1817  1.0395
 5598SOL    HW228257   2.679   0.037   7.596  0.4232 -1.0559 -1.1784
 5599SOL     OW28258   4.584   0.956   8.782 -0.2194  0.6136  0.1308
 5599SOL    HW128259   4.528   0.885   8.813  0.9385 -1.2108 -1.9992
 5599SOL    HW228260   4.642   0.974   8.857  2.6156 -0.2483 -1.8598
 5600SOL     OW28261   0.109   3.352   2.353 -0.0136 -0.1683 -0.3977
 5600SOL    HW128262   0.192   3.315   2.325  0.0772 -1.0697  1.0848
 5600SOL    HW228263   0.048   3.347   2.279  1.9447 -0.4423 -1.9932
 5601SOL     OW28264   4.107   0.596   2.199 -0.1186 -0.0022 -0.5997
 5601SOL    HW128265   4.086   0.503   2.188  0.4013 -0.4385  2.0008
 5601SOL    HW228266   4.191   0.604   2.154  0.3825  0.4267  0.3940
 5602SOL     OW28267   2.218   3.543   6.158  0.5395 -0.1865  0.6497
 5602SOL    HW128268   2.244   3.622   6.111  0.7139 -0.9421 -0.5185
 5602SOL    HW228269   2.292   3.536   6.218  1.2126  0.5340 -0.0877
 5603SOL     OW28270   0.244   3.350  11.996  0.0170  0.1417 -0.4198
 5603SOL    HW128271   0.203   3.299  11.926 -2.7191  1.8416 -0.0604
 5603SOL    HW228272   0.245   3.281  12.062  0.8898  2.0452  1.5539
 5604SOL     OW28273   2.475   2.515   4.704 -0.3990 -0.3795 -0.4765
 5604SOL    HW128274   2.394   2.561   4.724 -0.6141 -0.1241 -1.9369
 5604SOL    HW228275   2.479   2.450   4.774 -1.8278 -1.4608 -1.4036
 5605SOL     OW28276   0.672   3.519   3.379  0.3944 -0.4769 -0.0913
 5605SOL    HW128277   0.722   3.497   3.301 -0.3199 -0.6080 -0.5205
 5605SOL    HW228278   0.734   3.521   3.452 -0.5537 -1.4611  0.7545
 5606SOL     OW28279   3.383   1.317  14.774 -1.0030  0.0644 -0.1400
 5606SOL    HW128280   3.348   1.392  14.726 -2.4826 -0.3467  0.2968
 5606SOL    HW228281   3.405   1.361  14.857  1.6705 -1.2701 -0.1577
 5607SOL     OW28282   0.155   4.187   7.901  0.0759  0.4978 -0.8392
 5607SOL    HW128283   0.165   4.274   7.939  0.1223  0.5625 -0.9990
 5607SOL    HW228284   0.246   4.160   7.888  0.4619  1.5012 -0.1935
 5608SOL     OW28285   3.426   4.203   5.539  0.0114  0.4514 -0.6867
 5608SOL    HW128286   3.482   4.140   5.494  0.1917 -0.5237  0.8937
 5608SOL    HW228287   3.493   4.268   5.563 -0.5947  0.8435 -0.0634
 5609SOL     OW28288   2.759   1.802   4.217  0.1259  0.4884 -0.0414
 5609SOL    HW128289   2.701   1.726   4.218  0.9807 -0.1700  0.8149
 5609SOL    HW228290   2.791   1.799   4.127 -0.0131 -0.8301 -0.0476
 5610SOL     OW28291   3.431   2.683  11.263  0.3314  0.5342  0.3387
 5610SOL    HW128292   3.343   2.682  11.300  1.5586  0.7126  3.2351
 5610SOL    HW228293   3.424   2.754  11.199  2.4642 -0.2925 -0.7967
 5611SOL     OW28294   2.381   4.104   7.935 -0.1636 -0.4489 -0.3588
 5611SOL    HW128295   2.438   4.043   7.982 -0.9640 -1.7680 -1.1053
 5611SOL    HW228296   2.437   4.182   7.934 -0.8977  0.0957  0.7392
 5612SOL     OW28297   3.098   4.316   0.479  0.4647  0.7084 -0.1301
 5612SOL    HW128298   3.136   4.331   0.392  1.9320  0.8411  0.5375
 5612SOL    HW228299   3.016   4.269   0.461 -0.4363  2.5619 -0.8083
 5613SOL     OW28300   0.731   4.387   9.843  0.3064 -0.3144  0.4121
 5613SOL    HW128301   0.657   4.424   9.892 -0.5533 -0.7531 -0.5596
 5613SOL    HW228302   0.801   4.447   9.869  0.9960 -1.7150  1.7993
 5614SOL     OW28303   4.680   3.039   7.635 -0.7271  0.2109 -0.0070
 5614SOL    HW128304   4.615   2.991   7.687 -1.7623 -0.8039 -2.2280
 5614SOL    HW228305   4.651   3.020   7.546  1.8240 -0.5117 -0.6917
 5615SOL     OW28306   4.086   2.059   3.347  0.4335 -0.0764  0.1114
 5615SOL    HW128307   4.088   2.083   3.439  1.8168  2.1253 -0.4722
 5615SOL    HW228308   4.099   2.145   3.306 -0.1195  1.9337  4.1428
 5616SOL     OW28309   2.379   4.200  10.234  0.0154 -0.1100 -0.3631
 5616SOL    HW128310   2.466   4.169  10.207 -0.0796 -0.2759 -0.4765
 5616SOL    HW228311   2.332   4.118  10.246 -2.9256  1.1760 -2.9575
 5617SOL     OW28312   2.811   3.742   6.854  0.7387  0.1045  0.7708
 5617SOL    HW128313   2.755   3.816   6.875 -0.1674 -0.5467  0.6738
 5617SOL    HW228314   2.765   3.662   6.881  1.5281 -0.6885 -0.2077
 5618SOL     OW28315   2.231   2.635  11.464 -0.0684 -0.4248  0.2753
 5618SOL    HW128316   2.162   2.660  11.402  0.3817 -3.3037 -1.3830
 5618SOL    HW228317   2.178   2.655  11.541  0.2864 -0.4544  0.5229
 5619SOL     OW28318   2.207   4.308   3.966 -0.5917  0.3250 -0.1319
 5619SOL    HW128319   2.132   4.366   3.950 -0.7613 -0.2637 -1.4592
 5619SOL    HW228320   2.216   4.284   3.874  1.9446  2.1524 -0.3540
 5620SOL     OW28321   0.480   0.525   5.712  0.0342  0.4771  0.2123
 5620SOL    HW128322   0.395   0.536   5.753  0.0063 -0.0114  0.2764
 5620SOL    HW228323   0.480   0.432   5.689 -2.5090  0.3262  0.8497
 5621SOL     OW28324   4.377   3.100   2.696  0.0881 -0.4442 -0.1009
 5621SOL    HW128325   4.329   3.177   2.727  2.0477  1.0800 -0.7738
 5621SOL    HW228326   4.310   3.034   2.681 -1.1742  1.1461 -1.5029
 5622SOL     OW28327   4.318   2.667   7.676  0.0972  0.4990  0.0047
 5622SOL    HW128328   4.409   2.650   7.699 -0.0913  0.1758  0.4983
 5622SOL    HW228329   4.287   2.593   7.624 -1.5435  0.9565  0.3144
 5623SOL     OW28330   4.481   4.364   4.681  0.3477 -0.0184 -0.4096
 5623SOL    HW128331   4.426   4.441   4.682 -0.5944 -0.6582 -2.0941
 5623SOL    HW228332   4.423   4.295   4.712  1.7063 -1.1192 -0.2782
 5624SOL     OW28333   2.002   4.562   4.231  0.1837 -0.3092 -0.0803
 5624SOL    HW128334   1.960   4.647   4.241 -0.9719 -1.1780  2.5477
 5624SOL    HW228335   1.926   4.509   4.207 -0.7604  0.6201  0.8348
 5625SOL     OW28336   1.742   3.945   5.506 -0.1389  0.3363 -0.3644
 5625SOL    HW128337   1.673   3.881   5.491 -1.9817  2.5557 -1.3708
 5625SOL    HW228338   1.723   4.017   5.446  0.3777  0.9525  0.2115
 5626SOL     OW28339   3.270   0.465  13.212  0.4559  0.9156  0.6962
 5626SOL    HW128340   3.292   0.403  13.142  2.1838  0.2540  1.8427
 5626SOL    HW228341   3.230   0.412  13.281  0.7358  0.5072  0.5442
 5627SOL     OW28342   0.640   1.716   2.751 -0.1092  0.1828 -0.7104
 5627SOL    HW128343   0.555   1.725   2.708 -0.0210  2.6126 -0.3848
 5627SOL    HW228344   0.658   1.803   2.788 -0.6435  0.2328 -0.5689
 5628SOL     OW28345   0.681   1.897   8.390  0.0710  0.4396 -0.6951
 5628SOL    HW128346   0.610   1.962   8.396  0.3979  0.6793  0.7486
 5628SOL    HW228347   0.745   1.936   8.330  0.6009  2.7907  1.3568
 5629SOL     OW28348   2.669   0.815   3.184  0.2005 -0.5722 -0.3737
 5629SOL    HW128349   2.662   0.720   3.186 -0.0884 -0.5262  0.6246
 5629SOL    HW228350   2.602   0.839   3.249 -0.5194 -0.7772 -1.0387
 5630SOL     OW28351   0.191   1.785   3.237  0.9086  0.2381  0.3805
 5630SOL    HW128352   0.267   1.787   3.179  1.0490  1.5080  0.6059
 5630SOL    HW228353   0.166   1.878   3.242 -2.1432 -0.6210  1.0871
 5631SOL     OW28354   1.148   2.777  15.863  0.6536 -0.0381 -1.0733
 5631SOL    HW128355   1.116   2.828  15.938 -1.9406  0.8380 -2.7677
 5631SOL    HW228356   1.220   2.837  15.845  1.6338 -0.6530  0.7699
 5632SOL     OW28357   0.281   0.435   5.949 -0.3127  0.0274 -0.0475
 5632SOL    HW128358   0.369   0.400   5.937 -0.2520  0.8336 -1.9558
 5632SOL    HW228359   0.277   0.453   6.043 -0.8494 -0.2146 -0.0228
 5633SOL     OW28360   4.181   0.248   8.159 -0.4728  0.5387 -0.2681
 5633SOL    HW128361   4.232   0.169   8.139 -0.5376 -0.0986  2.0441
 5633SOL    HW228362   4.254   0.309   8.150  1.8675 -2.6338 -2.8404
 5634SOL     OW28363   2.136   2.256  15.208 -0.8162 -0.2062  0.1568
 5634SOL    HW128364   2.077   2.331  15.207 -0.9037 -0.2557  2.0852
 5634SOL    HW228365   2.110   2.207  15.130  0.0995  1.1487 -1.0022
 5635SOL     OW28366   2.327   0.837   6.495  0.0348  0.3378 -0.6758
 5635SOL    HW128367   2.341   0.909   6.556  0.0610 -1.1667  1.1091
 5635SOL    HW228368   2.283   0.876   6.420  0.1468 -1.6531 -1.7677
 5636SOL     OW28369   0.437   2.670   6.015 -0.8266  0.0932 -0.2517
 5636SOL    HW128370   0.437   2.577   5.994  0.2198  0.4006 -1.6683
 5636SOL    HW228371   0.347   2.695   6.033 -1.3134 -3.0609  1.6915
 5637SOL     OW28372   1.294   2.338  12.714 -0.3886  0.7063  0.5422
 5637SOL    HW128373   1.286   2.415  12.770 -0.4679 -1.0333  2.9288
 5637SOL    HW228374   1.211   2.342  12.666 -0.4924  1.2154  0.7725
 5638SOL     OW28375   0.587   1.731  13.881 -0.3029 -0.1001 -0.5059
 5638SOL    HW128376   0.632   1.653  13.849  3.1130  0.6187  2.5606
 5638SOL    HW228377   0.544   1.742  13.797 -1.1489  0.7295  0.0325
 5639SOL     OW28378   1.430   2.524  16.624 -0.2036 -0.6701  0.0728
 5639SOL    HW128379   1.354   2.492  16.575  0.0118  0.8593 -1.2772
 5639SOL    HW228380   1.405   2.617  16.628  0.6496 -0.3896 -1.2803
 5640SOL     OW28381   4.378   1.556   8.110  0.1806 -0.4239  0.2184
 5640SOL    HW128382   4.292   1.571   8.150 -0.8708 -0.7169 -1.9252
 5640SOL    HW228383   4.362   1.467   8.078 -2.0588  0.5534 -1.4384
 5641SOL     OW28384   1.242   3.835   9.375 -0.5135  0.2666 -0.2593
 5641SOL    HW128385   1.165   3.778   9.383  0.6093 -1.1025  0.7441
 5641SOL    HW228386   1.227   3.861   9.284  2.5091  0.1944 -0.7903
 5642SOL     OW28387   0.897   2.121   6.749  0.7518  0.0881  0.4791
 5642SOL    HW128388   0.831   2.150   6.812  0.2184 -0.4732  0.1815
 5642SOL    HW228389   0.857   2.036   6.730 -0.3003  0.6896  0.0069
 5643SOL     OW28390   0.598   1.560  16.859  0.2145 -0.0158 -0.0137
 5643SOL    HW128391   0.634   1.529  16.776  0.8419  1.2442 -0.2207
 5643SOL    HW228392   0.666   1.527  16.917 -0.0200  2.5772  1.7701
 5644SOL     OW28393   1.997   1.533   2.929 -0.3147  0.3689 -0.1177
 5644SOL    HW128394   1.917   1.573   2.896 -0.3719 -1.4763 -2.1838
 5644SOL    HW228395   2.057   1.552   2.857  0.7897 -1.7016  0.2640
 5645SOL     OW28396   0.921   3.253   8.959  0.3693  0.4564 -0.3391
 5645SOL    HW128397   0.934   3.274   8.867 -0.5682  1.3897 -0.2612
 5645SOL    HW228398   0.991   3.301   9.002  0.3210  2.8403 -2.9680
 5646SOL     OW28399   4.511   0.327  12.913 -0.0068 -0.2761 -0.1156
 5646SOL    HW128400   4.492   0.249  12.965  1.0904  0.1533  0.9436
 5646SOL    HW228401   4.596   0.352  12.950 -0.1512 -0.5612  0.4065
 5647SOL     OW28402   1.373   1.947   1.014  0.3611  0.7937 -0.0379
 5647SOL    HW128403   1.284   1.981   1.027  0.1934 -1.7530  5.5887
 5647SOL    HW228404   1.385   1.880   1.082  1.9232 -0.9313 -2.0084
 5648SOL     OW28405   3.269   1.122   6.230  0.2205 -0.6502 -0.0611
 5648SOL    HW128406   3.327   1.145   6.303 -0.8873  2.4460 -0.1549
 5648SOL    HW228407   3.337   1.115   6.162  1.2624  2.0870  0.7162
 5649SOL     OW28408   4.032   2.954   7.741 -0.0197 -0.1085  0.3522
 5649SOL    HW128409   3.998   3.037   7.707 -2.0976 -0.9670  0.3318
 5649SOL    HW228410   4.080   2.989   7.816  2.0491 -0.8541 -0.6188
 5650SOL     OW28411   2.620   2.043   6.254 -0.2279 -0.1694 -0.3901
 5650SOL    HW128412   2.642   1.960   6.295  0.1826  0.4415  0.6088
 5650SOL    HW228413   2.526   2.046   6.270  0.0425  0.5357  1.0480
 5651SOL     OW28414   3.821   1.427  13.535  0.0990 -0.1319 -0.1425
 5651SOL    HW128415   3.838   1.395  13.446  0.3768  0.8182 -0.4273
 5651SOL    HW228416   3.797   1.519  13.523  0.6913 -0.2678 -2.4101
 5652SOL     OW28417   1.088   3.731   5.455  0.7037  0.7163 -0.2513
 5652SOL    HW128418   1.014   3.791   5.457 -0.6835 -0.9110 -1.9881
 5652SOL    HW228419   1.134   3.741   5.538 -1.1801 -0.5033  0.9599
 5653SOL     OW28420   4.549   3.302   5.744 -0.0554  0.3413 -0.0679
 5653SOL    HW128421   4.603   3.228   5.772 -0.7781 -0.6908 -1.3753
 5653SOL    HW228422   4.607   3.375   5.765  1.2476 -1.1161  1.4570
 5654SOL     OW28423   2.165   2.145  12.808 -0.4813  0.2257  0.0370
 5654SOL    HW128424   2.167   2.115  12.899 -2.6033  1.3320  0.4456
 5654SOL    HW228425   2.142   2.067  12.757  0.4782 -0.1146  0.1201
 5655SOL     OW28426   1.384   1.966  12.522  0.1258 -0.4025  0.1713
 5655SOL    HW128427   1.422   2.054  12.531  3.0762 -1.6706  0.0754
 5655SOL    HW228428   1.291   1.990  12.528  0.4577  1.2783 -1.2880
 5656SOL     OW28429   4.374   0.615  10.620  0.4281 -0.1435 -0.2072
 5656SOL    HW128430   4.436   0.583  10.686 -0.7419  1.1699  1.5059
 5656SOL    HW228431   4.300   0.564  10.653  0.1612 -1.2574 -2.5577
 5657SOL     OW28432   0.183   3.158   8.374 -0.1822  0.4110  0.0425
 5657SOL    HW128433   0.189   3.069   8.408 -2.9533  0.1838 -0.0319
 5657SOL    HW228434   0.230   3.161   8.291 -1.0747 -3.3842 -0.6223
 5658SOL     OW28435   4.252   0.795   7.087  0.0361 -0.4316 -0.5028
 5658SOL    HW128436   4.346   0.816   7.083  0.5851 -2.9475 -0.9105
 5658SOL    HW228437   4.225   0.765   7.000 -6.0752 -0.9146  1.6090
 5659SOL     OW28438   0.607   4.622  14.752  0.1071  0.2580 -0.2676
 5659SOL    HW128439   0.528   4.591  14.708 -2.3958  2.6621  2.5381
 5659SOL    HW228440   0.578   4.711  14.772 -0.4299 -0.5890  2.7434
 5660SOL     OW28441   3.044   1.384   1.986  0.0573  0.1494 -0.0389
 5660SOL    HW128442   2.974   1.343   1.934 -0.5465 -0.1254  0.9942
 5660SOL    HW228443   3.120   1.390   1.928  0.8605  0.0015  0.9980
 5661SOL     OW28444   2.092   0.608   5.335 -0.2660  0.0540  0.5669
 5661SOL    HW128445   2.004   0.608   5.371 -0.1817 -1.2530  0.7818
 5661SOL    HW228446   2.135   0.615   5.420  0.1173 -0.7188  0.4423
 5662SOL     OW28447   0.361   1.042  12.223  0.3520 -0.2328  0.1146
 5662SOL    HW128448   0.383   1.132  12.245 -1.4018  0.1152  0.4553
 5662SOL    HW228449   0.280   1.041  12.274  0.1845 -0.2622 -0.1476
 5663SOL     OW28450   2.188   3.235   0.345  0.0155 -0.1991  0.0688
 5663SOL    HW128451   2.249   3.239   0.272 -1.0039 -0.5258 -0.7908
 5663SOL    HW228452   2.243   3.263   0.419  1.1528  0.1208 -0.9127
 5664SOL     OW28453   4.435   4.280   3.110 -0.2506  0.2916  0.2998
 5664SOL    HW128454   4.498   4.304   3.178  0.9996 -2.9777  0.2788
 5664SOL    HW228455   4.491   4.294   3.034  1.2611  0.8287  1.5314
 5665SOL     OW28456   0.884   2.699  14.117 -0.0058 -0.3566  0.1221
 5665SOL    HW128457   0.800   2.727  14.154 -0.1947 -1.9617  0.9614
 5665SOL    HW228458   0.864   2.637  14.047 -2.3639  0.8777 -0.3071
 5666SOL     OW28459   2.161   4.233   7.112  0.2193 -0.5960  0.2190
 5666SOL    HW128460   2.166   4.166   7.181  2.9242 -1.8737 -1.2146
 5666SOL    HW228461   2.187   4.312   7.159  1.1507 -1.4625  1.1426
 5667SOL     OW28462   3.664   3.766   2.724  0.5982 -0.2463 -0.7625
 5667SOL    HW128463   3.648   3.804   2.811  1.8503  0.3789 -0.8112
 5667SOL    HW228464   3.752   3.790   2.697  1.5162 -3.1216 -0.2719
 5668SOL     OW28465   3.484   4.093   8.218  0.2532  0.2957 -0.1147
 5668SOL    HW128466   3.512   4.103   8.127 -0.4014 -0.0943 -0.3558
 5668SOL    HW228467   3.519   4.175   8.254  0.3733  0.4311 -0.5442
 5669SOL     OW28468   0.868   3.825   2.737  0.5039 -0.3891 -0.4604
 5669SOL    HW128469   0.928   3.790   2.671  0.9786 -0.0558 -0.2032
 5669SOL    HW228470   0.928   3.888   2.776 -0.9020 -0.3161  1.6178
 5670SOL     OW28471   0.450   2.347   1.726  0.2596  0.0943  0.0609
 5670SOL    HW128472   0.424   2.255   1.726  0.6471 -0.0123 -1.6681
 5670SOL    HW228473   0.368   2.385   1.695  1.1234  0.4722 -1.7415
 5671SOL     OW28474   3.640   0.246   9.036  0.3809  0.4352  0.5399
 5671SOL    HW128475   3.711   0.252   8.972 -0.5986  1.6782 -0.4161
 5671SOL    HW228476   3.679   0.277   9.118  1.5905 -2.1353  0.9390
 5672SOL     OW28477   0.360   2.125  14.167  0.3403 -0.1055  0.2903
 5672SOL    HW128478   0.415   2.048  14.152  0.7922 -0.2620  2.6717
 5672SOL    HW228479   0.344   2.155  14.078 -1.8104 -0.4126  0.5806
 5673SOL     OW28480   1.744   0.962   7.172  0.8157  0.3126 -0.1879
 5673SOL    HW128481   1.661   0.962   7.219  0.9660  0.6149  0.0887
 5673SOL    HW228482   1.721   0.887   7.118  3.4095 -1.3079  0.9363
 5674SOL     OW28483   0.037   4.152   6.509  0.0076  0.0811  0.3713
 5674SOL    HW128484   4.699   4.187   6.575 -1.2124 -2.5504  0.6631
 5674SOL    HW228485   0.015   4.059   6.505  1.0062 -0.2600  2.5621
 5675SOL     OW28486   2.319   1.763   5.104 -0.6711 -0.2539  0.6762
 5675SOL    HW128487   2.296   1.834   5.164 -0.4565  1.6970 -1.5220
 5675SOL    HW228488   2.412   1.753   5.126 -0.5967 -0.8118  0.1097
 5676SOL     OW28489   2.745   0.677  11.365  0.0308 -0.2059 -0.3314
 5676SOL    HW128490   2.733   0.770  11.345  2.2819 -0.3289 -2.3315
 5676SOL    HW228491   2.742   0.669  11.460 -0.8057  1.4168 -0.2378
 5677SOL     OW28492   4.653   1.199   3.003  0.0835 -0.3260 -0.1317
 5677SOL    HW128493   4.698   1.260   2.944  2.3645 -0.4328  1.5431
 5677SOL    HW228494   4.572   1.184   2.953  0.5448 -2.8450 -0.1418
 5678SOL     OW28495   1.522   1.180   4.551 -0.2542  0.1320  0.5150
 5678SOL    HW128496   1.610   1.152   4.525  0.0272  0.7364  0.8115
 5678SOL    HW228497   1.547   1.250   4.611 -0.4448  1.6371 -1.1422
 5679SOL     OW28498   4.261   2.196  17.378 -0.0912  0.2524 -0.3250
 5679SOL    HW128499   4.224   2.119  17.334  0.7695 -1.0645  1.2858
 5679SOL    HW228500   4.185   2.221  17.430 -1.3026 -1.8398 -1.0999
 5680SOL     OW28501   0.863   3.506   6.630 -0.0683 -0.2427  0.3937
 5680SOL    HW128502   0.798   3.455   6.581  0.7905  0.3600 -1.4002
 5680SOL    HW228503   0.818   3.533   6.710  0.4596  1.5920  0.0820
 5681SOL     OW28504   3.574   1.407   3.722 -0.1512 -0.1372  0.0621
 5681SOL    HW128505   3.513   1.364   3.782  1.2929  0.1866  1.7771
 5681SOL    HW228506   3.635   1.334   3.735  0.7934  0.5211 -0.6608
 5682SOL     OW28507   4.670   3.730   7.425  0.0333 -0.0585  0.1113
 5682SOL    HW128508   4.583   3.742   7.387  0.0923  2.0787  0.7076
 5682SOL    HW228509   4.694   3.641   7.398 -1.0583 -1.1103  2.6687
 5683SOL     OW28510   2.439   3.722   4.202  0.1818 -0.1232  0.2172
 5683SOL    HW128511   2.394   3.759   4.126 -2.9642 -1.4497  1.4244
 5683SOL    HW228512   2.443   3.798   4.260 -1.2457  0.5675 -0.5865
 5684SOL     OW28513   4.234   4.048   9.435 -0.1513 -0.4228  0.7553
 5684SOL    HW128514   4.272   3.981   9.491 -0.2984 -1.3506 -0.2710
 5684SOL    HW228515   4.306   4.076   9.379 -0.8428 -0.4191 -0.1430
 5685SOL     OW28516   0.700   3.896   3.203 -0.0713  0.0601  0.7065
 5685SOL    HW128517   0.619   3.943   3.222  0.7637  2.1400 -0.8438
 5685SOL    HW228518   0.734   3.915   3.290  1.7816 -1.0789  0.2263
 5686SOL     OW28519   4.405   0.326   3.571  0.2965  0.0925  0.2652
 5686SOL    HW128520   4.391   0.421   3.561 -0.5623 -0.0903 -0.1968
 5686SOL    HW228521   4.501   0.322   3.561  0.2633  2.1842 -0.9573
 5687SOL     OW28522   4.698   2.373   5.485  0.4895  0.4089  1.0124
 5687SOL    HW128523   0.035   2.316   5.435 -0.9594  0.9791 -1.3350
 5687SOL    HW228524   4.719   2.456   5.441  1.5706 -0.7181 -0.5837
 5688SOL     OW28525   1.580   0.273   5.546  0.4041  0.1614 -0.3838
 5688SOL    HW128526   1.539   0.253   5.461  2.1007 -0.5920 -1.0247
 5688SOL    HW228527   1.515   0.240   5.608  1.3773 -0.2593  0.4170
 5689SOL     OW28528   1.762   3.999  16.785  0.1793 -0.6505  0.2208
 5689SOL    HW128529   1.836   4.011  16.726 -2.0305  1.4298 -2.0800
 5689SOL    HW228530   1.697   4.011  16.715 -1.5426 -0.5071  1.8308
 5690SOL     OW28531   3.096   0.976  12.157 -0.1929 -0.2705  0.3536
 5690SOL    HW128532   3.078   0.901  12.101 -1.5527 -1.6819  2.7128
 5690SOL    HW228533   3.083   1.054  12.103  0.3707 -0.1657  0.3743
 5691SOL     OW28534   0.459   0.164   2.432  0.0571 -0.2765 -0.1988
 5691SOL    HW128535   0.466   0.078   2.390 -1.7377 -0.1166 -0.8383
 5691SOL    HW228536   0.398   0.133   2.500  0.8007  0.1489  0.6623
 5692SOL     OW28537   0.898   1.257   8.339 -0.4230 -0.6950  0.1169
 5692SOL    HW128538   0.950   1.180   8.315 -0.9072 -1.3506  1.1823
 5692SOL    HW228539   0.888   1.230   8.430  0.1712 -0.3722  0.2773
 5693SOL     OW28540   1.130   4.501   4.054  0.4650  0.3571 -0.6866
 5693SOL    HW128541   1.108   4.456   4.135 -1.3785  1.1017 -0.7710
 5693SOL    HW228542   1.111   4.592   4.077  1.5819  0.0199  1.5067
 5694SOL     OW28543   4.593   2.137   4.537  0.1053 -0.4720 -0.0462
 5694SOL    HW128544   4.675   2.155   4.491  0.2200 -0.3553  0.2051
 5694SOL    HW228545   4.574   2.224   4.572  0.3382  0.2247 -1.6566
 5695SOL     OW28546   3.271   3.737   1.555  0.1124  0.4116  0.2709
 5695SOL    HW128547   3.344   3.693   1.597  0.2376  1.7355  1.4721
 5695SOL    HW228548   3.316   3.809   1.511 -0.9655  0.6065 -0.5089
 5696SOL     OW28549   2.510   2.600   5.117 -0.4692 -0.0580  0.1761
 5696SOL    HW128550   2.506   2.686   5.075  1.0929  1.7114  3.6901
 5696SOL    HW228551   2.540   2.625   5.204  0.1634  0.8804 -0.3085
 5697SOL     OW28552   0.764   4.079   2.861  0.2737 -0.5820 -0.1120
 5697SOL    HW128553   0.729   4.003   2.906  2.1571 -0.7828  1.0145
 5697SOL    HW228554   0.840   4.029   2.832  0.5844  1.5024 -2.9276
 5698SOL     OW28555   1.740   0.886   2.791 -0.6308  0.5925  0.2190
 5698SOL    HW128556   1.773   0.935   2.866  0.0272 -0.5490  0.6803
 5698SOL    HW228557   1.648   0.873   2.810 -0.9730  1.0300 -1.1182
 5699SOL     OW28558   3.539   1.604   7.665  0.1777  1.0145  0.1865
 5699SOL    HW128559   3.579   1.532   7.616 -2.0066 -0.7608  1.0491
 5699SOL    HW228560   3.450   1.569   7.672  0.0262  0.9389 -2.0028
 5700SOL     OW28561   1.834   3.225   7.436 -0.5959 -0.2387  0.0870
 5700SOL    HW128562   1.753   3.187   7.471 -0.8843 -0.8072 -1.1718
 5700SOL    HW228563   1.861   3.160   7.371 -0.8744 -1.7926  1.5366
 5701SOL     OW28564   3.593   3.445   4.709 -0.2276 -0.0977 -0.3795
 5701SOL    HW128565   3.583   3.444   4.614 -2.1015  2.4883 -0.2090
 5701SOL    HW228566   3.509   3.407   4.733 -0.3799 -1.5040 -3.1153
 5702SOL     OW28567   1.937   2.553   9.006  0.0064  0.8092  0.0371
 5702SOL    HW128568   1.864   2.493   8.987 -0.7344  2.2939 -1.8503
 5702SOL    HW228569   2.011   2.502   8.972 -0.1795 -1.1802  2.6526
 5703SOL     OW28570   2.304   3.537   5.526 -0.5836  0.5338 -0.0188
 5703SOL    HW128571   2.300   3.565   5.435  3.4428 -2.9239 -1.2825
 5703SOL    HW228572   2.214   3.515   5.548 -1.1580  0.7361 -2.2004
 5704SOL     OW28573   3.264   0.165  16.879 -0.1844 -0.6261  0.3131
 5704SOL    HW128574   3.305   0.150  16.964  1.4431 -2.7324 -0.8377
 5704SOL    HW228575   3.268   0.077  16.841  0.7944 -0.0334 -0.9379
 5705SOL     OW28576   3.398   1.853  12.735 -0.1135 -0.0646 -0.2859
 5705SOL    HW128577   3.458   1.819  12.801  0.8468 -1.7033 -2.0005
 5705SOL    HW228578   3.455   1.914  12.688  0.2661 -0.1069  0.1179
 5706SOL     OW28579   4.302   3.601   5.237  0.4381  0.0115 -0.2312
 5706SOL    HW128580   4.381   3.655   5.232  1.2998 -1.1129  1.2568
 5706SOL    HW228581   4.341   3.520   5.204 -0.0729 -1.4559  2.8441
 5707SOL     OW28582   3.018   3.689   8.162  0.0815  0.4723  0.1235
 5707SOL    HW128583   3.042   3.637   8.239 -0.2983  0.5788  0.3151
 5707SOL    HW228584   3.102   3.682   8.117  0.0354  0.3959  0.0492
 5708SOL     OW28585   0.124   1.443  13.614 -0.4580 -0.1089 -0.6496
 5708SOL    HW128586   0.219   1.437  13.615 -0.2992  2.6555 -2.9352
 5708SOL    HW228587   0.104   1.392  13.535  1.1632 -1.1081 -0.4091
 5709SOL     OW28588   0.318   3.614   2.805 -0.1994  0.2535  0.2723
 5709SOL    HW128589   0.278   3.648   2.725  0.0811 -0.1077 -0.0244
 5709SOL    HW228590   0.331   3.524   2.774  0.1024  0.8598 -1.3498
 5710SOL     OW28591   4.207   2.967   6.592  0.1554  0.5846  0.8036
 5710SOL    HW128592   4.239   2.928   6.511 -0.5499  1.9151 -0.1204
 5710SOL    HW228593   4.228   2.897   6.654 -2.5838 -1.9432 -1.1225
 5711SOL     OW28594   3.778   2.334  12.626  0.2638  0.1505 -0.0846
 5711SOL    HW128595   3.817   2.251  12.652  1.8433  1.2413  1.0374
 5711SOL    HW228596   3.808   2.344  12.535 -2.2362 -1.6406 -1.1168
 5712SOL     OW28597   2.189   2.877   1.173 -0.3673 -0.2361 -0.2820
 5712SOL    HW128598   2.222   2.965   1.151  1.8864 -1.3011 -1.2267
 5712SOL    HW228599   2.158   2.886   1.263 -1.0209  1.6951 -0.6975
 5713SOL     OW28600   3.423   1.653  14.956  0.2844 -0.3636 -0.4241
 5713SOL    HW128601   3.408   1.748  14.956  1.1797 -0.2169  0.4721
 5713SOL    HW228602   3.445   1.633  15.047  0.7524  0.5110 -0.3420
 5714SOL     OW28603   1.214   0.833   7.666  0.4869  0.1061 -0.4595
 5714SOL    HW128604   1.194   0.832   7.572  1.4573  2.0863 -0.6902
 5714SOL    HW228605   1.306   0.861   7.666 -0.1132  2.0795 -1.5495
 5715SOL     OW28606   3.368   1.449   7.116  0.0340  0.2666  0.3621
 5715SOL    HW128607   3.430   1.512   7.153 -0.0216  0.9430 -0.6851
 5715SOL    HW228608   3.426   1.377   7.094 -0.9741 -0.1177 -1.0563
 5716SOL     OW28609   2.987   0.740  14.930 -0.4616  0.4026  0.1052
 5716SOL    HW128610   3.051   0.784  14.873  0.4701  0.1632  0.9580
 5716SOL    HW228611   3.039   0.726  15.009  2.3104 -1.6974 -2.0997
 5717SOL     OW28612   4.338   4.010   5.808  0.0132  0.5332 -0.3269
 5717SOL    HW128613   4.284   3.948   5.759  0.3184 -0.5648  0.7278
 5717SOL    HW228614   4.400   3.954   5.855  0.1610  1.0018  0.0364
 5718SOL     OW28615   2.478   4.161   5.885 -0.0226 -0.2603 -0.5594
 5718SOL    HW128616   2.425   4.218   5.942  2.0501  0.7540  0.3561
 5718SOL    HW228617   2.441   4.077   5.912  0.1627 -1.0632 -2.8068
 5719SOL     OW28618   0.876   0.839  10.512  0.8524 -0.1784  0.3304
 5719SOL    HW128619   0.882   0.790  10.594  0.7991  0.9930  1.0446
 5719SOL    HW228620   0.782   0.854  10.512  1.3543  3.0793  3.9204
 5720SOL     OW28621   3.499   0.453  11.712 -0.7140  0.1633 -0.4372
 5720SOL    HW128622   3.450   0.422  11.635  0.1450 -1.3168 -0.3868
 5720SOL    HW228623   3.547   0.525  11.669 -0.6516  0.8939  0.8564
 5721SOL     OW28624   2.413   1.630   5.634 -0.2965 -0.4258 -0.4943
 5721SOL    HW128625   2.408   1.663   5.724  0.4198 -1.1635 -0.1865
 5721SOL    HW228626   2.334   1.578   5.622 -0.3161 -0.5232  0.0543
 5722SOL     OW28627   1.116   4.280   7.676 -0.0115 -0.4556 -0.2656
 5722SOL    HW128628   1.063   4.246   7.604 -0.1365  0.6358 -0.6942
 5722SOL    HW228629   1.183   4.325   7.624 -0.7592 -0.1629 -0.9704
 5723SOL     OW28630   3.332   1.144  12.919 -0.6292  0.1953 -0.0897
 5723SOL    HW128631   3.407   1.191  12.956 -1.6542  0.7282  1.3322
 5723SOL    HW228632   3.375   1.095  12.849  0.6617  1.7007 -0.3388
 5724SOL     OW28633   0.971   3.482   2.805  0.5379  0.0470  0.3584
 5724SOL    HW128634   0.882   3.516   2.812 -0.0861 -1.4210 -0.4622
 5724SOL    HW228635   0.979   3.432   2.724 -2.9409 -0.3984  0.3054
 5725SOL     OW28636   2.539   4.234   1.839  0.4618  0.2994 -0.8484
 5725SOL    HW128637   2.459   4.259   1.793 -0.6115 -0.0191  0.8494
 5725SOL    HW228638   2.572   4.322   1.858  0.0309  0.0670  0.9838
 5726SOL     OW28639   4.666   3.341   2.651 -0.3147  0.2119 -0.2961
 5726SOL    HW128640   4.595   3.291   2.611 -0.6306  0.5222 -0.1175
 5726SOL    HW228641   4.711   3.402   2.592 -0.6047  1.0101  0.3146
 5727SOL     OW28642   3.155   4.219   9.597  0.1200  0.1735  0.0873
 5727SOL    HW128643   3.248   4.242   9.591  0.0602  1.0093  2.6652
 5727SOL    HW228644   3.118   4.272   9.667 -1.7165 -2.4050  1.0818
 5728SOL     OW28645   0.005   2.998  13.935 -0.1654 -0.4827  0.7418
 5728SOL    HW128646   0.036   3.034  13.853 -1.9256 -0.8025 -0.0702
 5728SOL    HW228647   0.028   2.908  13.912 -2.6348 -0.4012 -2.1129
 5729SOL     OW28648   0.557   2.688  15.030 -0.3556 -0.0281 -0.0599
 5729SOL    HW128649   0.508   2.675  14.949 -2.4602  0.0371  1.1770
 5729SOL    HW228650   0.519   2.773  15.050  0.5293  0.6879 -1.4743
 5730SOL     OW28651   2.596   1.266  15.504 -0.3526 -0.0424  0.2328
 5730SOL    HW128652   2.519   1.294  15.554 -1.7947 -0.7805 -1.5559
 5730SOL    HW228653   2.589   1.333  15.436 -2.3831  0.3757  0.8725
 5731SOL     OW28654   0.422   0.299  11.892 -0.1101 -0.0185 -0.2866
 5731SOL    HW128655   0.361   0.249  11.946  2.0362 -2.8298 -0.4601
 5731SOL    HW228656   0.371   0.326  11.816 -0.7519  3.7061  1.4387
 5732SOL     OW28657   3.331   3.063   8.724 -0.2762 -0.0388  0.1495
 5732SOL    HW128658   3.267   3.008   8.769 -0.9053 -1.5031 -2.5233
 5732SOL    HW228659   3.394   2.992   8.709  1.0316  1.0342  0.6800
 5733SOL     OW28660   3.302   2.980   6.948  0.0262 -0.4099  0.1693
 5733SOL    HW128661   3.350   3.002   7.027  0.8550 -1.1566 -0.1217
 5733SOL    HW228662   3.338   2.895   6.924 -0.8470 -0.1827 -1.9989
 5734SOL     OW28663   0.003   0.336   6.860  0.5880 -0.1687 -0.3858
 5734SOL    HW128664   0.021   0.390   6.784 -1.1628  1.3130  0.2314
 5734SOL    HW228665   0.084   0.307   6.901  0.5785 -0.0384 -0.2712
 5735SOL     OW28666   4.464   0.111   6.258  0.0204 -0.1464  0.2868
 5735SOL    HW128667   4.407   0.051   6.210  1.8934 -2.7076  1.2783
 5735SOL    HW228668   4.539   0.119   6.199 -1.7313 -2.3946 -2.2821
 5736SOL     OW28669   0.310   4.284   7.367  0.0233  0.4097  0.4499
 5736SOL    HW128670   0.260   4.203   7.379 -1.4521  1.6395  2.5769
 5736SOL    HW228671   0.388   4.262   7.417  0.2449  2.5653  1.0765
 5737SOL     OW28672   4.414   0.389   5.292  0.2237  0.0473 -0.0983
 5737SOL    HW128673   4.382   0.350   5.210 -1.9519  0.5962  0.4865
 5737SOL    HW228674   4.400   0.313   5.348 -0.0824  1.6051  1.9115
 5738SOL     OW28675   4.359   2.354   5.482  0.3438 -0.6952 -0.4529
 5738SOL    HW128676   4.295   2.359   5.411  2.6133 -0.3585 -2.4738
 5738SOL    HW228677   4.399   2.441   5.471  1.1804 -1.2601 -1.9198
 5739SOL     OW28678   1.128   2.175   3.692  0.4517  0.5441  0.2813
 5739SOL    HW128679   1.062   2.220   3.744  2.0384  0.4573  2.3770
 5739SOL    HW228680   1.075   2.097   3.676 -0.5758  0.6600  3.2058
 5740SOL     OW28681   4.165   0.017  13.389 -0.3328  0.5446  1.2035
 5740SOL    HW128682   4.210   4.653  13.392 -0.6557  0.3427  0.4225
 5740SOL    HW228683   4.239   0.077  13.382  1.1065 -1.3725 -0.0161
 5741SOL     OW28684   3.568   2.173   9.146  0.8597  0.1927  0.2829
 5741SOL    HW128685   3.494   2.204   9.199  0.7916  1.3927 -0.5106
 5741SOL    HW228686   3.544   2.203   9.058  1.7846 -0.5923 -0.2382
 5742SOL     OW28687   1.335   4.263   2.063 -0.0924  0.2491 -0.5327
 5742SOL    HW128688   1.413   4.246   2.116 -0.0463  0.5870 -0.4904
 5742SOL    HW228689   1.363   4.350   2.033  1.4918  0.5622  1.7854
 5743SOL     OW28690   1.274   0.136  15.735  0.4863  0.2506 -0.3690
 5743SOL    HW128691   1.252   0.119  15.827 -2.1418  2.6054 -0.5413
 5743SOL    HW228692   1.353   0.082  15.737  0.2126 -0.1052  1.2071
 5744SOL     OW28693   4.300   3.172   5.870  0.0041  0.3243  0.3617
 5744SOL    HW128694   4.350   3.218   5.802  2.3388  2.8596  3.7583
 5744SOL    HW228695   4.371   3.152   5.931 -0.7023  3.1800  2.1565
 5745SOL     OW28696   4.381   3.486  13.286  0.1818  0.1126  0.3297
 5745SOL    HW128697   4.301   3.440  13.260  0.4197 -0.0243 -0.1651
 5745SOL    HW228698   4.451   3.421  13.276  0.4538  0.5624 -0.7473
 5746SOL     OW28699   3.969   0.254   3.013  0.4267 -0.0468 -0.8056
 5746SOL    HW128700   3.950   0.341   2.980  1.3115  0.7073  0.6941
 5746SOL    HW228701   3.976   0.198   2.936  1.6559 -1.1889  0.1455
 5747SOL     OW28702   1.188   0.128   2.798 -0.0196 -0.3404  0.4325
 5747SOL    HW128703   1.214   0.166   2.882  1.1706 -0.5143  0.1447
 5747SOL    HW228704   1.203   0.198   2.735 -0.2269 -1.2657 -0.6447
 5748SOL     OW28705   1.831   2.235   6.540  0.1742 -0.3271  0.1386
 5748SOL    HW128706   1.896   2.249   6.609  0.5224 -0.0963 -0.2382
 5748SOL    HW228707   1.784   2.163   6.583  0.6140  0.0265  1.2062
 5749SOL     OW28708   0.785   3.985   7.959  0.8142 -0.4300  0.0281
 5749SOL    HW128709   0.839   4.058   7.987  0.8572 -0.0499 -1.0382
 5749SOL    HW228710   0.734   3.949   8.032  1.1149 -0.6625  0.1224
 5750SOL     OW28711   4.619   1.093   6.159  0.0809 -0.5197  0.0102
 5750SOL    HW128712   4.533   1.062   6.191 -0.2947  0.2617 -0.2559
 5750SOL    HW228713   4.677   1.020   6.182  0.4288 -0.6406 -1.2649
 5751SOL     OW28714   4.343   3.923   2.476 -0.0690 -0.3435 -0.3483
 5751SOL    HW128715   4.414   3.858   2.473 -0.5543 -0.7471 -2.8126
 5751SOL    HW228716   4.354   3.953   2.566 -0.2176 -2.7902  0.5007
 5752SOL     OW28717   0.803   0.583   1.067 -0.3854  0.7666 -0.3549
 5752SOL    HW128718   0.716   0.595   1.028 -0.9029 -0.0500  0.5511
 5752SOL    HW228719   0.802   0.490   1.089 -3.4025  1.6869  3.5636
 5753SOL     OW28720   4.515   0.895   1.770 -0.1676 -0.3263 -0.4413
 5753SOL    HW128721   4.447   0.831   1.792 -1.5911  1.0686 -0.8527
 5753SOL    HW228722   4.581   0.828   1.754  1.9410  2.0242 -1.5685
 5754SOL     OW28723   3.980   2.237   7.742  0.5904  0.1680  0.3578
 5754SOL    HW128724   3.968   2.331   7.752 -0.2793  0.1728 -0.6571
 5754SOL    HW228725   4.071   2.244   7.768  0.9639  0.7896 -1.1111
 5755SOL     OW28726   1.455   4.284  12.598  0.3385 -0.3670  0.2487
 5755SOL    HW128727   1.376   4.331  12.623  0.4394  0.0751 -0.2596
 5755SOL    HW228728   1.524   4.342  12.629  0.4463 -1.7787  2.6389
 5756SOL     OW28729   4.262   1.859  10.241 -0.2060 -0.0001 -0.7021
 5756SOL    HW128730   4.224   1.772  10.257  0.2525 -0.3719 -1.6591
 5756SOL    HW228731   4.327   1.862  10.171 -0.9464 -0.1424 -1.3868
 5757SOL     OW28732   0.934   0.740   0.818 -0.1483 -0.3585 -0.1884
 5757SOL    HW128733   0.920   0.669   0.755 -1.6232  0.0571 -0.3338
 5757SOL    HW228734   1.005   0.698   0.866  0.3666  0.2352 -0.4360
 5758SOL     OW28735   1.484   1.289  10.272 -0.0896 -0.3927 -0.1345
 5758SOL    HW128736   1.485   1.361  10.335 -1.1674 -1.1833  0.7943
 5758SOL    HW228737   1.405   1.246  10.304 -0.4366  0.3259 -0.0199
 5759SOL     OW28738   3.086   3.450   0.661 -0.0823 -0.1522 -0.5808
 5759SOL    HW128739   3.022   3.516   0.635  1.0272  1.5986  1.1343
 5759SOL    HW228740   3.091   3.465   0.755 -2.1273 -1.4781 -0.2554
 5760SOL     OW28741   4.452   4.129  13.255 -0.1238  0.3668  0.2290
 5760SOL    HW128742   4.468   4.163  13.343  0.2382 -1.4182  0.8530
 5760SOL    HW228743   4.362   4.106  13.273 -1.3139  4.5485 -0.3044
 5761SOL     OW28744   4.452   4.486  13.788  0.5583 -0.3409  0.3968
 5761SOL    HW128745   4.535   4.442  13.768  1.6305  1.4215  1.0066
 5761SOL    HW228746   4.387   4.418  13.770  1.0460 -1.1092  1.5425
 5762SOL     OW28747   4.519   3.985   3.282 -0.7661 -0.9216  0.2179
 5762SOL    HW128748   4.521   3.989   3.186  0.5298 -1.1548  0.2394
 5762SOL    HW228749   4.612   3.970   3.297 -0.3197  1.2707 -0.4602
 5763SOL     OW28750   1.390   4.685   3.510 -0.1056  1.0120 -0.3211
 5763SOL    HW128751   1.466   0.014   3.540 -1.2323  2.1124  0.7369
 5763SOL    HW228752   1.407   4.670   3.417 -1.5898  2.4387 -0.8379
 5764SOL     OW28753   0.277   0.052  15.523  0.7806  0.0066 -0.1366
 5764SOL    HW128754   0.208   0.117  15.532  1.9136  1.2989 -0.7117
 5764SOL    HW228755   0.242   0.004  15.447  0.6602  0.4436 -0.3550
 5765SOL     OW28756   0.252   1.233   2.235  0.4806  0.1963 -0.0497
 5765SOL    HW128757   0.218   1.319   2.260  2.6991  0.9304  0.4492
 5765SOL    HW228758   0.238   1.183   2.315 -0.1041  0.1398 -0.1841
 5766SOL     OW28759   3.041   0.319   4.122 -0.2988  0.1174 -0.2576
 5766SOL    HW128760   3.059   0.325   4.216 -1.2020  2.6235 -0.2215
 5766SOL    HW228761   3.097   0.246   4.100 -1.4815 -0.3321 -1.7948
 5767SOL     OW28762   2.719   4.476  11.476 -0.3900 -0.0110 -0.3776
 5767SOL    HW128763   2.811   4.503  11.485 -0.7148  1.0584 -0.3878
 5767SOL    HW228764   2.689   4.446  11.562 -2.5903  1.6598 -0.5709
 5768SOL     OW28765   3.100   4.546   9.891  0.2303 -0.0643 -0.2712
 5768SOL    HW128766   3.134   4.457   9.905  2.7404  1.0172  0.3427
 5768SOL    HW228767   3.102   4.586   9.977 -1.1675 -1.8961  0.6387
 5769SOL     OW28768   3.100   0.224   5.714 -0.1392  0.3526 -0.5112
 5769SOL    HW128769   3.163   0.160   5.685 -0.7513 -0.9124  0.9438
 5769SOL    HW228770   3.054   0.250   5.634 -2.0174 -2.2807 -0.2636
 5770SOL     OW28771   2.634   2.097   4.554 -0.4824  0.8295 -0.2594
 5770SOL    HW128772   2.696   2.169   4.557 -0.5600  0.8445  1.0527
 5770SOL    HW228773   2.684   2.042   4.615  0.2666 -0.7538 -2.2893
 5771SOL     OW28774   3.435   3.124   7.131  1.0759  0.2236 -0.3591
 5771SOL    HW128775   3.498   3.195   7.131  0.8924  0.3922 -0.9299
 5771SOL    HW228776   3.362   3.173   7.169  1.0405  0.4175 -0.6773
 5772SOL     OW28777   1.376   4.239   4.245 -0.3467  0.0187 -0.7813
 5772SOL    HW128778   1.461   4.250   4.288  0.1630 -0.9839 -1.5523
 5772SOL    HW228779   1.335   4.161   4.281 -1.5773  1.1488  0.2911
 5773SOL     OW28780   2.933   2.225  12.142  0.2637 -0.1643 -0.0086
 5773SOL    HW128781   2.887   2.153  12.099  0.0275 -1.2472  2.0365
 5773SOL    HW228782   2.877   2.236  12.220 -0.6120  3.6588 -1.1820
 5774SOL     OW28783   1.991   1.043   6.333  0.2138  0.7210 -0.1350
 5774SOL    HW128784   2.054   1.084   6.274  1.5642  0.0854  0.8655
 5774SOL    HW228785   1.939   1.006   6.262  0.6774 -1.4369  0.6486
 5775SOL     OW28786   3.435   0.135   8.605  0.4293 -0.8218 -0.1857
 5775SOL    HW128787   3.453   0.120   8.697  2.3811 -1.2934 -0.6348
 5775SOL    HW228788   3.460   0.049   8.570  0.2652 -0.9481  0.0075
 5776SOL     OW28789   3.465   1.373   4.455  0.3928  0.2659  0.4400
 5776SOL    HW128790   3.506   1.297   4.414  0.7612  1.1617 -0.8622
 5776SOL    HW228791   3.431   1.420   4.379  0.5882 -2.2210 -1.1903
 5777SOL     OW28792   3.186   3.124   0.077  0.7780  0.3203  0.4230
 5777SOL    HW128793   3.234   3.076   0.145  0.4727 -0.2804  0.2192
 5777SOL    HW228794   3.099   3.130   0.116  0.0322  1.3233 -1.4195
 5778SOL     OW28795   2.562   2.730   3.667  0.6204 -0.5369  0.2732
 5778SOL    HW128796   2.621   2.739   3.592 -0.9293  0.0310 -0.8719
 5778SOL    HW228797   2.505   2.659   3.637 -0.6505  0.0512  1.3081
 5779SOL     OW28798   4.584   2.518  15.327 -0.8931  0.4696  0.2996
 5779SOL    HW128799   4.521   2.588  15.342 -1.1032  0.6236 -1.3699
 5779SOL    HW228800   4.653   2.578  15.298  1.6731 -4.1500 -3.1323
 5780SOL     OW28801   0.794   4.678  16.129 -0.4269  0.4144 -0.2081
 5780SOL    HW128802   0.749   0.006  16.060 -1.9804 -1.6834 -0.7086
 5780SOL    HW228803   0.724   4.616  16.149 -0.9355  1.1809  0.3684
 5781SOL     OW28804   2.122   4.644   7.125 -0.1016  0.0217 -0.2568
 5781SOL    HW128805   2.186   4.574   7.140 -2.3974 -2.1315 -0.6174
 5781SOL    HW228806   2.159   4.698   7.055  0.3338  0.2598  0.1539
 5782SOL     OW28807   1.338   2.973   0.844 -0.4285  0.4430  0.3107
 5782SOL    HW128808   1.268   2.994   0.782 -2.1929 -0.1625  2.1059
 5782SOL    HW228809   1.392   3.052   0.838  1.1234 -0.7785 -1.7123
 5783SOL     OW28810   2.678   4.709   0.272 -0.0842 -0.7797  0.1330
 5783SOL    HW128811   2.631   0.061   0.312  1.9019 -0.9390  2.6863
 5783SOL    HW228812   2.760   4.709   0.321  0.5032 -0.5864 -0.8488
 5784SOL     OW28813   3.399   3.379   7.179  0.2824  0.1108  0.5041
 5784SOL    HW128814   3.334   3.393   7.247 -2.7321 -1.1740 -2.1113
 5784SOL    HW228815   3.366   3.416   7.097 -1.9061 -2.5244  0.1888
 5785SOL     OW28816   4.367   3.790  12.041 -0.0095 -0.0926 -0.0578
 5785SOL    HW128817   4.423   3.866  12.027 -1.0787  0.8834  1.0375
 5785SOL    HW228818   4.436   3.731  12.071 -0.8656 -1.8074 -1.4256
 5786SOL     OW28819   2.607   2.222   6.819  0.2480  0.1782 -0.0518
 5786SOL    HW128820   2.695   2.228   6.781  1.6150  1.1914  3.2499
 5786SOL    HW228821   2.611   2.303   6.869 -0.0159  0.6024 -0.7157
 5787SOL     OW28822   0.381   3.575   3.775  0.3487  0.1109 -0.2217
 5787SOL    HW128823   0.417   3.504   3.828  0.1220  1.2747  1.4743
 5787SOL    HW228824   0.438   3.649   3.799  0.6456  0.8436 -3.2021
 5788SOL     OW28825   0.804   3.238   7.870  0.5867  0.6573 -0.5359
 5788SOL    HW128826   0.827   3.147   7.853 -1.6417  0.2989 -1.6375
 5788SOL    HW228827   0.814   3.286   7.787  1.8714  1.2924 -0.0161
 5789SOL     OW28828   0.687   1.604   1.958 -0.3410 -0.1237 -0.4821
 5789SOL    HW128829   0.678   1.519   1.916  1.2242 -1.5195  2.0153
 5789SOL    HW228830   0.601   1.641   1.936 -1.0073  0.0204  2.4343
 5790SOL     OW28831   1.721   3.403   2.294  0.2747 -0.5890 -0.7546
 5790SOL    HW128832   1.780   3.478   2.304 -0.6525 -0.6866  5.0955
 5790SOL    HW228833   1.792   3.341   2.307 -2.6547 -3.9821 -0.9817
 5791SOL     OW28834   1.279   3.192  12.337  0.3878  0.6023 -0.3203
 5791SOL    HW128835   1.275   3.274  12.288 -2.8115 -1.1258 -2.9743
 5791SOL    HW228836   1.363   3.153  12.312 -0.2335 -2.3548  2.2947
 5792SOL     OW28837   4.689   4.293  12.718 -0.3235  0.3378 -0.8427
 5792SOL    HW128838   4.668   4.333  12.633  1.5025  0.9806 -0.9910
 5792SOL    HW228839   4.630   4.340  12.778  0.6059 -0.2767  0.5413
 5793SOL     OW28840   0.738   0.233   0.299 -0.2177  0.4381  0.5316
 5793SOL    HW128841   0.759   0.232   0.206 -1.2671  0.3547  0.3008
 5793SOL    HW228842   0.811   0.284   0.334 -0.1090  0.4764  0.2507
 5794SOL     OW28843   2.840   2.933   7.628 -0.2009  0.1792 -0.8756
 5794SOL    HW128844   2.829   3.023   7.599  0.1755  1.4062  2.7254
 5794SOL    HW228845   2.913   2.951   7.687 -1.0731 -1.5764  0.7695
 5795SOL     OW28846   3.983   2.534   5.488 -0.0278 -0.1453  0.2768
 5795SOL    HW128847   3.937   2.478   5.551  3.2304 -2.8142  0.3071
 5795SOL    HW228848   3.903   2.572   5.453  1.5822  2.7343 -0.2213
 5796SOL     OW28849   2.336   0.359  15.056 -0.3479  0.4505 -0.0408
 5796SOL    HW128850   2.298   0.318  14.979 -0.1061  2.1264 -1.0654
 5796SOL    HW228851   2.423   0.380  15.024 -0.2389  0.8689  0.5148
 5797SOL     OW28852   1.967   2.291   1.405  0.0039  0.1887 -0.2904
 5797SOL    HW128853   2.043   2.338   1.372  1.0320 -0.7685  0.7142
 5797SOL    HW228854   1.906   2.365   1.417  1.5287  1.4344 -0.2542
 5798SOL     OW28855   0.333   0.504   3.153 -0.0232  0.5123  0.5545
 5798SOL    HW128856   0.398   0.474   3.090  0.3620  1.4157  0.5155
 5798SOL    HW228857   0.358   0.445   3.224 -2.5231  0.6766  1.5752
 5799SOL     OW28858   0.296   2.315  11.446 -0.3430 -0.5717 -0.2411
 5799SOL    HW128859   0.271   2.249  11.381 -0.0238 -0.9111 -0.0211
 5799SOL    HW228860   0.230   2.311  11.515 -0.7337 -1.2131 -0.6481
 5800SOL     OW28861   4.709   0.130   9.250  0.0377 -0.2892  0.0788
 5800SOL    HW128862   4.664   0.199   9.300 -0.4130  0.3552 -1.1974
 5800SOL    HW228863   4.686   0.056   9.306 -0.6451 -0.7655 -0.8270
 5801SOL     OW28864   4.415   2.338   9.119  0.5306 -0.6952  0.0082
 5801SOL    HW128865   4.449   2.392   9.191  1.3977 -1.2556  0.0139
 5801SOL    HW228866   4.490   2.284   9.097  0.8443 -0.8593  1.4786
 5802SOL     OW28867   4.451   1.022   2.374  0.0921  0.3012  0.5207
 5802SOL    HW128868   4.397   0.976   2.310 -0.4204 -2.0581  2.6322
 5802SOL    HW228869   4.544   1.000   2.363  0.5538  2.2495  0.4524
 5803SOL     OW28870   4.698   0.812   6.389 -0.3448 -0.0077  0.5629
 5803SOL    HW128871   0.045   0.818   6.455 -0.5040 -1.8186  0.8873
 5803SOL    HW228872   4.629   0.869   6.425 -1.1525  0.8890 -2.3578
 5804SOL     OW28873   1.654   0.535   4.762 -0.2998  0.4849 -0.1513
 5804SOL    HW128874   1.657   0.629   4.744 -1.2575  0.5643  0.1138
 5804SOL    HW228875   1.677   0.530   4.855 -2.6941  0.2568  0.4262
 5805SOL     OW28876   2.492   2.495  12.446 -0.8311  0.2942 -0.0632
 5805SOL    HW128877   2.400   2.478  12.467 -0.4266  0.5143  1.8131
 5805SOL    HW228878   2.508   2.573  12.499  0.1137 -0.7678  1.1866
 5806SOL     OW28879   2.727   3.740  12.317  0.0172  0.4546 -0.4611
 5806SOL    HW128880   2.785   3.810  12.287 -0.7956  0.0554 -2.9807
 5806SOL    HW228881   2.767   3.671  12.264  0.7394 -0.1331  0.8599
 5807SOL     OW28882   3.689   3.248   2.684  0.1457 -0.1283  0.5192
 5807SOL    HW128883   3.720   3.309   2.751  1.3153  0.1252 -0.2457
 5807SOL    HW228884   3.711   3.286   2.599  1.2135  2.0521  1.7647
 5808SOL     OW28885   2.608   0.163   1.196 -0.2082 -0.1281  0.3886
 5808SOL    HW128886   2.611   0.069   1.214  2.5625  0.3072  2.0944
 5808SOL    HW228887   2.544   0.199   1.257 -0.2186  0.3691  0.0886
 5809SOL     OW28888   1.492   1.950   1.344 -0.5913 -0.5714 -0.2023
 5809SOL    HW128889   1.419   1.980   1.398  0.3800  1.2969  0.0970
 5809SOL    HW228890   1.565   1.973   1.401 -1.0648  0.0979  0.1477
 5810SOL     OW28891   0.255   3.336   5.924 -0.1780 -0.7205 -0.2035
 5810SOL    HW128892   0.339   3.361   5.963  0.0816  0.5810 -1.6172
 5810SOL    HW228893   0.216   3.267   5.978 -0.3842 -0.3828  0.0876
 5811SOL     OW28894   2.482   3.831  15.099  0.2634 -0.7632 -0.0497
 5811SOL    HW128895   2.448   3.831  15.189  1.0429  0.0139  0.2489
 5811SOL    HW228896   2.409   3.784  15.058 -0.7873  1.9637 -1.3241
 5812SOL     OW28897   0.089   4.471   7.692  0.7818  0.1206 -0.1071
 5812SOL    HW128898   4.718   4.452   7.676  0.7445 -1.0463  1.4765
 5812SOL    HW228899   0.109   4.456   7.785  0.2058 -0.8902 -0.1428
 5813SOL     OW28900   4.634   2.263  11.431  0.3263  0.4152 -0.2395
 5813SOL    HW128901   4.624   2.358  11.429  0.3490  0.4221  0.0764
 5813SOL    HW228902   0.002   2.263  11.465 -0.2414  0.1666  1.2429
 5814SOL     OW28903   0.552   0.749   4.390  0.1000 -0.7721 -0.2229
 5814SOL    HW128904   0.501   0.801   4.328  1.0474  1.2381  0.6673
 5814SOL    HW228905   0.625   0.807   4.414 -2.0251  1.0235  1.8939
 5815SOL     OW28906   3.571   2.316   7.414 -0.5362  0.6235  0.9899
 5815SOL    HW128907   3.539   2.317   7.504 -0.5610 -0.8305  1.0007
 5815SOL    HW228908   3.583   2.221   7.407 -0.7337  0.7390 -0.9196
 5816SOL     OW28909   0.548   2.018   8.111  0.1278  0.3725 -0.5897
 5816SOL    HW128910   0.644   2.025   8.118  0.2332 -1.1562 -0.3411
 5816SOL    HW228911   0.529   2.047   8.200 -0.8593  0.5864 -0.8721
 5817SOL     OW28912   1.651   1.281   3.910 -0.4801  0.7072 -0.2910
 5817SOL    HW128913   1.744   1.274   3.929 -0.5499 -1.1152 -0.6277
 5817SOL    HW228914   1.641   1.232   3.829  0.1939 -1.7397  1.1003
 5818SOL     OW28915   0.167   3.632   4.371 -0.4228  0.1828  0.0288
 5818SOL    HW128916   0.230   3.704   4.363 -2.2292  1.8410  0.7979
 5818SOL    HW228917   0.189   3.605   4.460  1.9633  0.4618 -0.4624
 5819SOL     OW28918   2.265   4.028  12.388  0.4543  0.5562 -0.4854
 5819SOL    HW128919   2.273   3.942  12.429 -1.7572  0.1426 -0.9201
 5819SOL    HW228920   2.352   4.066  12.403  1.7066 -2.2787 -0.6452
 5820SOL     OW28921   3.660   3.642   1.778 -0.2472  0.1436 -0.6485
 5820SOL    HW128922   3.604   3.619   1.704 -0.2901  2.9147 -1.4501
 5820SOL    HW228923   3.634   3.573   1.840 -0.7572 -0.0208 -1.0396
 5821SOL     OW28924   4.501   1.128   3.510  0.1805  0.1398  0.7894
 5821SOL    HW128925   4.513   1.132   3.415  1.1701  0.8588  0.9477
 5821SOL    HW228926   4.464   1.041   3.529 -1.1368  0.7142  0.8924
 5822SOL     OW28927   0.079   2.587   7.886  0.0550  0.4713 -0.4625
 5822SOL    HW128928   0.158   2.604   7.937 -0.7186  1.0913  0.5419
 5822SOL    HW228929   0.093   2.650   7.816  1.7166  0.1042 -0.4588
 5823SOL     OW28930   2.399   2.075  16.352  0.1114  0.1581 -0.5876
 5823SOL    HW128931   2.390   2.030  16.268  1.5277 -0.5608 -0.3587
 5823SOL    HW228932   2.349   2.156  16.338  0.8040  0.9124  1.3209
 5824SOL     OW28933   4.389   4.209   0.386 -0.3156 -0.3012 -0.3539
 5824SOL    HW128934   4.481   4.221   0.364  0.3308 -0.6797  2.1103
 5824SOL    HW228935   4.384   4.243   0.475  0.3579  0.4544 -0.5984
 5825SOL     OW28936   0.745   4.464   7.402  0.1545  0.0530 -0.5439
 5825SOL    HW128937   0.685   4.513   7.346  0.1175  0.2960 -0.2935
 5825SOL    HW228938   0.689   4.404   7.452  0.2104 -0.2558 -0.8525
 5826SOL     OW28939   0.368   2.042   4.843  0.4142 -0.0618 -0.2568
 5826SOL    HW128940   0.332   2.000   4.920  1.7440 -3.6032 -1.5615
 5826SOL    HW228941   0.311   2.119   4.839  1.7730  0.9327 -0.4339
 5827SOL     OW28942   3.643   1.009  13.109  0.5542  0.2836  0.4815
 5827SOL    HW128943   3.670   0.962  13.188 -0.2067 -2.9459 -1.1982
 5827SOL    HW228944   3.730   1.028  13.073  0.5680 -1.8343 -0.5738
 5828SOL     OW28945   3.732   2.634   5.408  0.2743 -0.0589  0.4548
 5828SOL    HW128946   3.718   2.723   5.378 -1.9001 -0.2654  0.8409
 5828SOL    HW228947   3.705   2.627   5.500  0.1097  0.8418  0.4699
 5829SOL     OW28948   3.807   0.824   6.159  0.2739  0.8234  0.2637
 5829SOL    HW128949   3.714   0.846   6.164 -0.1662 -0.4606 -2.4725
 5829SOL    HW228950   3.812   0.750   6.220 -0.5833 -0.1336 -0.8390
 5830SOL     OW28951   0.345   1.208  10.751  0.1057 -0.1917 -0.3608
 5830SOL    HW128952   0.382   1.259  10.679  1.0177  1.3379  1.2250
 5830SOL    HW228953   0.292   1.151  10.694  0.4672  0.0514 -0.9364
 5831SOL     OW28954   1.316   0.523  15.651 -0.0485 -0.2234 -0.0782
 5831SOL    HW128955   1.380   0.465  15.693 -1.0207 -1.0797  0.2334
 5831SOL    HW228956   1.258   0.458  15.611  2.0018 -0.5074 -2.6576
 5832SOL     OW28957   2.732   2.442   1.506  0.2996 -0.4177  0.3478
 5832SOL    HW128958   2.776   2.506   1.450  0.7812  1.1536  2.5520
 5832SOL    HW228959   2.800   2.376   1.488 -0.5769 -1.7466  1.9192
 5833SOL     OW28960   3.155   1.620   6.057  0.4258  0.0217 -0.1799
 5833SOL    HW128961   3.213   1.678   6.009  0.6404 -0.2418 -0.2400
 5833SOL    HW228962   3.125   1.555   5.993 -2.7300 -0.3548  1.6352
 5834SOL     OW28963   2.559   2.623  16.763 -0.0656  0.5201 -0.2719
 5834SOL    HW128964   2.525   2.710  16.784 -0.8475  0.2485 -0.4006
 5834SOL    HW228965   2.624   2.602  16.830  0.0690  1.9332  0.0520
 5835SOL     OW28966   4.430   0.394   8.191 -0.0706 -0.3127 -0.2447
 5835SOL    HW128967   4.439   0.421   8.283  0.1899 -0.2597 -0.2861
 5835SOL    HW228968   4.444   0.472   8.137 -1.3342  0.6157  0.7394
 5836SOL     OW28969   0.934   3.908   0.625  0.2007  0.1074 -0.1468
 5836SOL    HW128970   0.951   3.999   0.649 -1.3456  0.3623 -0.0342
 5836SOL    HW228971   0.949   3.918   0.531  3.3172  0.4506  0.3758
 5837SOL     OW28972   0.148   3.443  14.518 -0.5419  0.4279 -0.1398
 5837SOL    HW128973   0.129   3.523  14.468 -0.5619  0.1108 -0.6386
 5837SOL    HW228974   0.110   3.376  14.461  0.1879  0.4890 -0.6918
 5838SOL     OW28975   2.023   1.165   3.088  0.7531 -0.5943  0.4444
 5838SOL    HW128976   2.099   1.130   3.041  0.8292  0.4421 -0.2065
 5838SOL    HW228977   1.992   1.223   3.018  0.1042  2.9536  3.6723
 5839SOL     OW28978   0.495   1.510  14.113  0.1421  0.0477  0.3465
 5839SOL    HW128979   0.433   1.505  14.040  1.4683 -0.6806 -0.7204
 5839SOL    HW228980   0.462   1.437  14.165  2.0512 -1.6786 -0.8740
 5840SOL     OW28981   3.607   3.719   8.598  0.4812  0.0021  0.2769
 5840SOL    HW128982   3.527   3.769   8.615  2.2933  2.3789  1.9772
 5840SOL    HW228983   3.622   3.682   8.685 -1.1655 -0.9305  0.1621
 5841SOL     OW28984   4.127   2.058   8.357  0.4358  0.4585  0.2710
 5841SOL    HW128985   4.161   2.140   8.320 -0.8894  0.5288 -0.7994
 5841SOL    HW228986   4.190   2.035   8.424  0.0582 -1.2982  0.0254
 5842SOL     OW28987   0.201   1.239   4.893  0.3405  0.1344 -0.2063
 5842SOL    HW128988   0.249   1.291   4.958  2.5562  1.1097 -2.6170
 5842SOL    HW228989   0.114   1.267   4.921 -0.3364 -1.0316 -1.1340
 5843SOL     OW28990   4.223   3.997   1.985 -0.1980 -0.3324 -0.6487
 5843SOL    HW128991   4.284   3.937   2.028 -0.2772 -0.1305 -0.2569
 5843SOL    HW228992   4.211   4.072   2.044  0.5566 -1.0292  0.3787
 5844SOL     OW28993   3.449   1.140   6.003  0.5096 -0.0513  0.0833
 5844SOL    HW128994   3.454   1.129   5.908 -1.6880  0.1151 -0.0413
 5844SOL    HW228995   3.524   1.195   6.027 -0.8300  1.1339  1.5255
 5845SOL     OW28996   3.464   0.729  13.356  0.4604  0.3495  0.0053
 5845SOL    HW128997   3.496   0.655  13.407  1.0041  2.0268  2.0893
 5845SOL    HW228998   3.542   0.784  13.348  0.6091  0.4443  2.1297
 5846SOL     OW28999   4.575   3.062   8.495 -0.5781  0.0735 -0.7199
 5846SOL    HW129000   4.582   3.065   8.399 -0.8652  2.6637 -0.6416
 5846SOL    HW229001   4.649   3.119   8.515 -0.4252 -0.4720  0.2424
 5847SOL     OW29002   1.095   3.450   8.068 -0.2775  0.0221 -0.0489
 5847SOL    HW129003   1.154   3.480   7.999  0.0641 -1.0141 -0.2048
 5847SOL    HW229004   1.017   3.504   8.057 -0.3415 -0.0869 -0.1262
 5848SOL     OW29005   0.567   1.858   6.467 -0.3376  0.6443  0.4501
 5848SOL    HW129006   0.611   1.819   6.392 -0.8343  0.5409  0.2095
 5848SOL    HW229007   0.507   1.790   6.496 -0.1791  1.0881  1.8197
 5849SOL     OW29008   2.937   3.525   4.747 -0.1135  0.3167 -0.4360
 5849SOL    HW129009   2.954   3.431   4.759  0.0447  0.2245 -1.4385
 5849SOL    HW229010   2.886   3.516   4.667 -1.5083 -1.4159  0.6407
 5850SOL     OW29011   2.055   3.401   0.702  0.7270  0.4261  0.2283
 5850SOL    HW129012   2.042   3.487   0.661 -0.8075  0.7990  1.4858
 5850SOL    HW229013   2.010   3.341   0.644 -0.0483  1.8953 -0.6958
 5851SOL     OW29014   2.311   0.609  10.061 -0.2608 -0.1909  0.0399
 5851SOL    HW129015   2.341   0.596  10.151 -0.5963  1.2695  0.3649
 5851SOL    HW229016   2.341   0.696  10.038  3.0921 -1.0743  1.1525
 5852SOL     OW29017   1.590   0.416  11.222  0.8686 -0.7474  0.4423
 5852SOL    HW129018   1.555   0.400  11.135 -2.4704 -1.6630  1.9443
 5852SOL    HW229019   1.550   0.500  11.243 -0.6580 -1.0297 -1.4064
 5853SOL     OW29020   4.587   2.439   4.580 -0.4694  0.2311  0.6092
 5853SOL    HW129021   4.569   2.519   4.530  0.1456  1.3341  2.1368
 5853SOL    HW229022   4.653   2.469   4.642  0.9112 -0.1969 -0.6459
 5854SOL     OW29023   0.333   3.494  17.074  0.0910 -0.2186 -0.5185
 5854SOL    HW129024   0.325   3.472  16.981 -0.9176 -0.3461 -0.4031
 5854SOL    HW229025   0.351   3.408  17.112  0.6565 -0.8095 -2.1496
 5855SOL     OW29026   1.759   2.443   2.809  0.1216  0.3744  0.2670
 5855SOL    HW129027   1.776   2.366   2.755 -0.8296 -0.0800  0.6158
 5855SOL    HW229028   1.763   2.514   2.744  0.4028 -0.6038 -0.7846
 5856SOL     OW29029   1.392   4.508   1.930 -0.0324 -0.3594  0.2568
 5856SOL    HW129030   1.304   4.520   1.895  1.0876 -2.0818 -3.1349
 5856SOL    HW229031   1.445   4.549   1.863 -0.2752  1.0833  0.9503
 5857SOL     OW29032   0.012   1.890   4.961 -0.2522 -0.3182  0.0557
 5857SOL    HW129033   4.639   1.892   4.943 -0.8299  0.7439  3.1698
 5857SOL    HW229034   0.039   1.870   4.871  2.5534 -1.2931  1.1137
 5858SOL     OW29035   3.121   1.975   5.451 -0.7253 -0.9705  0.0577
 5858SOL    HW129036   3.168   2.020   5.381 -3.8124  1.2715 -0.6064
 5858SOL    HW229037   3.031   1.994   5.426 -0.7170 -1.6752 -0.4837
 5859SOL     OW29038   4.203   3.516  15.360 -0.0944 -0.5638  0.3298
 5859SOL    HW129039   4.251   3.456  15.418 -0.4709 -1.2525 -0.0764
 5859SOL    HW229040   4.188   3.457  15.287 -0.7157  1.6770 -1.3716
 5860SOL     OW29041   3.409   3.118   3.269  0.2458  0.3178  0.8393
 5860SOL    HW129042   3.394   3.029   3.239  0.6303  0.8164 -0.8426
 5860SOL    HW229043   3.466   3.158   3.202  2.5534 -0.1550  2.5276
 5861SOL     OW29044   1.756   1.259   6.553  0.3654 -0.0738 -0.2448
 5861SOL    HW129045   1.723   1.169   6.545  0.5093 -0.1928  0.5344
 5861SOL    HW229046   1.719   1.274   6.640 -0.0541 -4.1655  0.2937
 5862SOL     OW29047   0.683   0.459   3.910  0.4356  0.0445 -0.0803
 5862SOL    HW129048   0.609   0.436   3.966 -0.0591 -0.0910 -0.7819
 5862SOL    HW229049   0.738   0.495   3.979 -0.8074  2.1641 -0.2192
 5863SOL     OW29050   3.208   3.972   4.980 -0.2415  0.0505  0.2228
 5863SOL    HW129051   3.171   3.884   4.973  1.5357 -0.6042 -0.9608
 5863SOL    HW229052   3.202   3.982   5.075 -0.7629 -0.2652  0.2201
 5864SOL     OW29053   3.504   1.878   2.313  0.0653  0.0520  0.1567
 5864SOL    HW129054   3.463   1.801   2.273 -0.0035  0.3346 -0.3076
 5864SOL    HW229055   3.422   1.921   2.336 -0.2184 -1.4509  1.9696
 5865SOL     OW29056   1.827   1.747  15.366 -0.5457  0.0694  0.1738
 5865SOL    HW129057   1.743   1.731  15.325 -0.7115  2.4368 -0.3900
 5865SOL    HW229058   1.879   1.732  15.287  0.5599 -0.6727  1.0446
 5866SOL     OW29059   3.239   1.997   2.285  0.8156  0.4521  0.6244
 5866SOL    HW129060   3.202   1.995   2.197  0.9929  1.1707  0.5292
 5866SOL    HW229061   3.181   1.937   2.330 -1.1864  0.6579 -1.6892
 5867SOL     OW29062   0.419   2.122  16.990  0.0560 -0.5133 -0.5537
 5867SOL    HW129063   0.337   2.074  16.996 -0.3728  0.4569  1.3931
 5867SOL    HW229064   0.412   2.168  16.907 -0.4781 -0.4242 -0.4572
 5868SOL     OW29065   1.313   1.611   7.542  0.3436 -0.4731 -0.1611
 5868SOL    HW129066   1.299   1.628   7.635  1.0903  0.1592 -0.1694
 5868SOL    HW229067   1.285   1.521   7.522 -1.8360  0.2073 -0.2343
 5869SOL     OW29068   0.892   0.382   5.041 -0.0659 -0.1525 -0.0371
 5869SOL    HW129069   0.946   0.417   4.970  0.7595  0.9045  1.1050
 5869SOL    HW229070   0.954   0.385   5.113 -0.2355 -3.8358  0.2572
 5870SOL     OW29071   2.318   3.962   8.234  0.3552 -0.2234 -0.3061
 5870SOL    HW129072   2.400   3.993   8.197  1.2439 -0.8896  1.0885
 5870SOL    HW229073   2.279   4.048   8.251  0.9200 -0.0040 -0.1138
 5871SOL     OW29074   4.575   0.006   1.793  0.0215  0.2738  0.0702
 5871SOL    HW129075   4.575   0.044   1.705  1.6754  0.6325  0.2245
 5871SOL    HW229076   4.638   4.661   1.766 -0.9069 -0.3908 -0.4657
 5872SOL     OW29077   1.515   3.955   3.827 -0.6152  0.3226  0.0905
 5872SOL    HW129078   1.458   4.030   3.809 -0.1272  0.4975 -0.7197
 5872SOL    HW229079   1.503   3.951   3.921  0.6532 -1.0342  0.1742
 5873SOL     OW29080   0.770   2.580   6.290 -0.6553  0.3857  0.5869
 5873SOL    HW129081   0.804   2.490   6.292  1.3043  1.1121  0.4803
 5873SOL    HW229082   0.844   2.615   6.340 -1.2796  2.3180  0.1478
 5874SOL     OW29083   1.334   3.896  16.701  0.2781 -0.3452 -0.1685
 5874SOL    HW129084   1.376   3.936  16.777  0.8851  0.3438 -0.8686
 5874SOL    HW229085   1.392   3.907  16.626 -1.3333 -0.3915 -1.4182
 5875SOL     OW29086   4.272   2.140   9.449 -0.0347 -0.1472  0.3121
 5875SOL    HW129087   4.267   2.170   9.359  2.0676 -1.7164 -0.3427
 5875SOL    HW229088   4.247   2.219   9.497  1.0873  1.4378 -1.7499
 5876SOL     OW29089   2.868   2.263   3.975  0.0140 -0.0180 -0.4373
 5876SOL    HW129090   2.774   2.274   3.987  0.2137  0.6773  0.5197
 5876SOL    HW229091   2.888   2.356   3.970 -1.1213  0.3391  1.7611
 5877SOL     OW29092   3.650   2.236   3.929  0.4206  0.1497 -0.9169
 5877SOL    HW129093   3.627   2.317   3.884 -0.9331  0.4008  0.2173
 5877SOL    HW229094   3.715   2.268   3.992 -0.3750  0.0965 -0.0723
 5878SOL     OW29095   3.792   2.197   9.269  0.4465  0.5747 -0.5359
 5878SOL    HW129096   3.714   2.187   9.215 -0.1753 -1.1551  0.6790
 5878SOL    HW229097   3.830   2.109   9.275 -0.4115  0.3212  1.3411
 5879SOL     OW29098   0.232   4.283   5.012 -0.4199 -0.7748 -0.1550
 5879SOL    HW129099   0.199   4.284   4.923 -0.2063  1.9339 -0.2039
 5879SOL    HW229100   0.326   4.292   4.998 -0.8710  0.7331 -2.1412
 5880SOL     OW29101   2.231   1.389   7.867 -0.1605  0.1915  0.5041
 5880SOL    HW129102   2.242   1.315   7.808  2.0358  0.0312  1.1136
 5880SOL    HW229103   2.315   1.434   7.875 -0.1618  0.2747  0.0122
 5881SOL     OW29104   3.115   1.153   7.728 -0.0838  0.2028 -0.0338
 5881SOL    HW129105   3.154   1.098   7.796 -1.1280  0.2917  0.6424
 5881SOL    HW229106   3.066   1.218   7.778 -1.2188 -1.9708  1.6792
 5882SOL     OW29107   2.050   0.758  15.968 -0.0399  0.0786 -0.3480
 5882SOL    HW129108   2.086   0.788  16.052  0.5499  0.6941 -0.8140
 5882SOL    HW229109   1.955   0.761  15.974 -0.0492  0.0918 -0.4976
 5883SOL     OW29110   0.208   1.827  14.044 -0.5767 -0.1801 -0.2593
 5883SOL    HW129111   0.301   1.808  14.055 -0.2965  0.2033 -1.9493
 5883SOL    HW229112   0.183   1.774  13.969  0.9627 -0.5370 -0.5078
 5884SOL     OW29113   1.969   2.081  15.034 -0.1262 -0.2261 -0.0252
 5884SOL    HW129114   1.875   2.063  15.027 -0.4424  0.0366  3.9489
 5884SOL    HW229115   1.985   2.097  14.941  0.9522  0.9052  0.3607
 5885SOL     OW29116   1.707   1.448   9.069 -0.7487 -0.0850  0.1522
 5885SOL    HW129117   1.787   1.483   9.030 -0.1580 -0.9400  0.5761
 5885SOL    HW229118   1.645   1.457   8.997 -2.6701 -1.1309  1.6632
 5886SOL     OW29119   2.538   0.422  11.053 -0.1104 -0.2615  0.3035
 5886SOL    HW129120   2.527   0.375  11.135 -2.6407 -1.8285 -0.9616
 5886SOL    HW229121   2.556   0.353  10.990  0.8798 -0.5498  0.8971
 5887SOL     OW29122   4.090   2.231   0.151  0.1556  0.4124  0.2167
 5887SOL    HW129123   4.051   2.317   0.137  0.1008  0.2644 -0.5387
 5887SOL    HW229124   4.101   2.222   0.245 -0.9907  0.4650  0.3566
 5888SOL     OW29125   3.056   4.235  17.522  0.0248 -0.9797 -0.2914
 5888SOL    HW129126   3.000   4.312  17.533  0.6878 -0.7973  1.7582
 5888SOL    HW229127   3.037   4.219  17.430  0.1005 -2.0265 -0.1145
 5889SOL     OW29128   1.405   4.628   9.869 -0.3636  0.5951 -0.5630
 5889SOL    HW129129   1.458   4.580   9.933  0.1384  2.0114  0.0790
 5889SOL    HW229130   1.354   4.553   9.838  0.5089 -0.0768 -0.3931
 5890SOL     OW29131   1.422   1.614  13.367  0.1622  0.2867  0.1792
 5890SOL    HW129132   1.378   1.690  13.329  2.3425  1.5594  0.1750
 5890SOL    HW229133   1.436   1.637  13.458  1.2869  0.4582 -0.0318
 5891SOL     OW29134   4.261   1.121   7.226  0.3270 -0.5325 -0.4740
 5891SOL    HW129135   4.318   1.051   7.257  2.4262  0.7096 -1.5851
 5891SOL    HW229136   4.313   1.196   7.252 -0.2704  0.0451 -0.9472
 5892SOL     OW29137   2.711   2.793   2.406 -0.4060  0.1972 -0.4367
 5892SOL    HW129138   2.735   2.884   2.425 -2.0478  1.0345 -2.4869
 5892SOL    HW229139   2.623   2.776   2.438 -0.8871  1.3990 -1.1412
 5893SOL     OW29140   2.709   4.631   6.862  0.2409  0.2437 -0.2929
 5893SOL    HW129141   2.741   4.686   6.934  1.5767  0.0783 -0.7673
 5893SOL    HW229142   2.740   4.545   6.891  0.7257  0.5257  0.0221
 5894SOL     OW29143   0.270   1.786   7.059 -0.1654  0.5714  0.1048
 5894SOL    HW129144   0.183   1.825   7.067 -1.2599 -2.2215  1.7611
 5894SOL    HW229145   0.299   1.854   6.998 -0.8907  0.1463 -0.7122
 5895SOL     OW29146   2.405   1.609   3.473 -0.0449  0.4902  0.3463
 5895SOL    HW129147   2.434   1.698   3.457 -2.7923  1.3006 -0.2165
 5895SOL    HW229148   2.331   1.625   3.532  1.2478 -0.6378  2.2588
 5896SOL     OW29149   1.692   3.873   8.131 -0.2192 -0.0604 -0.5806
 5896SOL    HW129150   1.605   3.852   8.097 -1.1454 -0.7802  2.2491
 5896SOL    HW229151   1.718   3.955   8.090 -0.7021  1.4248  2.1059
 5897SOL     OW29152   4.401   0.739   8.827  0.2460 -0.3050  0.1140
 5897SOL    HW129153   4.391   0.644   8.813 -0.3856 -0.2795  0.3755
 5897SOL    HW229154   4.361   0.768   8.745 -1.2469  0.9726  1.2829
 5898SOL     OW29155   2.516   2.769   5.334 -0.1219 -0.3527  0.2723
 5898SOL    HW129156   2.545   2.824   5.407  1.3380 -0.1747 -0.4390
 5898SOL    HW229157   2.421   2.775   5.347 -0.2785 -2.0013 -0.1297
 5899SOL     OW29158   3.761   3.532   2.268 -0.5152  0.0065 -0.0669
 5899SOL    HW129159   3.688   3.559   2.213 -1.9181 -1.3544  1.1246
 5899SOL    HW229160   3.831   3.523   2.203 -0.2090  1.0333  0.1125
 5900SOL     OW29161   4.020   1.262   3.723  0.2234  0.1617 -0.0250
 5900SOL    HW129162   3.928   1.248   3.744  0.7521 -2.6081  0.3917
 5900SOL    HW229163   4.055   1.182   3.762  0.0885  0.0883 -0.0563
 5901SOL     OW29164   1.154   2.368  15.929 -0.4740 -0.0394  0.6920
 5901SOL    HW129165   1.231   2.359  15.872  0.4397 -1.7729  2.1937
 5901SOL    HW229166   1.105   2.437  15.885 -3.1883 -2.0769  0.4544
 5902SOL     OW29167   4.465   0.074   0.583  0.2058  0.1983  0.1283
 5902SOL    HW129168   4.436   0.157   0.545  1.3653  0.1681 -0.8171
 5902SOL    HW229169   4.411   0.006   0.544  0.0774 -0.4496  1.4294
 5903SOL     OW29170   0.368   3.713   6.990 -0.4959  0.7209 -0.3304
 5903SOL    HW129171   0.360   3.733   7.083 -0.7225 -0.0651 -0.1818
 5903SOL    HW229172   0.427   3.782   6.958  0.2476  0.2942  0.1278
 5904SOL     OW29173   1.474   3.340   5.658  0.1624  0.2749  0.5575
 5904SOL    HW129174   1.398   3.285   5.673 -0.9159  2.0218  1.4604
 5904SOL    HW229175   1.529   3.279   5.609  0.5037  1.0682 -0.0526
 5905SOL     OW29176   1.001   4.486  17.138  0.9248  0.1096  0.1310
 5905SOL    HW129177   1.095   4.467  17.137  0.8483 -0.2875  1.0303
 5905SOL    HW229178   0.975   4.397  17.117  2.3097  0.1197 -1.6778
 5906SOL     OW29179   1.999   3.182   1.896  0.0870 -0.0586 -0.2866
 5906SOL    HW129180   1.956   3.268   1.906  1.2087  0.7691 -2.6135
 5906SOL    HW229181   1.958   3.138   1.971  1.1313 -1.2614 -0.4240
 5907SOL     OW29182   2.728   1.930   2.777 -0.5421  0.0802 -0.0329
 5907SOL    HW129183   2.794   1.917   2.709 -0.2912  0.9247  0.0453
 5907SOL    HW229184   2.721   2.025   2.790 -2.1628  0.1716 -1.6367
 5908SOL     OW29185   4.559   0.476  15.415  0.3107  0.0285 -0.1812
 5908SOL    HW129186   4.596   0.453  15.501 -1.9780  1.1998  1.1298
 5908SOL    HW229187   4.473   0.434  15.419  1.2748 -1.8870  0.4957
 5909SOL     OW29188   0.421   0.998   3.949  0.0269  0.5051 -0.4559
 5909SOL    HW129189   0.434   1.086   3.914  0.0800  0.5571 -0.3017
 5909SOL    HW229190   0.394   0.959   3.866 -0.7300 -1.9852  0.9682
 5910SOL     OW29191   0.573   2.644   3.871  0.8541  0.1825 -0.1199
 5910SOL    HW129192   0.493   2.655   3.922 -0.5458 -1.6488 -1.9623
 5910SOL    HW229193   0.633   2.596   3.929  1.5677 -1.3675 -2.1866
 5911SOL     OW29194   1.879   3.784   9.611  0.3967  0.6117  0.5160
 5911SOL    HW129195   1.913   3.862   9.654 -1.2761  1.7730 -0.2808
 5911SOL    HW229196   1.853   3.834   9.533  0.8602  1.7646  1.1088
 5912SOL     OW29197   3.328   3.207   9.288 -0.1951 -0.5220 -0.5710
 5912SOL    HW129198   3.376   3.183   9.367 -0.4821  2.9523  0.6518
 5912SOL    HW229199   3.260   3.259   9.330 -2.0192 -2.8009 -0.7284
 5913SOL     OW29200   2.077   1.658   8.246  0.1152  0.3207 -0.4025
 5913SOL    HW129201   2.144   1.619   8.190 -0.2767  1.2282 -1.5002
 5913SOL    HW229202   2.025   1.720   8.194  0.3624 -0.1109 -1.1749
 5914SOL     OW29203   3.277   4.253  12.367  0.0889  0.0865 -0.5320
 5914SOL    HW129204   3.353   4.230  12.314  0.6203 -1.1037  0.7622
 5914SOL    HW229205   3.286   4.346  12.349 -1.0563 -0.1386 -2.2519
 5915SOL     OW29206   0.064   0.636   3.012  0.5520 -0.7443 -0.3767
 5915SOL    HW129207   4.709   0.583   2.990 -0.9990  1.1960  0.4145
 5915SOL    HW229208   0.103   0.575   3.075 -1.7633 -1.9189 -0.0875
 5916SOL     OW29209   1.383   2.925   4.293 -0.1690 -0.0106 -0.4757
 5916SOL    HW129210   1.458   2.875   4.261 -0.2706 -0.5368  0.0962
 5916SOL    HW229211   1.319   2.875   4.242 -1.4175  0.8571  0.2565
 5917SOL     OW29212   2.110   4.618   6.323  0.0304  0.7925 -0.4621
 5917SOL    HW129213   2.152   4.553   6.380 -0.7621  3.0553  2.6762
 5917SOL    HW229214   2.168   4.611   6.247  0.0444  0.8537 -0.4571
 5918SOL     OW29215   3.969   2.916  16.962  0.0563 -0.0163 -0.1340
 5918SOL    HW129216   3.928   2.992  16.921 -0.0149 -0.7972 -1.5064
 5918SOL    HW229217   3.908   2.858  16.916  0.5980 -1.0469  0.4643
 5919SOL     OW29218   1.527   0.601  12.674  0.1653 -0.1290 -0.0083
 5919SOL    HW129219   1.614   0.561  12.675  0.5638  0.7551  1.1310
 5919SOL    HW229220   1.515   0.577  12.766 -1.4972  1.1063  0.1030
 5920SOL     OW29221   2.486   3.058  17.384 -0.6025  0.3454  0.0586
 5920SOL    HW129222   2.539   3.132  17.354  1.3752  0.0712  2.8218
 5920SOL    HW229223   2.547   3.009  17.440  0.7820  1.7295 -0.2584
 5921SOL     OW29224   4.483   2.851  10.528  0.3599 -0.1696  0.3744
 5921SOL    HW129225   4.422   2.805  10.470 -0.2752 -1.8038  2.3426
 5921SOL    HW229226   4.527   2.781  10.577  1.5451  0.0184 -0.4435
 5922SOL     OW29227   1.314   4.219   5.205  0.0442  0.0973 -0.0209
 5922SOL    HW129228   1.355   4.141   5.241  1.8556  1.7113  1.4536
 5922SOL    HW229229   1.230   4.218   5.251 -0.4449  0.1446 -0.9089
 5923SOL     OW29230   2.883   3.230   2.371  0.2757 -0.0499 -0.7887
 5923SOL    HW129231   2.789   3.219   2.387  0.1981  3.2631  1.0834
 5923SOL    HW229232   2.886   3.321   2.403 -1.2923 -0.8579  1.7012
 5924SOL     OW29233   2.740   2.725  12.926  0.0972  0.2626 -0.5495
 5924SOL    HW129234   2.823   2.687  12.956  0.4605  0.8626 -0.7809
 5924SOL    HW229235   2.682   2.691  12.994  0.0004  2.0313  0.2535
 5925SOL     OW29236   0.360   4.196   5.861 -0.2589  0.3399 -0.2233
 5925SOL    HW129237   0.355   4.273   5.918 -1.8510 -1.4458  2.0658
 5925SOL    HW229238   0.299   4.208   5.788 -2.3269  0.3607  1.5235
 5926SOL     OW29239   2.748   4.357   1.535 -0.3463 -0.1068  0.2809
 5926SOL    HW129240   2.771   4.449   1.518  0.3057 -0.0086  1.7153
 5926SOL    HW229241   2.838   4.324   1.539 -0.1207  0.3616 -0.8165
 5927SOL     OW29242   1.009   2.219   0.453 -0.1399  0.3034 -0.1473
 5927SOL    HW129243   0.996   2.152   0.521  1.4965 -0.2063 -0.3385
 5927SOL    HW229244   0.919   2.227   0.420 -0.1849 -1.5500 -0.4725
 5928SOL     OW29245   1.986   2.999   1.681 -0.7915 -0.4453 -0.0569
 5928SOL    HW129246   1.991   3.072   1.744  1.4389 -0.9668  0.3721
 5928SOL    HW229247   2.061   2.944   1.703 -0.6397  0.0383  0.6710
 5929SOL     OW29248   2.211   0.210  14.845 -0.1413  0.3636  0.1704
 5929SOL    HW129249   2.189   0.218  14.752  0.2099  1.3024  0.1667
 5929SOL    HW229250   2.192   0.117  14.856  0.7197  0.5271  2.9138
 5930SOL     OW29251   4.302   1.919   9.592  0.3142  0.2601 -0.1577
 5930SOL    HW129252   4.350   1.944   9.671  1.3946 -0.4850 -0.5768
 5930SOL    HW229253   4.302   1.993   9.532  0.1641  1.3351  1.1727
 5931SOL     OW29254   2.906   4.501  13.663 -0.0881 -0.0939 -0.2108
 5931SOL    HW129255   2.916   4.459  13.749  2.8839 -0.4060 -0.7181
 5931SOL    HW229256   2.987   4.481  13.617 -0.4829 -1.6220 -0.2433
 5932SOL     OW29257   2.805   3.990  13.137 -0.0949  0.2647 -0.3569
 5932SOL    HW129258   2.806   4.051  13.211 -0.5349 -2.1129  1.6402
 5932SOL    HW229259   2.746   4.037  13.078 -1.0191  0.4541  0.7219
 5933SOL     OW29260   2.570   1.348   4.817 -0.8038 -0.0763 -0.1398
 5933SOL    HW129261   2.651   1.388   4.785 -0.2128 -0.3744  0.9865
 5933SOL    HW229262   2.587   1.353   4.911 -3.3594  0.8340  0.2456
 5934SOL     OW29263   2.828   0.012   6.209 -0.3628  0.0386  0.2436
 5934SOL    HW129264   2.859   4.697   6.292  1.6690  2.9652  0.7864
 5934SOL    HW229265   2.734   4.719   6.218 -0.3011 -0.9902 -0.7253
 5935SOL     OW29266   3.075   1.612   5.691 -0.2310  0.6450  0.4096
 5935SOL    HW129267   3.066   1.612   5.596 -1.0457 -0.3685  0.4904
 5935SOL    HW229268   3.079   1.520   5.715  1.0230  0.7328  0.5501
 5936SOL     OW29269   1.879   0.410   5.289  0.2011  0.1975  0.1426
 5936SOL    HW129270   1.896   0.359   5.368  1.0775 -3.0244 -2.1105
 5936SOL    HW229271   1.853   0.494   5.327  1.5535  1.3313 -1.4491
 5937SOL     OW29272   0.317   3.067   4.806  0.5517 -0.4231  0.1316
 5937SOL    HW129273   0.224   3.051   4.793  0.2268  2.1939 -0.8138
 5937SOL    HW229274   0.316   3.036   4.896 -2.8204 -0.6312  0.0051
 5938SOL     OW29275   4.290   2.038  11.927 -0.3103 -0.6334  0.0257
 5938SOL    HW129276   4.384   2.050  11.919 -0.7682  2.5802 -0.5843
 5938SOL    HW229277   4.278   1.948  11.895  1.3591 -1.0186  0.4863
 5939SOL     OW29278   4.075   2.223   5.462 -0.2603 -0.0753  0.2861
 5939SOL    HW129279   4.090   2.316   5.441  0.5338 -0.6904 -1.8422
 5939SOL    HW229280   4.107   2.212   5.552 -0.6278  0.4081  0.4771
 5940SOL     OW29281   1.727   2.352   6.946  0.3965 -0.4234 -0.1326
 5940SOL    HW129282   1.776   2.372   7.025 -1.3501 -0.1584  0.8673
 5940SOL    HW229283   1.754   2.426   6.891  2.5570 -1.2554 -0.2130
 5941SOL     OW29284   1.469   3.404   4.827 -0.1598  0.3658 -0.2521
 5941SOL    HW129285   1.512   3.365   4.903 -0.0829 -1.1038 -1.0419
 5941SOL    HW229286   1.531   3.377   4.760  0.3838  1.6067 -0.2404
 5942SOL     OW29287   1.493   0.228   6.694  0.1199 -0.0877  0.2227
 5942SOL    HW129288   1.486   0.276   6.776  2.3419  1.8778 -0.7504
 5942SOL    HW229289   1.403   0.198   6.682  0.2180  0.5238 -2.0330
 5943SOL     OW29290   2.342   0.565   3.110  0.1015 -0.2325 -0.6319
 5943SOL    HW129291   2.360   0.601   3.023 -0.7311  0.8572 -0.3614
 5943SOL    HW229292   2.312   0.476   3.092  0.4053 -0.5858  0.5985
 5944SOL     OW29293   3.652   2.520  13.709 -0.5645 -0.2801  0.6620
 5944SOL    HW129294   3.700   2.600  13.729  1.3867 -1.4898  0.7745
 5944SOL    HW229295   3.586   2.522  13.779 -1.0078 -0.5556  0.2563
 5945SOL     OW29296   2.368   4.711   4.111  0.4062  0.1109 -0.0532
 5945SOL    HW129297   2.301   4.690   4.046  1.8545  1.3491 -1.9479
 5945SOL    HW229298   2.424   4.634   4.111 -2.2270 -1.7859 -2.6900
 5946SOL     OW29299   2.653   3.804   2.713  0.1594  0.4889 -0.7582
 5946SOL    HW129300   2.679   3.763   2.631 -1.9607  0.4035 -1.3843
 5946SOL    HW229301   2.557   3.799   2.707  0.1417 -0.4032  0.1633
 5947SOL     OW29302   0.803   3.225  14.431 -0.0341 -0.2005 -0.3917
 5947SOL    HW129303   0.826   3.138  14.399  1.0638 -0.9552  2.4870
 5947SOL    HW229304   0.710   3.230  14.411 -0.1360  0.5290  0.2742
 5948SOL     OW29305   0.338   2.878  11.719  0.2838 -0.1984  0.5677
 5948SOL    HW129306   0.397   2.858  11.792 -1.7727  2.0730  2.8558
 5948SOL    HW229307   0.308   2.791  11.693  0.9898 -0.0166 -0.8317
 5949SOL     OW29308   2.157   3.419   3.964  0.0656  0.3391 -0.5710
 5949SOL    HW129309   2.205   3.413   3.882  0.9244 -1.0035  0.0331
 5949SOL    HW229310   2.068   3.428   3.928  1.0788  1.1330 -2.8637
 5950SOL     OW29311   2.668   1.926   7.219 -0.6106  0.1019 -0.0014
 5950SOL    HW129312   2.625   1.850   7.258 -0.5838 -0.6232 -1.3687
 5950SOL    HW229313   2.701   1.967   7.299 -1.9375 -0.5012  0.8612
 5951SOL     OW29314   1.093   3.822   4.648 -0.4466  0.1865  0.4666
 5951SOL    HW129315   1.058   3.780   4.570  0.9372 -0.9610  0.4656
 5951SOL    HW229316   1.151   3.754   4.681  1.7646  2.6588  1.7102
 5952SOL     OW29317   2.245   2.083   6.719 -0.1013  0.5814  0.2678
 5952SOL    HW129318   2.317   2.037   6.763 -1.3704  0.7596  2.5297
 5952SOL    HW229319   2.174   2.023   6.740  0.7457 -0.1458  1.0994
 5953SOL     OW29320   2.510   3.441   9.883 -0.1035 -0.2773  0.4955
 5953SOL    HW129321   2.429   3.390   9.880 -0.0408 -0.4792  2.1461
 5953SOL    HW229322   2.547   3.429   9.796 -1.7140  0.2450 -0.2542
 5954SOL     OW29323   2.862   3.177   0.718 -0.6504 -0.9701 -0.2135
 5954SOL    HW129324   2.879   3.084   0.729  2.0376 -0.7164 -1.9858
 5954SOL    HW229325   2.867   3.185   0.622  0.7446 -0.8593 -0.1346
 5955SOL     OW29326   4.501   3.157   6.932 -0.1539  0.0693 -0.0144
 5955SOL    HW129327   4.413   3.124   6.950  0.2868 -0.1169  1.8002
 5955SOL    HW229328   4.555   3.110   6.996 -1.9100 -1.6028  0.2262
 5956SOL     OW29329   4.709   2.818   5.727 -0.1048 -0.2055 -0.5507
 5956SOL    HW129330   4.719   2.750   5.661 -0.4179  0.0575 -0.8705
 5956SOL    HW229331   4.657   2.767   5.790  2.1282  0.0893  1.5279
 5957SOL     OW29332   1.318   0.560  16.508 -0.3631 -0.0494 -0.8059
 5957SOL    HW129333   1.248   0.604  16.557 -0.1881  0.3362 -0.9035
 5957SOL    HW229334   1.291   0.571  16.416 -0.0318  0.0018 -0.8955
 5958SOL     OW29335   2.974   2.985   0.478  0.4324 -0.2774 -1.1528
 5958SOL    HW129336   2.993   3.077   0.465 -0.1699 -0.0618 -0.5173
 5958SOL    HW229337   3.059   2.949   0.455  0.3979 -1.5075  0.6193
 5959SOL     OW29338   2.001   3.366   1.303  0.3682 -0.2537 -0.1874
 5959SOL    HW129339   1.917   3.389   1.263  0.0418 -1.4067 -0.1667
 5959SOL    HW229340   2.041   3.367   1.216  0.6762  0.7609 -0.0426
 5960SOL     OW29341   3.922   0.527   5.777  0.7153 -0.4164  0.1685
 5960SOL    HW129342   3.912   0.566   5.864  1.8593  0.0568  0.0886
 5960SOL    HW229343   3.890   0.438   5.792  2.5905 -0.9922  0.7706
 5961SOL     OW29344   4.368   1.335  17.185 -0.0444 -0.4279  0.5611
 5961SOL    HW129345   4.360   1.429  17.165  2.0870 -0.5005 -0.6410
 5961SOL    HW229346   4.278   1.313  17.165  1.1938 -2.4965 -2.6680
 5962SOL     OW29347   0.875   3.337  13.183 -0.4269 -0.6891  0.2728
 5962SOL    HW129348   0.842   3.352  13.094 -1.9830 -0.1042  0.9503
 5962SOL    HW229349   0.968   3.315  13.178 -0.1310 -0.1340  3.2829
 5963SOL     OW29350   0.039   2.514   9.072 -0.1430  0.6293  0.6889
 5963SOL    HW129351   0.124   2.521   9.029 -0.5525 -0.3947 -0.2794
 5963SOL    HW229352   0.063   2.530   9.163  0.8947 -0.0152  0.5291
 5964SOL     OW29353   3.150   2.425   5.796  0.5945  0.1332  0.4177
 5964SOL    HW129354   3.150   2.339   5.753  0.1812 -0.7711  2.2454
 5964SOL    HW229355   3.072   2.425   5.852  0.1524 -1.0500 -0.1861
 5965SOL     OW29356   3.982   0.763  10.240 -0.1121  0.4930 -0.3783
 5965SOL    HW129357   4.065   0.769  10.288 -0.0397  1.8960 -0.7076
 5965SOL    HW229358   3.944   0.694  10.294 -1.0550  0.6875 -0.7883
 5966SOL     OW29359   3.935   1.964   9.275 -0.8288 -0.8549  0.2711
 5966SOL    HW129360   3.964   1.914   9.351  0.6124  1.2108  1.0754
 5966SOL    HW229361   4.001   1.957   9.206  1.5498 -1.9020  2.6822
 5967SOL     OW29362   1.192   3.622  10.705  0.4284  0.1304  0.6122
 5967SOL    HW129363   1.262   3.654  10.649  0.0192 -0.9231 -0.5003
 5967SOL    HW229364   1.136   3.698  10.717  0.2187 -0.6290  4.6190
 5968SOL     OW29365   3.392   3.775   4.257 -0.6714  0.3790 -0.0546
 5968SOL    HW129366   3.474   3.726   4.258 -0.0152  1.3744 -2.9534
 5968SOL    HW229367   3.327   3.705   4.248 -0.1934 -0.2375  1.2897
 5969SOL     OW29368   0.276   0.474  13.424 -0.0315  0.1918  0.0949
 5969SOL    HW129369   0.301   0.487  13.515 -0.2424 -1.9413  0.4531
 5969SOL    HW229370   0.333   0.537  13.381 -0.8013  0.3927 -0.6443
 5970SOL     OW29371   4.086   0.969   5.812 -0.1035  0.0933  0.2375
 5970SOL    HW129372   4.130   0.969   5.727 -0.6929 -0.9739 -0.0719
 5970SOL    HW229373   4.029   1.045   5.800 -0.4775 -0.0760  0.9506
 5971SOL     OW29374   2.881   2.544   8.456  0.0629 -0.2246  0.1752
 5971SOL    HW129375   2.861   2.459   8.418  1.7739 -0.8634  0.7304
 5971SOL    HW229376   2.817   2.531   8.525 -0.2628 -0.8906 -0.2504
 5972SOL     OW29377   1.411   1.552  17.463  0.7488 -0.5210 -0.3471
 5972SOL    HW129378   1.317   1.540  17.470  0.8471  0.0024  1.8488
 5972SOL    HW229379   1.422   1.594  17.377 -1.8058 -0.8504 -0.8224
 5973SOL     OW29380   1.838   4.700   2.172  0.3589  0.5509 -0.4768
 5973SOL    HW129381   1.750   4.678   2.143 -0.2599  0.7388  1.2621
 5973SOL    HW229382   1.856   0.061   2.127  0.2183  0.8393 -0.0067
 5974SOL     OW29383   3.293   1.430   2.810  0.3441 -0.1159 -0.4307
 5974SOL    HW129384   3.202   1.432   2.780  0.0995 -1.3101  0.2362
 5974SOL    HW229385   3.302   1.509   2.864 -1.2305 -0.0820 -0.2126
 5975SOL     OW29386   3.783   2.470   6.577 -0.2648  0.0373  0.1943
 5975SOL    HW129387   3.763   2.540   6.639  2.5672  0.6877  0.3780
 5975SOL    HW229388   3.723   2.402   6.606  0.8832 -1.5856 -1.2205
 5976SOL     OW29389   0.562   2.565   6.492  0.6047 -0.2932 -0.0002
 5976SOL    HW129390   0.486   2.604   6.448  2.0037  2.4908  0.0598
 5976SOL    HW229391   0.627   2.551   6.424 -0.6498  1.3226 -1.5454
 5977SOL     OW29392   1.835   1.695   0.106  0.4411 -0.0386  1.1072
 5977SOL    HW129393   1.843   1.719   0.198 -0.8537  1.7690  0.7367
 5977SOL    HW229394   1.903   1.750   0.067  0.5642 -0.1771  1.1243
 5978SOL     OW29395   0.233   3.857   7.236  0.2970 -0.1840  0.4359
 5978SOL    HW129396   0.234   3.764   7.257  3.4669 -0.1358  0.5095
 5978SOL    HW229397   0.199   3.888   7.320 -1.5237 -2.2066  0.4107
 5979SOL     OW29398   1.413   2.948  17.447  0.0165 -0.0264  0.6226
 5979SOL    HW129399   1.394   3.002  17.524  0.8686  0.5432  0.4395
 5979SOL    HW229400   1.336   2.938  17.392  0.4415 -0.9242  0.1952
 5980SOL     OW29401   3.176   1.408   4.443 -0.0891 -0.0633  0.1275
 5980SOL    HW129402   3.264   1.405   4.481 -0.7325  0.0196  1.6119
 5980SOL    HW229403   3.189   1.368   4.357 -0.3844 -0.9011  0.4765
 5981SOL     OW29404   2.623   4.538  10.528 -0.0144  0.1671 -0.3901
 5981SOL    HW129405   2.672   4.465  10.566 -0.9016  0.0802  0.6118
 5981SOL    HW229406   2.628   4.520  10.435 -0.4059 -0.1403 -0.3523
 5982SOL     OW29407   4.208   0.858   9.256  0.0702  0.0574 -0.3585
 5982SOL    HW129408   4.249   0.921   9.314 -0.5705 -0.6001  0.8057
 5982SOL    HW229409   4.139   0.822   9.311  0.3447  2.2545  1.3967
 5983SOL     OW29410   4.103   0.462   5.375 -0.4301 -0.5055 -0.1095
 5983SOL    HW129411   4.078   0.405   5.448  1.7659 -2.0446 -0.5677
 5983SOL    HW229412   4.115   0.393   5.310 -1.1106 -0.0519 -0.7146
 5984SOL     OW29413   2.813   2.357   7.152 -0.0774  0.1669 -0.1089
 5984SOL    HW129414   2.759   2.391   7.081  1.4059  0.6447 -1.0074
 5984SOL    HW229415   2.872   2.432   7.163  0.4022  0.0141 -1.7056
 5985SOL     OW29416   3.172   0.648   4.479 -0.1030 -0.1630  0.3136
 5985SOL    HW129417   3.226   0.642   4.400  0.0903 -0.7947  0.4900
 5985SOL    HW229418   3.232   0.709   4.521 -2.3860  2.2309  0.0824
 5986SOL     OW29419   1.379   1.648   7.250 -0.1025  0.1487 -0.3072
 5986SOL    HW129420   1.351   1.613   7.335  1.7496 -0.2316  0.1558
 5986SOL    HW229421   1.366   1.742   7.260 -0.8501  0.0639 -0.5023
 5987SOL     OW29422   3.166   3.220   9.685 -0.1658 -0.4772  0.1574
 5987SOL    HW129423   3.107   3.292   9.664 -0.5217 -0.3563  1.5658
 5987SOL    HW229424   3.244   3.237   9.632  0.2551 -0.0649  0.9109
 5988SOL     OW29425   3.151   0.038   5.296 -0.1370 -0.4379 -0.3575
 5988SOL    HW129426   3.077   0.096   5.313 -0.8367 -2.0591  2.0249
 5988SOL    HW229427   3.122   4.671   5.320 -3.6231  0.3525 -1.6563
 5989SOL     OW29428   3.975   0.411   2.688  0.5589  0.8080 -0.7232
 5989SOL    HW129429   3.895   0.396   2.637 -0.2965  0.5971  0.6739
 5989SOL    HW229430   4.022   0.333   2.659  0.3019 -0.1039  1.3055
 5990SOL     OW29431   4.465   3.125  11.309 -0.0785 -0.2195  0.7336
 5990SOL    HW129432   4.409   3.142  11.233 -1.2476 -0.6701  1.5042
 5990SOL    HW229433   4.490   3.034  11.293  0.1092 -0.0311 -0.0502
 5991SOL     OW29434   1.811   3.452   4.164  0.2712  0.2176  0.0379
 5991SOL    HW129435   1.719   3.427   4.171  1.2566 -3.5479 -0.1363
 5991SOL    HW229436   1.813   3.487   4.075 -1.7576 -1.9332 -0.8685
 5992SOL     OW29437   2.352   1.307   8.367  0.7907  0.0236 -0.0871
 5992SOL    HW129438   2.287   1.256   8.318  1.7652 -1.0579 -0.2462
 5992SOL    HW229439   2.433   1.259   8.350  0.5238 -0.2006 -0.7301
 5993SOL     OW29440   2.785   1.099   9.767  0.0167  0.0710 -0.3920
 5993SOL    HW129441   2.878   1.125   9.768 -0.2427  1.0514 -1.1587
 5993SOL    HW229442   2.787   1.021   9.713 -1.6740 -1.1348  1.3137
 5994SOL     OW29443   1.965   0.960   7.342  0.3705 -0.0238  0.2955
 5994SOL    HW129444   1.884   0.987   7.297  0.8239  2.2739  0.8641
 5994SOL    HW229445   1.926   0.925   7.422  0.2675  2.3897  1.2818
 5995SOL     OW29446   1.061   0.263   9.592  0.3602 -0.6205  0.9853
 5995SOL    HW129447   0.982   0.291   9.545  0.3879 -0.9596  0.7405
 5995SOL    HW229448   1.092   0.339   9.641 -0.5192  0.8626 -0.7417
 5996SOL     OW29449   2.823   3.158  17.547  0.3270 -0.2184  0.0344
 5996SOL    HW129450   2.760   3.190  17.482  0.4900  1.1276  0.5298
 5996SOL    HW229451   2.907   3.190  17.512 -0.3851  0.8785 -0.6962
 5997SOL     OW29452   4.573   3.571  12.588 -0.2734  0.0402  0.3639
 5997SOL    HW129453   4.663   3.597  12.608  0.4169 -1.5769 -0.6427
 5997SOL    HW229454   4.560   3.484  12.626 -1.7413  0.8450  1.7225
 5998SOL     OW29455   3.733   2.501   6.289 -0.1990 -0.1589  0.4260
 5998SOL    HW129456   3.724   2.500   6.384 -0.6443  0.6856  0.3893
 5998SOL    HW229457   3.762   2.412   6.268 -0.6816 -0.3548  0.5815
 5999SOL     OW29458   3.878   0.477   6.051  0.1180 -0.0540 -0.2298
 5999SOL    HW129459   3.784   0.462   6.062  0.0692  0.9233  0.6534
 5999SOL    HW229460   3.899   0.538   6.121 -2.0560  1.6821 -1.0955
 6000SOL     OW29461   0.757   1.429  16.166  0.3685 -1.1244  0.0686
 6000SOL    HW129462   0.779   1.337  16.172  0.6086 -1.0609  0.1687
 6000SOL    HW229463   0.767   1.446  16.072 -0.9929 -0.2274  0.0740
 6001SOL     OW29464   1.479   0.486  16.039  1.1175 -0.5305  1.0061
 6001SOL    HW129465   1.475   0.391  16.042 -2.3339 -0.5115 -1.8044
 6001SOL    HW229466   1.510   0.504  16.127  0.7114  0.1480  1.0148
 6002SOL     OW29467   0.013   2.964  11.733  0.0497 -0.3912  0.4045
 6002SOL    HW129468   0.076   2.893  11.718  0.6488  0.1008  0.5973
 6002SOL    HW229469   4.653   2.922  11.704  0.9883 -1.4544 -0.6538
 6003SOL     OW29470   4.393   4.684   9.699 -0.4933 -0.0276  0.5171
 6003SOL    HW129471   4.488   4.672   9.696 -0.6488 -1.3733  1.0701
 6003SOL    HW229472   4.378   0.047   9.657  1.7086 -0.7681 -1.7525
 6004SOL     OW29473   3.948   1.863   7.285 -0.2463 -0.1343 -0.8027
 6004SOL    HW129474   3.898   1.796   7.332  0.3242  0.2823  0.4214
 6004SOL    HW229475   4.036   1.829   7.300 -0.2252 -0.0908 -0.8276
 6005SOL     OW29476   4.462   0.473   2.413 -0.3357 -0.0586 -0.1826
 6005SOL    HW129477   4.410   0.403   2.453  1.0543 -0.6814  0.5413
 6005SOL    HW229478   4.389   0.532   2.395  0.4849  1.4427  1.4808
 6006SOL     OW29479   3.129   0.219   6.426 -0.2405  0.2021  0.1169
 6006SOL    HW129480   3.177   0.162   6.486 -1.0190 -0.1346  0.4101
 6006SOL    HW229481   3.164   0.191   6.341  0.8235 -0.3980  0.7506
 6007SOL     OW29482   3.563   4.444   1.564  0.6385 -0.3470 -0.3182
 6007SOL    HW129483   3.570   4.539   1.569  0.9248 -0.3553 -0.5447
 6007SOL    HW229484   3.642   4.423   1.515  1.2660  1.2043  0.0257
 6008SOL     OW29485   2.025   3.584  11.151  0.5308 -0.0410  0.4158
 6008SOL    HW129486   2.106   3.607  11.196  1.4123 -2.8780  0.2721
 6008SOL    HW229487   2.032   3.489  11.138  0.4828  0.0356 -0.1535
 6009SOL     OW29488   3.030   3.240   6.194  0.5578 -0.1887 -0.2872
 6009SOL    HW129489   3.013   3.297   6.269  2.3688  0.8927 -0.7006
 6009SOL    HW229490   3.013   3.301   6.122  0.4441  3.6887  3.0278
 6010SOL     OW29491   1.187   2.720   9.904 -0.7174  0.6041 -0.2311
 6010SOL    HW129492   1.226   2.803   9.878  0.0332  0.3078 -0.0425
 6010SOL    HW229493   1.205   2.663   9.829 -0.4659  0.2018  0.1388
 6011SOL     OW29494   0.153   4.538   4.768  0.6936  0.3483  0.1199
 6011SOL    HW129495   0.238   4.522   4.726  0.6631 -2.5407  1.1755
 6011SOL    HW229496   0.110   4.453   4.757 -0.8592  1.1590 -0.0218
 6012SOL     OW29497   2.802   3.358   9.934 -0.5454 -0.3144  0.1306
 6012SOL    HW129498   2.771   3.366   9.844 -0.6000  0.3630  0.2128
 6012SOL    HW229499   2.717   3.368   9.976 -0.9716 -1.7899 -0.3891
 6013SOL     OW29500   0.244   4.198  10.200 -0.0414  0.0259 -0.0975
 6013SOL    HW129501   0.161   4.225  10.239 -0.6356  0.3726 -1.5833
 6013SOL    HW229502   0.254   4.117  10.250 -0.3725  0.5865  0.8693
 6014SOL     OW29503   4.276   4.682   7.642 -0.0745 -0.1474 -0.0703
 6014SOL    HW129504   4.242   0.044   7.610  0.8997  0.2471 -0.0795
 6014SOL    HW229505   4.317   4.715   7.722  0.0259 -0.9396  0.2039
 6015SOL     OW29506   1.255   3.202   4.272 -0.5127  0.1456 -0.2126
 6015SOL    HW129507   1.239   3.242   4.357 -1.3896  0.8785 -0.7108
 6015SOL    HW229508   1.305   3.124   4.294  1.6823  1.0077 -2.0640
 6016SOL     OW29509   3.895   3.837  12.612 -0.8187  0.3981 -0.2060
 6016SOL    HW129510   3.854   3.825  12.527 -1.7895 -0.2808  0.3589
 6016SOL    HW229511   3.849   3.774  12.667  0.7450 -1.6129 -1.1987
 6017SOL     OW29512   1.572   0.502   7.913  0.2955 -0.2008  0.1424
 6017SOL    HW129513   1.482   0.532   7.923  0.3726  0.3879 -0.8706
 6017SOL    HW229514   1.619   0.567   7.965 -1.4143  1.3799 -0.3096
 6018SOL     OW29515   4.522   1.699   3.492 -0.0083  0.0200 -0.3907
 6018SOL    HW129516   4.462   1.731   3.426 -3.0217 -2.5521  1.1116
 6018SOL    HW229517   4.572   1.631   3.447 -0.8243 -0.4889 -0.5289
 6019SOL     OW29518   2.532   2.136   1.025  0.4536 -0.4149  0.2064
 6019SOL    HW129519   2.582   2.059   0.997 -1.8359 -1.2855 -1.5094
 6019SOL    HW229520   2.578   2.162   1.105 -0.9894  2.3643  0.1449
 6020SOL     OW29521   1.367   0.259   2.999  0.3910  0.1296 -0.0346
 6020SOL    HW129522   1.391   0.218   3.081  0.5499  0.0034 -0.1446
 6020SOL    HW229523   1.340   0.346   3.028 -0.1680  0.0897 -0.4303
 6021SOL     OW29524   2.297   3.568   8.328 -0.2493 -0.2851  0.0063
 6021SOL    HW129525   2.320   3.476   8.343 -0.3356 -0.2516  0.3426
 6021SOL    HW229526   2.202   3.571   8.338 -0.5879 -3.6280 -2.1060
 6022SOL     OW29527   4.375   3.331   8.803  0.3062 -0.0839 -0.1647
 6022SOL    HW129528   4.427   3.409   8.819 -1.6649  0.9316  1.2022
 6022SOL    HW229529   4.445   3.265   8.807 -1.8487 -2.3626  0.2135
 6023SOL     OW29530   4.040   0.859   4.819 -0.3768  0.1152 -0.4870
 6023SOL    HW129531   4.092   0.938   4.805  1.3156 -1.1554 -1.3096
 6023SOL    HW229532   4.043   0.838   4.912  0.7539  0.0385 -0.5418
 6024SOL     OW29533   2.393   0.922   7.867  0.1329 -0.2096 -0.2314
 6024SOL    HW129534   2.469   0.980   7.868  0.2737 -0.3825 -1.1404
 6024SOL    HW229535   2.410   0.874   7.948 -0.1592 -1.0237 -0.6494
 6025SOL     OW29536   4.274   2.129  16.736 -0.6080 -0.0784  0.4679
 6025SOL    HW129537   4.201   2.109  16.677  0.9427 -0.5175 -1.3198
 6025SOL    HW229538   4.236   2.193  16.795  1.5989 -1.5359  3.4790
 6026SOL     OW29539   1.187   3.500   8.830 -0.4485 -0.2849 -0.9314
 6026SOL    HW129540   1.139   3.583   8.834 -1.8509 -1.1699  0.4276
 6026SOL    HW229541   1.128   3.465   8.763 -1.1431  0.6716 -0.8238
 6027SOL     OW29542   0.006   0.483   7.997 -0.5290  0.1054  0.8838
 6027SOL    HW129543   4.714   0.389   7.984  1.0591  0.3317 -2.4242
 6027SOL    HW229544   4.635   0.507   7.996 -0.0442  1.8710 -0.5330
 6028SOL     OW29545   2.257   0.327   8.872  0.0521 -0.2183  0.1710
 6028SOL    HW129546   2.311   0.306   8.948  1.0101  0.5184 -0.2962
 6028SOL    HW229547   2.321   0.373   8.817 -0.7902 -0.4660 -1.0107
 6029SOL     OW29548   0.412   1.583   5.938  0.0649  0.0946  0.4249
 6029SOL    HW129549   0.411   1.548   6.027  1.6797  1.4344  0.9651
 6029SOL    HW229550   0.461   1.506   5.908 -0.2295 -0.3818  1.1897
 6030SOL     OW29551   4.544   0.139   6.814  0.4039 -0.0455  0.3857
 6030SOL    HW129552   4.620   0.196   6.822 -0.1773  0.8119 -0.2538
 6030SOL    HW229553   4.476   0.204   6.796  0.3379 -0.6734 -1.6561
 6031SOL     OW29554   4.539   2.928  11.067 -0.2802 -0.0139 -0.8261
 6031SOL    HW129555   4.495   2.946  10.984  2.3349 -0.5548 -2.3218
 6031SOL    HW229556   4.623   2.971  11.052  0.5227 -0.8633  1.3045
 6032SOL     OW29557   1.944   0.274   5.514  0.2388  0.2968 -0.5655
 6032SOL    HW129558   1.979   0.185   5.517 -2.4006 -0.8303 -2.8721
 6032SOL    HW229559   1.946   0.293   5.608  0.7897 -1.7963 -0.1663
 6033SOL     OW29560   3.601   0.654  10.334 -0.0100 -0.2302  0.6333
 6033SOL    HW129561   3.557   0.696  10.409 -0.5786  2.1517 -1.0273
 6033SOL    HW229562   3.552   0.695  10.263  2.7286  0.5051 -0.8304
 6034SOL     OW29563   0.021   3.243   6.708 -0.7189 -0.3458  0.5446
 6034SOL    HW129564   0.112   3.269   6.723 -1.2139  0.3460  2.3478
 6034SOL    HW229565   4.715   3.287   6.628  1.9226 -0.1190 -0.2516
 6035SOL     OW29566   0.942   2.524  10.074 -0.3516 -0.1136  0.0806
 6035SOL    HW129567   0.946   2.616  10.049 -0.0784  0.0460  0.7032
 6035SOL    HW229568   0.923   2.478   9.993  1.5837  1.3570 -1.1975
 6036SOL     OW29569   3.955   4.713  17.024  0.0229  0.0403 -0.8731
 6036SOL    HW129570   3.982   4.670  17.105 -1.2300  1.4839  0.2946
 6036SOL    HW229571   4.024   4.692  16.960  1.1760 -0.4021  0.5282
 6037SOL     OW29572   2.905   2.299   1.337  0.0422 -0.1056 -0.4339
 6037SOL    HW129573   2.962   2.314   1.262 -0.7486 -1.8657 -1.3930
 6037SOL    HW229574   2.829   2.298   1.280  1.1955  0.9239 -1.9939
 6038SOL     OW29575   2.461   3.823  10.017 -0.2794  0.3206 -0.5164
 6038SOL    HW129576   2.553   3.811   9.992 -0.0028 -0.9101  1.0468
 6038SOL    HW229577   2.456   3.799  10.110 -2.6474 -0.1799 -0.7665
 6039SOL     OW29578   4.229   1.070  15.473 -0.1803  0.0725  0.3538
 6039SOL    HW129579   4.161   1.003  15.467 -2.5814  2.2933  3.0448
 6039SOL    HW229580   4.175   1.139  15.511 -0.2515 -1.0402  2.2823
 6040SOL     OW29581   3.634   3.576   4.222 -0.4688  0.7015 -0.2200
 6040SOL    HW129582   3.719   3.584   4.265 -0.3245 -0.3164 -0.3083
 6040SOL    HW229583   3.578   3.530   4.284 -0.0413 -0.8263 -0.9517
 6041SOL     OW29584   1.141   1.164   7.559  0.1023  0.0227 -0.2613
 6041SOL    HW129585   1.193   1.169   7.639 -0.0164 -0.6016 -0.1505
 6041SOL    HW229586   1.192   1.098   7.513 -1.2868  1.2063 -3.4934
 6042SOL     OW29587   0.684   0.074   0.548  0.5531 -0.0369 -0.4065
 6042SOL    HW129588   0.686   0.131   0.471  0.5097 -0.0642 -0.4279
 6042SOL    HW229589   0.777   0.052   0.546  0.7173  0.5121  1.0329
 6043SOL     OW29590   2.266   3.136   7.437  0.5408 -0.0768 -0.5317
 6043SOL    HW129591   2.329   3.207   7.424 -0.4974  1.4253  2.4384
 6043SOL    HW229592   2.326   3.062   7.435  0.0106 -0.5050 -0.4921
 6044SOL     OW29593   4.318   3.534   6.381  0.0336  0.0786  0.3083
 6044SOL    HW129594   4.305   3.468   6.449 -1.5755 -1.9074 -1.9170
 6044SOL    HW229595   4.262   3.606   6.409  0.4675  0.8907 -0.9183
 6045SOL     OW29596   4.354   3.056   2.013 -0.5937 -0.3299 -0.1045
 6045SOL    HW129597   4.276   3.107   1.990 -1.7559 -2.3922 -0.7190
 6045SOL    HW229598   4.328   3.031   2.102 -1.0068  0.4511 -0.0028
 6046SOL     OW29599   0.672   1.058   9.785  0.8321  0.0402  0.3374
 6046SOL    HW129600   0.636   1.146   9.789 -0.3182 -0.4335  0.3100
 6046SOL    HW229601   0.732   1.060   9.711  0.3093 -1.5687 -0.1349
 6047SOL     OW29602   0.718   4.145  13.047  0.1695 -0.2755 -0.0116
 6047SOL    HW129603   0.730   4.055  13.016  2.1212  0.1791 -0.5840
 6047SOL    HW229604   0.649   4.173  12.988 -1.5422 -2.8928  0.7336
 6048SOL     OW29605   0.749   1.624   8.431 -0.0620 -0.1293  0.3991
 6048SOL    HW129606   0.682   1.685   8.399  0.6358  1.0468  1.1517
 6048SOL    HW229607   0.814   1.682   8.470 -0.3297 -0.4954  1.3840
 6049SOL     OW29608   2.721   4.126   4.133 -0.1143  0.1570 -0.7539
 6049SOL    HW129609   2.748   4.121   4.041  1.0996 -0.5074 -0.3553
 6049SOL    HW229610   2.635   4.162   4.112 -1.4957 -1.0193  2.9475
 6050SOL     OW29611   0.470   3.668   5.778  0.1517 -0.1900  0.8503
 6050SOL    HW129612   0.495   3.754   5.810 -0.2839  0.2494  0.0041
 6050SOL    HW229613   0.454   3.690   5.687  2.4998  1.4167  0.8397
 6051SOL     OW29614   2.599   1.883   3.641  0.2137  0.1752 -0.3776
 6051SOL    HW129615   2.672   1.944   3.646 -1.5182  2.3490 -1.6123
 6051SOL    HW229616   2.551   1.929   3.710  0.2637 -0.3381 -0.0001
 6052SOL     OW29617   2.718   1.765  10.315 -0.3210 -0.0500  0.2595
 6052SOL    HW129618   2.796   1.727  10.276 -0.5567  0.6204 -0.8550
 6052SOL    HW229619   2.652   1.712  10.270  0.1916 -1.6181  1.3382
 6053SOL     OW29620   3.613   1.990   5.127  0.0888 -0.5322  0.2882
 6053SOL    HW129621   3.577   2.070   5.165 -3.1778 -0.2914 -3.3121
 6053SOL    HW229622   3.706   2.008   5.140 -0.0653  0.4495  0.0262
 6054SOL     OW29623   3.927   1.254   5.384 -0.3121  0.1110  0.2458
 6054SOL    HW129624   4.002   1.245   5.443  1.3256  0.8917 -1.7104
 6054SOL    HW229625   3.850   1.226   5.435 -2.1696  4.3620 -0.1688
 6055SOL     OW29626   4.482   0.714   9.858 -0.0790  0.2160 -0.0974
 6055SOL    HW129627   4.515   0.760   9.780  3.4419 -1.7014  0.2573
 6055SOL    HW229628   4.557   0.658   9.879  1.6090  2.8908  1.0591
 6056SOL     OW29629   1.004   2.188   3.223  0.9928  0.0048  0.2694
 6056SOL    HW129630   0.957   2.184   3.306  0.0983 -0.9644 -0.2615
 6056SOL    HW229631   1.093   2.194   3.255  0.8110 -2.1798  1.2046
 6057SOL     OW29632   0.029   2.556   4.801 -0.2225 -0.0366  0.7208
 6057SOL    HW129633   4.667   2.603   4.802 -0.4163 -0.2925 -1.5765
 6057SOL    HW229634   0.052   2.579   4.890  1.4255  0.3851  0.1815
 6058SOL     OW29635   0.918   3.754   8.183  0.3136  0.0214 -0.1639
 6058SOL    HW129636   0.889   3.778   8.271  0.1413 -2.1266  0.3445
 6058SOL    HW229637   0.833   3.754   8.138 -0.5477 -0.3915  1.4879
 6059SOL     OW29638   1.297   0.927  15.989  0.6097 -0.1576 -0.1084
 6059SOL    HW129639   1.206   0.944  15.964  1.0456 -0.2847 -1.7501
 6059SOL    HW229640   1.295   0.831  15.986 -0.2707 -0.2287  2.6776
 6060SOL     OW29641   2.033   2.274  16.853 -0.2525 -0.2122  0.6819
 6060SOL    HW129642   1.953   2.245  16.898  0.3935 -0.9187  1.3684
 6060SOL    HW229643   2.031   2.365  16.882  1.8161 -0.5100  1.7526
 6061SOL     OW29644   0.020   3.673  15.913 -0.5927 -0.6044 -0.0448
 6061SOL    HW129645   0.073   3.732  15.860  0.0502 -1.1684 -0.0187
 6061SOL    HW229646   4.694   3.736  15.967  0.6144 -0.5583  0.9500
 6062SOL     OW29647   1.008   4.137  14.392 -0.4261  0.2709  0.2592
 6062SOL    HW129648   1.088   4.085  14.398 -1.1237 -1.1687 -3.2088
 6062SOL    HW229649   1.042   4.227  14.396  0.6282 -0.1609  1.0191
 6063SOL     OW29650   1.306   3.245   6.647  0.5732 -0.0896 -0.5750
 6063SOL    HW129651   1.219   3.267   6.613  0.1139 -0.3325  0.4691
 6063SOL    HW229652   1.300   3.150   6.634  0.4733  0.0976 -1.9541
 6064SOL     OW29653   3.509   3.729   0.039  0.3839 -0.4445 -0.2735
 6064SOL    HW129654   3.566   3.697   0.109  0.0971  0.7682  0.5329
 6064SOL    HW229655   3.568   3.765  17.661 -0.2615 -0.8206 -1.0640
 6065SOL     OW29656   3.050   0.047   1.414  0.3847  0.0034 -0.3347
 6065SOL    HW129657   3.064   0.030   1.321 -1.6948 -2.3515 -0.2109
 6065SOL    HW229658   3.101   0.127   1.425 -0.6944  0.4072  1.6192
 6066SOL     OW29659   2.024   0.100   7.577  0.6849  0.3635 -0.0373
 6066SOL    HW129660   2.105   0.063   7.612 -0.0846 -2.5509 -1.3835
 6066SOL    HW229661   2.035   0.078   7.485 -0.9069  1.3603 -0.4639
 6067SOL     OW29662   2.678   2.704  16.523 -0.1015 -0.0945 -0.9417
 6067SOL    HW129663   2.766   2.667  16.530 -0.3806 -0.7032 -0.6218
 6067SOL    HW229664   2.639   2.672  16.605  1.0271  0.4751 -0.1882
 6068SOL     OW29665   1.558   2.467   7.772  0.1475 -0.0758 -0.4590
 6068SOL    HW129666   1.623   2.409   7.732  0.0029  0.7636 -1.9109
 6068SOL    HW229667   1.534   2.529   7.703 -2.4358 -1.5777 -0.9116
 6069SOL     OW29668   2.776   0.459  13.045  0.4239  0.3969 -0.5195
 6069SOL    HW129669   2.681   0.459  13.032  0.2006 -0.4242  1.0463
 6069SOL    HW229670   2.789   0.420  13.132 -4.1987  1.1848  0.5614
 6070SOL     OW29671   0.697   4.388  16.957  0.8024  0.3340 -0.6356
 6070SOL    HW129672   0.621   4.373  17.013  0.9447 -1.2167 -0.8633
 6070SOL    HW229673   0.689   4.312  16.899 -2.1189  0.8831 -0.9515
 6071SOL     OW29674   1.154   4.646   6.849  0.0891  0.0926 -0.1163
 6071SOL    HW129675   1.102   4.594   6.910  1.2910  2.1991  2.7328
 6071SOL    HW229676   1.210   4.687   6.915  1.7384  0.7254 -1.8997
 6072SOL     OW29677   3.588   2.631   1.288  0.1051 -0.1888  0.3283
 6072SOL    HW129678   3.560   2.540   1.299  1.0530 -0.5070  0.1926
 6072SOL    HW229679   3.633   2.644   1.372  0.5544 -0.0535  0.0688
 6073SOL     OW29680   1.148   4.667   7.490 -0.0342 -0.0992 -0.7574
 6073SOL    HW129681   1.080   0.012   7.476  1.4385  1.4134 -0.8198
 6073SOL    HW229682   1.190   4.699   7.570 -0.4102 -3.1544  0.6259
 6074SOL     OW29683   3.082   0.136  13.796 -0.2586  0.5244 -0.0723
 6074SOL    HW129684   3.044   0.223  13.812  0.4876  0.8753 -0.2337
 6074SOL    HW229685   3.080   0.124  13.701  0.4856 -0.4014  0.0305
 6075SOL     OW29686   0.170   3.358   8.042 -0.2402  0.5732 -0.1673
 6075SOL    HW129687   0.140   3.341   7.952  1.0613 -2.1840 -0.0705
 6075SOL    HW229688   0.096   3.410   8.075 -0.3557 -1.2593  2.3792
 6076SOL     OW29689   3.913   1.332   8.672  0.4524  0.2769 -0.4557
 6076SOL    HW129690   3.937   1.307   8.583  2.4036  1.8691 -0.3746
 6076SOL    HW229691   3.998   1.302   8.704  0.0761 -0.5656 -0.2450
 6077SOL     OW29692   2.918   4.593   2.433  0.5017 -0.2285 -0.1726
 6077SOL    HW129693   2.877   4.662   2.485  0.4682  0.0960 -0.6273
 6077SOL    HW229694   3.007   4.626   2.444  0.5033  0.2620 -1.7652
 6078SOL     OW29695   3.335   1.746   5.883  0.6868  0.2390 -0.2055
 6078SOL    HW129696   3.425   1.779   5.894  1.4695 -1.0585 -2.8645
 6078SOL    HW229697   3.321   1.791   5.800 -0.3562 -0.9627 -0.6720
 6079SOL     OW29698   0.127   0.263   5.768 -0.1153 -0.0378  0.4378
 6079SOL    HW129699   0.175   0.310   5.836  2.8474  1.0288 -2.3592
 6079SOL    HW229700   0.048   0.317   5.763  0.5985  0.9247 -0.4655
 6080SOL     OW29701   4.424   4.573   8.901  0.4890  0.0059  0.1687
 6080SOL    HW129702   4.489   4.506   8.923 -0.3373 -1.0813 -0.6881
 6080SOL    HW229703   4.342   4.533   8.871  0.7980 -1.1366  0.8505
 6081SOL     OW29704   2.672   0.149   3.797 -0.6074 -0.1553 -0.4901
 6081SOL    HW129705   2.734   0.158   3.724  0.8133  0.1922  0.7655
 6081SOL    HW229706   2.719   0.100   3.865  1.2010 -0.3309 -1.8794
 6082SOL     OW29707   1.588   3.810   4.805  0.4731 -0.2429  0.5324
 6082SOL    HW129708   1.682   3.812   4.785  0.1721  1.2658 -0.7282
 6082SOL    HW229709   1.574   3.723   4.842 -4.4267 -0.6192 -2.1936
 6083SOL     OW29710   2.836   0.477  11.191  0.6174  0.0128 -0.1721
 6083SOL    HW129711   2.748   0.443  11.175 -0.9133  3.8655  0.1447
 6083SOL    HW229712   2.826   0.552  11.250 -0.7752  1.9755 -2.9365
 6084SOL     OW29713   0.413   2.251   9.039 -0.1526  0.4679  0.3530
 6084SOL    HW129714   0.365   2.335   9.041 -1.3802 -0.1324 -2.6610
 6084SOL    HW229715   0.498   2.287   9.015 -0.5915  0.6998 -0.8821
 6085SOL     OW29716   1.801   1.661   4.801 -0.1234  0.1157 -0.1845
 6085SOL    HW129717   1.756   1.577   4.812 -0.1567  0.2391  0.5872
 6085SOL    HW229718   1.889   1.623   4.797 -0.8539 -1.5065 -1.1517
 6086SOL     OW29719   4.618   4.292   5.318  0.4058 -0.7241 -0.3442
 6086SOL    HW129720   4.682   4.355   5.284 -1.2850  1.6120  0.7766
 6086SOL    HW229721   4.685   4.226   5.337  1.7528  1.1140  1.2934
 6087SOL     OW29722   3.809   1.068   8.727 -0.3410 -0.4306 -0.1515
 6087SOL    HW129723   3.869   1.019   8.671 -1.5864 -0.8638 -1.1079
 6087SOL    HW229724   3.846   1.156   8.726 -1.6416  0.1294 -0.0467
 6088SOL     OW29725   3.211   3.835   6.681  0.2099 -0.3516 -0.0596
 6088SOL    HW129726   3.150   3.769   6.714 -2.4397  1.9787 -0.3443
 6088SOL    HW229727   3.155   3.891   6.628  2.5463  2.4881  0.4686
 6089SOL     OW29728   3.861   2.887   3.038  0.1787  0.3035  0.3350
 6089SOL    HW129729   3.766   2.884   3.032  0.0611  1.8819  1.1812
 6089SOL    HW229730   3.870   2.874   3.133  1.1360 -2.1778 -0.0926
 6090SOL     OW29731   4.355   0.572   2.881  0.1294 -0.3712 -0.7495
 6090SOL    HW129732   4.272   0.608   2.912  1.3754  1.7882  0.1171
 6090SOL    HW229733   4.330   0.482   2.859  0.3813 -0.5582 -0.2743
 6091SOL     OW29734   2.835   3.012   3.093 -0.5688  0.1107  0.3033
 6091SOL    HW129735   2.768   2.947   3.118 -0.9619  0.1339 -0.7015
 6091SOL    HW229736   2.786   3.094   3.089 -2.8497 -1.2195  0.5169
 6092SOL     OW29737   3.293   0.658   3.356 -0.3917  0.3088 -0.0410
 6092SOL    HW129738   3.377   0.626   3.387 -0.8441 -0.3474  0.4958
 6092SOL    HW229739   3.233   0.603   3.407 -1.4180 -0.4700 -2.0960
 6093SOL     OW29740   4.586   0.531   3.284 -0.2543 -0.0965  0.0951
 6093SOL    HW129741   4.589   0.479   3.204  0.0401  0.7942 -0.4751
 6093SOL    HW229742   4.514   0.478   3.320 -1.1044  1.5684  0.8374
 6094SOL     OW29743   0.798   1.491   3.397  0.2277  0.4831 -0.1668
 6094SOL    HW129744   0.777   1.445   3.316  0.2354  3.1038 -1.6588
 6094SOL    HW229745   0.892   1.474   3.393  0.0073  0.1090 -3.3668
 6095SOL     OW29746   0.337   3.743   7.928 -0.2028 -0.4627 -0.5870
 6095SOL    HW129747   0.349   3.662   7.978 -0.6084 -0.2243 -0.0996
 6095SOL    HW229748   0.372   3.718   7.843  1.0205  1.3831 -0.6183
 6096SOL     OW29749   2.602   0.092  13.907  0.0365 -0.5657  0.0347
 6096SOL    HW129750   2.590   0.002  13.937  1.9761  0.1448  2.8987
 6096SOL    HW229751   2.691   0.090  13.872  0.3674  1.1619  0.7848
 6097SOL     OW29752   0.756   1.846   6.086 -0.0549  0.4607  0.1144
 6097SOL    HW129753   0.685   1.785   6.109  1.1342 -1.5144 -1.4447
 6097SOL    HW229754   0.793   1.865   6.172  0.2109 -0.9019  0.3073
 6098SOL     OW29755   3.171   2.730   1.883  0.5020 -0.1700 -0.5415
 6098SOL    HW129756   3.085   2.742   1.843  0.8361  2.6533 -0.3858
 6098SOL    HW229757   3.158   2.651   1.935 -0.7910  1.5782  1.7485
 6099SOL     OW29758   0.981   0.506   7.789 -0.1259  0.3136  0.0975
 6099SOL    HW129759   0.917   0.509   7.719 -1.3149 -2.6750  1.0709
 6099SOL    HW229760   1.044   0.447   7.747 -0.6615 -1.2383  1.4864
 6100SOL     OW29761   1.648   4.196   7.577  0.0829  0.1617 -0.2806
 6100SOL    HW129762   1.643   4.182   7.483 -0.7843  1.0371 -0.3652
 6100SOL    HW229763   1.589   4.127   7.607  0.7449 -0.6044 -0.7378
 6101SOL     OW29764   2.880   2.671   8.861  0.2543 -0.0121 -0.3801
 6101SOL    HW129765   2.905   2.691   8.771 -1.1725 -0.4460 -0.8748
 6101SOL    HW229766   2.849   2.760   8.882  0.2743 -0.2290  0.5853
 6102SOL     OW29767   0.494   0.697  13.006  0.1817  0.1502  0.1143
 6102SOL    HW129768   0.549   0.691  12.928  0.0835  2.5412 -0.1234
 6102SOL    HW229769   0.559   0.720  13.072 -0.5693 -0.7958  1.2005
 6103SOL     OW29770   2.776   0.264   4.212 -0.0192  0.4167 -0.1945
 6103SOL    HW129771   2.853   0.242   4.264 -0.4832 -0.7193  0.0181
 6103SOL    HW229772   2.832   0.320   4.159  0.7542 -0.1873 -0.0197
 6104SOL     OW29773   0.261   0.937   7.528 -0.1563  0.0777  0.0556
 6104SOL    HW129774   0.348   0.897   7.524 -0.3885 -0.2888 -1.3943
 6104SOL    HW229775   0.282   1.017   7.575  0.7009 -1.6171  2.5583
 6105SOL     OW29776   2.966   2.817   4.030 -0.2309 -0.4869 -0.3355
 6105SOL    HW129777   3.054   2.831   3.994 -0.2831  1.4957  0.3354
 6105SOL    HW229778   2.934   2.905   4.046  0.1943 -0.6975  1.6918
 6106SOL     OW29779   3.670   4.325  16.355  0.5034 -0.0279 -0.4327
 6106SOL    HW129780   3.706   4.276  16.429 -1.7044 -1.1287 -0.0833
 6106SOL    HW229781   3.723   4.405  16.358  1.0829 -0.3589 -2.0410
 6107SOL     OW29782   1.468   1.148  11.415 -0.2992  0.9894  0.0231
 6107SOL    HW129783   1.394   1.089  11.403 -1.5047  2.1742  1.6541
 6107SOL    HW229784   1.515   1.145  11.331  0.0964 -0.0743  0.2857
 6108SOL     OW29785   1.480   4.456  15.934  0.1071  0.8169 -0.7211
 6108SOL    HW129786   1.421   4.421  16.000  1.2167  1.2604  0.4982
 6108SOL    HW229787   1.459   4.404  15.856  2.0800  0.9442 -1.3456
 6109SOL     OW29788   1.373   1.146   2.764  0.4728 -0.3879  0.5740
 6109SOL    HW129789   1.293   1.198   2.772  0.0081 -1.2372  1.5466
 6109SOL    HW229790   1.342   1.064   2.803  0.8183 -0.9442 -0.3293
 6110SOL     OW29791   4.217   4.371   3.333  0.1940 -0.3825 -0.4422
 6110SOL    HW129792   4.183   4.286   3.359 -0.1154 -0.0087  0.3849
 6110SOL    HW229793   4.309   4.348   3.345  0.1136 -1.4891 -1.9060
 6111SOL     OW29794   1.163   0.854  11.564 -0.3109  0.5077  0.0773
 6111SOL    HW129795   1.215   0.799  11.623  1.8094 -0.0386 -2.3301
 6111SOL    HW229796   1.183   0.942  11.595  1.3075 -0.0372  0.5543
 6112SOL     OW29797   3.202   2.794   6.299 -0.7762  0.6843  0.3073
 6112SOL    HW129798   3.175   2.837   6.380 -0.8350 -0.5326  0.9371
 6112SOL    HW229799   3.207   2.868   6.240 -2.9133  0.7372  0.2222
 6113SOL     OW29800   3.176   3.930   7.641 -0.2468  0.3694  0.3188
 6113SOL    HW129801   3.172   4.026   7.637 -0.2212  0.3779  0.5053
 6113SOL    HW229802   3.178   3.928   7.736  2.3238  2.1045  0.3051
 6114SOL     OW29803   2.350   2.433   2.893  0.3603 -0.2790 -0.0106
 6114SOL    HW129804   2.312   2.415   2.807  1.1516  3.9576 -1.2343
 6114SOL    HW229805   2.437   2.455   2.858  0.5268  0.7737  1.0901
 6115SOL     OW29806   2.370   2.261   5.556 -0.7680 -0.1876 -0.2782
 6115SOL    HW129807   2.422   2.195   5.511 -1.0612  0.4219 -1.4964
 6115SOL    HW229808   2.398   2.337   5.506  2.8353 -0.1770  1.7137
 6116SOL     OW29809   2.509   0.850  15.642 -0.0204  0.1533  0.1062
 6116SOL    HW129810   2.554   0.861  15.558 -0.4269 -2.9349 -0.5037
 6116SOL    HW229811   2.421   0.855  15.605  1.1048  2.1425 -2.2773
 6117SOL     OW29812   1.612   1.784   3.607  0.3179 -0.1612  0.2375
 6117SOL    HW129813   1.605   1.690   3.596  1.7768 -0.1897 -0.4943
 6117SOL    HW229814   1.527   1.806   3.643  0.0826  0.7936 -0.8789
 6118SOL     OW29815   0.353   3.401  15.602  0.7349 -0.1803 -0.0709
 6118SOL    HW129816   0.308   3.433  15.524  1.4817  1.4991  0.1794
 6118SOL    HW229817   0.283   3.372  15.661 -0.6251 -0.5275 -1.8442
 6119SOL     OW29818   2.959   2.674  16.613 -0.3564 -0.2415  0.6810
 6119SOL    HW129819   3.037   2.642  16.569 -0.3821 -1.1003  1.2568
 6119SOL    HW229820   2.993   2.758  16.643  0.8131 -0.7413  0.7432
 6120SOL     OW29821   1.402   1.350   6.043 -0.2538 -0.6265  0.4880
 6120SOL    HW129822   1.308   1.360   6.061 -0.4300 -0.4951 -0.5112
 6120SOL    HW229823   1.398   1.286   5.972 -1.3789 -0.4888  0.4246
 6121SOL     OW29824   4.710   0.455  11.600 -0.8204  0.3898  0.1757
 6121SOL    HW129825   0.006   0.427  11.510  0.5699  2.3432 -0.1799
 6121SOL    HW229826   0.071   0.437  11.645 -0.3819  1.1797 -0.2968
 6122SOL     OW29827   2.085   4.273   4.572  0.1075  0.0413 -0.8731
 6122SOL    HW129828   2.105   4.357   4.532  0.9066 -0.2323 -1.0580
 6122SOL    HW229829   2.158   4.213   4.556  0.7347  0.2512  1.1687
 6123SOL     OW29830   0.894   3.332  14.039 -0.0110  0.4621  0.1540
 6123SOL    HW129831   0.888   3.285  13.956  2.5911  2.0479 -0.9129
 6123SOL    HW229832   0.814   3.385  14.040 -0.0170  0.4625 -0.7224
 6124SOL     OW29833   2.004   3.867   2.678 -0.5705 -0.7752  0.3009
 6124SOL    HW129834   2.091   3.890   2.711  0.1298 -0.9020 -1.4474
 6124SOL    HW229835   1.942   3.897   2.744  0.9941 -2.7809  2.6828
 6125SOL     OW29836   0.495   0.743   6.252 -0.3243  0.9021 -0.2718
 6125SOL    HW129837   0.425   0.760   6.316 -0.9067 -1.9596 -0.1093
 6125SOL    HW229838   0.538   0.665   6.288 -2.6311 -1.0063 -1.6602
 6126SOL     OW29839   2.973   1.219   7.403 -0.7002  0.0468  0.7782
 6126SOL    HW129840   3.000   1.137   7.362 -0.3074  1.3512 -1.5812
 6126SOL    HW229841   2.928   1.185   7.480  2.1027  0.4191  2.6195
 6127SOL     OW29842   1.088   1.070   2.949 -0.4755  0.1506  0.1019
 6127SOL    HW129843   1.071   1.135   2.880 -2.6471  0.4941  0.9485
 6127SOL    HW229844   1.138   1.004   2.901  1.7677  1.8555  0.1058
 6128SOL     OW29845   0.530   3.231   5.674  0.6792 -0.5591  0.6429
 6128SOL    HW129846   0.442   3.262   5.698  1.4210  1.5820  0.5921
 6128SOL    HW229847   0.583   3.301   5.713 -0.2463  0.4977  0.0172
 6129SOL     OW29848   0.923   1.026  11.163  0.0887 -0.4656 -0.1944
 6129SOL    HW129849   0.860   0.955  11.153  0.0001 -0.6178  1.4704
 6129SOL    HW229850   0.996   0.967  11.187  1.7110  1.4372 -0.4771
 6130SOL     OW29851   3.148   1.541  15.025 -0.1001  0.6988 -0.8693
 6130SOL    HW129852   3.139   1.597  14.948 -0.5472  0.3932 -1.0411
 6130SOL    HW229853   3.237   1.562  15.053 -0.0058 -1.7715  0.7259
 6131SOL     OW29854   2.828   3.076   6.267 -0.7377  0.4726 -0.1539
 6131SOL    HW129855   2.865   2.988   6.261  1.3612  1.2710  0.8107
 6131SOL    HW229856   2.894   3.135   6.230 -2.6643  2.0709 -1.0052
 6132SOL     OW29857   2.855   4.239  12.942  0.0114  0.2233  0.7024
 6132SOL    HW129858   2.891   4.326  12.927  1.7495 -0.8359 -1.3790
 6132SOL    HW229859   2.818   4.227  12.855  0.0215 -0.4022  0.7814
 6133SOL     OW29860   1.763   2.853   1.766  0.3272  0.5259  0.1449
 6133SOL    HW129861   1.692   2.905   1.802 -0.1466 -0.2269  0.3023
 6133SOL    HW229862   1.827   2.924   1.758  1.4828 -0.6197 -0.7752
 6134SOL     OW29863   1.234   0.913   5.996 -0.9048  0.2302 -0.1752
 6134SOL    HW129864   1.176   0.887   6.068 -0.1266 -1.2706 -0.0728
 6134SOL    HW229865   1.175   0.976   5.954  0.7476  1.9621  0.1321
 6135SOL     OW29866   1.814   2.586   2.591  0.0612 -0.6393  0.2826
 6135SOL    HW129867   1.895   2.594   2.540 -0.3441 -0.1540 -0.2825
 6135SOL    HW229868   1.747   2.619   2.532 -0.1633 -1.7135 -0.0698
 6136SOL     OW29869   4.031   3.978   6.789  0.2794  0.0870  0.4069
 6136SOL    HW129870   4.015   4.072   6.787  2.1075  0.3688 -0.7601
 6136SOL    HW229871   4.025   3.956   6.882 -0.2281  0.3900  0.4441
 6137SOL     OW29872   2.735   4.067   1.926  0.7428  0.6624 -0.2847
 6137SOL    HW129873   2.672   4.117   1.875  0.7454 -0.3612 -1.2890
 6137SOL    HW229874   2.810   4.127   1.927  1.8449 -0.6955 -0.9475
 6138SOL     OW29875   1.115   0.640  12.447  0.4676  0.2554  0.1973
 6138SOL    HW129876   1.064   0.596  12.515 -1.4740  0.9104 -0.8380
 6138SOL    HW229877   1.123   0.576  12.377 -0.3977  1.3238 -0.8798
 6139SOL     OW29878   4.175   0.175  16.439 -0.6997  0.1446  0.4527
 6139SOL    HW129879   4.099   0.206  16.390 -0.1547  1.6838  0.5778
 6139SOL    HW229880   4.141   0.140  16.521 -0.3316 -1.4426 -0.0556
 6140SOL     OW29881   1.476   0.546  11.800 -0.3440 -0.4065  0.2495
 6140SOL    HW129882   1.474   0.514  11.710  1.6025 -0.6907  0.3059
 6140SOL    HW229883   1.456   0.639  11.787  0.5381 -0.2218  0.1576
 6141SOL     OW29884   3.448   0.760   5.559  0.2394 -0.4411  0.0083
 6141SOL    HW129885   3.417   0.695   5.496  1.4238  0.8414 -1.8927
 6141SOL    HW229886   3.522   0.704   5.582  1.3384  0.0001 -2.4479
 6142SOL     OW29887   3.184   0.505  14.775 -0.2489 -0.3150 -0.0384
 6142SOL    HW129888   3.198   0.564  14.701 -2.3070 -0.3065 -0.4262
 6142SOL    HW229889   3.207   0.420  14.738  3.2214  1.5662 -2.2049
 6143SOL     OW29890   4.638   3.435  17.414 -0.1208  0.0346  0.0450
 6143SOL    HW129891   4.598   3.379  17.481 -2.5579  0.4310 -1.0952
 6143SOL    HW229892   4.693   3.368  17.373 -0.8498 -0.6505  0.1804
 6144SOL     OW29893   1.563   2.450  11.717 -0.1087 -0.2138  0.0891
 6144SOL    HW129894   1.641   2.420  11.671 -0.1048  1.4667 -1.0381
 6144SOL    HW229895   1.513   2.369  11.713 -0.7184  0.1373  0.6367
 6145SOL     OW29896   1.384   1.921   8.526 -0.2775 -0.0487 -0.0863
 6145SOL    HW129897   1.385   1.904   8.620  3.6828 -0.0632 -0.1555
 6145SOL    HW229898   1.304   1.973   8.522 -0.1346  0.2844  1.6018
 6146SOL     OW29899   1.658   1.153   8.473  0.2332 -0.4378  0.7610
 6146SOL    HW129900   1.678   1.245   8.456  0.8642 -0.4077  1.6781
 6146SOL    HW229901   1.747   1.120   8.486 -0.4036 -1.5050  2.3782
 6147SOL     OW29902   1.567   0.411   6.342 -0.5592  0.0199  0.2504
 6147SOL    HW129903   1.480   0.372   6.337 -1.6987  2.4744  1.1843
 6147SOL    HW229904   1.577   0.441   6.252  1.6226  1.0280  0.7952
 6148SOL     OW29905   2.312   3.532   3.743 -0.1813  0.6943 -0.0903
 6148SOL    HW129906   2.248   3.603   3.733 -2.4100 -1.7522 -3.0688
 6148SOL    HW229907   2.394   3.570   3.711  0.7628 -1.9233 -0.8062
 6149SOL     OW29908   1.802   3.460  11.567 -0.2941  0.1761 -0.4631
 6149SOL    HW129909   1.796   3.512  11.487 -1.4082  1.6867  0.6105
 6149SOL    HW229910   1.743   3.509  11.624  0.9707  0.3691  0.6776
 6150SOL     OW29911   3.500   4.302   0.403 -0.0532  0.0644  0.2194
 6150SOL    HW129912   3.586   4.322   0.366 -0.3431  0.5046 -0.2084
 6150SOL    HW229913   3.455   4.256   0.332  1.7594 -1.4074  0.0088
 6151SOL     OW29914   3.489   3.505   3.167 -0.3365  0.0570 -0.4726
 6151SOL    HW129915   3.525   3.593   3.156 -5.2590  2.2267  0.4754
 6151SOL    HW229916   3.502   3.495   3.261 -1.6867 -3.2718 -0.6369
 6152SOL     OW29917   2.141   1.497  15.611 -0.0201  0.8309 -0.1827
 6152SOL    HW129918   2.122   1.576  15.663 -1.0224 -0.1222  0.9143
 6152SOL    HW229919   2.065   1.444  15.636  0.7116 -0.0472  0.1733
 6153SOL     OW29920   4.112   2.713   8.936 -0.1562 -0.3919  0.3307
 6153SOL    HW129921   4.105   2.694   8.842  0.4045  2.0426 -0.2196
 6153SOL    HW229922   4.185   2.655   8.957 -1.5175 -1.9799  0.6593
 6154SOL     OW29923   0.640   2.079  10.314 -0.7363  0.6226  0.5541
 6154SOL    HW129924   0.678   1.991  10.312  1.5480  1.5870  0.5384
 6154SOL    HW229925   0.547   2.062  10.305 -0.2270 -1.6975 -0.3297
 6155SOL     OW29926   0.190   4.358   3.211 -0.2066 -0.3127 -0.1949
 6155SOL    HW129927   0.211   4.379   3.302  1.9452  1.1808 -1.0518
 6155SOL    HW229928   0.260   4.410   3.171 -0.1783 -0.6658 -0.6108
 6156SOL     OW29929   2.591   1.985   4.005  0.0562  0.1647 -0.4999
 6156SOL    HW129930   2.682   1.959   3.990  0.1820 -1.0080  2.3325
 6156SOL    HW229931   2.564   1.919   4.068  1.8804  2.0472  2.2294
 6157SOL     OW29932   1.096   1.439   5.072 -0.7950 -0.2667 -0.2747
 6157SOL    HW129933   1.046   1.406   5.146  0.4807 -2.4707 -0.4110
 6157SOL    HW229934   1.027   1.484   5.024 -0.4575 -2.3607 -2.6771
 6158SOL     OW29935   1.919   4.501  13.262 -0.0582 -0.0157 -0.2051
 6158SOL    HW129936   1.829   4.530  13.252  0.6477  1.9834 -0.7564
 6158SOL    HW229937   1.960   4.587  13.262  0.3435 -0.2049 -0.5335
 6159SOL     OW29938   1.125   1.026  14.297  0.1462 -0.0900 -0.3136
 6159SOL    HW129939   1.151   1.086  14.366  0.6171  0.1656 -0.7199
 6159SOL    HW229940   1.210   1.007  14.257  0.0055 -2.0087  0.3007
 6160SOL     OW29941   1.878   1.835   8.928 -0.0134  0.0134  0.4995
 6160SOL    HW129942   1.864   1.741   8.918  0.3424 -0.0884  0.9321
 6160SOL    HW229943   1.969   1.843   8.957  0.0278 -2.0002  0.9351
 6161SOL     OW29944   1.155   4.114   9.048  0.1452 -0.4239  0.3859
 6161SOL    HW129945   1.206   4.157   8.979  2.0870  2.6545  3.7371
 6161SOL    HW229946   1.166   4.170   9.125  0.5083  0.4332 -0.2754
 6162SOL     OW29947   3.009   2.171   8.408  0.3536 -0.1062 -0.5289
 6162SOL    HW129948   2.937   2.229   8.435  1.2801  0.4754  0.6903
 6162SOL    HW229949   2.973   2.134   8.328 -1.4353  0.0385  0.2010
 6163SOL     OW29950   2.203   4.449   8.403  1.0514  0.5823 -0.1267
 6163SOL    HW129951   2.283   4.400   8.421  1.4885  0.2845 -2.7970
 6163SOL    HW229952   2.160   4.458   8.488  1.3569  0.6652  0.0156
 6164SOL     OW29953   1.054   3.783  17.154 -0.9716  0.6061 -0.1033
 6164SOL    HW129954   1.072   3.856  17.094 -0.6209 -0.6062 -1.4849
 6164SOL    HW229955   1.069   3.706  17.098  0.8399  1.6738 -1.0994
 6165SOL     OW29956   3.386   3.861   6.891 -0.4074  0.1524  0.2947
 6165SOL    HW129957   3.328   3.834   6.819 -1.1426 -0.1074  0.9782
 6165SOL    HW229958   3.324   3.900   6.952 -0.4446 -0.1281  0.4390
 6166SOL     OW29959   3.035   3.881   1.423  0.3455 -0.1960  0.5097
 6166SOL    HW129960   3.128   3.859   1.435  0.2339 -0.8235  0.2645
 6166SOL    HW229961   3.016   3.818   1.354 -1.2647  1.7534 -0.7969
 6167SOL     OW29962   0.674   1.510   2.281 -0.0868 -0.3518  0.5495
 6167SOL    HW129963   0.730   1.454   2.228  0.0145  0.3071 -0.0470
 6167SOL    HW229964   0.717   1.509   2.367 -1.7737 -0.4632  1.3930
 6168SOL     OW29965   1.292   0.830   4.022  0.4219  0.3154  0.3881
 6168SOL    HW129966   1.352   0.860   4.090  1.1038 -0.2003  0.0120
 6168SOL    HW229967   1.271   0.918   3.991 -1.4308 -0.0638  0.5418
 6169SOL     OW29968   1.974   4.560   7.679  0.1422 -0.3992  0.0908
 6169SOL    HW129969   1.941   4.470   7.678  0.3488 -0.4600 -0.9407
 6169SOL    HW229970   2.034   4.566   7.605  0.9312  1.3744  0.8747
 6170SOL     OW29971   1.570   0.464   9.065  0.0411  0.3207  0.3048
 6170SOL    HW129972   1.486   0.422   9.086 -0.9845  1.9430 -0.5835
 6170SOL    HW229973   1.630   0.417   9.123  0.6629  1.5526  0.6502
 6171SOL     OW29974   4.243   0.942   6.032  0.1395 -0.1654 -0.2048
 6171SOL    HW129975   4.158   0.948   5.988 -0.0381  1.0484  0.2962
 6171SOL    HW229976   4.260   1.026   6.075 -1.0444  0.8588 -1.7543
 6172SOL     OW29977   1.831   4.638   7.077 -0.1436 -0.1460  0.4457
 6172SOL    HW129978   1.817   4.544   7.068  4.5890 -0.5219 -2.9481
 6172SOL    HW229979   1.927   4.638   7.086 -0.1842  1.3629  0.9053
 6173SOL     OW29980   0.664   4.497   0.337  0.1714 -0.5508 -0.0961
 6173SOL    HW129981   0.719   4.510   0.414 -0.9307  1.0998  0.4129
 6173SOL    HW229982   0.663   4.401   0.337  0.2663 -0.5544 -1.5651
 6174SOL     OW29983   0.922   2.072   1.867 -0.3143  0.1887 -0.3431
 6174SOL    HW129984   0.856   2.025   1.816  0.0985  0.6990 -1.3511
 6174SOL    HW229985   0.897   2.155   1.827 -0.1664 -0.6588 -2.2112
 6175SOL     OW29986   1.673   1.211  11.602 -0.2170 -0.3617  0.0823
 6175SOL    HW129987   1.633   1.285  11.648  1.2601 -0.6616  1.8159
 6175SOL    HW229988   1.606   1.187  11.538 -0.2321 -0.4932  0.1476
 6176SOL     OW29989   3.659   1.686   0.346 -0.0881 -0.0866  0.0782
 6176SOL    HW129990   3.714   1.674   0.269 -1.2025 -0.8074 -0.5947
 6176SOL    HW229991   3.658   1.782   0.345 -1.3445 -0.1505 -2.0171
 6177SOL     OW29992   3.871   2.202   0.533 -0.1781 -0.6634 -0.0470
 6177SOL    HW129993   3.838   2.124   0.577  0.0293 -0.7664 -0.0714
 6177SOL    HW229994   3.924   2.245   0.601 -0.5427 -0.0699 -0.1424
 6178SOL     OW29995   2.661   1.229  10.155  0.1629 -0.1384  0.3143
 6178SOL    HW129996   2.635   1.150  10.202 -2.7220  0.3906 -0.4210
 6178SOL    HW229997   2.580   1.248  10.108 -0.5801 -1.5191  1.0556
 6179SOL     OW29998   4.059   1.555   2.167  0.5362  0.3686 -0.2124
 6179SOL    HW129999   3.973   1.597   2.156 -0.7798 -2.2538  0.0964
 6179SOL    HW230000   4.117   1.596   2.103 -0.1575  1.2294 -0.3001
 6180SOL     OW30001   0.953   1.567  15.435 -0.4324 -0.1228 -0.3337
 6180SOL    HW130002   0.996   1.652  15.433 -2.0914  0.7194 -0.6553
 6180SOL    HW230003   0.874   1.597  15.481  0.9206  0.9026  1.2987
 6181SOL     OW30004   3.953   0.279  16.320  0.1612  0.5505 -0.1612
 6181SOL    HW130005   3.882   0.341  16.337  0.8798  1.1226  0.7694
 6181SOL    HW230006   4.026   0.338  16.300 -1.6135  2.1131 -1.9855
 6182SOL     OW30007   1.249   3.321   3.348 -0.1382  0.2930 -0.0582
 6182SOL    HW130008   1.261   3.290   3.258  2.5480  0.2790  0.2940
 6182SOL    HW230009   1.153   3.319   3.346 -0.2008  1.0692  1.6408
 6183SOL     OW30010   1.976   3.589  10.434  0.0044 -0.6936  0.3479
 6183SOL    HW130011   1.922   3.554  10.505 -1.2120  1.4045  0.4616
 6183SOL    HW230012   1.955   3.521  10.370  1.3736 -0.5652 -0.2347
 6184SOL     OW30013   1.311   0.099  10.052 -0.5958  0.1886  0.3548
 6184SOL    HW130014   1.334   0.022  10.001  4.0506  0.9854  1.2271
 6184SOL    HW230015   1.282   0.154   9.979  1.9859  2.7780  1.2795
 6185SOL     OW30016   2.881   4.107   5.028 -0.0380  0.7560  0.5719
 6185SOL    HW130017   2.794   4.078   4.999  0.1291  0.0676  0.7703
 6185SOL    HW230018   2.935   4.097   4.950 -0.9169  2.9847 -0.3292
 6186SOL     OW30019   0.958   1.196   3.887 -0.3644 -0.9251  0.3545
 6186SOL    HW130020   0.873   1.240   3.894  0.4610  0.7342 -0.1325
 6186SOL    HW230021   0.946   1.144   3.807  0.2607 -1.3059  0.5105
 6187SOL     OW30022   3.667   2.168   4.241 -0.0549  0.2042  0.3461
 6187SOL    HW130023   3.646   2.253   4.203  1.1270  0.7697  0.9585
 6187SOL    HW230024   3.666   2.104   4.170  1.9867  1.3214 -0.6787
 6188SOL     OW30025   3.825   1.387  10.773 -0.8360  0.8410 -0.2237
 6188SOL    HW130026   3.871   1.428  10.846  0.1572 -0.6487 -0.0006
 6188SOL    HW230027   3.755   1.360  10.832 -0.5122  1.0792  0.2643
 6189SOL     OW30028   1.926   1.792   1.495  0.3933  0.3146  0.2328
 6189SOL    HW130029   1.858   1.726   1.478 -0.1282  1.3525 -1.7327
 6189SOL    HW230030   1.906   1.854   1.425 -1.0230 -1.5618 -1.0391
 6190SOL     OW30031   4.470   1.666   3.012  0.1859  0.0669 -0.3404
 6190SOL    HW130032   4.434   1.579   2.994  3.1565 -1.1515 -0.4396
 6190SOL    HW230033   4.562   1.651   3.035  0.4661 -0.5183 -1.8235
 6191SOL     OW30034   3.920   0.537   2.948  0.4594 -0.3770 -0.0021
 6191SOL    HW130035   3.925   0.508   2.857  0.1846  2.1029 -0.7928
 6191SOL    HW230036   3.996   0.596   2.940  0.2576 -0.2836 -1.2399
 6192SOL     OW30037   0.365   3.497   6.338 -0.3166  0.5461  0.3052
 6192SOL    HW130038   0.318   3.526   6.259  0.9876  1.4690 -0.1395
 6192SOL    HW230039   0.332   3.410   6.359  0.0069  0.4956  0.6013
 6193SOL     OW30040   1.002   3.602   3.231  0.3589 -0.2414 -0.1389
 6193SOL    HW130041   1.087   3.610   3.187  0.1468 -0.2024 -0.5330
 6193SOL    HW230042   0.950   3.659   3.173 -0.1347 -1.0464 -0.4783
 6194SOL     OW30043   1.071   2.796   1.877  0.2487  0.7116 -0.3496
 6194SOL    HW130044   1.076   2.700   1.874  1.7612  0.8421 -1.8379
 6194SOL    HW230045   1.156   2.824   1.910 -0.4779  0.3553  1.8464
 6195SOL     OW30046   0.820   2.012   8.115 -0.3600 -0.2120 -0.1419
 6195SOL    HW130047   0.818   1.984   8.023 -0.0575  0.5102 -0.3673
 6195SOL    HW230048   0.906   2.053   8.119 -0.1596 -0.5379 -1.0761
 6196SOL     OW30049   0.989   3.283   5.370  0.2425 -0.3352  0.1247
 6196SOL    HW130050   1.073   3.244   5.394 -0.3905 -0.7678  1.6576
 6196SOL    HW230051   0.938   3.259   5.447  0.3727  0.4410  0.4599
 6197SOL     OW30052   3.331   1.809   6.296  0.0122  0.1047  0.8368
 6197SOL    HW130053   3.286   1.872   6.239 -1.8245 -1.2472  0.7839
 6197SOL    HW230054   3.266   1.802   6.367  0.4221 -0.1187  1.1879
 6198SOL     OW30055   2.750   3.392  15.760  0.8174  0.7253  0.0406
 6198SOL    HW130056   2.692   3.356  15.828 -1.0264  2.3313 -0.6750
 6198SOL    HW230057   2.702   3.381  15.678  0.4949  1.1280  0.1785
 6199SOL     OW30058   3.132   3.969   5.515 -0.5946 -0.8223  0.5607
 6199SOL    HW130059   3.106   3.923   5.594 -0.7058  0.0441  1.0257
 6199SOL    HW230060   3.051   4.001   5.475  0.2410  0.8315  0.1812
 6200SOL     OW30061   0.472   2.403   5.637 -0.1239  0.3467  0.2406
 6200SOL    HW130062   0.539   2.394   5.569 -0.1042  1.6271  0.0870
 6200SOL    HW230063   0.431   2.316   5.635 -0.4643  0.5401 -1.9791
 6201SOL     OW30064   4.284   2.733   3.903 -0.1278 -0.2630  0.2677
 6201SOL    HW130065   4.226   2.667   3.940  0.5335  0.2407  2.2175
 6201SOL    HW230066   4.365   2.682   3.903  0.4936  0.7062 -0.5690
 6202SOL     OW30067   4.467   1.748  11.607 -0.2903 -0.0830 -0.5389
 6202SOL    HW130068   4.376   1.723  11.623  0.1638 -1.3538  0.0829
 6202SOL    HW230069   4.464   1.840  11.633  1.1110 -0.0704 -0.4153
 6203SOL     OW30070   0.181   0.697   7.950  0.1865  0.0596 -0.6463
 6203SOL    HW130071   0.104   0.751   7.931 -0.7115 -1.5426 -1.5905
 6203SOL    HW230072   0.132   0.622   7.983  1.6583 -0.9616 -0.8094
 6204SOL     OW30073   2.509   4.674   5.676  0.0239  0.1397 -0.1683
 6204SOL    HW130074   2.444   0.016   5.645  0.2845  0.4566 -0.0724
 6204SOL    HW230075   2.502   4.597   5.621 -0.9861  0.6298 -0.7278
 6205SOL     OW30076   0.197   2.931   8.564  0.1868  0.4134 -0.6719
 6205SOL    HW130077   0.197   2.851   8.616  1.3653 -0.1193 -1.4886
 6205SOL    HW230078   0.158   2.981   8.636  1.3132  0.9646 -0.4467
 6206SOL     OW30079   3.338   3.409   4.013 -0.0725 -0.8491  0.1440
 6206SOL    HW130080   3.342   3.326   4.061  0.7311 -1.2152 -0.5595
 6206SOL    HW230081   3.291   3.466   4.074 -2.9711 -0.6808 -2.2805
 6207SOL     OW30082   0.070   2.088  16.872  0.2839 -0.1024  0.5052
 6207SOL    HW130083   0.009   2.101  16.799  0.5330 -1.7361 -0.0055
 6207SOL    HW230084   0.102   2.000  16.850 -2.3674 -0.9956  0.2942
 6208SOL     OW30085   2.687   2.202   2.808 -0.8077 -0.1612 -0.7124
 6208SOL    HW130086   2.592   2.193   2.819 -0.5775 -2.0366 -0.3015
 6208SOL    HW230087   2.709   2.253   2.731 -1.9798  0.2610 -0.7698
 6209SOL     OW30088   0.024   0.839   8.261  0.1965 -0.6099  0.1712
 6209SOL    HW130089   4.708   0.870   8.343  0.4515 -0.7715  0.3480
 6209SOL    HW230090   0.119   0.853   8.261  0.2557 -0.9623 -0.4268
 6210SOL     OW30091   2.774   0.121   2.556  0.2067 -0.2323 -0.1475
 6210SOL    HW130092   2.693   0.150   2.514 -0.1276 -0.1907  0.5268
 6210SOL    HW230093   2.829   0.190   2.519 -0.2401 -0.4424 -1.2150
 6211SOL     OW30094   2.166   4.088   7.341 -0.9650  0.1318 -0.1958
 6211SOL    HW130095   2.203   4.020   7.398  0.4544  1.3882  0.3791
 6211SOL    HW230096   2.095   4.113   7.400 -1.7674 -1.2541 -0.5954
 6212SOL     OW30097   4.237   0.943   7.486 -0.2235  0.1431  0.2205
 6212SOL    HW130098   4.267   1.028   7.518 -2.3641  0.6017  1.0222
 6212SOL    HW230099   4.319   0.921   7.443 -0.0211 -0.1153  0.7441
 6213SOL     OW30100   1.445   2.011   5.391 -0.3872  0.2116  0.4924
 6213SOL    HW130101   1.509   1.976   5.329 -0.4543  1.8604 -0.4840
 6213SOL    HW230102   1.498   2.020   5.470  1.4151  1.7287 -0.8982
 6214SOL     OW30103   0.509   2.864  11.355 -0.0761 -0.0871 -0.2939
 6214SOL    HW130104   0.570   2.860  11.282 -0.2248 -1.4174 -0.3445
 6214SOL    HW230105   0.426   2.861  11.308 -0.7903 -0.7336  1.0066
 6215SOL     OW30106   4.392   3.924  16.190 -0.7329  0.1693 -0.6689
 6215SOL    HW130107   4.439   3.934  16.107  2.2328  1.4933  1.1744
 6215SOL    HW230108   4.397   3.828  16.197 -0.2001  0.2545  0.0527
 6216SOL     OW30109   2.753   4.038  15.663  0.3123  0.2340 -0.9617
 6216SOL    HW130110   2.805   4.102  15.713 -0.2213  0.5394 -0.7968
 6216SOL    HW230111   2.816   3.968  15.647  0.0427 -0.1233 -0.4504
 6217SOL     OW30112   3.101   0.420   6.146  0.1434  0.0343 -0.1698
 6217SOL    HW130113   3.028   0.383   6.196  2.2001 -1.2236  1.9069
 6217SOL    HW230114   3.114   0.354   6.078 -0.2209 -0.1498 -0.0624
 6218SOL     OW30115   3.493   1.867   8.839 -0.0583  0.0294 -0.1678
 6218SOL    HW130116   3.563   1.847   8.900 -0.1003  0.4548  0.0219
 6218SOL    HW230117   3.417   1.850   8.895  0.6511  0.0417  0.7944
 6219SOL     OW30118   2.918   0.499   3.734  0.1955 -0.2481  0.5531
 6219SOL    HW130119   2.885   0.539   3.814  0.7608  0.3094  0.5080
 6219SOL    HW230120   2.922   0.408   3.763  2.3822 -0.7332 -1.2587
 6220SOL     OW30121   1.719   4.443   0.588  0.4829 -0.6265 -0.3476
 6220SOL    HW130122   1.682   4.459   0.675 -0.2932  1.4409 -1.0730
 6220SOL    HW230123   1.664   4.367   0.569  0.8370 -1.1363  0.6730
 6221SOL     OW30124   0.733   0.747   4.012  0.2997  0.3449 -0.2747
 6221SOL    HW130125   0.676   0.707   3.946  1.2843  0.9947 -1.5205
 6221SOL    HW230126   0.719   0.841   3.998  1.7010  0.7041  0.7699
 6222SOL     OW30127   1.617   0.855   5.667  0.2566  0.1489  0.1962
 6222SOL    HW130128   1.643   0.873   5.758 -1.6071 -1.0180  0.9553
 6222SOL    HW230129   1.693   0.888   5.620  0.4430 -0.8728 -0.2168
 6223SOL     OW30130   0.886   0.242  10.619  0.6311 -0.4543  1.1014
 6223SOL    HW130131   0.970   0.250  10.573 -0.4368  1.9304 -0.4271
 6223SOL    HW230132   0.915   0.282  10.701 -0.1041  1.4838  0.4161
 6224SOL     OW30133   1.515   1.218   3.624 -0.0002 -0.2602 -0.2316
 6224SOL    HW130134   1.472   1.142   3.585 -0.6681  0.6413 -1.2531
 6224SOL    HW230135   1.600   1.216   3.580 -0.2959 -1.4344 -0.7443
 6225SOL     OW30136   0.493   0.087  12.778  0.4440  0.5337 -0.4092
 6225SOL    HW130137   0.470   0.081  12.685  4.6107 -0.6730 -1.3579
 6225SOL    HW230138   0.587   0.099  12.790  0.2178 -0.2100  2.0474
 6226SOL     OW30139   2.765   4.298  15.991 -0.6086 -0.0885  0.1546
 6226SOL    HW130140   2.788   4.293  15.898  0.6412 -1.9158  0.5691
 6226SOL    HW230141   2.735   4.389  15.990 -0.6627 -0.1194 -1.8505
 6227SOL     OW30142   2.578   3.082   3.745 -0.0071  0.2495  0.4469
 6227SOL    HW130143   2.502   3.137   3.766  1.0328  1.2920  1.4672
 6227SOL    HW230144   2.549   3.007   3.797 -0.5707  0.2399  0.1204
 6228SOL     OW30145   1.541   1.573   5.520  0.4795  0.4475  0.5384
 6228SOL    HW130146   1.477   1.509   5.549  0.1317 -0.7535 -2.9425
 6228SOL    HW230147   1.612   1.556   5.582  0.9635 -0.8597 -0.3719
 6229SOL     OW30148   1.918   2.510   3.967  0.1406 -0.3567  0.3632
 6229SOL    HW130149   1.985   2.460   3.921 -0.8131  0.1960 -1.6317
 6229SOL    HW230150   1.914   2.478   4.057 -1.0756  1.0102  0.8089
 6230SOL     OW30151   2.404   2.491   3.329 -0.4297 -0.2566  0.3838
 6230SOL    HW130152   2.415   2.572   3.281 -2.0906 -0.5267 -0.4768
 6230SOL    HW230153   2.442   2.512   3.414 -0.8765 -0.6306  0.6794
 6231SOL     OW30154   4.506   1.313   5.851  0.2857 -0.5525 -0.1359
 6231SOL    HW130155   4.546   1.227   5.858 -1.4500 -1.4448 -1.1187
 6231SOL    HW230156   4.556   1.366   5.913 -3.2763  0.9916  1.4088
 6232SOL     OW30157   1.990   1.297   5.076  0.0544 -0.1591  0.2909
 6232SOL    HW130158   2.050   1.362   5.111  0.7451 -1.9360  2.4610
 6232SOL    HW230159   1.990   1.233   5.148 -1.2409  1.4366  1.7025
 6233SOL     OW30160   0.378   3.076  11.507  0.4532 -0.3705 -0.0745
 6233SOL    HW130161   0.343   3.025  11.581  1.0716 -0.2402  0.3102
 6233SOL    HW230162   0.452   3.022  11.478  0.5572  0.7382 -1.8882
 6234SOL     OW30163   2.643   1.065   7.851  0.0032 -0.1016  0.3713
 6234SOL    HW130164   2.673   1.137   7.907 -1.5495  2.0966 -1.5765
 6234SOL    HW230165   2.720   1.009   7.847 -0.3061 -0.5935  1.6502
 6235SOL     OW30166   0.346   1.385   4.089  0.1445  0.5919  0.0472
 6235SOL    HW130167   0.435   1.408   4.114  0.4504  1.5574 -1.9618
 6235SOL    HW230168   0.309   1.474   4.092  1.6064  1.2467 -1.5031
 6236SOL     OW30169   3.444   1.367   3.977  0.2463  0.0017 -0.0631
 6236SOL    HW130170   3.361   1.358   4.022  0.0646 -0.1920 -0.4415
 6236SOL    HW230171   3.460   1.459   3.999  1.6303  0.3488 -2.5373
 6237SOL     OW30172   0.887   2.612   1.371 -0.5214 -0.5178  0.0225
 6237SOL    HW130173   0.942   2.606   1.293 -0.4253 -1.8634  0.1908
 6237SOL    HW230174   0.824   2.675   1.337 -2.9132 -0.7309  4.1033
 6238SOL     OW30175   2.844   3.547   6.170 -0.5616 -0.0204  0.6239
 6238SOL    HW130176   2.886   3.525   6.087 -0.6414  3.1123 -0.2261
 6238SOL    HW230177   2.761   3.501   6.162 -1.2213  1.4561 -0.8586
 6239SOL     OW30178   3.820   1.203   4.771  0.1518 -0.0011  0.8258
 6239SOL    HW130179   3.865   1.146   4.709 -0.8402 -1.0142  1.0510
 6239SOL    HW230180   3.837   1.288   4.730  0.5295  0.3842  1.7921
 6240SOL     OW30181   0.965   0.405  16.173 -0.9468 -0.0387  0.3260
 6240SOL    HW130182   0.978   0.314  16.146 -0.2486  0.8394 -2.2692
 6240SOL    HW230183   1.015   0.447  16.103  0.3849  1.1478  1.9852
 6241SOL     OW30184   0.257   2.611  11.692 -0.3598  0.0669 -0.2810
 6241SOL    HW130185   0.240   2.588  11.784  0.2851  0.9212  0.0442
 6241SOL    HW230186   0.308   2.540  11.652  1.9547  2.1660 -0.9772
 6242SOL     OW30187   1.370   2.898   1.545  0.1353 -0.2334  0.4946
 6242SOL    HW130188   1.363   2.939   1.459 -2.0946 -0.4562  0.5893
 6242SOL    HW230189   1.416   2.970   1.588 -0.9385  0.7135  0.0386
 6243SOL     OW30190   4.248   0.574   9.880  0.1326 -0.8381 -0.3140
 6243SOL    HW130191   4.331   0.622   9.876 -0.3831 -0.0698 -2.1853
 6243SOL    HW230192   4.213   0.603   9.796 -1.7912  1.8690  1.4158
 6244SOL     OW30193   1.020   1.049  17.510 -0.3638 -0.2503  0.2022
 6244SOL    HW130194   0.994   1.137  17.480 -1.6976 -0.6610  0.1732
 6244SOL    HW230195   1.097   1.031  17.455 -0.8020 -4.9405  1.1490
 6245SOL     OW30196   3.877   3.845  11.893  0.1631  0.6734 -0.0791
 6245SOL    HW130197   3.961   3.820  11.931  0.9365 -1.6406 -3.3755
 6245SOL    HW230198   3.877   3.782  11.822  2.1276 -0.7823  1.2017
 6246SOL     OW30199   3.253   2.010   5.216 -0.1392 -0.0515 -0.3177
 6246SOL    HW130200   3.190   1.962   5.163  0.5733 -1.8034  0.3981
 6246SOL    HW230201   3.334   1.959   5.211 -1.5402 -2.2387 -0.7781
 6247SOL     OW30202   1.314   4.662   1.592  0.0306  0.3493 -0.1039
 6247SOL    HW130203   1.389   4.650   1.650 -0.2901  3.3825  0.9357
 6247SOL    HW230204   1.313   0.032   1.566  2.4031  0.6019  0.6588
 6248SOL     OW30205   3.262   3.492   8.558 -0.4414  0.1584 -0.2790
 6248SOL    HW130206   3.343   3.452   8.589 -1.4213 -0.7300  1.1549
 6248SOL    HW230207   3.259   3.580   8.597 -0.4726  0.3104 -0.6248
 6249SOL     OW30208   1.329   0.153   1.211 -0.1263 -0.2798 -0.4700
 6249SOL    HW130209   1.297   0.063   1.206  1.2699 -0.8562  1.0318
 6249SOL    HW230210   1.419   0.131   1.235 -0.0424  2.3367  1.5238
 6250SOL     OW30211   1.453   4.394   5.438  0.2762 -0.0186  0.1110
 6250SOL    HW130212   1.501   4.327   5.388  0.5808 -0.8478  1.5113
 6250SOL    HW230213   1.407   4.339   5.501  0.5627  0.4869  0.7577
 6251SOL     OW30214   1.090   1.735   4.403 -0.0304  0.0848  0.1400
 6251SOL    HW130215   1.071   1.776   4.487 -2.0053 -0.9504  0.2007
 6251SOL    HW230216   1.000   1.747   4.370 -0.6942  0.0811  1.9601
 6252SOL     OW30217   3.790   2.463   0.458 -0.0691  0.5955 -0.3290
 6252SOL    HW130218   3.797   2.370   0.477  0.7736  0.7372  0.0584
 6252SOL    HW230219   3.873   2.495   0.494 -0.8387 -1.4607  3.1770
 6253SOL     OW30220   1.991   1.273   7.268 -0.3429 -0.0467 -0.1539
 6253SOL    HW130221   1.989   1.369   7.265  1.2555  0.0064  0.4999
 6253SOL    HW230222   2.054   1.242   7.202 -0.4345  0.5606 -0.5318
 6254SOL     OW30223   0.927   1.887   2.653  0.1379  0.3150 -0.2192
 6254SOL    HW130224   0.940   1.793   2.663  0.1201  0.5697  2.0555
 6254SOL    HW230225   1.009   1.916   2.693 -0.0280  0.5319 -0.0340
 6255SOL     OW30226   3.308   4.001   8.922  0.0793  0.0832  0.0876
 6255SOL    HW130227   3.259   3.921   8.903 -0.9365  0.6575  0.3231
 6255SOL    HW230228   3.243   4.065   8.951  2.3640  2.5767 -0.3155
 6256SOL     OW30229   1.396   0.511   2.291 -0.4419 -0.5016  0.2798
 6256SOL    HW130230   1.490   0.495   2.307  0.0591  2.2542 -0.0063
 6256SOL    HW230231   1.365   0.420   2.293 -1.8509 -0.0482 -1.4098
 6257SOL     OW30232   0.601   2.670  17.255  0.4625  0.4276 -0.0247
 6257SOL    HW130233   0.514   2.662  17.293 -0.2577  0.7875 -1.6272
 6257SOL    HW230234   0.621   2.580  17.229 -0.5208  0.2120 -0.0357
 6258SOL     OW30235   2.655   3.069   8.828 -1.0593  0.5983  0.7268
 6258SOL    HW130236   2.613   3.040   8.746  1.8437 -1.2325 -0.1058
 6258SOL    HW230237   2.584   3.116   8.872 -1.0172  0.7961  0.5871
 6259SOL     OW30238   2.270   3.289   2.106  0.4105 -0.8233  0.2537
 6259SOL    HW130239   2.297   3.225   2.039 -0.6794  0.3693 -1.3029
 6259SOL    HW230240   2.253   3.366   2.052  0.1908 -0.7843  0.3808
 6260SOL     OW30241   3.102   4.298   5.035 -0.4970  0.4419  0.1472
 6260SOL    HW130242   3.047   4.220   5.047 -0.7182  0.7379  1.0618
 6260SOL    HW230243   3.040   4.363   5.002 -2.0662 -0.6035  1.0828
 6261SOL     OW30244   3.574   4.250   6.310 -0.1917 -0.5409 -0.0832
 6261SOL    HW130245   3.641   4.313   6.284 -2.3358  1.9063  0.3770
 6261SOL    HW230246   3.620   4.196   6.375 -0.3558 -0.0912  0.4044
 6262SOL     OW30247   0.731   1.744  14.616 -0.6271 -0.1653  0.2668
 6262SOL    HW130248   0.732   1.840  14.613  2.6947 -0.1333  2.0080
 6262SOL    HW230249   0.733   1.719  14.523  1.1992  0.3071  0.1667
 6263SOL     OW30250   0.843   4.065   0.979  0.2444  0.4858  0.0063
 6263SOL    HW130251   0.901   3.989   0.980  2.2834  2.0906  2.2776
 6263SOL    HW230252   0.760   4.019   0.967  0.0689  0.8836 -0.2834
 6264SOL     OW30253   0.717   3.958   3.783 -0.3118  0.5517 -0.2029
 6264SOL    HW130254   0.763   4.018   3.841  0.4145 -0.2753  0.0724
 6264SOL    HW230255   0.744   3.991   3.698  0.4570 -0.1987 -0.2487
 6265SOL     OW30256   0.270   2.045  15.096 -0.0347 -0.5212 -0.3814
 6265SOL    HW130257   0.344   2.037  15.036  0.2674 -1.7784  0.1551
 6265SOL    HW230258   0.254   1.952  15.116  0.7385 -0.7558 -0.8482
 6266SOL     OW30259   3.768   0.215  17.139  0.2417  0.3554  0.1285
 6266SOL    HW130260   3.720   0.152  17.193 -0.3667 -0.0379 -0.8644
 6266SOL    HW230261   3.830   0.153  17.100  1.3477  0.2711  2.0221
 6267SOL     OW30262   3.571   4.129   7.953 -0.0941 -0.6739 -0.2062
 6267SOL    HW130263   3.553   4.040   7.924 -1.5727 -0.4613  0.0554
 6267SOL    HW230264   3.650   4.141   7.900  0.0923  1.3525  0.5301
 6268SOL     OW30265   3.452   1.715   7.963  0.4088 -0.0032 -0.0014
 6268SOL    HW130266   3.496   1.782   7.910  0.6090  0.3758  0.6368
 6268SOL    HW230267   3.375   1.757   8.002  0.3269 -1.0574  0.9696
 6269SOL     OW30268   0.326   3.391   0.951  0.0644  0.4464  0.0930
 6269SOL    HW130269   0.358   3.303   0.967 -1.5840 -0.3567 -1.0855
 6269SOL    HW230270   0.322   3.418   1.043  2.3185  2.8530 -0.5105
 6270SOL     OW30271   0.085   0.637   7.538  0.4647 -0.5623  0.7853
 6270SOL    HW130272   0.105   0.649   7.445 -0.3920  0.4002  0.7179
 6270SOL    HW230273   0.168   0.632   7.585  0.1229  0.4558  1.5094
 6271SOL     OW30274   2.174   3.909   2.063  0.8123  0.3491  0.5354
 6271SOL    HW130275   2.243   3.906   1.997  0.1909 -0.1284 -0.0878
 6271SOL    HW230276   2.155   4.002   2.052  1.0771  0.3059 -0.2802
 6272SOL     OW30277   0.833   1.711   6.465  0.0854 -0.1544 -0.2087
 6272SOL    HW130278   0.802   1.648   6.401  0.8251  0.9559 -1.6546
 6272SOL    HW230279   0.901   1.661   6.510  2.2575  2.4101 -0.5886
 6273SOL     OW30280   4.284   1.239   2.278 -0.4489 -0.0951 -0.6500
 6273SOL    HW130281   4.312   1.154   2.313 -1.1211 -1.0336 -2.3654
 6273SOL    HW230282   4.316   1.242   2.188 -1.9736  0.9249 -1.1485
 6274SOL     OW30283   1.645   3.322   4.639  0.0403  0.2023  0.0111
 6274SOL    HW130284   1.714   3.387   4.623 -0.4398  0.6876 -0.0594
 6274SOL    HW230285   1.590   3.352   4.567  0.4336  1.4260  0.2176
 6275SOL     OW30286   3.948   3.210   7.713 -0.3450  0.0602 -0.3624
 6275SOL    HW130287   3.919   3.241   7.627 -1.0304 -0.3434 -0.2777
 6275SOL    HW230288   3.867   3.223   7.763  0.7228  0.5988  1.2194
 6276SOL     OW30289   3.675   1.225  17.460  0.8659  0.4271 -0.0897
 6276SOL    HW130290   3.643   1.306  17.420  1.0743  0.9487  0.8073
 6276SOL    HW230291   3.609   1.224  17.530 -1.3227  0.0046 -2.1509
 6277SOL     OW30292   2.822   1.751  13.285  0.8372  1.1946 -0.2471
 6277SOL    HW130293   2.861   1.809  13.351  0.3704  3.3335 -1.8440
 6277SOL    HW230294   2.791   1.812  13.218  1.1770  1.7312  0.0742
 6278SOL     OW30295   0.817   2.111   2.590  0.2764  0.1003 -0.3291
 6278SOL    HW130296   0.857   2.037   2.636 -0.2414  0.0749  0.0866
 6278SOL    HW230297   0.755   2.071   2.528 -2.2700  1.2369  1.4599
 6279SOL     OW30298   0.547   0.369   5.972  0.3489  0.2801 -0.0845
 6279SOL    HW130299   0.594   0.303   6.023  0.6027  1.7222  1.5687
 6279SOL    HW230300   0.587   0.375   5.885  1.7610  0.6262  0.5868
 6280SOL     OW30301   1.848   3.979   9.393  0.2687 -1.1442  0.5069
 6280SOL    HW130302   1.824   4.071   9.388  0.4862 -1.1506 -0.5450
 6280SOL    HW230303   1.771   3.937   9.354 -1.2431  1.8605  0.2954
 6281SOL     OW30304   1.669   2.196   3.220  0.2664 -0.1999  0.0583
 6281SOL    HW130305   1.622   2.170   3.299 -1.5911  1.4635 -0.5037
 6281SOL    HW230306   1.729   2.263   3.254  1.0152 -1.1890  0.6841
 6282SOL     OW30307   4.162   4.068  15.121  0.0554  0.0193  0.5074
 6282SOL    HW130308   4.213   3.994  15.154 -0.0306  0.1374  0.9049
 6282SOL    HW230309   4.082   4.023  15.095 -0.7139  1.1771  0.9060
 6283SOL     OW30310   0.444   0.561  16.981 -0.2517 -0.6761 -0.0920
 6283SOL    HW130311   0.497   0.641  16.985 -0.3913 -0.5862 -0.0315
 6283SOL    HW230312   0.403   0.571  16.894 -0.6874  1.8635  0.4005
 6284SOL     OW30313   0.919   2.073   5.998  0.5778 -0.4059  0.2847
 6284SOL    HW130314   0.864   2.034   6.066  0.1762  0.2572  0.3340
 6284SOL    HW230315   0.953   1.990   5.965  0.4660 -0.6573  0.8047
 6285SOL     OW30316   0.792   1.700   6.865  0.1120 -0.0730 -0.2116
 6285SOL    HW130317   0.869   1.658   6.901  0.1442 -1.3055 -1.7404
 6285SOL    HW230318   0.730   1.671   6.932  0.8174  0.4401  0.6710
 6286SOL     OW30319   3.053   3.833   8.836  0.0075 -0.1118  0.4625
 6286SOL    HW130320   3.026   3.924   8.843  1.0296  0.3196 -1.2717
 6286SOL    HW230321   3.060   3.822   8.931  0.0653  1.1785  0.5992
 6287SOL     OW30322   3.788   0.002   8.304  0.3543  0.1748  0.1007
 6287SOL    HW130323   3.726   0.059   8.258  2.0461 -0.9633 -3.5961
 6287SOL    HW230324   3.786   0.037   8.393  0.7730  2.3729 -0.7542
 6288SOL     OW30325   3.261   2.406   8.185  0.8136 -0.3930 -0.1337
 6288SOL    HW130326   3.298   2.494   8.191  0.2813 -0.1976  0.3791
 6288SOL    HW230327   3.222   2.399   8.272 -0.9448  0.7778 -0.8116
 6289SOL     OW30328   2.162   3.460   7.599 -0.1738  0.0599 -0.3424
 6289SOL    HW130329   2.225   3.452   7.670  0.3043 -1.0595 -0.8849
 6289SOL    HW230330   2.224   3.429   7.532  1.3101  1.0082  0.6026
 6290SOL     OW30331   2.414   0.200   0.270  0.2548 -0.3347 -0.1120
 6290SOL    HW130332   2.480   0.228   0.206 -1.1194 -0.0942 -1.4185
 6290SOL    HW230333   2.473   0.193   0.346  0.5739  1.1446 -0.2067
 6291SOL     OW30334   2.064   3.995  14.517  0.2113  0.0217 -0.3433
 6291SOL    HW130335   2.051   3.981  14.423  3.2443  0.5471 -0.8683
 6291SOL    HW230336   2.120   4.072  14.518 -1.2898  1.1251 -1.7033
 6292SOL     OW30337   1.395   2.269   3.188  0.1367  0.1831  0.3847
 6292SOL    HW130338   1.423   2.178   3.187  3.2552  1.1785 -1.8881
 6292SOL    HW230339   1.473   2.307   3.146 -0.3281  1.0316  0.2808
 6293SOL     OW30340   0.709   3.766  15.165  0.4316 -0.2964 -0.6666
 6293SOL    HW130341   0.628   3.718  15.149 -0.0813  0.7698 -1.3210
 6293SOL    HW230342   0.762   3.711  15.107  1.9696  1.4137 -0.8807
 6294SOL     OW30343   3.398   1.964   4.343 -0.2834  0.3484 -0.0232
 6294SOL    HW130344   3.364   2.045   4.304 -0.0221  0.7583  0.6008
 6294SOL    HW230345   3.406   1.905   4.267  2.5420 -0.5746  0.9637
 6295SOL     OW30346   4.489   3.633   9.634  0.6943 -0.1677 -0.1839
 6295SOL    HW130347   4.513   3.540   9.635  0.9608 -0.1208 -1.7690
 6295SOL    HW230348   4.413   3.636   9.692  0.2523 -1.9981 -0.6642
 6296SOL     OW30349   0.942   0.743   7.436  0.6225  0.0719 -0.7789
 6296SOL    HW130350   0.881   0.802   7.393 -0.3787 -0.1910  0.2931
 6296SOL    HW230351   0.893   0.731   7.517  0.3081  2.6032 -0.5750
 6297SOL     OW30352   4.299   0.642   3.968  0.4664  0.0474  1.1201
 6297SOL    HW130353   4.354   0.676   4.038  0.7663  0.5603  0.6336
 6297SOL    HW230354   4.288   0.720   3.913 -1.3843 -0.6148  0.5329
 6298SOL     OW30355   4.255   3.506   8.326 -0.0099  0.0619 -0.1278
 6298SOL    HW130356   4.176   3.560   8.332  1.6278  2.5766 -1.0261
 6298SOL    HW230357   4.264   3.470   8.414  2.3985 -0.5534 -0.6146
 6299SOL     OW30358   3.089   3.619  16.343 -0.5916 -0.0438 -0.1863
 6299SOL    HW130359   3.021   3.592  16.404 -1.0729  0.3701 -0.5383
 6299SOL    HW230360   3.056   3.617  16.253 -2.5346 -0.8267  0.5496
 6300SOL     OW30361   3.661   1.728  11.175  0.6490 -0.1113  0.2066
 6300SOL    HW130362   3.634   1.663  11.110 -0.6992 -0.1083  0.7632
 6300SOL    HW230363   3.671   1.802  11.116 -0.9755 -0.9592 -1.1184
 6301SOL     OW30364   1.468   0.923   8.747  0.1327  0.1027 -0.0506
 6301SOL    HW130365   1.563   0.924   8.737  0.2384 -0.4521  0.8436
 6301SOL    HW230366   1.449   0.906   8.839  0.7811  0.4505  0.1463
 6302SOL     OW30367   4.400   1.145   5.474 -0.0438 -0.0693  0.4788
 6302SOL    HW130368   4.418   1.083   5.545  0.3986 -0.9920 -0.4361
 6302SOL    HW230369   4.444   1.098   5.403  0.3473  0.4554  0.3703
 6303SOL     OW30370   3.306   3.086  11.320 -0.3413 -0.8481  0.8690
 6303SOL    HW130371   3.227   3.091  11.266  1.0176 -2.0219 -1.2525
 6303SOL    HW230372   3.274   3.050  11.403 -2.9812 -0.0306  0.2297
 6304SOL     OW30373   2.413   0.528  17.067 -0.6624  0.0028  0.2048
 6304SOL    HW130374   2.403   0.612  17.110 -1.1513 -1.3584  2.7648
 6304SOL    HW230375   2.370   0.476  17.135 -1.9175  0.2590 -0.3976
 6305SOL     OW30376   3.782   0.616  15.096 -0.0467  0.2350 -0.6527
 6305SOL    HW130377   3.859   0.653  15.139  0.4643 -1.7203  0.1019
 6305SOL    HW230378   3.712   0.650  15.153  0.5986 -2.1098  1.5207
 6306SOL     OW30379   1.422   1.263   5.283 -0.4862  0.0042 -0.4006
 6306SOL    HW130380   1.422   1.291   5.375 -1.1062  1.3543 -0.8304
 6306SOL    HW230381   1.330   1.240   5.268 -0.5121 -0.4010  0.3677
 6307SOL     OW30382   4.609   3.320  12.104 -0.3719  0.1443  0.6735
 6307SOL    HW130383   4.688   3.267  12.091  0.2704  1.8673 -2.4668
 6307SOL    HW230384   4.560   3.315  12.022  1.8842  2.4501 -0.8493
 6308SOL     OW30385   2.426   4.450   3.795 -0.9230 -0.3834 -0.3483
 6308SOL    HW130386   2.350   4.392   3.795 -0.6386 -0.7540 -0.0128
 6308SOL    HW230387   2.386   4.534   3.773 -1.1944  0.1450  2.2059
 6309SOL     OW30388   1.819   2.051   3.075 -0.3161 -0.0757  0.3550
 6309SOL    HW130389   1.771   2.099   3.143 -2.9905 -2.4985  0.1369
 6309SOL    HW230390   1.895   2.025   3.127  1.6482  1.8003 -1.6095
 6310SOL     OW30391   2.547   1.603  10.162  0.0924  0.0090 -0.4068
 6310SOL    HW130392   2.544   1.560  10.077 -3.3813  0.2111 -0.3754
 6310SOL    HW230393   2.540   1.537  10.231 -1.8291  1.1654  0.4957
 6311SOL     OW30394   3.246   3.670   0.127 -0.2388  0.4471  0.1051
 6311SOL    HW130395   3.270   3.578   0.134  1.0734  0.6478 -1.7015
 6311SOL    HW230396   3.332   3.695   0.091 -0.1942 -1.1163 -0.8755
 6312SOL     OW30397   0.788   4.392  13.159 -0.2039 -0.3862  0.1182
 6312SOL    HW130398   0.721   4.460  13.151  0.2826  0.0533 -0.1961
 6312SOL    HW230399   0.758   4.321  13.101  3.2307 -3.7292  2.4816
 6313SOL     OW30400   2.645   2.514   8.581 -0.5537 -0.2842 -0.7173
 6313SOL    HW130401   2.566   2.468   8.609 -0.2575  1.9848  3.8213
 6313SOL    HW230402   2.673   2.542   8.668 -2.4237 -1.2999  0.2237
 6314SOL     OW30403   2.641   3.032   5.027  0.3844 -0.0361  0.0576
 6314SOL    HW130404   2.707   2.977   5.068  0.2153  0.3326  0.8233
 6314SOL    HW230405   2.586   3.047   5.104 -1.9036 -1.4217 -1.3143
 6315SOL     OW30406   2.977   2.875   7.055 -0.0514 -0.5258 -0.2838
 6315SOL    HW130407   3.042   2.928   7.101  0.4274  0.0220 -1.6070
 6315SOL    HW230408   2.942   2.938   6.992  3.8116  1.4757 -0.3721
 6316SOL     OW30409   1.791   3.420   7.124 -0.1808 -0.3247  0.2034
 6316SOL    HW130410   1.704   3.422   7.163 -0.7251 -2.4793 -0.9000
 6316SOL    HW230411   1.844   3.458   7.194 -1.5558 -1.1155  1.7009
 6317SOL     OW30412   3.382   0.567   5.363  0.7541 -1.0366 -0.2160
 6317SOL    HW130413   3.342   0.484   5.340  0.1686 -0.5563 -0.9269
 6317SOL    HW230414   3.447   0.576   5.293 -0.5051  0.4866 -1.1919
 6318SOL     OW30415   3.123   3.727   5.013 -0.2767 -0.1158 -0.5491
 6318SOL    HW130416   3.033   3.694   5.016 -0.3910  0.2709  0.5109
 6318SOL    HW230417   3.180   3.676   5.070 -0.0965  1.2165  0.4798
 6319SOL     OW30418   1.570   1.497   3.573  0.1769  0.2274 -0.0966
 6319SOL    HW130419   1.485   1.530   3.603  0.2115 -0.0136  0.2732
 6319SOL    HW230420   1.550   1.403   3.577  1.4774  0.1660  6.0742
 6320SOL     OW30421   1.116   2.328  11.954 -0.5991  0.5229  0.0095
 6320SOL    HW130422   1.039   2.330  12.010 -0.2918  0.1665  0.4538
 6320SOL    HW230423   1.078   2.302  11.870 -0.3418  1.1682 -0.2997
 6321SOL     OW30424   2.688   4.166  12.718 -0.6498 -0.0163  0.1693
 6321SOL    HW130425   2.722   4.152  12.629  2.0797 -0.6590  1.3151
 6321SOL    HW230426   2.637   4.246  12.706  0.1050  0.3189 -0.8157
 6322SOL     OW30427   1.553   3.032   2.381 -0.4264  0.0503 -0.4469
 6322SOL    HW130428   1.520   3.009   2.468 -0.7263 -1.7670 -1.0573
 6322SOL    HW230429   1.644   3.051   2.406 -0.5486 -0.9408  0.7267
 6323SOL     OW30430   4.645   4.139   8.033  0.6277 -0.0734 -0.1169
 6323SOL    HW130431   4.596   4.168   7.956  0.7010  0.5078  0.0549
 6323SOL    HW230432   0.010   4.137   7.992  1.1397 -0.7788  0.9961
 6324SOL     OW30433   3.905   3.159   1.597  0.3242 -0.8099 -0.4201
 6324SOL    HW130434   3.826   3.212   1.588  0.5609 -0.4209 -0.2081
 6324SOL    HW230435   3.891   3.098   1.669 -0.8763  1.3432  1.1495
 6325SOL     OW30436   3.078   3.649   6.834  0.1115 -0.4112 -0.0406
 6325SOL    HW130437   2.999   3.701   6.852  0.7804  1.6061 -2.9074
 6325SOL    HW230438   3.043   3.565   6.805 -0.1101  0.5391 -2.5350
 6326SOL     OW30439   4.542   1.790  13.631  0.2500 -0.4159 -0.3610
 6326SOL    HW130440   4.561   1.776  13.724  0.9548  0.9358 -0.3052
 6326SOL    HW230441   4.622   1.762  13.586  1.2358  1.8754  0.0038
 6327SOL     OW30442   2.635   4.316   5.270  0.0494  0.0111  0.4494
 6327SOL    HW130443   2.613   4.224   5.256 -1.8722  0.9405 -2.6624
 6327SOL    HW230444   2.578   4.365   5.211  1.5139  2.3954  1.0108
 6328SOL     OW30445   2.442   1.402   7.096 -0.2858  0.2582  0.1711
 6328SOL    HW130446   2.454   1.340   7.169 -1.7506 -0.3504 -0.1078
 6328SOL    HW230447   2.484   1.358   7.023  0.9798  1.8215 -0.0475
 6329SOL     OW30448   0.349   1.285  10.407 -0.5860 -0.1073 -0.0488
 6329SOL    HW130449   0.388   1.199  10.393  3.1018  1.5519  0.1895
 6329SOL    HW230450   0.340   1.321  10.319  0.0817  5.1247  2.0441
 6330SOL     OW30451   4.167   2.479   8.060 -0.2870  0.5632  0.1362
 6330SOL    HW130452   4.219   2.559   8.072  1.7109 -0.7494  0.2320
 6330SOL    HW230453   4.164   2.442   8.148 -2.0853  0.8919  0.1979
 6331SOL     OW30454   4.714   0.877   5.063 -0.4882  0.2937  0.1019
 6331SOL    HW130455   0.057   0.823   5.109 -2.0275  0.9558  3.0305
 6331SOL    HW230456   4.632   0.830   5.072 -0.1807 -0.2302  0.1401
 6332SOL     OW30457   2.466   1.656   7.371  0.2274  0.5139 -0.5820
 6332SOL    HW130458   2.508   1.571   7.387 -0.2725  0.1389 -1.2261
 6332SOL    HW230459   2.388   1.634   7.320 -0.4976 -0.4481  0.9267
 6333SOL     OW30460   2.356   1.146   4.866  0.1749  0.2369  0.3189
 6333SOL    HW130461   2.412   1.100   4.803 -0.3111 -0.7857  0.6388
 6333SOL    HW230462   2.331   1.221   4.812  1.1985 -1.6470 -2.7803
 6334SOL     OW30463   3.671   1.832   6.605 -0.2994  0.0396 -0.4682
 6334SOL    HW130464   3.748   1.886   6.621  0.1990 -1.3610  1.8184
 6334SOL    HW230465   3.656   1.856   6.513 -4.1660  1.5392  0.5192
 6335SOL     OW30466   2.232   1.620   2.791 -0.1166 -0.6535 -0.4063
 6335SOL    HW130467   2.274   1.660   2.867 -1.0654 -0.0451 -0.2012
 6335SOL    HW230468   2.291   1.633   2.717  0.0409  2.0614  0.1959
 6336SOL     OW30469   4.421   4.075   7.225  0.5087  0.3558 -0.3024
 6336SOL    HW130470   4.491   4.034   7.173 -0.4200 -2.3673  0.6129
 6336SOL    HW230471   4.457   4.163   7.237 -1.2307  1.0423 -0.1579
 6337SOL     OW30472   0.615   3.521   6.238  0.5400  0.0406  0.1081
 6337SOL    HW130473   0.526   3.524   6.273  0.1791  0.7931 -0.8883
 6337SOL    HW230474   0.621   3.597   6.181  1.3858  0.1959  0.4073
 6338SOL     OW30475   2.159   0.780  15.088 -0.2187 -0.5643 -0.0118
 6338SOL    HW130476   2.075   0.764  15.044  0.2618 -3.2746  0.1021
 6338SOL    HW230477   2.212   0.812  15.014 -1.7923 -0.9201 -1.3064
 6339SOL     OW30478   0.934   0.267   1.946 -0.5086  0.2883  0.3187
 6339SOL    HW130479   0.861   0.311   1.902 -0.9704 -0.7772  0.0112
 6339SOL    HW230480   0.933   0.179   1.907 -1.3342  0.0607  0.8581
 6340SOL     OW30481   4.483   2.761   1.381 -0.0679 -0.1419  0.2628
 6340SOL    HW130482   4.451   2.839   1.427  0.4897  0.2920 -0.0748
 6340SOL    HW230483   4.570   2.755   1.421  0.4039  0.8823 -0.5903
 6341SOL     OW30484   1.114   0.385  15.212  0.1796 -0.1745  0.1229
 6341SOL    HW130485   1.200   0.418  15.187 -0.5786  1.2851 -0.5605
 6341SOL    HW230486   1.138   0.305  15.259  1.8550 -0.3399 -1.0004
 6342SOL     OW30487   0.934   1.742   7.301 -0.1969 -0.2000 -0.0028
 6342SOL    HW130488   0.923   1.836   7.316  0.2898 -0.2464  0.6500
 6342SOL    HW230489   1.012   1.739   7.356 -1.3164  0.5866  1.6203
 6343SOL     OW30490   0.787   4.439  15.344  0.1171 -0.0875  0.2745
 6343SOL    HW130491   0.713   4.499  15.348 -0.5859 -0.9901  0.7363
 6343SOL    HW230492   0.853   4.501  15.313 -0.3675 -0.5836 -1.7849
 6344SOL     OW30493   3.260   3.414   4.537  0.5192 -0.1787 -0.3098
 6344SOL    HW130494   3.192   3.429   4.472  1.7954 -3.0035 -2.2606
 6344SOL    HW230495   3.244   3.492   4.590  1.8408 -1.0075  1.3012
 6345SOL     OW30496   0.266   3.373   7.257 -0.1917 -0.0729  0.0058
 6345SOL    HW130497   0.287   3.349   7.347 -0.3386 -1.1887 -0.2532
 6345SOL    HW230498   0.202   3.308   7.227  0.2343  1.1405 -3.5155
 6346SOL     OW30499   2.644   2.165   3.257 -0.6137 -0.7211  0.5023
 6346SOL    HW130500   2.590   2.230   3.213  1.1132 -1.5834 -2.9521
 6346SOL    HW230501   2.725   2.170   3.206  0.6739  0.9348  2.6868
 6347SOL     OW30502   4.077   3.509  10.174  0.3948  0.0528 -0.1155
 6347SOL    HW130503   4.144   3.443  10.155  0.5907 -0.2587  1.6536
 6347SOL    HW230504   4.104   3.531  10.263  2.2784 -2.1117 -0.1383
 6348SOL     OW30505   1.755   2.379   8.485  0.1481  0.3483 -1.0574
 6348SOL    HW130506   1.693   2.307   8.477  0.8795 -0.2838 -0.9786
 6348SOL    HW230507   1.798   2.369   8.400  2.6613 -0.7608  0.3533
 6349SOL     OW30508   4.417   1.769   7.418 -0.1261  0.0795 -0.3114
 6349SOL    HW130509   4.385   1.685   7.384  0.1502 -0.5216  0.9194
 6349SOL    HW230510   4.338   1.821   7.401 -1.0232 -1.4732 -0.9217
 6350SOL     OW30511   3.216   1.560   3.658  0.4865 -0.1335  0.1358
 6350SOL    HW130512   3.217   1.656   3.656 -0.9317 -0.1599 -1.4005
 6350SOL    HW230513   3.131   1.539   3.696  0.7417 -0.0746  0.7321
 6351SOL     OW30514   3.012   2.451   9.827  0.5042 -0.2188 -0.1999
 6351SOL    HW130515   2.936   2.510   9.822  1.6509  1.3876  1.0937
 6351SOL    HW230516   3.063   2.486   9.900  0.6736 -2.2921  0.6594
 6352SOL     OW30517   2.580   1.063   3.078 -0.2362  0.1576  0.4164
 6352SOL    HW130518   2.658   1.116   3.096 -0.7639  0.6341  1.3365
 6352SOL    HW230519   2.609   0.977   3.109 -0.4298  0.4638  1.4753
 6353SOL     OW30520   3.352   3.148   7.544 -0.2363 -0.1844 -0.0611
 6353SOL    HW130521   3.355   3.147   7.640 -0.0700 -1.0912 -0.0796
 6353SOL    HW230522   3.441   3.182   7.529 -1.0915  2.3476  0.6319
 6354SOL     OW30523   2.405   3.228   5.443  0.6390 -0.0463 -0.1357
 6354SOL    HW130524   2.391   3.145   5.488  1.0260  0.6207  1.2064
 6354SOL    HW230525   2.318   3.266   5.431 -0.8296 -3.3514  0.1506
 6355SOL     OW30526   2.461   4.051   2.418  0.5051 -0.0232  0.4138
 6355SOL    HW130527   2.523   4.060   2.490  0.4816 -0.5167  0.4949
 6355SOL    HW230528   2.512   4.076   2.342  0.7678 -0.4914  0.4351
 6356SOL     OW30529   2.564   4.083   2.153 -0.5777  0.0796 -0.2205
 6356SOL    HW130530   2.634   4.088   2.088 -0.7935  0.4362 -0.4296
 6356SOL    HW230531   2.507   4.159   2.139  1.6716  2.0075  0.9921
 6357SOL     OW30532   2.297   3.986   6.715 -0.2329  0.7114 -0.0003
 6357SOL    HW130533   2.289   4.080   6.700  1.0425  0.7182 -0.6593
 6357SOL    HW230534   2.279   3.976   6.809  0.0834  2.3688  0.2400
 6358SOL     OW30535   1.023   0.298  13.609  0.1308  0.0513 -0.6049
 6358SOL    HW130536   1.008   0.208  13.639 -0.1026 -0.1652 -1.3783
 6358SOL    HW230537   1.088   0.284  13.540 -1.5931 -1.4884 -1.8919
 6359SOL     OW30538   3.254   1.963   8.044  0.3482 -0.6826 -1.2055
 6359SOL    HW130539   3.300   2.046   8.029 -0.3581  0.1270  0.9481
 6359SOL    HW230540   3.275   1.942   8.135  0.5214  0.4965 -0.9693
 6360SOL     OW30541   1.840   4.254   6.012 -0.2399  0.1630 -0.4657
 6360SOL    HW130542   1.748   4.262   5.986 -0.1930  2.4884  0.1106
 6360SOL    HW230543   1.878   4.336   5.983  1.9307 -0.2885  1.1207
 6361SOL     OW30544   0.817   1.145   7.260  0.4313  0.0624 -0.0839
 6361SOL    HW130545   0.864   1.198   7.324 -0.5754 -1.1161  1.6202
 6361SOL    HW230546   0.745   1.206   7.243  0.7912  0.9617  1.6557
 6362SOL     OW30547   3.003   4.472   5.629  0.3405  0.2538  0.3646
 6362SOL    HW130548   3.066   4.441   5.564 -0.2658 -0.2702  0.0265
 6362SOL    HW230549   2.921   4.456   5.581  0.2392 -1.5670  1.1559
 6363SOL     OW30550   2.761   3.061   7.953  0.1182 -0.0610 -0.0081
 6363SOL    HW130551   2.839   3.053   7.898  0.1375 -1.1698  0.1701
 6363SOL    HW230552   2.784   3.135   8.008  0.4817  0.4669 -0.8698
 6364SOL     OW30553   1.411   2.036   7.611 -0.1238 -0.2406  0.0312
 6364SOL    HW130554   1.498   2.054   7.575 -0.5756  0.6801 -0.5812
 6364SOL    HW230555   1.436   1.967   7.674 -0.8076  1.0471  1.7205
 6365SOL     OW30556   1.215   0.553  16.257 -0.1140 -0.2556 -0.5930
 6365SOL    HW130557   1.199   0.541  16.164  0.6002  0.7421 -0.8402
 6365SOL    HW230558   1.136   0.598  16.288  0.5356  0.8262 -0.5292
 6366SOL     OW30559   3.401   1.821   4.076  0.5370 -0.0284 -0.3030
 6366SOL    HW130560   3.382   1.750   4.014 -1.8015  1.1421 -0.9143
 6366SOL    HW230561   3.467   1.877   4.035  1.7498 -1.8383 -0.8253
 6367SOL     OW30562   1.155   3.710   4.380 -0.0833  0.0816  0.1679
 6367SOL    HW130563   1.228   3.763   4.413 -0.0352  0.7819 -1.0432
 6367SOL    HW230564   1.167   3.625   4.422  0.2209 -0.1065 -0.2903
 6368SOL     OW30565   0.770   0.057   7.919 -0.0348  0.3613 -0.1889
 6368SOL    HW130566   0.681   0.023   7.926  0.9675 -2.2438 -0.2554
 6368SOL    HW230567   0.791   0.083   8.009 -0.0925  2.6085 -0.8261
 6369SOL     OW30568   3.605   2.117   5.669 -0.4876 -0.2145  0.1696
 6369SOL    HW130569   3.687   2.117   5.620  0.4745 -1.5735  1.8250
 6369SOL    HW230570   3.579   2.210   5.667  1.2684  0.2454 -1.4897
 6370SOL     OW30571   1.061   2.682   4.950  0.2975  0.3242  0.3357
 6370SOL    HW130572   1.083   2.602   4.997  0.1594  1.3279  2.1087
 6370SOL    HW230573   0.988   2.711   5.005 -1.7745 -0.7342 -1.7879
 6371SOL     OW30574   3.495   1.661   7.208 -0.0295  0.2943 -0.4386
 6371SOL    HW130575   3.590   1.660   7.215 -0.3189  1.2587  3.5850
 6371SOL    HW230576   3.477   1.742   7.160 -3.5298 -0.7564 -0.8917
 6372SOL     OW30577   3.108   3.606  12.351  1.2080  0.2327  0.1446
 6372SOL    HW130578   3.172   3.673  12.332 -1.2140  1.9805 -1.8260
 6372SOL    HW230579   3.101   3.574  12.261 -2.2997  2.6689 -0.4577
 6373SOL     OW30580   3.021   2.157  14.964  0.7606 -0.0621 -0.0438
 6373SOL    HW130581   3.095   2.138  15.021  1.1844  0.4750 -0.4195
 6373SOL    HW230582   2.945   2.169  15.021  1.5696 -0.1408  1.0512
 6374SOL     OW30583   1.451   1.179   8.665  0.5077  0.2121  0.6260
 6374SOL    HW130584   1.456   1.091   8.703  0.4553  0.3143  0.8662
 6374SOL    HW230585   1.518   1.187   8.597 -0.4110  0.2783 -0.2730
 6375SOL     OW30586   1.025   3.733  10.418  0.0429  0.7188  0.1059
 6375SOL    HW130587   1.035   3.732  10.513 -1.1875 -1.2814  0.2066
 6375SOL    HW230588   0.930   3.739  10.410 -0.0496  0.4827  1.1007
 6376SOL     OW30589   0.319   1.596  16.629  0.5518 -0.1462 -0.1060
 6376SOL    HW130590   0.360   1.678  16.602 -1.3571 -0.3281 -3.4904
 6376SOL    HW230591   0.231   1.629  16.647  0.5209  0.2686 -1.0143
 6377SOL     OW30592   2.683   3.913   3.739  0.0753 -0.3386 -0.6111
 6377SOL    HW130593   2.726   3.977   3.795 -1.0168  0.0924 -0.2652
 6377SOL    HW230594   2.746   3.895   3.669 -1.0680 -2.8821 -1.0043
 6378SOL     OW30595   0.420   0.903  15.072 -0.1154  0.2688  0.1790
 6378SOL    HW130596   0.336   0.859  15.057  0.4082 -1.7494  3.0033
 6378SOL    HW230597   0.457   0.862  15.151 -0.3100 -1.3474 -0.5649
 6379SOL     OW30598   3.306   2.760   5.788  0.4551 -0.0556 -0.0610
 6379SOL    HW130599   3.231   2.757   5.848  0.5174  0.3774  0.0438
 6379SOL    HW230600   3.380   2.781   5.845 -0.2663 -1.4694  1.4141
 6380SOL     OW30601   2.049   0.056   8.404 -0.1244 -0.4955 -0.4596
 6380SOL    HW130602   1.996   0.113   8.460  1.8230  0.8732  0.0194
 6380SOL    HW230603   2.138   0.061   8.441 -0.1023 -0.0670 -0.5658
 6381SOL     OW30604   2.461   3.334   7.462  0.1548 -0.1775 -0.4961
 6381SOL    HW130605   2.554   3.357   7.464 -0.1569  0.9233  1.0129
 6381SOL    HW230606   2.463   3.284   7.544 -1.6554  1.1470  0.3439
 6382SOL     OW30607   0.674   0.179   6.142 -0.0448 -0.3105  0.3204
 6382SOL    HW130608   0.583   0.154   6.156  0.1422 -0.3379  1.4615
 6382SOL    HW230609   0.700   0.177   6.233  2.1738 -0.1206 -0.3097
 6383SOL     OW30610   3.875   2.048   3.789 -0.6414  0.1967  0.3194
 6383SOL    HW130611   3.914   2.109   3.850 -1.7914 -1.1134  2.3831
 6383SOL    HW230612   3.945   2.050   3.724 -3.2192 -0.0928 -2.4831
 6384SOL     OW30613   2.454   2.109   4.760 -0.0276 -0.1317  0.0391
 6384SOL    HW130614   2.379   2.059   4.730  1.1086 -2.0082  0.3678
 6384SOL    HW230615   2.511   2.101   4.683  0.9852  2.4045  0.5103
 6385SOL     OW30616   0.158   0.714   5.984  0.2168  0.5919 -0.1852
 6385SOL    HW130617   0.123   0.683   6.067  2.9080 -0.3002  0.6294
 6385SOL    HW230618   0.213   0.640   5.960 -2.0937 -1.0879 -0.2397
 6386SOL     OW30619   2.124   3.504  13.793 -0.0418  0.5708 -0.2860
 6386SOL    HW130620   2.082   3.535  13.712  2.4210  1.4284 -1.2457
 6386SOL    HW230621   2.142   3.590  13.830  1.2658 -0.1744  0.8007
 6387SOL     OW30622   1.821   2.758  14.561 -0.4466 -0.1104  0.1711
 6387SOL    HW130623   1.765   2.724  14.491 -1.2880 -0.5278  1.0535
 6387SOL    HW230624   1.822   2.851  14.540 -0.9368  0.2274  1.6485
 6388SOL     OW30625   1.524   0.386  15.748 -0.2701  0.4302  0.5852
 6388SOL    HW130626   1.574   0.444  15.805  0.2570 -1.2361  1.8204
 6388SOL    HW230627   1.585   0.312  15.746 -0.2474  0.4943 -1.0772
 6389SOL     OW30628   1.209   3.556  13.618 -0.2324 -0.3593 -0.2704
 6389SOL    HW130629   1.225   3.552  13.712  1.1930 -0.8627 -0.5302
 6389SOL    HW230630   1.250   3.474  13.591  0.2652 -0.0455 -0.4682
 6390SOL     OW30631   2.220   2.023   5.596  0.2131  0.0547  0.3564
 6390SOL    HW130632   2.315   2.013   5.607  0.0968 -0.2093  1.1372
 6390SOL    HW230633   2.204   2.115   5.619  1.4178  0.6055 -1.0320
 6391SOL     OW30634   3.503   2.532   2.351  0.2468 -0.3781  0.3378
 6391SOL    HW130635   3.483   2.581   2.271  1.1521 -0.4498  0.0573
 6391SOL    HW230636   3.527   2.600   2.414  1.6625  0.4092 -1.0222
 6392SOL     OW30637   3.382   0.061   2.683  0.5172 -0.1241 -0.0459
 6392SOL    HW130638   3.372   0.072   2.589  1.0574 -0.9472 -0.1921
 6392SOL    HW230639   3.451   0.123   2.709 -0.3920  0.8249  0.1063
 6393SOL     OW30640   2.335   4.133   3.191 -0.2048 -0.3261  0.0895
 6393SOL    HW130641   2.290   4.215   3.170 -3.0657 -1.8208  0.4884
 6393SOL    HW230642   2.398   4.159   3.258 -0.7488 -1.7690  1.1502
 6394SOL     OW30643   2.361   3.622   1.567 -0.4162 -0.4174 -0.0882
 6394SOL    HW130644   2.421   3.597   1.498  0.8342  3.3761 -0.3710
 6394SOL    HW230645   2.281   3.574   1.545 -2.4721  2.4701  1.0230
 6395SOL     OW30646   2.248   0.568   2.520 -0.5474 -0.6625 -0.5493
 6395SOL    HW130647   2.202   0.603   2.444 -1.5449 -0.9483 -0.0710
 6395SOL    HW230648   2.293   0.651   2.536  0.5700 -1.3396 -0.1171
 6396SOL     OW30649   0.852   4.243   6.985 -0.3124 -0.5945 -0.1083
 6396SOL    HW130650   0.930   4.244   6.930 -1.6117 -0.7248 -1.9419
 6396SOL    HW230651   0.789   4.272   6.919  1.6534 -1.1858 -2.2191
 6397SOL     OW30652   4.427   4.423  13.071  0.5351 -0.0629 -0.7528
 6397SOL    HW130653   4.467   4.396  12.989  0.7726 -0.0654 -0.6365
 6397SOL    HW230654   4.503   4.419  13.130 -1.0757  1.4968  1.4336
 6398SOL     OW30655   2.286   1.584   8.707  0.1644 -0.4193  0.1499
 6398SOL    HW130656   2.329   1.499   8.694 -0.9482 -1.0083  0.2559
 6398SOL    HW230657   2.229   1.569   8.632  0.9355  0.5066 -0.6175
 6399SOL     OW30658   4.028   2.722  10.261  0.4205 -0.0899 -0.0567
 6399SOL    HW130659   4.092   2.695  10.195 -2.2558 -0.8078 -2.3929
 6399SOL    HW230660   3.958   2.656  10.255  0.8619 -0.6268  0.7888
 6400SOL     OW30661   0.811   1.676  14.358  0.1355 -0.7193 -0.2792
 6400SOL    HW130662   0.886   1.727  14.328 -0.6300  0.8030  0.3557
 6400SOL    HW230663   0.849   1.588  14.361 -0.6956 -0.9768  2.0647
 6401SOL     OW30664   2.395   1.880   1.804  0.1999  0.6498 -0.4955
 6401SOL    HW130665   2.353   1.887   1.889  1.2353  2.4254 -0.1309
 6401SOL    HW230666   2.322   1.880   1.741  0.1329  0.7249 -0.4175
 6402SOL     OW30667   0.521   2.196  16.264 -0.9438 -0.0645 -0.5344
 6402SOL    HW130668   0.527   2.226  16.173 -1.8609 -0.1531 -0.6183
 6402SOL    HW230669   0.530   2.101  16.254 -0.2436  0.0802 -1.3136
 6403SOL     OW30670   4.436   0.206   7.786  0.5209  0.5875 -0.0640
 6403SOL    HW130671   4.380   0.282   7.775  1.4472  1.4007  0.8485
 6403SOL    HW230672   4.521   0.227   7.746  1.9326 -0.0941  2.5366
 6404SOL     OW30673   2.991   1.346  15.133  0.2095 -0.0460  0.6263
 6404SOL    HW130674   3.057   1.372  15.069  1.2511 -0.6849  1.4452
 6404SOL    HW230675   3.012   1.254  15.149  1.2097 -0.2107 -1.6460
 6405SOL     OW30676   4.032   0.562  10.429 -0.0185  0.0422  0.0358
 6405SOL    HW130677   3.948   0.519  10.447  0.1285 -0.2971 -0.1020
 6405SOL    HW230678   4.095   0.491  10.429 -0.3287 -0.2296 -0.4622
 6406SOL     OW30679   3.456   3.341   6.790 -0.4310 -0.2240 -0.4662
 6406SOL    HW130680   3.540   3.382   6.768 -0.0441 -1.6296 -1.6077
 6406SOL    HW230681   3.464   3.257   6.746 -1.9481 -0.4919 -0.2243
 6407SOL     OW30682   3.316   0.217   1.472 -0.2201 -0.7980  0.3937
 6407SOL    HW130683   3.343   0.246   1.385  0.3029  0.3152  0.9335
 6407SOL    HW230684   3.331   0.123   1.459 -1.6971 -0.6604 -2.3239
 6408SOL     OW30685   4.459   4.674   7.157 -0.6206  0.1275  0.2163
 6408SOL    HW130686   4.375   4.659   7.115 -1.2292 -0.7204  1.7442
 6408SOL    HW230687   4.461   0.048   7.165 -3.0209  0.2942 -1.3294
 6409SOL     OW30688   2.021   3.589   8.325  0.0128 -0.1999  0.2111
 6409SOL    HW130689   1.959   3.527   8.286  0.3529  0.0165 -0.6653
 6409SOL    HW230690   1.964   3.664   8.338  0.7286  0.9561 -3.3665
 6410SOL     OW30691   2.107   1.691   2.128  0.4388  0.2730 -0.0835
 6410SOL    HW130692   2.127   1.680   2.035 -1.2599 -0.6023 -0.3555
 6410SOL    HW230693   2.158   1.623   2.171 -1.6176 -0.0736  1.8075
 6411SOL     OW30694   3.801   4.408   6.355 -0.3897 -0.0775 -0.2022
 6411SOL    HW130695   3.887   4.449   6.363 -0.6273  0.4792 -0.4622
 6411SOL    HW230696   3.827   4.325   6.315  2.5703  0.9074 -0.3480
 6412SOL     OW30697   2.474   0.109  11.003 -0.0846 -0.3786  0.8395
 6412SOL    HW130698   2.512   0.022  11.011  0.6121 -0.0722  0.7980
 6412SOL    HW230699   2.530   0.148  10.937 -0.2473  0.4771  1.2144
 6413SOL     OW30700   4.190   3.322   6.258 -0.1271 -0.4315  0.6510
 6413SOL    HW130701   4.248   3.398   6.255 -0.5564 -0.1028  0.9115
 6413SOL    HW230702   4.163   3.307   6.348 -0.4907  1.2243  0.8070
 6414SOL     OW30703   3.813   2.866   8.822 -0.0905 -0.0981  0.2787
 6414SOL    HW130704   3.784   2.790   8.872  0.9409 -0.6753 -0.0121
 6414SOL    HW230705   3.851   2.921   8.890 -0.6525  0.2528  0.3094
 6415SOL     OW30706   1.323   0.657   6.198 -0.6919  0.4048  0.5394
 6415SOL    HW130707   1.399   0.674   6.143 -2.1316  3.4599 -0.5102
 6415SOL    HW230708   1.255   0.631   6.136 -2.1460  2.3661  1.2898
 6416SOL     OW30709   2.472   4.361   1.491 -0.5904  0.1260  0.1062
 6416SOL    HW130710   2.565   4.345   1.509 -0.8419 -0.8416  0.5493
 6416SOL    HW230711   2.446   4.282   1.443 -2.1380  1.8873 -1.9554
 6417SOL     OW30712   2.144   3.916  16.158 -0.6996  0.6883 -0.3181
 6417SOL    HW130713   2.177   3.835  16.118  1.2455  0.9736  0.7119
 6417SOL    HW230714   2.196   3.910  16.238  1.3419  0.3319 -1.6506
 6418SOL     OW30715   2.748   0.253   5.622 -0.1716  0.0014 -0.1532
 6418SOL    HW130716   2.790   0.339   5.630 -0.8251  0.2632  0.4692
 6418SOL    HW230717   2.698   0.251   5.703 -0.3597  1.2969 -0.2317
 6419SOL     OW30718   3.336   1.008  15.889 -0.0167 -0.4282  0.6658
 6419SOL    HW130719   3.270   1.063  15.847  1.0571 -1.6268 -2.5812
 6419SOL    HW230720   3.303   0.994  15.978  0.7610  0.2203  1.0648
 6420SOL     OW30721   3.692   0.766   9.192 -0.1841  0.5402 -0.3619
 6420SOL    HW130722   3.701   0.861   9.186 -0.3157  0.5303 -0.7171
 6420SOL    HW230723   3.674   0.734   9.103  0.4584  1.4256 -0.8131
 6421SOL     OW30724   3.302   0.564   7.242  0.1510 -0.1424  0.6053
 6421SOL    HW130725   3.222   0.519   7.216  0.1627 -0.1868  0.6454
 6421SOL    HW230726   3.271   0.653   7.257  0.1722  0.0555 -0.5445
 6422SOL     OW30727   4.037   3.242   2.856  0.7250 -0.2016  0.3235
 6422SOL    HW130728   4.114   3.256   2.911  0.6636 -0.5310  0.4960
 6422SOL    HW230729   3.974   3.246   2.929  2.6289 -2.1776  2.0682
 6423SOL     OW30730   0.665   4.029   5.234 -0.3009 -0.0603 -0.0195
 6423SOL    HW130731   0.608   3.991   5.167  0.6742 -0.8728 -0.3990
 6423SOL    HW230732   0.734   4.065   5.178 -0.8047 -0.0279 -0.6151
 6424SOL     OW30733   1.668   2.032   1.528  0.0168  0.1481  0.2422
 6424SOL    HW130734   1.623   1.982   1.596 -2.1475  0.4784 -0.9088
 6424SOL    HW230735   1.686   2.113   1.574 -0.8887  0.9980 -0.8956
 6425SOL     OW30736   3.333   2.230   9.334  0.6055  0.6774 -0.5063
 6425SOL    HW130737   3.373   2.259   9.417  0.3102 -0.6336  0.1018
 6425SOL    HW230738   3.241   2.256   9.339  1.2383  3.0671 -1.1284
 6426SOL     OW30739   0.923   0.733  12.245 -0.4253 -0.7013 -0.2411
 6426SOL    HW130740   0.937   0.828  12.248 -0.0813 -0.7631  0.0497
 6426SOL    HW230741   0.957   0.718  12.333  1.2267 -0.0912 -0.7776
 6427SOL     OW30742   1.389   2.585   2.933 -0.3952  0.3802  0.0158
 6427SOL    HW130743   1.402   2.581   2.838  3.4169 -0.8100  0.5841
 6427SOL    HW230744   1.350   2.499   2.951  0.6967 -0.0656  0.2272
 6428SOL     OW30745   0.411   1.968   6.899  0.3575 -0.2576  0.1196
 6428SOL    HW130746   0.452   1.997   6.818  1.0138  0.9347  0.8760
 6428SOL    HW230747   0.479   1.996   6.960 -0.4882  1.8844  0.0860
 6429SOL     OW30748   2.644   0.796   6.299 -0.3898  0.0710  0.2534
 6429SOL    HW130749   2.660   0.766   6.389 -1.8886 -1.6230 -0.0406
 6429SOL    HW230750   2.717   0.755   6.254 -1.5150 -1.3875 -0.2541
 6430SOL     OW30751   2.466   4.138   8.536 -0.3282  0.1817 -0.2559
 6430SOL    HW130752   2.478   4.157   8.444  0.0099  0.9626 -0.0436
 6430SOL    HW230753   2.391   4.079   8.522 -0.9029  1.2198 -1.5144
 6431SOL     OW30754   0.127   0.091   1.664  0.2887 -0.3971  0.6651
 6431SOL    HW130755   0.218   0.098   1.636  0.2824  0.2284  0.7968
 6431SOL    HW230756   0.082   0.133   1.591 -0.1891  0.5591  1.4969
 6432SOL     OW30757   1.594   4.690  16.467  0.1944 -0.1147  0.8960
 6432SOL    HW130758   1.662   4.627  16.492 -1.3295 -1.6315  1.2764
 6432SOL    HW230759   1.622   0.012  16.387  0.2578 -1.2357  0.3172
 6433SOL     OW30760   4.143   3.010   3.195 -0.0168 -0.1256  0.0953
 6433SOL    HW130761   4.079   2.998   3.125 -0.2684 -0.1690  0.3312
 6433SOL    HW230762   4.198   3.080   3.159 -0.9433  1.1323  1.1131
 6434SOL     OW30763   4.367   1.866   3.215  0.3315 -0.2354  0.1545
 6434SOL    HW130764   4.420   1.811   3.157  0.8877  0.5207 -0.0525
 6434SOL    HW230765   4.311   1.801   3.258  1.1734 -0.4775  0.8653
 6435SOL     OW30766   0.784   4.350   5.372  0.0464  0.4184 -0.2721
 6435SOL    HW130767   0.811   4.280   5.312  1.1162 -1.4970  2.4763
 6435SOL    HW230768   0.693   4.350   5.343 -0.3092  2.1505  0.8585
 6436SOL     OW30769   3.299   0.593   6.106  0.3656  0.2513 -0.4892
 6436SOL    HW130770   3.284   0.681   6.140 -2.3797  0.4300 -2.0931
 6436SOL    HW230771   3.217   0.554   6.137 -0.1614  1.8548  0.0943
 6437SOL     OW30772   0.216   2.264   4.822  0.1632  0.0157  0.2787
 6437SOL    HW130773   0.224   2.358   4.839  2.9089 -0.5711  2.2992
 6437SOL    HW230774   0.189   2.255   4.731  1.2997  3.7074 -0.4329
 6438SOL     OW30775   0.319   3.920  13.164  0.4538 -0.2339 -1.0565
 6438SOL    HW130776   0.320   4.012  13.193 -1.1958 -1.3237  2.4215
 6438SOL    HW230777   0.338   3.931  13.071  2.6293  2.8648 -0.2753
 6439SOL     OW30778   4.147   4.240   6.420  0.4037  0.5491  0.3629
 6439SOL    HW130779   4.241   4.238   6.437  0.5510  0.5599 -0.4719
 6439SOL    HW230780   4.117   4.266   6.507  1.3393  1.4850  0.4008
 6440SOL     OW30781   4.708   3.210   4.069  0.0469  0.4975  0.0535
 6440SOL    HW130782   4.651   3.286   4.062  0.9400  1.0118 -1.6624
 6440SOL    HW230783   4.643   3.147   4.101  0.7135 -0.1852  0.0625
 6441SOL     OW30784   4.708   1.366   5.002 -0.1845 -0.2527  0.1085
 6441SOL    HW130785   4.671   1.340   5.086  2.9892 -0.1967  1.5304
 6441SOL    HW230786   4.673   1.454   5.013 -1.6366 -0.7648 -0.4836
 6442SOL     OW30787   0.111   3.080   6.195  0.1755 -0.0290  0.0466
 6442SOL    HW130788   0.130   3.036   6.112 -0.6244  1.6793 -1.0540
 6442SOL    HW230789   0.084   3.012   6.257 -0.8103  1.8034  1.6272
 6443SOL     OW30790   4.173   0.671   5.958 -0.2414  0.4824 -0.0839
 6443SOL    HW130791   4.170   0.683   6.053 -0.6715  0.9393 -0.1589
 6443SOL    HW230792   4.198   0.759   5.929  1.1836 -0.4942 -1.8165
 6444SOL     OW30793   0.480   2.238  10.862  0.2501 -0.9008  0.1070
 6444SOL    HW130794   0.498   2.269  10.951  1.2279 -3.5084  0.8018
 6444SOL    HW230795   0.549   2.174  10.847  0.8326 -0.3386  0.4026
 6445SOL     OW30796   3.463   4.011   4.837  0.3372 -0.9134  0.4097
 6445SOL    HW130797   3.368   4.020   4.846  0.3709  1.4393 -1.7799
 6445SOL    HW230798   3.475   4.000   4.743 -0.0825  2.5174 -0.0647
 6446SOL     OW30799   0.524   1.591   8.132  0.4365  0.3739  0.0637
 6446SOL    HW130800   0.559   1.509   8.094  0.7460  0.1098  0.9173
 6446SOL    HW230801   0.544   1.584   8.225  0.6214 -2.6029 -0.1749
 6447SOL     OW30802   4.579   1.330   6.847 -0.4801 -0.3868  0.4318
 6447SOL    HW130803   4.518   1.356   6.916 -1.4199 -2.4830  0.3754
 6447SOL    HW230804   4.654   1.319   6.907  1.1582  1.8891 -1.1914
 6448SOL     OW30805   0.727   4.449  12.846  0.1163 -0.0276  0.0973
 6448SOL    HW130806   0.698   4.494  12.767  1.7708  1.3575  0.2853
 6448SOL    HW230807   0.649   4.393  12.853  1.0783 -1.3755 -0.0853
 6449SOL     OW30808   2.504   0.466   5.359  0.1309  0.6662  0.0070
 6449SOL    HW130809   2.546   0.547   5.388 -0.3062  0.8508  0.1342
 6449SOL    HW230810   2.541   0.477   5.272 -1.0704  1.2168 -0.4258
 6450SOL     OW30811   0.138   1.356  10.596  0.3109 -0.3505  0.5833
 6450SOL    HW130812   0.070   1.393  10.540  1.8054 -0.0235 -1.0172
 6450SOL    HW230813   0.196   1.321  10.528  1.8952  0.8581  1.3127
 6451SOL     OW30814   0.041   2.783   2.854 -0.3153  0.1557 -0.1597
 6451SOL    HW130815   4.706   2.772   2.778 -0.7875  0.9150  0.0772
 6451SOL    HW230816   4.721   2.717   2.910 -0.6535 -0.0116 -0.6114
 6452SOL     OW30817   1.924   1.609  12.809 -0.3896 -0.0402  0.2312
 6452SOL    HW130818   1.960   1.568  12.887  1.7221  1.3823  0.0127
 6452SOL    HW230819   1.942   1.540  12.746  0.8808  0.4107  0.0948
 6453SOL     OW30820   1.263   2.825   8.998  0.5545 -0.0152 -0.4762
 6453SOL    HW130821   1.254   2.735   9.029 -3.0418  0.3907 -0.2939
 6453SOL    HW230822   1.340   2.847   9.050 -0.1840  0.1026  0.5935
 6454SOL     OW30823   4.132   3.282   0.096  0.3889  0.1527  0.1493
 6454SOL    HW130824   4.121   3.260   0.188 -0.4279 -1.8348 -0.4170
 6454SOL    HW230825   4.178   3.366   0.099  0.5302  0.0692  0.2834
 6455SOL     OW30826   4.383   1.459   5.157  0.1743  0.0077 -0.4860
 6455SOL    HW130827   4.362   1.493   5.244 -0.3398 -0.3775 -0.4637
 6455SOL    HW230828   4.307   1.404   5.137  0.1013 -0.4539  1.1013
 6456SOL     OW30829   2.714   0.902   0.731  0.2831  0.4432  0.0487
 6456SOL    HW130830   2.652   0.830   0.730 -0.0223  0.7051  0.4135
 6456SOL    HW230831   2.677   0.979   0.687 -0.3673  1.0952  1.7728
 6457SOL     OW30832   2.424   1.870   3.427  0.5117  0.7168 -0.4106
 6457SOL    HW130833   2.341   1.899   3.465 -0.8636  0.8805 -3.5219
 6457SOL    HW230834   2.475   1.898   3.503  2.6984 -2.1298 -0.8415
 6458SOL     OW30835   3.803   3.426   2.526  0.5143  0.4629  0.6386
 6458SOL    HW130836   3.874   3.483   2.555  0.8601  0.1530  0.3834
 6458SOL    HW230837   3.788   3.466   2.440  3.1328 -0.6534 -0.3422
 6459SOL     OW30838   2.981   4.187   8.058  0.2527 -0.8839  0.1520
 6459SOL    HW130839   2.969   4.274   8.021 -1.0413  0.0799  2.8103
 6459SOL    HW230840   3.042   4.200   8.130  0.2554 -2.1317  0.3673
 6460SOL     OW30841   2.180   0.079  11.724  0.0396  0.1805 -0.0537
 6460SOL    HW130842   2.213   0.059  11.636 -2.1644  3.0944 -1.5340
 6460SOL    HW230843   2.258   0.054  11.774 -0.1149 -0.4227 -0.1101
 6461SOL     OW30844   0.754   4.491   6.209  0.4996  0.9497  0.7523
 6461SOL    HW130845   0.837   4.450   6.182  1.7647  3.9615  0.0873
 6461SOL    HW230846   0.762   4.574   6.161  1.0173  1.7225  2.1911
 6462SOL     OW30847   3.464   2.818  10.103  0.6765 -0.2450  0.0607
 6462SOL    HW130848   3.430   2.733  10.075 -1.1746  0.6447 -0.3517
 6462SOL    HW230849   3.389   2.870  10.076  2.0035  0.9949 -1.2609
 6463SOL     OW30850   1.702   2.057  15.055  0.0717  0.0471  0.6025
 6463SOL    HW130851   1.701   2.116  15.130  0.2388  1.1917 -0.2935
 6463SOL    HW230852   1.614   2.026  15.078  1.5197 -2.9456  2.1256
 6464SOL     OW30853   2.973   4.476   3.970  0.4901 -0.4028 -0.0429
 6464SOL    HW130854   2.971   4.512   3.882 -0.7935  2.0987  1.0040
 6464SOL    HW230855   3.028   4.401   3.949  0.2896 -0.5802  0.0722
 6465SOL     OW30856   4.265   2.778   2.146  0.5303 -0.5515  0.1783
 6465SOL    HW130857   4.293   2.690   2.172  2.3367  0.1751  0.7438
 6465SOL    HW230858   4.185   2.769   2.094  0.1276 -1.0371  0.8806
 6466SOL     OW30859   0.312   0.198   7.490 -0.0176  0.3502  0.2166
 6466SOL    HW130860   0.311   0.105   7.513  0.2224  0.2224 -0.3134
 6466SOL    HW230861   0.261   0.239   7.560  2.3059  2.2738  0.7671
 6467SOL     OW30862   2.503   1.207   6.900  0.1236  0.0096 -0.2260
 6467SOL    HW130863   2.421   1.223   6.853 -0.0150  0.7605  0.2631
 6467SOL    HW230864   2.560   1.254   6.838 -0.2769  1.3319  0.4054
 6468SOL     OW30865   3.194   4.664  11.029 -0.3568  0.3619 -0.7943
 6468SOL    HW130866   3.220   4.572  11.027 -0.8708  0.1580  1.3879
 6468SOL    HW230867   3.140   4.677  10.952 -0.7700  2.6215 -0.1401
 6469SOL     OW30868   0.181   1.688  12.251  0.8625 -0.3810 -0.1327
 6469SOL    HW130869   0.252   1.716  12.309  1.8260 -1.7127 -0.6831
 6469SOL    HW230870   0.132   1.625  12.304 -0.7196  0.5420 -0.4709
 6470SOL     OW30871   2.806   4.058   1.605 -0.7174  0.4492  0.0537
 6470SOL    HW130872   2.767   4.144   1.588 -0.4305  0.4331 -0.6837
 6470SOL    HW230873   2.735   4.004   1.640  0.5342 -3.3332 -3.2962
 6471SOL     OW30874   4.270   3.638   9.785 -0.3860 -0.0619 -0.2239
 6471SOL    HW130875   4.280   3.573   9.854 -0.4221  0.0972 -0.0679
 6471SOL    HW230876   4.232   3.706   9.841 -2.5934  0.0352 -1.8518
 6472SOL     OW30877   2.155   2.487  13.590 -0.1553  0.0870  0.0621
 6472SOL    HW130878   2.210   2.411  13.575  1.1839  0.7817  1.4604
 6472SOL    HW230879   2.091   2.452  13.653 -0.3714 -1.2610 -0.9109
 6473SOL     OW30880   0.711   3.773  11.746 -0.3188  0.3866 -0.2114
 6473SOL    HW130881   0.787   3.745  11.797 -0.1330  0.1425 -0.6187
 6473SOL    HW230882   0.670   3.834  11.807 -2.0131  1.5005 -2.4101
 6474SOL     OW30883   1.096   0.994   0.825  0.0096 -0.1814 -0.4594
 6474SOL    HW130884   1.140   1.026   0.746 -0.3854 -1.6316 -1.2717
 6474SOL    HW230885   1.063   0.916   0.781 -1.6467  0.9302 -1.1749
 6475SOL     OW30886   0.824   2.429   8.736  0.4985 -0.2933  0.2126
 6475SOL    HW130887   0.855   2.519   8.736  1.1603 -0.5123  1.7023
 6475SOL    HW230888   0.784   2.437   8.650 -2.6447  1.6199  1.8289
 6476SOL     OW30889   1.002   2.547   3.662  0.3185 -0.2483  0.5380
 6476SOL    HW130890   1.044   2.505   3.586 -0.8589  0.7696 -0.6761
 6476SOL    HW230891   0.967   2.471   3.709 -3.1593  1.2660  0.4297
 6477SOL     OW30892   1.714   4.524   8.515 -0.3159  0.5492 -0.3288
 6477SOL    HW130893   1.738   4.493   8.602 -0.2611 -1.6589 -1.1511
 6477SOL    HW230894   1.714   4.620   8.518  1.1132  0.4199  2.8245
 6478SOL     OW30895   3.851   3.263  11.188  0.4560  0.3314  0.5557
 6478SOL    HW130896   3.799   3.339  11.161 -0.7081 -1.0732 -1.1334
 6478SOL    HW230897   3.812   3.189  11.142  0.5085  0.0641  0.9409
 6479SOL     OW30898   4.615   1.924   4.133 -0.4590 -0.2735 -0.3564
 6479SOL    HW130899   4.551   1.860   4.102 -4.2722  2.6764  1.4434
 6479SOL    HW230900   4.550   1.992   4.150  0.0283 -0.3725  1.7851
 6480SOL     OW30901   3.761   3.233   5.567 -0.3691 -0.0789  0.1820
 6480SOL    HW130902   3.810   3.182   5.631 -0.9574  0.2692  0.9139
 6480SOL    HW230903   3.715   3.163   5.520 -0.6322 -0.2989  0.7711
 6481SOL     OW30904   2.667   4.396   6.132 -0.1539 -0.3852 -0.0279
 6481SOL    HW130905   2.629   4.317   6.093  3.0242 -1.2530 -1.4294
 6481SOL    HW230906   2.757   4.383   6.100 -0.0015 -0.3623  0.3961
 6482SOL     OW30907   4.545   0.383  15.161 -0.0586 -0.4426 -0.3692
 6482SOL    HW130908   4.640   0.370  15.168  0.1364  1.3731  0.3744
 6482SOL    HW230909   4.541   0.440  15.237 -2.0713 -0.9379 -0.1168
 6483SOL     OW30910   2.592   0.691   5.489  0.6103 -0.3581  0.2429
 6483SOL    HW130911   2.656   0.701   5.560  0.9263 -0.2209 -0.0576
 6483SOL    HW230912   2.521   0.747   5.517 -1.0034 -2.1371 -0.3214
 6484SOL     OW30913   4.243   3.070   8.536 -0.4197  0.5090  0.2991
 6484SOL    HW130914   4.281   3.145   8.581 -2.5772  1.1070  1.1621
 6484SOL    HW230915   4.168   3.110   8.491 -1.0634 -0.4295  0.5317
 6485SOL     OW30916   0.546   0.384  11.415 -0.0356 -0.6608  0.2986
 6485SOL    HW130917   0.602   0.369  11.491 -0.1929  0.6204  0.6576
 6485SOL    HW230918   0.464   0.401  11.461 -0.3565 -0.3240 -0.3918
 6486SOL     OW30919   3.057   1.159   8.866  0.9200  0.4236  0.1649
 6486SOL    HW130920   3.064   1.226   8.935  1.9408  0.5785 -0.0991
 6486SOL    HW230921   3.061   1.084   8.925 -0.2833  0.5609  0.4449
 6487SOL     OW30922   3.075   4.608   8.551 -0.0905 -0.5493  0.4803
 6487SOL    HW130923   3.121   4.604   8.635 -0.0875 -0.3749  0.4865
 6487SOL    HW230924   3.020   4.530   8.563 -0.8016 -0.4080 -1.8737
 6488SOL     OW30925   3.183   1.806   6.533 -0.4388 -0.5229  0.2266
 6488SOL    HW130926   3.250   1.782   6.597 -0.2076  1.5807  0.7576
 6488SOL    HW230927   3.178   1.901   6.534 -1.3193 -0.5750  0.7342
 6489SOL     OW30928   1.415   3.556  11.071  0.0314  0.0830 -0.1988
 6489SOL    HW130929   1.496   3.606  11.083 -0.2790  0.3847  0.6773
 6489SOL    HW230930   1.451   3.468  11.079 -0.4223 -0.1081 -0.2504
 6490SOL     OW30931   4.451   1.239  14.298 -0.1615  0.0639 -0.3813
 6490SOL    HW130932   4.380   1.244  14.362 -0.8542 -0.1774 -1.1295
 6490SOL    HW230933   4.405   1.268  14.219  2.3327 -1.9510 -2.5949
 6491SOL     OW30934   4.617   0.919   4.793  0.2869  0.3841  0.1216
 6491SOL    HW130935   4.592   1.001   4.837  1.3599 -0.6907  2.7537
 6491SOL    HW230936   4.693   0.892   4.844  2.0428 -1.7317 -3.6308
 6492SOL     OW30937   2.225   3.115   5.913  0.3748 -0.2089  0.2329
 6492SOL    HW130938   2.267   3.127   5.998  0.9619 -0.2673 -0.0481
 6492SOL    HW230939   2.141   3.151   5.942  0.9500 -0.2733  1.9688
 6493SOL     OW30940   1.245   0.269   9.816 -0.2783  0.0447 -0.1404
 6493SOL    HW130941   1.307   0.315   9.872  0.1075  1.2180 -1.5298
 6493SOL    HW230942   1.207   0.341   9.765  0.8423 -0.9686 -2.3659
 6494SOL     OW30943   4.680   3.462   8.179 -0.2099  0.3078  0.1654
 6494SOL    HW130944   4.635   3.479   8.262 -0.5081  0.3627 -0.0084
 6494SOL    HW230945   4.629   3.511   8.115 -2.0050  1.1916  2.2747
 6495SOL     OW30946   3.616   2.292   8.166 -0.5094 -0.4069  0.3530
 6495SOL    HW130947   3.579   2.350   8.233 -1.3647  0.5258 -0.9326
 6495SOL    HW230948   3.708   2.312   8.181  0.0883 -2.1365 -1.0254
 6496SOL     OW30949   3.257   1.609   2.545 -0.5153  0.3454 -0.0196
 6496SOL    HW130950   3.192   1.587   2.612 -0.3460  0.8958  0.3233
 6496SOL    HW230951   3.289   1.522   2.520 -1.3973 -0.3458  1.2421
 6497SOL     OW30952   2.369   3.474  16.285  0.0035 -0.2084 -0.0761
 6497SOL    HW130953   2.398   3.557  16.247  0.2815 -0.1316  0.2988
 6497SOL    HW230954   2.278   3.492  16.307  0.0739 -0.9792  0.8232
 6498SOL     OW30955   1.900   0.984   6.589 -0.3418  0.2609  0.1993
 6498SOL    HW130956   1.820   0.939   6.561 -1.0754  1.8740 -0.3439
 6498SOL    HW230957   1.930   1.023   6.507  1.9320  0.2807  1.0584
 6499SOL     OW30958   1.450   3.600   7.963  0.5835 -0.2185  0.3120
 6499SOL    HW130959   1.358   3.583   7.940  0.9907  0.7670 -2.1277
 6499SOL    HW230960   1.444   3.661   8.036  0.1447  1.0663 -0.7869
 6500SOL     OW30961   2.938   3.931   8.486 -0.0709 -0.4277 -0.3502
 6500SOL    HW130962   2.959   3.838   8.473  1.0490 -0.0690 -1.0932
 6500SOL    HW230963   3.018   3.963   8.526  0.8115 -0.7772 -1.8212
 6501SOL     OW30964   0.773   3.517   3.643  0.1971  0.0878 -0.2393
 6501SOL    HW130965   0.693   3.475   3.673  1.7608 -1.7554  1.3876
 6501SOL    HW230966   0.827   3.439   3.654  0.8559  0.3690 -1.4537
 6502SOL     OW30967   3.860   4.433  11.293 -0.1561 -0.0787 -0.3246
 6502SOL    HW130968   3.872   4.393  11.379  1.0034  1.6206  0.3095
 6502SOL    HW230969   3.771   4.412  11.268  0.9289 -2.6459 -2.0774
 6503SOL     OW30970   4.595   3.719  17.191 -0.1369 -0.3737 -0.1690
 6503SOL    HW130971   4.688   3.700  17.179  0.3129  1.8766 -0.2963
 6503SOL    HW230972   4.548   3.701  17.110 -0.4613 -1.6282  0.2882
 6504SOL     OW30973   4.354   4.215   8.985 -0.1581 -0.8125  0.5604
 6504SOL    HW130974   4.400   4.206   9.068 -0.9316  0.7482  1.1663
 6504SOL    HW230975   4.408   4.289   8.958  0.9541 -1.3366  1.3705
 6505SOL     OW30976   4.580   3.522   8.859 -0.1276  0.3811 -0.3622
 6505SOL    HW130977   4.661   3.483   8.825 -0.8132 -0.6598 -0.8079
 6505SOL    HW230978   4.601   3.537   8.951  2.8902 -1.4257 -0.7394
 6506SOL     OW30979   0.547   2.805   9.009 -0.2756 -0.8989 -0.3144
 6506SOL    HW130980   0.533   2.748   8.933  0.3532  0.5896 -1.5443
 6506SOL    HW230981   0.552   2.886   8.957 -2.0371 -0.2408  0.5619
 6507SOL     OW30982   3.797   0.021   2.664  0.2500  0.0404  0.0155
 6507SOL    HW130983   3.837   0.044   2.580  2.4902 -1.9784  0.5482
 6507SOL    HW230984   3.871   0.022   2.724 -0.2098  1.2961  0.5806
 6508SOL     OW30985   0.187   1.743   8.236 -0.0320  0.2727  0.1487
 6508SOL    HW130986   0.229   1.737   8.322  1.9497  3.9112 -0.5340
 6508SOL    HW230987   0.259   1.778   8.183  1.0201 -5.1121 -1.9471
 6509SOL     OW30988   2.766   4.284   7.392 -0.0539 -0.4567 -0.1909
 6509SOL    HW130989   2.693   4.305   7.451 -0.2954 -0.1347 -0.6072
 6509SOL    HW230990   2.818   4.364   7.390 -0.4221 -0.1437  2.6688
 6510SOL     OW30991   0.898   0.894  14.308 -0.6428 -1.0006 -0.5083
 6510SOL    HW130992   0.918   0.844  14.387  1.8626 -0.1796 -0.6188
 6510SOL    HW230993   0.987   0.918  14.283 -0.7051 -0.4839 -0.2361
 6511SOL     OW30994   1.695   2.632  14.352 -0.4204  0.4260  0.1982
 6511SOL    HW130995   1.698   2.580  14.271  0.2658  0.9873 -0.1284
 6511SOL    HW230996   1.607   2.668  14.357 -0.6009 -0.0606  0.5188
 6512SOL     OW30997   4.115   4.179   7.115 -0.3737  1.0183 -0.0014
 6512SOL    HW130998   4.193   4.156   7.065 -1.6380 -0.7747 -1.1371
 6512SOL    HW230999   4.145   4.179   7.206  0.4559 -1.5940 -0.2851
 6513SOL     OW31000   2.500   4.165  13.649 -0.0533 -0.1280 -0.2855
 6513SOL    HW131001   2.461   4.215  13.577  1.3754 -0.3534 -1.2384
 6513SOL    HW231002   2.590   4.200  13.647  0.2139 -0.8158 -0.1503
 6514SOL     OW31003   3.415   0.760  16.462 -0.1940 -0.4450  0.1929
 6514SOL    HW131004   3.478   0.792  16.397 -2.5774  0.2162 -1.7878
 6514SOL    HW231005   3.350   0.830  16.470 -0.0802 -0.4021  0.7596
 6515SOL     OW31006   0.685   1.012   3.935  0.0830  0.9846 -0.5859
 6515SOL    HW131007   0.600   1.009   3.978 -0.6776  0.3197 -2.1212
 6515SOL    HW231008   0.708   1.097   3.971  1.8754  0.8447 -1.3958
 6516SOL     OW31009   0.950   2.447   2.197  0.6227 -0.2235  0.2686
 6516SOL    HW131010   0.897   2.525   2.213  0.7883  0.0547 -0.5096
 6516SOL    HW231011   0.921   2.390   2.268  0.4772 -0.2359  0.1987
 6517SOL     OW31012   0.344   4.373  14.856 -0.0852 -0.5837  0.3132
 6517SOL    HW131013   0.273   4.354  14.795 -0.5928 -1.6278  1.2295
 6517SOL    HW231014   0.406   4.302  14.839  2.1619  1.2764  0.7780
 6518SOL     OW31015   2.214   3.323   5.231 -0.5630 -0.0445  0.4462
 6518SOL    HW131016   2.246   3.413   5.226  0.1477 -0.3565 -0.6083
 6518SOL    HW231017   2.135   3.334   5.284  0.4319 -0.8685  2.0998
 6519SOL     OW31018   2.539   2.859  14.015  0.0766  0.1206  0.0459
 6519SOL    HW131019   2.601   2.929  13.996  0.3853  0.3202  1.8630
 6519SOL    HW231020   2.460   2.910  13.993  1.7687  2.5159 -0.4659
 6520SOL     OW31021   3.833   0.112  14.128 -0.2069 -0.0470 -0.0379
 6520SOL    HW131022   3.765   0.046  14.110  0.0579 -0.6305  1.1119
 6520SOL    HW231023   3.776   0.188  14.139 -0.9435 -0.8299  1.6350
 6521SOL     OW31024   1.904   4.190   6.574 -0.1172  0.0443 -0.0920
 6521SOL    HW131025   1.936   4.150   6.655  0.2137  0.4853 -0.0103
 6521SOL    HW231026   1.811   4.171   6.588 -0.4763  1.1063 -1.0853
 6522SOL     OW31027   3.344   0.318   8.154  0.7032  0.2204 -0.2739
 6522SOL    HW131028   3.360   0.345   8.245  0.3800 -0.1786 -0.0986
 6522SOL    HW231029   3.395   0.379   8.101 -1.6125  0.4832 -2.1768
 6523SOL     OW31030   0.470   3.050   3.932 -0.0561  0.2822  0.4229
 6523SOL    HW131031   0.380   3.023   3.954 -0.0563 -1.6111 -1.8928
 6523SOL    HW231032   0.465   3.065   3.838 -1.9345 -0.9464  0.3244
 6524SOL     OW31033   0.127   4.664   3.246  0.2955 -0.0363  0.1070
 6524SOL    HW131034   0.101   4.647   3.155 -0.4178 -4.9887  1.2622
 6524SOL    HW231035   0.148   0.035   3.232 -0.6658  0.4741  2.1183
 6525SOL     OW31036   0.655   3.184   1.984 -0.7379 -0.3772 -0.1604
 6525SOL    HW131037   0.659   3.253   1.918 -0.7177  0.4766  0.7392
 6525SOL    HW231038   0.626   3.116   1.923 -1.4986 -0.1730 -0.0271
 6526SOL     OW31039   0.207   3.032   8.855  0.6261 -0.7491 -0.3820
 6526SOL    HW131040   0.237   3.045   8.945  3.9332 -0.5079 -1.5604
 6526SOL    HW231041   0.172   2.944   8.866  2.8874 -1.4764  0.7848
 6527SOL     OW31042   0.333   2.559  17.313  0.4074 -0.6013  0.1389
 6527SOL    HW131043   0.297   2.618  17.246  0.9520 -1.1290 -0.6159
 6527SOL    HW231044   0.331   2.474  17.269  1.7532 -0.8329  0.5132
 6528SOL     OW31045   2.633   1.251   4.180  0.5828  0.0145  0.4406
 6528SOL    HW131046   2.639   1.265   4.086 -2.6697  0.7627  0.3562
 6528SOL    HW231047   2.714   1.284   4.218  0.6398  1.4754 -0.9584
 6529SOL     OW31048   0.039   0.023   4.871 -0.1652  0.0641  0.5536
 6529SOL    HW131049   4.716   4.714   4.950  0.5615  0.3202  1.0512
 6529SOL    HW231050   0.065   4.661   4.832  1.6494  0.5287  0.7866
 6530SOL     OW31051   2.866   2.481  15.876 -0.2341 -0.3145 -0.4763
 6530SOL    HW131052   2.798   2.436  15.926 -1.6655  1.8187 -0.4927
 6530SOL    HW231053   2.899   2.408  15.823 -0.2565 -1.5358  1.2038
 6531SOL     OW31054   0.869   1.037   6.895  0.4104 -0.0986 -0.2453
 6531SOL    HW131055   0.910   1.104   6.950  2.7160 -0.1103 -1.9289
 6531SOL    HW231056   0.788   1.085   6.880  0.8334 -0.0088 -2.2465
 6532SOL     OW31057   3.816   4.451   7.987 -0.4081  0.1765  0.6743
 6532SOL    HW131058   3.832   4.450   8.082 -1.6204 -2.0423  0.8539
 6532SOL    HW231059   3.888   4.391   7.968 -0.4917  1.3995 -3.5358
 6533SOL     OW31060   1.522   0.261  16.628  0.1756  0.3589 -0.1614
 6533SOL    HW131061   1.436   0.241  16.592  0.3538  2.6691 -1.8568
 6533SOL    HW231062   1.521   0.188  16.691  0.7431 -0.5951 -1.2569
 6534SOL     OW31063   1.891   1.138   8.673 -0.7447 -0.1596 -0.3141
 6534SOL    HW131064   1.861   1.228   8.688 -0.8138 -0.6549  2.5254
 6534SOL    HW231065   1.986   1.143   8.674 -0.7225 -0.7066  1.4460
 6535SOL     OW31066   3.601   0.727  15.659 -0.2525  0.5740  0.1130
 6535SOL    HW131067   3.592   0.672  15.581  2.3479  1.8336 -1.0795
 6535SOL    HW231068   3.667   0.789  15.628  1.9113 -1.5307  0.5507
 6536SOL     OW31069   2.329   4.506   5.277  0.0747 -0.6938 -0.0345
 6536SOL    HW131070   2.279   4.585   5.297  3.0873  0.8873  1.2224
 6536SOL    HW231071   2.344   4.518   5.184  2.5501  0.2267  0.4869
 6537SOL     OW31072   3.525   2.244   7.729 -0.1713 -0.1779 -0.2474
 6537SOL    HW131073   3.547   2.159   7.691  0.3586  0.5398 -1.5610
 6537SOL    HW231074   3.592   2.242   7.797 -2.8772  3.2727  2.5419
 6538SOL     OW31075   3.785   4.537  16.163 -0.4613 -0.1370  0.0675
 6538SOL    HW131076   3.862   4.494  16.125 -2.0602 -2.6244 -0.3811
 6538SOL    HW231077   3.815   4.622  16.196  1.5275  0.3844 -3.1662
 6539SOL     OW31078   2.560   0.040   5.128 -0.3004 -0.4480  0.3177
 6539SOL    HW131079   2.549   0.076   5.217 -0.1475  1.0360 -0.2624
 6539SOL    HW231080   2.652   0.015   5.133 -1.0539 -3.1075  0.8737
 6540SOL     OW31081   0.107   1.855   1.439 -0.7353  0.2682 -0.4726
 6540SOL    HW131082   0.109   1.796   1.363  0.3427 -1.2745  0.7616
 6540SOL    HW231083   0.035   1.913   1.412  0.0173  1.7008  0.5592
 6541SOL     OW31084   1.593   2.068   4.087 -0.1303  0.9304  0.8452
 6541SOL    HW131085   1.633   2.137   4.035 -1.0491  0.2703 -0.7232
 6541SOL    HW231086   1.555   2.015   4.017  0.7005  2.3190 -0.6481
 6542SOL     OW31087   0.075   0.507   1.113  0.7553 -0.0610 -0.2534
 6542SOL    HW131088   0.068   0.466   1.199 -0.4111  1.2433  0.2674
 6542SOL    HW231089   0.017   0.448   1.064  1.4671  1.1514 -2.5519
 6543SOL     OW31090   4.252   0.027  11.880 -0.4205 -0.3301 -0.3741
 6543SOL    HW131091   4.161   0.015  11.906 -0.1421  0.7486  1.1008
 6543SOL    HW231092   4.255   0.122  11.872  2.0522 -0.5349 -1.9499
 6544SOL     OW31093   3.374   1.049  12.152 -0.3817 -0.0475 -0.1064
 6544SOL    HW131094   3.375   1.143  12.169 -2.6760  0.0420 -0.5388
 6544SOL    HW231095   3.282   1.028  12.167 -1.1827  3.4708 -0.0411
 6545SOL     OW31096   4.240   3.890   7.211  0.9081 -0.1480  1.1445
 6545SOL    HW131097   4.308   3.958   7.205  0.9785 -0.1395  2.0568
 6545SOL    HW231098   4.241   3.855   7.122  0.3849  2.2416  0.2050
 6546SOL     OW31099   0.470   0.628   2.369  0.8931 -0.1586 -0.7392
 6546SOL    HW131100   0.422   0.561   2.417  1.7017 -0.4247 -0.3064
 6546SOL    HW231101   0.511   0.568   2.307  0.8238 -1.2400  0.2579
 6547SOL     OW31102   2.110   4.129   4.192 -0.0762 -0.5842  0.2081
 6547SOL    HW131103   2.068   4.174   4.119 -2.7835 -0.7980  1.6474
 6547SOL    HW231104   2.168   4.203   4.212 -0.6282 -0.1094  0.0553
 6548SOL     OW31105   0.543   4.232   3.173  0.4022 -0.5249  0.3845
 6548SOL    HW131106   0.492   4.296   3.221  2.1301 -0.3716  2.0295
 6548SOL    HW231107   0.541   4.158   3.233 -1.6962 -0.6478  0.1569
 6549SOL     OW31108   0.302   3.504  12.347  0.0438 -0.1668  0.7070
 6549SOL    HW131109   0.295   3.422  12.299 -4.1712  0.5630  0.0555
 6549SOL    HW231110   0.327   3.565  12.277  0.5529 -0.8532  0.2861
 6550SOL     OW31111   3.849   1.361   7.838  0.3337 -0.4052  0.2100
 6550SOL    HW131112   3.935   1.321   7.853  0.5416 -0.1132 -0.2009
 6550SOL    HW231113   3.863   1.452   7.863 -2.1310  0.0314  0.0047
 6551SOL     OW31114   2.325   0.914   7.008  0.6637  0.5643 -0.2107
 6551SOL    HW131115   2.352   0.983   6.947  0.2347 -0.9631 -2.1051
 6551SOL    HW231116   2.238   0.948   7.030  1.1681  2.4458 -1.1340
 6552SOL     OW31117   0.766   3.121   4.625 -0.8525  0.1356 -0.6230
 6552SOL    HW131118   0.790   3.147   4.536  1.9795  2.1245  0.7425
 6552SOL    HW231119   0.676   3.155   4.626 -0.4553  1.1813  0.3342
 6553SOL     OW31120   4.034   3.614   1.436 -0.0537 -0.0447  0.7757
 6553SOL    HW131121   4.075   3.575   1.358 -0.5240  0.2360  0.3829
 6553SOL    HW231122   4.106   3.644   1.491 -0.1294  0.1133  0.7892
 6554SOL     OW31123   4.638   4.439  13.523  0.3378 -0.2937  0.1697
 6554SOL    HW131124   4.699   4.482  13.583  1.2396  2.3603 -2.6073
 6554SOL    HW231125   4.647   4.347  13.545  1.7574  0.5738  3.1904
 6555SOL     OW31126   0.694   1.571   5.258 -0.0816  0.6163 -0.1668
 6555SOL    HW131127   0.642   1.642   5.295  1.6851  1.5851  0.4738
 6555SOL    HW231128   0.757   1.548   5.326 -0.6918 -2.7409 -0.7295
 6556SOL     OW31129   1.053   1.489   8.808 -0.7129  0.4063  0.2993
 6556SOL    HW131130   1.110   1.432   8.757 -1.7259 -0.0017 -0.3668
 6556SOL    HW231131   1.078   1.573   8.769 -1.0638 -0.2187 -1.2785
 6557SOL     OW31132   2.156   4.407   9.766 -0.2192  0.0129  0.1272
 6557SOL    HW131133   2.071   4.417   9.722 -0.5110 -2.1538  0.1769
 6557SOL    HW231134   2.137   4.332   9.823  2.8629 -0.5985  0.3237
 6558SOL     OW31135   0.448   2.674   9.292  0.3841  0.3552 -0.2138
 6558SOL    HW131136   0.488   2.644   9.374  1.1180 -2.3369 -1.5446
 6558SOL    HW231137   0.447   2.768   9.310  1.5658  0.4579 -0.7274
 6559SOL     OW31138   0.673   1.385   1.778  0.4145 -0.1495  0.4720
 6559SOL    HW131139   0.742   1.396   1.713 -0.9313  0.9374 -0.7885
 6559SOL    HW231140   0.657   1.291   1.787 -1.5570  0.1724  0.3744
 6560SOL     OW31141   4.111   3.891   5.238 -0.0204  0.1841 -0.1408
 6560SOL    HW131142   4.088   3.976   5.201 -0.1574 -0.7560 -2.1792
 6560SOL    HW231143   4.072   3.837   5.169  0.1216 -1.6362  1.2012
 6561SOL     OW31144   0.260   1.778  17.270  0.3231  0.0970 -0.3314
 6561SOL    HW131145   0.320   1.723  17.220 -0.3469 -1.1366  0.2029
 6561SOL    HW231146   0.180   1.749  17.225  0.4773  0.2492 -0.6957
 6562SOL     OW31147   4.306   1.733   9.366  0.5667 -0.0458 -0.3802
 6562SOL    HW131148   4.215   1.765   9.368  0.9563  1.0110  0.6670
 6562SOL    HW231149   4.336   1.801   9.427  0.1767 -0.5719  0.4079
 6563SOL     OW31150   1.657   3.469   9.351  0.6071  0.5364 -0.4409
 6563SOL    HW131151   1.678   3.544   9.295  1.8023  0.1096 -0.5547
 6563SOL    HW231152   1.711   3.487   9.428 -1.4025  0.5834  0.9528
 6564SOL     OW31153   0.753   0.024   7.634 -0.7321 -0.2443  0.0223
 6564SOL    HW131154   0.716   4.662   7.604 -0.0947 -0.8580  0.9132
 6564SOL    HW231155   0.731   0.027   7.727 -1.0938  1.6789 -0.1435
 6565SOL     OW31156   3.191   1.184  12.667  0.0949 -0.0159 -0.0669
 6565SOL    HW131157   3.135   1.227  12.731 -0.2705 -2.2916  1.1001
 6565SOL    HW231158   3.184   1.254  12.601 -1.7257 -0.7324 -0.6376
 6566SOL     OW31159   1.859   2.580  17.142  0.2207 -0.0203  0.0448
 6566SOL    HW131160   1.914   2.576  17.063  1.2889 -0.1935  0.7981
 6566SOL    HW231161   1.779   2.536  17.113 -1.4878  1.5784  2.3743
 6567SOL     OW31162   3.621   3.572   7.535  0.2105  0.0374  0.2804
 6567SOL    HW131163   3.702   3.569   7.484 -2.0788 -1.5055 -3.2050
 6567SOL    HW231164   3.653   3.644   7.590  0.9153  1.6461 -2.2685
 6568SOL     OW31165   2.940   0.463  16.291 -0.3090  0.2348  0.4313
 6568SOL    HW131166   2.908   0.426  16.374  2.6159  1.7128  2.2040
 6568SOL    HW231167   2.979   0.378  16.269  1.6722  1.0042  0.9152
 6569SOL     OW31168   0.291   0.818   9.600 -0.1866  0.2402 -0.1690
 6569SOL    HW131169   0.374   0.791   9.560  0.5338  0.7605  0.9663
 6569SOL    HW231170   0.299   0.773   9.684 -1.0482 -0.4252 -0.4509
 6570SOL     OW31171   0.501   0.854   7.267 -0.9574  0.5062 -0.2063
 6570SOL    HW131172   0.463   0.941   7.284  1.9692  1.5994  0.7666
 6570SOL    HW231173   0.464   0.801   7.337  1.2340 -0.1373  0.4511
 6571SOL     OW31174   2.457   2.765  16.392 -0.3976 -0.7550  0.0155
 6571SOL    HW131175   2.442   2.677  16.359  1.1565 -0.1171 -2.3540
 6571SOL    HW231176   2.552   2.764  16.405 -0.0464  0.6818 -2.4637
 6572SOL     OW31177   3.770   0.899  15.258  0.5391 -0.7181  0.4577
 6572SOL    HW131178   3.789   0.907  15.352  0.3330  0.4365  0.4045
 6572SOL    HW231179   3.697   0.838  15.260  0.7814 -1.0449 -1.7477
 6573SOL     OW31180   1.497   0.606   8.176 -0.2518  0.2904  0.5480
 6573SOL    HW131181   1.537   0.655   8.248  1.9935 -0.9437  0.1407
 6573SOL    HW231182   1.455   0.674   8.123 -1.8524 -0.4844  0.8265
 6574SOL     OW31183   2.423   0.363  13.756  0.2291 -1.0225  0.1475
 6574SOL    HW131184   2.340   0.405  13.738  1.1410  0.3465 -0.8398
 6574SOL    HW231185   2.439   0.388  13.847 -0.1211 -2.4988  0.6217
 6575SOL     OW31186   0.088   2.454  16.548  0.5426 -0.3707 -0.2826
 6575SOL    HW131187   0.079   2.358  16.547  1.5743 -0.4915  1.5742
 6575SOL    HW231188   4.721   2.482  16.525  1.4118  1.7314 -1.0149
 6576SOL     OW31189   2.078   1.020  11.346 -0.2539 -0.2752  0.2415
 6576SOL    HW131190   2.063   0.958  11.417 -0.2645 -0.3149  0.2050
 6576SOL    HW231191   2.026   1.097  11.368  1.7105  1.3775 -0.9405
 6577SOL     OW31192   4.490   4.639   3.028  0.3044  0.0985 -0.0566
 6577SOL    HW131193   4.407   4.599   3.053  0.9777 -0.4035  1.3904
 6577SOL    HW231194   4.470   4.659   2.937  1.7752 -2.6294 -0.9710
 6578SOL     OW31195   4.570   3.713   8.635 -0.3135  0.1820  0.1160
 6578SOL    HW131196   4.581   3.722   8.729 -1.9957 -0.7606  0.3994
 6578SOL    HW231197   4.475   3.716   8.623 -0.2689 -0.2776 -0.3930
 6579SOL     OW31198   3.001   0.970   4.312 -0.4181 -0.4637 -0.5453
 6579SOL    HW131199   3.057   0.982   4.388  0.5783  0.9103 -1.4925
 6579SOL    HW231200   2.915   0.993   4.347 -0.8611 -2.8162 -0.0461
 6580SOL     OW31201   0.753   0.346   7.308  0.1452 -0.0424 -0.0647
 6580SOL    HW131202   0.739   0.273   7.249  0.2966  0.0834 -0.2589
 6580SOL    HW231203   0.793   0.411   7.250 -0.8574  1.4280  0.8904
 6581SOL     OW31204   4.445   4.253   7.842  0.4116 -0.0658 -0.0110
 6581SOL    HW131205   4.442   4.232   7.749  1.6040 -1.6339  0.3038
 6581SOL    HW231206   4.460   4.347   7.848 -0.2815  0.0710 -0.4643
 6582SOL     OW31207   2.721   2.991  14.367 -0.3821  0.2559 -0.1881
 6582SOL    HW131208   2.763   3.031  14.442  0.4936  1.6629 -1.4305
 6582SOL    HW231209   2.792   2.942  14.326 -1.6478 -2.2168  0.5144
 6583SOL     OW31210   3.206   2.136   3.713 -0.0442 -0.5015 -0.3366
 6583SOL    HW131211   3.302   2.135   3.720 -0.2289 -1.4355  1.9521
 6583SOL    HW231212   3.194   2.156   3.620  2.8029  0.6975 -0.4550
 6584SOL     OW31213   2.473   0.433  11.683  0.0898  0.1380 -0.3166
 6584SOL    HW131214   2.422   0.502  11.641  1.6978  0.9951 -0.8620
 6584SOL    HW231215   2.516   0.480  11.755  0.4341 -0.2577 -0.2673
 6585SOL     OW31216   1.670   0.040   2.655 -0.0311 -0.0245  0.2919
 6585SOL    HW131217   1.602   0.035   2.588  0.2868  0.3014 -0.0488
 6585SOL    HW231218   1.734   0.096   2.613  0.1916 -0.3931  0.1392
 6586SOL     OW31219   0.300   3.947  15.849 -0.4280  0.3511 -0.4833
 6586SOL    HW131220   0.348   3.963  15.768 -0.7904  2.8204 -0.2168
 6586SOL    HW231221   0.231   3.888  15.820 -3.4950  3.7597 -0.1669
 6587SOL     OW31222   0.938   2.238   2.400  0.5882  0.2968  0.7465
 6587SOL    HW131223   1.000   2.167   2.418 -0.5543 -1.1435 -1.0005
 6587SOL    HW231224   0.870   2.215   2.463 -0.4350  0.8813 -0.1456
 6588SOL     OW31225   0.628   2.167   6.190 -0.5086 -0.4483  0.0387
 6588SOL    HW131226   0.690   2.229   6.229 -3.0987  2.3856 -0.3308
 6588SOL    HW231227   0.658   2.082   6.223 -0.4971  0.4702  2.4165
 6589SOL     OW31228   1.368   0.003   8.605  0.2968 -0.1494  0.1133
 6589SOL    HW131229   1.395   0.043   8.523 -2.9477 -0.0775 -0.8841
 6589SOL    HW231230   1.382   4.630   8.591  2.4863  0.5214 -2.3113
 6590SOL     OW31231   3.696   3.427  16.880 -0.2711 -0.2251  0.3706
 6590SOL    HW131232   3.686   3.361  16.949 -0.9483  0.0305  0.5180
 6590SOL    HW231233   3.774   3.473  16.912 -1.0251  0.7357  0.8384
 6591SOL     OW31234   4.256   2.407   4.035  0.3315 -0.1895 -0.4316
 6591SOL    HW131235   4.254   2.361   3.950  1.8438 -1.4252  0.1982
 6591SOL    HW231236   4.176   2.459   4.034  0.3398 -0.1343  1.7118
 6592SOL     OW31237   3.545   0.330   7.041 -0.2587 -0.7389  0.1408
 6592SOL    HW131238   3.535   0.423   7.059  0.0683 -0.9499  1.4116
 6592SOL    HW231239   3.478   0.301   6.979 -0.3601 -0.6608  0.2134
 6593SOL     OW31240   3.829   1.157  10.635 -0.1847  0.6406  0.1816
 6593SOL    HW131241   3.733   1.163  10.629 -0.2423  0.9881  1.4380
 6593SOL    HW231242   3.846   1.230  10.695 -0.3151  0.4475  0.4528
 6594SOL     OW31243   3.476   0.297   6.350  0.8061  0.4026  0.8109
 6594SOL    HW131244   3.558   0.309   6.398  0.6739  2.0306  0.6504
 6594SOL    HW231245   3.416   0.355   6.398 -0.3954  0.6793 -1.0261
 6595SOL     OW31246   2.706   0.469   7.668 -0.6189 -0.1608 -0.0019
 6595SOL    HW131247   2.692   0.525   7.744  0.2243 -0.0278  0.0513
 6595SOL    HW231248   2.624   0.480   7.620 -0.5060 -0.6596 -0.3120
 6596SOL     OW31249   4.074   4.187   8.933 -0.3632  0.4650  0.1305
 6596SOL    HW131250   4.168   4.177   8.949 -0.5242 -2.5206 -0.7636
 6596SOL    HW231251   4.036   4.207   9.018  2.3871  2.3188  0.9276
 6597SOL     OW31252   1.412   2.291  17.444  0.0853  0.1712 -0.2755
 6597SOL    HW131253   1.417   2.195  17.445 -1.2772  0.0816 -1.9844
 6597SOL    HW231254   1.346   2.312  17.510  0.5754 -0.9485  0.5798
 6598SOL     OW31255   0.530   2.072   6.685 -0.4173 -0.3124 -0.0432
 6598SOL    HW131256   0.556   2.129   6.613  1.9996 -2.2859 -0.7236
 6598SOL    HW231257   0.605   2.013   6.682 -0.0775  0.1261 -0.0938
 6599SOL     OW31258   2.203   0.377   4.905 -0.3689  0.2224 -1.1940
 6599SOL    HW131259   2.191   0.447   4.969 -0.3838 -0.2506 -0.6877
 6599SOL    HW231260   2.112   0.346   4.904 -0.4856  0.5009  1.0012
 6600SOL     OW31261   1.118   4.201   5.387  0.8850  0.8779 -0.0038
 6600SOL    HW131262   1.195   4.185   5.442  0.0195 -1.8257  0.4078
 6600SOL    HW231263   1.051   4.201   5.455  1.2273  0.1244  0.3331
 6601SOL     OW31264   1.334   1.228   7.096  0.3902 -0.6801  0.2353
 6601SOL    HW131265   1.399   1.181   7.045 -2.6892 -1.7548 -2.6571
 6601SOL    HW231266   1.262   1.166   7.104 -0.8117  0.8982  1.7222
 6602SOL     OW31267   2.879   3.010   4.875 -0.2623 -0.2884  0.5408
 6602SOL    HW131268   2.949   3.056   4.922 -0.6254  0.6422  0.1522
 6602SOL    HW231269   2.812   3.023   4.942  0.1366 -0.8124  1.0469
 6603SOL     OW31270   1.685   4.641  12.599  0.4131  0.1632 -0.0207
 6603SOL    HW131271   1.714   0.002  12.639 -0.2093  0.3469  0.0502
 6603SOL    HW231272   1.769   4.612  12.563  0.3481 -1.1946  0.9118
 6604SOL     OW31273   1.307   3.669   4.784  0.0583 -0.2957  0.1429
 6604SOL    HW131274   1.306   3.672   4.880  3.4732 -0.0322  0.1632
 6604SOL    HW231275   1.358   3.592   4.761  1.4418  0.5242  0.4426
 6605SOL     OW31276   4.031   3.659   5.096 -0.3513 -0.0853 -0.1428
 6605SOL    HW131277   3.985   3.581   5.128  0.7240 -0.9306 -0.6650
 6605SOL    HW231278   4.114   3.647   5.143 -1.0244  1.4624  1.4185
 6606SOL     OW31279   4.553   3.260   5.240  0.5835 -0.3146 -0.3960
 6606SOL    HW131280   4.536   3.187   5.298  3.5088 -0.4668  0.2823
 6606SOL    HW231281   4.626   3.224   5.189  0.3898 -0.6538 -0.4315
 6607SOL     OW31282   4.028   1.916   3.112 -0.0267  0.1980  0.1041
 6607SOL    HW131283   4.115   1.877   3.104  0.4385  1.6682 -1.9950
 6607SOL    HW231284   4.047   1.974   3.186  0.0231  1.3204 -0.7918
 6608SOL     OW31285   2.819   1.171   9.106 -0.1337 -0.0493  0.0666
 6608SOL    HW131286   2.833   1.152   9.199  0.9878  0.6521  0.0447
 6608SOL    HW231287   2.792   1.087   9.068  1.3494  0.6745 -2.5409
 6609SOL     OW31288   1.736   0.380   5.762 -0.0973  0.4643 -0.2962
 6609SOL    HW131289   1.668   0.445   5.779 -0.2868  0.0214  0.6320
 6609SOL    HW231290   1.692   0.324   5.698  2.9661 -0.6845 -1.4154
 6610SOL     OW31291   3.382   3.703   6.492  0.5801  0.1399  0.1835
 6610SOL    HW131292   3.331   3.771   6.535  3.0290  2.0131  0.1341
 6610SOL    HW231293   3.431   3.757   6.430  0.6722  1.5932  1.5231
 6611SOL     OW31294   0.296   4.380  17.227  0.4513  0.2919 -0.2667
 6611SOL    HW131295   0.214   4.382  17.178 -0.0950  0.1858  0.6516
 6611SOL    HW231296   0.365   4.361  17.163 -1.3082  1.8757 -2.6872
 6612SOL     OW31297   1.233   2.819  10.649 -0.2068 -0.2445 -0.2320
 6612SOL    HW131298   1.191   2.738  10.620  0.2029 -0.0874 -1.2609
 6612SOL    HW231299   1.327   2.816  10.627 -0.6277 -2.8898 -1.6366
 6613SOL     OW31300   0.553   3.855   8.474  0.6360  0.1175  0.5064
 6613SOL    HW131301   0.499   3.791   8.521 -1.1643  1.2672  0.0051
 6613SOL    HW231302   0.511   3.934   8.508 -1.0407 -0.7828  0.5500
 6614SOL     OW31303   3.577   2.033   3.006 -0.2606 -0.3421 -0.1944
 6614SOL    HW131304   3.577   2.055   3.099 -1.7590  2.1257 -0.7894
 6614SOL    HW231305   3.581   2.118   2.964  2.2837  0.7863  2.3111
 6615SOL     OW31306   1.392   2.485   4.735  0.0560  0.1301 -0.6981
 6615SOL    HW131307   1.442   2.529   4.666  0.3157 -0.3636 -0.8189
 6615SOL    HW231308   1.377   2.394   4.709 -0.0763  0.0323 -0.2759
 6616SOL     OW31309   3.865   0.934   1.083  0.0169  0.1870  0.2227
 6616SOL    HW131310   3.942   0.981   1.114  0.5030  0.1148 -0.8691
 6616SOL    HW231311   3.823   0.905   1.164  1.7150 -2.4120  0.1858
 6617SOL     OW31312   1.503   1.389  11.741  0.1851  0.1944 -0.1499
 6617SOL    HW131313   1.414   1.368  11.712  0.2839 -1.2934  0.6524
 6617SOL    HW231314   1.495   1.484  11.740 -1.3435  0.0722  0.6813
 6618SOL     OW31315   2.675   2.605  16.229 -0.3463  0.1824 -0.0880
 6618SOL    HW131316   2.695   2.698  16.217 -1.2181  0.2398 -1.1907
 6618SOL    HW231317   2.754   2.562  16.199 -0.5010  1.2052 -1.9592
 6619SOL     OW31318   0.655   1.023  11.777  0.3253  0.0498 -0.2113
 6619SOL    HW131319   0.731   1.077  11.753  0.5187 -0.9420 -1.7802
 6619SOL    HW231320   0.672   0.951  11.717  2.1144  0.6130 -0.3863
 6620SOL     OW31321   1.719   3.209   8.748  0.1640  0.6658  0.2685
 6620SOL    HW131322   1.623   3.201   8.746  0.2409  0.6541 -3.9588
 6620SOL    HW231323   1.737   3.244   8.660 -0.0927 -3.2810 -1.3788
 6621SOL     OW31324   2.972   4.680   2.014 -0.0823 -0.3022 -0.2531
 6621SOL    HW131325   2.911   4.685   1.941  1.5208  3.0748 -1.3837
 6621SOL    HW231326   3.035   0.031   2.007  0.5680 -0.8020  0.4929
 6622SOL     OW31327   3.905   3.757   5.798 -0.2435  0.3776 -0.1292
 6622SOL    HW131328   3.878   3.665   5.794  0.6644  0.1767 -1.4462
 6622SOL    HW231329   3.822   3.793   5.766 -1.6990 -1.6686  1.2810
 6623SOL     OW31330   2.313   4.294   1.697 -0.3625 -0.4393 -0.0935
 6623SOL    HW131331   2.273   4.220   1.651 -1.3684 -1.1766  1.9835
 6623SOL    HW231332   2.351   4.341   1.623  0.8110 -0.6602  0.3536
 6624SOL     OW31333   4.310   2.132  10.959  0.5834 -0.0349 -0.1190
 6624SOL    HW131334   4.231   2.079  10.965  0.5550  0.1813  1.3033
 6624SOL    HW231335   4.334   2.121  10.867  1.0316  2.0697 -0.2625
 6625SOL     OW31336   1.272   1.845   4.246  0.3688 -0.1706  0.8758
 6625SOL    HW131337   1.208   1.797   4.299 -0.4174 -2.7965 -2.4689
 6625SOL    HW231338   1.324   1.770   4.217 -0.5795  0.2854 -1.9469
 6626SOL     OW31339   2.506   3.676   0.924  0.4379  0.9417  0.4260
 6626SOL    HW131340   2.591   3.648   0.956  0.4200 -0.6012 -0.9087
 6626SOL    HW231341   2.525   3.768   0.902  0.4538 -0.0468 -3.6893
 6627SOL     OW31342   2.541   1.643  16.205  0.1805  0.9033  0.2195
 6627SOL    HW131343   2.631   1.645  16.172 -0.0223 -2.6435 -0.5851
 6627SOL    HW231344   2.534   1.551  16.232  1.5815  0.6632 -0.2288
 6628SOL     OW31345   4.126   2.695   8.657 -0.3944  0.2944 -0.0884
 6628SOL    HW131346   4.126   2.712   8.563 -0.7543 -0.6852 -0.2704
 6628SOL    HW231347   4.050   2.637   8.655 -0.3986  0.2315  1.8994
 6629SOL     OW31348   1.091   2.855   8.244  0.7179 -0.3910 -0.5769
 6629SOL    HW131349   1.143   2.868   8.323  3.7486 -1.0791 -2.4513
 6629SOL    HW231350   1.139   2.915   8.186  0.2737  0.2218 -0.3157
 6630SOL     OW31351   2.790   1.669  15.360 -0.2163  0.2972 -0.0884
 6630SOL    HW131352   2.754   1.747  15.401 -0.1216  1.5899 -2.4655
 6630SOL    HW231353   2.817   1.705  15.276  1.7661 -2.6188 -0.6910
 6631SOL     OW31354   2.797   2.751  10.159 -0.4336  0.3683 -0.8209
 6631SOL    HW131355   2.869   2.760  10.096 -0.1473  0.5771 -0.4618
 6631SOL    HW231356   2.804   2.833  10.207  2.7866  1.0995 -2.5045
 6632SOL     OW31357   1.111   1.448   6.686 -0.2044  0.3164 -0.6148
 6632SOL    HW131358   1.175   1.517   6.668  2.4871 -2.5956 -2.2581
 6632SOL    HW231359   1.163   1.384   6.733 -1.6473 -0.6165 -0.2771
 6633SOL     OW31360   4.581   4.300   6.682  0.0198 -0.1740  0.0519
 6633SOL    HW131361   4.573   4.328   6.773  0.7676 -0.0244  0.0664
 6633SOL    HW231362   4.552   4.380   6.638  0.6363 -0.4974 -0.9409
 6634SOL     OW31363   0.532   3.763   6.136  0.4621  0.0831  0.3738
 6634SOL    HW131364   0.519   3.818   6.059  3.0130  1.4117  0.8814
 6634SOL    HW231365   0.473   3.808   6.196  0.4893  1.9749 -0.9845
 6635SOL     OW31366   3.616   2.059   6.891 -0.3554  0.3702  0.7203
 6635SOL    HW131367   3.654   2.142   6.921  1.1324  0.5208 -1.5768
 6635SOL    HW231368   3.639   2.001   6.964  1.7699 -0.3652 -0.5296
 6636SOL     OW31369   4.417   1.710   3.736 -0.2403  0.5962  0.0965
 6636SOL    HW131370   4.358   1.635   3.730  1.2896 -0.6173  0.1888
 6636SOL    HW231371   4.448   1.720   3.646 -2.2014 -1.3030 -0.8074
 6637SOL     OW31372   0.252   3.543   3.439  0.1747 -0.3484  0.2132
 6637SOL    HW131373   0.242   3.460   3.393  0.7612 -1.2059  1.6254
 6637SOL    HW231374   0.162   3.552   3.470  0.0019  2.6236 -1.0947
 6638SOL     OW31375   1.274   3.377  14.614  0.1162  0.0542 -0.2946
 6638SOL    HW131376   1.191   3.332  14.599 -0.8785  0.9817  2.2980
 6638SOL    HW231377   1.249   3.445  14.552  2.4959 -0.2525 -1.5727
 6639SOL     OW31378   1.836   0.055   3.356 -0.7704  0.9283 -0.6560
 6639SOL    HW131379   1.786   4.718   3.299 -0.3594 -0.0842  0.0202
 6639SOL    HW231380   1.779   0.075   3.431 -0.3378 -0.0727 -0.0553
 6640SOL     OW31381   2.724   3.791   9.113 -0.0932 -0.1166  0.3173
 6640SOL    HW131382   2.755   3.810   9.201 -0.3875 -0.3869  0.4830
 6640SOL    HW231383   2.779   3.853   9.066 -1.8070 -0.0839 -1.6408
 6641SOL     OW31384   2.240   3.202   3.518  0.7466 -0.0924 -0.0882
 6641SOL    HW131385   2.239   3.106   3.511 -0.9787 -0.1631  0.9391
 6641SOL    HW231386   2.319   3.230   3.473  0.2237 -1.7001 -2.0428
 6642SOL     OW31387   2.605   0.125   4.726  0.4430 -0.7727 -0.0138
 6642SOL    HW131388   2.510   0.116   4.737  0.5308 -1.1216  0.4725
 6642SOL    HW231389   2.605   0.123   4.631 -0.0650 -3.6885  0.0381
 6643SOL     OW31390   1.226   3.953  14.444 -0.0709  0.2669 -0.6580
 6643SOL    HW131391   1.307   3.963  14.394 -0.5554 -1.4021 -1.7571
 6643SOL    HW231392   1.194   3.876  14.397 -0.5271  0.3624 -0.5066
 6644SOL     OW31393   0.960   1.324   5.306 -0.0702 -0.4265 -0.1844
 6644SOL    HW131394   0.893   1.264   5.341  1.6702 -1.9029  0.5897
 6644SOL    HW231395   0.964   1.397   5.367  0.2587 -1.5073  1.1007
 6645SOL     OW31396   2.814   1.912  10.529 -0.0865  0.6481 -0.3269
 6645SOL    HW131397   2.778   1.996  10.499 -0.1213 -0.0678 -2.3349
 6645SOL    HW231398   2.767   1.848  10.476 -1.1654  1.4613 -0.3446
 6646SOL     OW31399   1.689   1.907  13.726 -0.1295 -0.3117 -0.1061
 6646SOL    HW131400   1.735   1.936  13.805 -0.0548  0.8120 -0.5516
 6646SOL    HW231401   1.623   1.976  13.726 -1.4367 -1.5706 -0.6198
 6647SOL     OW31402   3.049   1.336   2.998  0.4357 -0.1228 -0.4358
 6647SOL    HW131403   3.136   1.348   2.960  1.0496  0.1421  1.0720
 6647SOL    HW231404   3.056   1.386   3.079 -1.6967  0.7860 -0.8057
 6648SOL     OW31405   1.948   3.572   4.404  0.3287 -0.3568 -0.6493
 6648SOL    HW131406   2.031   3.561   4.357  0.4617  0.0909 -0.5204
 6648SOL    HW231407   1.893   3.519   4.346 -2.1930  0.4329  1.0396
 6649SOL     OW31408   1.695   1.828   1.137 -0.9940  0.5266 -0.0085
 6649SOL    HW131409   1.720   1.904   1.188  2.1891  0.1115 -0.9742
 6649SOL    HW231410   1.722   1.756   1.193  0.9064  0.4787 -0.9979
 6650SOL     OW31411   4.296   1.515   7.317 -0.1792  0.0492  0.6568
 6650SOL    HW131412   4.360   1.462   7.269 -0.2836  1.7653 -1.3861
 6650SOL    HW231413   4.222   1.454   7.320  2.3515 -3.0549 -0.5125
 6651SOL     OW31414   0.382   1.121   3.114 -1.4460  0.4421 -0.0112
 6651SOL    HW131415   0.421   1.187   3.172  1.6202 -2.5905  1.3493
 6651SOL    HW231416   0.290   1.141   3.131 -1.7308 -2.5416  1.7478
 6652SOL     OW31417   0.296   2.985   5.663 -0.3511  0.0801 -0.0706
 6652SOL    HW131418   0.309   2.912   5.602 -1.4858  1.1260 -1.5524
 6652SOL    HW231419   0.230   3.030   5.611 -0.4571 -0.4412 -0.3916
 6653SOL     OW31420   3.313   4.714   0.353  0.3628  0.5405 -0.4140
 6653SOL    HW131421   3.269   4.681   0.431  2.0270  2.4318  1.3290
 6653SOL    HW231422   3.392   0.038   0.380 -0.5364  1.0453  1.3689
 6654SOL     OW31423   2.060   2.688  11.658 -0.1192  0.3582  0.0934
 6654SOL    HW131424   2.000   2.749  11.701  0.8939 -0.1875  2.2837
 6654SOL    HW231425   2.080   2.634  11.734 -0.0268  0.3136  0.0386
 6655SOL     OW31426   0.764   1.177   5.418  0.3685  0.1869 -0.0069
 6655SOL    HW131427   0.695   1.113   5.433  0.2569 -0.2506 -2.3515
 6655SOL    HW231428   0.743   1.236   5.491  1.3040 -1.6098  1.6979
 6656SOL     OW31429   0.763   4.681   3.057 -0.4147 -0.1049  0.1512
 6656SOL    HW131430   0.748   4.621   3.129  0.0548 -2.0960 -1.4087
 6656SOL    HW231431   0.709   0.028   3.096  2.0204  1.8173  0.1221
 6657SOL     OW31432   3.071   1.593   2.747 -0.1904  0.2097  0.1873
 6657SOL    HW131433   2.981   1.564   2.732 -0.0812 -0.2759  0.4663
 6657SOL    HW231434   3.053   1.630   2.833  0.8184 -0.5822  0.7329
 6658SOL     OW31435   1.969   2.710   8.512  0.5607 -0.0147  0.1824
 6658SOL    HW131436   1.960   2.665   8.428 -4.0491 -1.6773  1.5774
 6658SOL    HW231437   1.935   2.797   8.491  1.3916 -0.0158 -1.1304
 6659SOL     OW31438   1.429   1.284  17.076  0.0001 -0.6663 -0.0112
 6659SOL    HW131439   1.522   1.296  17.059 -0.0268 -1.4018 -0.7196
 6659SOL    HW231440   1.421   1.273  17.170  0.2071  1.3452  0.2319
 6660SOL     OW31441   1.874   0.925  11.172 -0.0565 -0.2209  0.4959
 6660SOL    HW131442   1.897   0.996  11.114  2.2156 -2.5221 -1.4135
 6660SOL    HW231443   1.926   0.944  11.250  0.6671  0.1630 -0.0909
 6661SOL     OW31444   2.675   2.248   3.512 -0.1427  0.0230 -0.5760
 6661SOL    HW131445   2.642   2.201   3.435 -2.0093 -0.0077  0.2376
 6661SOL    HW231446   2.720   2.177   3.558 -0.0253  0.9598  0.7609
 6662SOL     OW31447   1.294   1.909   7.211 -0.2020 -0.1027 -0.1489
 6662SOL    HW131448   1.368   1.970   7.205 -0.8862  0.8862  1.3298
 6662SOL    HW231449   1.304   1.886   7.119 -1.2033  0.7922 -0.4788
 6663SOL     OW31450   4.526   4.477   7.666 -0.3125 -0.1624 -0.0272
 6663SOL    HW131451   4.499   4.514   7.582 -1.5602  1.6771  1.1754
 6663SOL    HW231452   4.461   4.521   7.722 -1.3474  0.9517 -2.1221
 6664SOL     OW31453   0.390   0.831   7.003  0.9097  0.1963 -0.1521
 6664SOL    HW131454   0.454   0.773   6.962  0.6989  0.6978 -1.2004
 6664SOL    HW231455   0.433   0.844   7.088  0.9974 -0.1962 -0.1353
 6665SOL     OW31456   3.758   0.159   5.402 -0.1543 -0.1568  0.0706
 6665SOL    HW131457   3.716   0.199   5.479 -1.8582  1.6557 -1.7895
 6665SOL    HW231458   3.696   0.181   5.332  0.6877 -1.5597 -1.1050
 6666SOL     OW31459   4.454   2.952  13.832 -0.1159 -0.4266  0.9462
 6666SOL    HW131460   4.417   3.024  13.883  0.9929  1.8204 -1.4490
 6666SOL    HW231461   4.546   2.966  13.854  0.1622 -1.2575  0.3259
 6667SOL     OW31462   3.572   3.014   2.685  0.6770 -0.1320  0.1323
 6667SOL    HW131463   3.480   3.039   2.674  1.0796  0.8461 -0.9537
 6667SOL    HW231464   3.613   3.101   2.683  0.0431  0.2055  1.5530
 6668SOL     OW31465   1.147   3.478   8.333  0.1448 -0.5063  0.2357
 6668SOL    HW131466   1.143   3.442   8.244 -0.3244  1.1909 -0.4283
 6668SOL    HW231467   1.056   3.488   8.358 -0.0163 -1.3347 -0.0213
 6669SOL     OW31468   2.295   4.604   2.961 -0.1964  0.0098 -0.1497
 6669SOL    HW131469   2.314   4.665   2.890  3.5004 -1.4665 -0.3957
 6669SOL    HW231470   2.358   4.627   3.029 -1.2109  1.7027  0.2195
 6670SOL     OW31471   0.371   0.931   6.735  0.9900 -0.0778  0.1442
 6670SOL    HW131472   0.431   0.861   6.706  0.6031  0.0893 -1.0918
 6670SOL    HW231473   0.368   0.927   6.830 -0.8508  0.2160  0.0896
 6671SOL     OW31474   3.690   4.310  12.706 -0.0201  0.5086 -0.2864
 6671SOL    HW131475   3.737   4.392  12.689  0.4072  0.3974  0.3489
 6671SOL    HW231476   3.691   4.305  12.802  0.0981  0.9298 -0.2631
 6672SOL     OW31477   0.118   2.387   1.966  0.1192  0.5209 -0.2310
 6672SOL    HW131478   0.111   2.473   1.924 -1.0095 -0.8002 -2.6994
 6672SOL    HW231479   0.201   2.391   2.013 -0.0327 -0.4540  0.1308
 6673SOL     OW31480   1.795   2.228   3.885 -0.8393  0.6159  0.7702
 6673SOL    HW131481   1.727   2.294   3.895 -0.6881  1.0689 -1.0392
 6673SOL    HW231482   1.836   2.245   3.800  1.5407 -1.0170  1.5894
 6674SOL     OW31483   4.106   2.922   5.509  0.2284  0.3902  0.2270
 6674SOL    HW131484   4.080   2.848   5.564 -0.6060  2.1168  2.1593
 6674SOL    HW231485   4.082   2.994   5.566 -1.0678  0.3042 -0.2150
 6675SOL     OW31486   1.482   2.209  12.565  0.8134  0.4188  0.0912
 6675SOL    HW131487   1.462   2.212  12.471  0.7307 -2.1677  0.0279
 6675SOL    HW231488   1.407   2.261  12.593  0.8598  0.6322 -0.1703
 6676SOL     OW31489   3.167   4.208   1.706  0.2679  0.2104  0.3270
 6676SOL    HW131490   3.184   4.279   1.768  0.3186  2.4905 -2.2907
 6676SOL    HW231491   3.250   4.161   1.694  0.2217  0.1488  0.2561
 6677SOL     OW31492   2.947   2.484  12.130  0.9240  0.4847 -0.6773
 6677SOL    HW131493   3.041   2.505  12.123  1.0279  0.5866  0.9945
 6677SOL    HW231494   2.951   2.389  12.139 -0.8778  0.4381 -0.4340
 6678SOL     OW31495   2.478   0.647   1.602 -0.2622 -0.2633 -0.0196
 6678SOL    HW131496   2.463   0.633   1.508 -0.0793 -3.6677  0.4652
 6678SOL    HW231497   2.565   0.687   1.607  0.0185 -0.8381 -0.2199
 6679SOL     OW31498   3.574   0.138  14.818  0.0497  0.2835 -0.5344
 6679SOL    HW131499   3.567   0.154  14.724  1.0921  0.3648 -0.5887
 6679SOL    HW231500   3.507   0.069  14.815  0.7654 -0.3483 -1.9404
 6680SOL     OW31501   2.100   0.676   7.329  0.0441  0.5300 -0.2465
 6680SOL    HW131502   2.027   0.683   7.390  1.3158  0.7516  1.2622
 6680SOL    HW231503   2.057   0.719   7.255 -1.0790 -3.7789 -2.1180
 6681SOL     OW31504   2.197   1.985  11.206  0.0682 -0.1614 -0.2138
 6681SOL    HW131505   2.138   1.923  11.247 -0.2130 -0.5285 -1.1664
 6681SOL    HW231506   2.264   1.981  11.275  2.4395 -2.9328 -2.6928
 6682SOL     OW31507   3.766   1.688   5.928  0.4951  0.0332  0.4025
 6682SOL    HW131508   3.711   1.757   5.967  0.8486  0.4000  0.2513
 6682SOL    HW231509   3.741   1.696   5.836 -1.0525 -0.5733  0.7703
 6683SOL     OW31510   1.725   1.793   8.001  0.0885  0.5909 -0.3408
 6683SOL    HW131511   1.794   1.855   7.977 -0.5405  1.1941 -0.5779
 6683SOL    HW231512   1.764   1.710   7.975  0.5949  1.2007 -1.5317
 6684SOL     OW31513   4.497   3.604   8.366  0.5958 -0.4432  0.3803
 6684SOL    HW131514   4.522   3.588   8.457  2.5575 -0.0296 -0.0881
 6684SOL    HW231515   4.414   3.559   8.355  0.2419  0.3840 -0.3589
 6685SOL     OW31516   3.904   4.488   8.321  0.3809 -0.0562  0.2645
 6685SOL    HW131517   3.973   4.534   8.275  0.2205  0.1344  0.2114
 6685SOL    HW231518   3.841   4.561   8.323  0.0718 -0.3103 -0.1214
 6686SOL     OW31519   4.038   4.318  11.973 -0.3548  0.1941 -0.1491
 6686SOL    HW131520   4.072   4.340  11.886  0.2202 -0.1261 -0.0032
 6686SOL    HW231521   3.992   4.237  11.951  2.2936 -1.8784  2.0175
 6687SOL     OW31522   2.356   3.038  11.489 -0.0637 -0.6997 -0.3809
 6687SOL    HW131523   2.281   3.008  11.540  0.8665 -1.6390  0.4618
 6687SOL    HW231524   2.353   2.981  11.413 -0.6750 -0.6839 -0.3684
 6688SOL     OW31525   3.171   4.496   8.286 -0.0415 -0.2620  0.0482
 6688SOL    HW131526   3.162   4.401   8.285 -1.4114 -0.1233 -0.6819
 6688SOL    HW231527   3.146   4.528   8.373 -0.3299  0.1536 -0.1879
 6689SOL     OW31528   4.271   2.504  17.465 -0.9956  0.3780  0.6381
 6689SOL    HW131529   4.264   2.588  17.512 -0.0471  0.8714 -0.1070
 6689SOL    HW231530   4.348   2.457  17.496 -0.1786 -0.0966 -2.1518
 6690SOL     OW31531   3.055   2.209   1.573 -0.2728  0.3225  0.2274
 6690SOL    HW131532   2.994   2.253   1.513  0.9941  1.2284 -0.3842
 6690SOL    HW231533   3.045   2.265   1.650  1.6005 -1.0706  1.4795
 6691SOL     OW31534   1.089   0.832   8.489  0.7518 -0.5132 -0.2533
 6691SOL    HW131535   1.058   0.779   8.415  2.9713 -0.6208 -1.0830
 6691SOL    HW231536   1.179   0.847   8.460  0.8494 -0.8203 -0.1069
 6692SOL     OW31537   1.749   1.255   3.520  0.1372 -0.0996  0.5416
 6692SOL    HW131538   1.795   1.323   3.570  1.6687 -1.4845  0.9991
 6692SOL    HW231539   1.802   1.247   3.441  0.1167  1.2474  0.3963
 6693SOL     OW31540   3.937   3.275   7.423 -0.3532  0.4917  0.6446
 6693SOL    HW131541   3.851   3.271   7.382 -0.2549  1.3111  0.3713
 6693SOL    HW231542   3.943   3.185   7.456  4.0930  0.1909 -0.9512
 6694SOL     OW31543   0.782   0.813   5.604  0.7466  0.2381 -0.1130
 6694SOL    HW131544   0.876   0.811   5.583 -0.1601 -0.5602 -4.0345
 6694SOL    HW231545   0.758   0.724   5.628 -0.6654  0.4475 -0.7914
 6695SOL     OW31546   1.014   2.278   4.563  0.4797  0.1773  0.3557
 6695SOL    HW131547   1.044   2.364   4.595 -1.8762  1.2419 -0.2915
 6695SOL    HW231548   0.953   2.309   4.496  1.4444  1.3933  0.0236
 6696SOL     OW31549   3.022   3.813   2.917  0.1545  0.2315  0.0904
 6696SOL    HW131550   3.016   3.883   2.852 -2.1384  0.4969  0.6058
 6696SOL    HW231551   3.062   3.852   2.995  0.5159 -1.0978  0.5676
 6697SOL     OW31552   4.589   1.012  17.509 -0.8511  0.0114  0.0934
 6697SOL    HW131553   4.495   1.025  17.501 -0.6327  1.7636  0.3750
 6697SOL    HW231554   4.625   1.062  17.436 -1.1069  2.1938  1.4605
 6698SOL     OW31555   3.170   1.823   4.810 -0.5954 -0.6335 -0.3527
 6698SOL    HW131556   3.243   1.876   4.843 -0.5600 -0.2769 -0.9947
 6698SOL    HW231557   3.129   1.883   4.747  2.4170  1.0220 -0.7207
 6699SOL     OW31558   1.397   1.632   8.970 -0.0848 -0.6803 -0.2053
 6699SOL    HW131559   1.407   1.705   8.909 -1.0802  1.5586  2.2899
 6699SOL    HW231560   1.444   1.558   8.932  0.5520 -0.6881  0.5922
 6700SOL     OW31561   3.255   2.499   0.233 -0.1327 -0.0303  0.7588
 6700SOL    HW131562   3.270   2.546   0.151  0.3837 -0.0960  0.8189
 6700SOL    HW231563   3.166   2.467   0.219  0.4636 -1.0845 -0.6483
 6701SOL     OW31564   2.408   2.320   7.634 -0.5494 -0.4397  0.4468
 6701SOL    HW131565   2.488   2.364   7.664  0.6641 -0.2607 -3.1193
 6701SOL    HW231566   2.426   2.313   7.541  0.3860 -0.2887  0.6146
 6702SOL     OW31567   3.740   1.859   7.084  0.3001  0.9402 -0.1597
 6702SOL    HW131568   3.800   1.873   7.157  0.6054  1.3394 -0.4878
 6702SOL    HW231569   3.794   1.828   7.011  1.5523 -1.4226  1.7393
 6703SOL     OW31570   1.623   2.388   2.073  0.2297 -0.3815  0.4621
 6703SOL    HW131571   1.708   2.401   2.113  0.1538 -0.7313  0.7373
 6703SOL    HW231572   1.643   2.337   1.994  0.2117  2.3114 -1.2836
 6704SOL     OW31573   1.218   1.319   8.673 -0.1375 -0.1633  0.1957
 6704SOL    HW131574   1.185   1.263   8.602  2.3120  0.1838 -1.2330
 6704SOL    HW231575   1.307   1.282   8.679  0.0055  0.5376  2.3137
 6705SOL     OW31576   4.063   1.889   0.661 -0.1231 -0.4911 -0.0097
 6705SOL    HW131577   4.061   1.829   0.587 -4.1319  1.1141 -1.2231
 6705SOL    HW231578   4.136   1.869   0.720 -1.3101 -1.4216  1.1455
 6706SOL     OW31579   0.437   2.549  12.789 -0.2528  0.0275 -0.2954
 6706SOL    HW131580   0.385   2.543  12.870  1.3777 -0.7989  0.7011
 6706SOL    HW231581   0.378   2.510  12.725  1.0622  1.7119 -2.5331
 6707SOL     OW31582   4.050   1.749   6.512 -0.0913  0.0242  0.1415
 6707SOL    HW131583   4.121   1.753   6.448  0.8658 -3.7966  0.9834
 6707SOL    HW231584   4.096   1.789   6.586  1.3761 -2.9015  0.8152
 6708SOL     OW31585   3.644   0.304   2.643 -0.5238  0.1281 -0.6501
 6708SOL    HW131586   3.706   0.351   2.587 -0.7436  0.1677 -0.8625
 6708SOL    HW231587   3.571   0.286   2.583 -0.0844 -1.8720 -0.5826
 6709SOL     OW31588   1.431   0.234   5.304  0.1260 -0.1312  0.1857
 6709SOL    HW131589   1.474   0.198   5.226 -0.1440 -1.3303  0.6019
 6709SOL    HW231590   1.391   0.316   5.273 -1.2039 -1.0400 -0.4747
 6710SOL     OW31591   1.764   1.900   3.853 -0.2122 -0.0140 -0.0952
 6710SOL    HW131592   1.671   1.919   3.839 -0.1542  0.4038  0.0842
 6710SOL    HW231593   1.794   1.976   3.903  1.7096 -1.3030  0.7350
 6711SOL     OW31594   0.045   0.382   3.515 -0.1169  0.7100 -0.1107
 6711SOL    HW131595   4.715   0.312   3.475  0.9191  0.1764 -0.5070
 6711SOL    HW231596   0.101   0.314   3.553  0.3380  2.6062  2.6920
 6712SOL     OW31597   1.421   0.442  17.468 -0.0166 -0.1291 -0.5274
 6712SOL    HW131598   1.436   0.426  17.561 -0.2970  0.4557 -0.3865
 6712SOL    HW231599   1.369   0.367  17.437  0.5378 -1.0701  0.7996
 6713SOL     OW31600   4.466   1.228   4.181 -0.3007 -0.7266  0.1985
 6713SOL    HW131601   4.408   1.154   4.197 -1.2982  0.4677  2.0360
 6713SOL    HW231602   4.425   1.302   4.227  0.1959  0.1860 -0.8080
 6714SOL     OW31603   4.580   0.468  10.730 -0.1343  0.2149  0.3627
 6714SOL    HW131604   4.611   0.382  10.757  0.9004 -0.0650 -1.6520
 6714SOL    HW231605   4.614   0.522  10.802 -0.5516  0.0890  0.6493
 6715SOL     OW31606   4.181   4.413  11.754  0.1167  0.5406 -0.5265
 6715SOL    HW131607   4.246   4.479  11.778  1.0419  0.1789 -1.9983
 6715SOL    HW231608   4.209   4.393  11.664  0.1539  1.4147 -0.7088
 6716SOL     OW31609   0.919   0.691   4.923  0.1051 -0.1575 -0.0401
 6716SOL    HW131610   0.970   0.745   4.863  1.7734 -0.8228  0.7750
 6716SOL    HW231611   0.847   0.672   4.863  0.9482 -1.5735 -0.6186
 6717SOL     OW31612   1.787   4.195   8.726  0.1165  0.3174  0.6003
 6717SOL    HW131613   1.699   4.189   8.761  0.5666  0.2117  1.7144
 6717SOL    HW231614   1.795   4.289   8.707  0.0730  0.4621  1.3010
 6718SOL     OW31615   1.808   3.264  17.466 -0.3527  0.3760  0.5068
 6718SOL    HW131616   1.772   3.197  17.406 -1.0617  0.4495  0.8443
 6718SOL    HW231617   1.799   3.334  17.402 -0.2337 -0.7636 -0.7667
 6719SOL     OW31618   3.628   0.562   2.066  0.1804 -0.0555  0.0875
 6719SOL    HW131619   3.651   0.651   2.092 -1.0954  0.0971  0.6907
 6719SOL    HW231620   3.630   0.571   1.970  3.4595  1.2799  0.2757
 6720SOL     OW31621   1.961   2.612   4.463 -0.4310 -0.2129 -0.3463
 6720SOL    HW131622   1.960   2.650   4.376 -1.2145 -0.7152 -0.5517
 6720SOL    HW231623   1.989   2.522   4.446 -1.4817 -0.8401  1.2573
 6721SOL     OW31624   1.027   2.057   1.602  0.0494 -0.1034  0.1940
 6721SOL    HW131625   0.953   2.116   1.614  0.6674  0.4410  1.3422
 6721SOL    HW231626   1.024   2.009   1.685  2.4723  1.1697  1.0006
 6722SOL     OW31627   4.341   3.079  17.575 -0.6030 -0.0492 -0.6917
 6722SOL    HW131628   4.365   3.024  17.650 -1.9919  1.0855  0.5939
 6722SOL    HW231629   4.293   3.014  17.524 -1.5906  1.5205 -1.7454
 6723SOL     OW31630   3.394   4.355   2.498 -0.0627 -0.3937  0.3677
 6723SOL    HW131631   3.334   4.425   2.469 -1.1773 -1.4683  0.0779
 6723SOL    HW231632   3.473   4.406   2.478 -0.5715  0.3242  0.2018
 6724SOL     OW31633   0.012   0.559   8.298 -0.5681  0.0044 -0.1002
 6724SOL    HW131634   0.043   0.546   8.209 -3.8980 -0.7461 -1.1471
 6724SOL    HW231635   0.029   0.652   8.314 -1.2463 -0.3629  2.7687
 6725SOL     OW31636   1.567   0.237   7.984 -0.0857  0.2307  0.0310
 6725SOL    HW131637   1.588   0.324   7.949 -1.3490  0.3523 -0.4345
 6725SOL    HW231638   1.578   0.195   7.899  1.1713  0.2174  0.2080
 6726SOL     OW31639   4.655   2.195   3.651 -0.0630  0.0301  0.0411
 6726SOL    HW131640   4.697   2.159   3.729 -0.9986  0.0725  0.5567
 6726SOL    HW231641   4.668   2.122   3.589  2.8551 -0.5755  1.3264
 6727SOL     OW31642   2.567   0.211   2.388  0.2386  0.5291  0.3293
 6727SOL    HW131643   2.599   0.191   2.300 -0.7444  2.0962 -0.3855
 6727SOL    HW231644   2.537   0.300   2.369  0.2736  0.7829  1.4349
 6728SOL     OW31645   1.096   4.486   3.435 -0.3577  0.0651 -0.8135
 6728SOL    HW131646   1.138   4.546   3.374 -0.5906 -0.8079 -1.8238
 6728SOL    HW231647   1.106   4.403   3.387 -1.4057 -0.0244 -0.8686
 6729SOL     OW31648   4.650   0.922   2.228 -0.3519 -0.1289 -0.0838
 6729SOL    HW131649   4.628   0.832   2.204  0.0289 -0.1981 -0.1841
 6729SOL    HW231650   4.672   0.966   2.146  2.5405  0.1603  0.8257
 6730SOL     OW31651   0.421   4.712   6.174  0.0496  0.0548 -0.1340
 6730SOL    HW131652   0.406   4.623   6.208  0.6838  0.7751  2.0180
 6730SOL    HW231653   0.395   0.035   6.254 -0.1163  1.8578 -1.1981
 6731SOL     OW31654   0.532   3.326  10.682 -0.0674 -0.5145 -0.2828
 6731SOL    HW131655   0.621   3.317  10.715 -0.0333  0.7071 -0.0366
 6731SOL    HW231656   0.504   3.412  10.713  1.8235 -0.2923  0.7800
 6732SOL     OW31657   3.688   0.081  10.092 -0.3202 -0.7853 -0.2525
 6732SOL    HW131658   3.758   0.120  10.039  1.1209  1.6207  3.4252
 6732SOL    HW231659   3.698   0.141  10.165  0.5458 -0.3184 -0.7588
 6733SOL     OW31660   4.668   0.582   2.571  0.4916  0.2459  0.2804
 6733SOL    HW131661   4.604   0.613   2.634  0.8280  0.5983  0.4506
 6733SOL    HW231662   4.611   0.556   2.499 -1.6728 -0.7602  2.3859
 6734SOL     OW31663   1.606   2.490   0.823  0.6220 -0.1066  0.8384
 6734SOL    HW131664   1.591   2.583   0.808  2.7845  0.2487  0.9295
 6734SOL    HW231665   1.555   2.465   0.900 -0.3633 -3.0146 -0.7297
 6735SOL     OW31666   4.201   0.713  16.306 -0.2604  0.5279 -0.0897
 6735SOL    HW131667   4.162   0.761  16.232 -0.4317  0.1969 -0.2157
 6735SOL    HW231668   4.254   0.779  16.350 -0.3939  1.3357 -1.1542
 6736SOL     OW31669   3.279   0.757  14.038 -0.3589  0.3859  0.1149
 6736SOL    HW131670   3.349   0.713  14.087 -1.4189 -0.7049  0.6364
 6736SOL    HW231671   3.210   0.691  14.043 -0.2756  0.4548  2.5895
 6737SOL     OW31672   2.692   2.632   7.782  0.4036 -0.3983 -0.2472
 6737SOL    HW131673   2.667   2.681   7.860 -1.7143  1.0635 -1.8223
 6737SOL    HW231674   2.782   2.664   7.774  0.3016  0.3848  1.9114
 6738SOL     OW31675   0.768   0.213   6.430  0.5750 -0.2712 -0.6293
 6738SOL    HW131676   0.782   0.270   6.506  1.0184  0.7549 -1.4842
 6738SOL    HW231677   0.819   0.137   6.458 -0.6914 -0.9206 -0.0661
 6739SOL     OW31678   2.093   0.204   3.474 -0.1414  0.0126  0.2031
 6739SOL    HW131679   2.145   0.194   3.394 -0.9026  1.6111 -0.4911
 6739SOL    HW231680   2.002   0.183   3.455 -0.4930  0.8203  0.9735
 6740SOL     OW31681   1.262   0.977   7.386  0.2564  0.1880  0.2250
 6740SOL    HW131682   1.215   0.933   7.315 -0.2448 -1.2268  1.4157
 6740SOL    HW231683   1.332   0.914   7.406  0.1750 -1.0285 -3.3441
 6741SOL     OW31684   2.804   0.252   8.126 -0.3052 -0.2189  0.0524
 6741SOL    HW131685   2.759   0.336   8.138  0.9550  0.5796 -0.8007
 6741SOL    HW231686   2.885   0.264   8.176 -1.2138  0.3247  1.3908
 6742SOL     OW31687   2.244   3.950   6.974  0.1420  0.2858  0.0779
 6742SOL    HW131688   2.314   3.950   7.040  1.3137  0.1938 -1.1670
 6742SOL    HW231689   2.200   3.868   6.998  0.7835 -0.1923 -0.3742
 6743SOL     OW31690   3.727   3.661   8.851  0.0834 -0.5273  0.1137
 6743SOL    HW131691   3.700   3.725   8.916  2.0617 -0.3980  0.8092
 6743SOL    HW231692   3.744   3.585   8.907 -0.1544  0.5114  1.5755
 6744SOL     OW31693   2.176   2.322   4.631  0.0550 -0.0706  0.0918
 6744SOL    HW131694   2.199   2.371   4.710  0.4073  0.9213 -0.6294
 6744SOL    HW231695   2.194   2.231   4.654  0.3238  0.0415  0.3262
 6745SOL     OW31696   2.393   1.582  13.499  0.4342  0.3361 -0.6907
 6745SOL    HW131697   2.308   1.624  13.514  1.0135  1.2844 -0.0595
 6745SOL    HW231698   2.425   1.631  13.423 -0.3922 -0.9145 -1.8390
 6746SOL     OW31699   4.593   4.203  10.256  0.4650 -0.3057  0.7406
 6746SOL    HW131700   4.610   4.129  10.197  0.4814 -0.4600  0.9348
 6746SOL    HW231701   4.595   4.153  10.338  0.4983 -1.0094  0.3181
 6747SOL     OW31702   2.114   0.998   3.814  0.1185 -0.6730 -0.0232
 6747SOL    HW131703   2.200   0.968   3.844  1.9540  2.7634 -1.8010
 6747SOL    HW231704   2.133   1.009   3.720  2.4330  0.1623  0.5457
 6748SOL     OW31705   2.723   3.214   9.691  0.0877 -0.0990 -0.0311
 6748SOL    HW131706   2.632   3.210   9.661 -0.3622 -1.7433  1.6206
 6748SOL    HW231707   2.735   3.126   9.726  0.5795 -0.0455 -0.0692
 6749SOL     OW31708   0.549   2.257   3.307 -0.1881  0.0525  0.1757
 6749SOL    HW131709   0.541   2.315   3.231  0.9852 -1.4449 -1.0855
 6749SOL    HW231710   0.475   2.267   3.367 -0.4225 -2.9687  0.4272
 6750SOL     OW31711   1.776   2.203   4.688  0.4642  0.1380 -0.2372
 6750SOL    HW131712   1.832   2.257   4.745  0.1994  0.6937 -0.5162
 6750SOL    HW231713   1.714   2.154   4.743  2.3927 -2.6306 -0.5085
 6751SOL     OW31714   3.658   1.973   0.395 -0.4051 -0.1390  0.6038
 6751SOL    HW131715   3.573   2.016   0.385  1.3235  2.5633 -2.6779
 6751SOL    HW231716   3.699   2.031   0.459  0.3637 -0.8619  0.7731
 6752SOL     OW31717   3.278   3.724   3.457  0.0945  0.1091 -0.0774
 6752SOL    HW131718   3.372   3.709   3.467  0.0253  0.5535  1.2760
 6752SOL    HW231719   3.281   3.819   3.455 -0.4827  0.1545  0.8630
 6753SOL     OW31720   1.919   4.446   2.314  0.1832 -0.0155  0.3423
 6753SOL    HW131721   1.953   4.514   2.371 -4.1232  1.1507  1.5594
 6753SOL    HW231722   1.920   4.488   2.228 -1.6228  0.7318  0.6917
 6754SOL     OW31723   4.641   0.374   7.584 -0.4505 -0.4534 -1.1564
 6754SOL    HW131724   4.663   0.463   7.610 -0.5363 -1.1685  1.3536
 6754SOL    HW231725   0.009   0.346   7.564  0.5147  2.7561 -1.3465
 6755SOL     OW31726   4.095   3.444  15.927 -0.2467  0.1102  0.2400
 6755SOL    HW131727   4.076   3.537  15.934 -0.5104 -0.0753  2.0628
 6755SOL    HW231728   4.177   3.451  15.878 -1.0665 -2.3512 -1.4538
 6756SOL     OW31729   0.378   0.957   5.463 -0.0043 -0.1089 -0.1513
 6756SOL    HW131730   0.469   0.977   5.488 -0.3678 -1.3405  2.1288
 6756SOL    HW231731   0.382   0.863   5.450 -0.7810 -0.1541 -0.0543
 6757SOL     OW31732   2.492   1.043  10.246  0.2950 -0.0402 -0.3934
 6757SOL    HW131733   2.532   1.035  10.332 -0.0970 -0.3893 -0.2455
 6757SOL    HW231734   2.432   0.969  10.245  0.5083 -0.2316  1.0770
 6758SOL     OW31735   0.331   3.025   9.353 -0.0483 -0.1204  0.4851
 6758SOL    HW131736   0.404   3.085   9.342  0.1068  0.1053  2.7557
 6758SOL    HW231737   0.270   3.072   9.411 -1.9160 -1.4039 -0.4157
 6759SOL     OW31738   3.405   4.316   4.683 -0.3616 -0.9829  0.1564
 6759SOL    HW131739   3.312   4.333   4.668  0.2557  1.5371 -0.8268
 6759SOL    HW231740   3.397   4.288   4.774 -2.3797  0.0244  0.2860
 6760SOL     OW31741   2.673   2.485   9.377  0.2541  0.4002  0.4585
 6760SOL    HW131742   2.752   2.480   9.432  0.0196 -3.0669  0.4395
 6760SOL    HW231743   2.658   2.391   9.367  0.0808  0.4262  0.4732
 6761SOL     OW31744   1.260   4.336   9.273 -0.6508 -0.1622  0.1876
 6761SOL    HW131745   1.336   4.291   9.236 -0.0275  0.0858  1.1727
 6761SOL    HW231746   1.280   4.311   9.363 -1.6209 -1.4865  0.0342
 6762SOL     OW31747   2.299   4.080   4.537  0.7872  0.6478 -0.3304
 6762SOL    HW131748   2.302   3.984   4.547  2.3352  0.6871 -0.3170
 6762SOL    HW231749   2.337   4.080   4.449  2.8626  0.5880  0.5637
 6763SOL     OW31750   4.440   1.661   5.767  0.1290 -0.2332  0.4504
 6763SOL    HW131751   4.488   1.659   5.685 -2.5149 -1.3842 -1.0725
 6763SOL    HW231752   4.492   1.609   5.828  0.2706 -4.1118 -2.9788
 6764SOL     OW31753   0.661   3.414   0.624  0.0915  0.0664  0.7902
 6764SOL    HW131754   0.629   3.422   0.534  1.5943  2.6036  0.4839
 6764SOL    HW231755   0.608   3.344   0.661 -0.2547 -0.3367 -0.4734
 6765SOL     OW31756   2.468   3.170   9.645  0.0267 -0.0821 -0.1212
 6765SOL    HW131757   2.425   3.091   9.610 -0.0663 -0.5958  1.1659
 6765SOL    HW231758   2.412   3.240   9.612 -1.3332 -0.6919  0.9022
 6766SOL     OW31759   2.674   2.223   5.354  0.2800  0.0929  0.4849
 6766SOL    HW131760   2.592   2.231   5.304 -0.0475  0.6390  1.1152
 6766SOL    HW231761   2.671   2.301   5.409 -0.7501  0.6667 -0.3749
 6767SOL     OW31762   2.009   0.771   2.100  0.2475  0.2234  0.3802
 6767SOL    HW131763   1.990   0.684   2.066  1.9283  0.3865 -0.9703
 6767SOL    HW231764   2.019   0.830   2.026 -1.5444 -0.1720 -0.1795
 6768SOL     OW31765   3.671   2.516   5.881 -0.0039  0.2584  0.3066
 6768SOL    HW131766   3.734   2.445   5.895  1.4520  1.1265 -1.7905
 6768SOL    HW231767   3.585   2.477   5.891 -0.7669  0.9837 -3.2629
 6769SOL     OW31768   4.487   0.424   4.118 -0.0957  0.1190  0.4833
 6769SOL    HW131769   4.570   0.391   4.152 -0.5486 -1.7746 -0.2092
 6769SOL    HW231770   4.518   0.489   4.055  0.9869 -0.1013  0.7867
 6770SOL     OW31771   3.814   3.273   6.914  0.1828 -0.1262 -0.4650
 6770SOL    HW131772   3.776   3.357   6.890 -2.6512 -1.1623  0.4812
 6770SOL    HW231773   3.907   3.293   6.898 -0.1013  1.3330 -0.2583
 6771SOL     OW31774   4.493   3.851  13.766 -0.1433  0.3303  0.1406
 6771SOL    HW131775   4.406   3.838  13.802 -0.5999 -0.7725 -1.3661
 6771SOL    HW231776   4.460   3.833  13.678 -0.4101  2.2211 -0.1302
 6772SOL     OW31777   1.190   4.478  12.656  0.0498 -0.1785  0.4850
 6772SOL    HW131778   1.165   4.543  12.590 -0.4136 -2.6946 -1.8248
 6772SOL    HW231779   1.282   4.501  12.672  0.8806 -0.5091 -3.8764
 6773SOL     OW31780   3.046   2.739   0.240  0.1291  0.6109  0.3926
 6773SOL    HW131781   3.103   2.803   0.283 -0.7110  1.4038  0.3358
 6773SOL    HW231782   2.972   2.799   0.226  0.6119  1.2932  0.7331
 6774SOL     OW31783   1.145   2.854   9.655 -0.0858  0.3171 -0.9502
 6774SOL    HW131784   1.116   2.893   9.573  1.5958  0.3642 -1.5331
 6774SOL    HW231785   1.162   2.768   9.615  0.4569 -1.2154  2.5185
 6775SOL     OW31786   2.949   0.755  13.915 -0.5667  0.7399  0.0669
 6775SOL    HW131787   3.000   0.717  13.987 -1.0329 -0.6270 -0.3313
 6775SOL    HW231788   2.989   0.715  13.838  1.0896  2.1075  0.2075
 6776SOL     OW31789   2.678   2.755   3.412 -0.2826 -0.1899  0.1048
 6776SOL    HW131790   2.641   2.840   3.390 -1.3287 -0.8272 -0.6279
 6776SOL    HW231791   2.773   2.766   3.408 -0.0301 -2.9381 -1.4632
 6777SOL     OW31792   4.022   2.609   4.649 -0.0666 -0.6589  0.2510
 6777SOL    HW131793   4.013   2.593   4.743  2.6961 -1.6455  0.3603
 6777SOL    HW231794   4.077   2.534   4.624  0.8928  0.6565 -1.5799
 6778SOL     OW31795   3.614   2.216  13.411  0.5606 -0.3883 -0.1660
 6778SOL    HW131796   3.678   2.173  13.354  0.7645 -0.0750 -0.1702
 6778SOL    HW231797   3.653   2.204  13.498 -1.2434 -3.1259  0.2860
 6779SOL     OW31798   4.075   1.093   9.357  0.2994  0.4280 -0.7679
 6779SOL    HW131799   4.047   1.010   9.397 -0.8897  1.1173 -0.1647
 6779SOL    HW231800   4.125   1.131   9.429 -0.3320 -1.1786  0.5223
 6780SOL     OW31801   0.482   3.974   4.146  0.1797  0.4418  0.3910
 6780SOL    HW131802   0.478   3.912   4.074  2.4627 -0.1027  0.7345
 6780SOL    HW231803   0.395   4.013   4.138  1.5555  3.2683 -0.7869
 6781SOL     OW31804   4.031   3.151  10.245 -0.3748  0.4863 -0.0867
 6781SOL    HW131805   3.995   3.177  10.330 -0.5976 -1.0984  0.2975
 6781SOL    HW231806   4.115   3.196  10.256 -0.8567  1.4013 -0.0931
 6782SOL     OW31807   2.361   1.053   2.901 -0.1460 -0.0167  0.4567
 6782SOL    HW131808   2.380   0.961   2.916 -2.9847 -0.3497  1.9563
 6782SOL    HW231809   2.397   1.088   2.983  0.7419 -1.5049  0.7001
 6783SOL     OW31810   1.947   1.233   2.308 -0.0942 -0.1469  0.2958
 6783SOL    HW131811   1.897   1.158   2.275 -1.0320 -0.2884  2.0223
 6783SOL    HW231812   1.881   1.291   2.346  0.5073 -0.8110  2.4024
 6784SOL     OW31813   0.939   0.265  14.519  0.3422  0.3513 -0.1219
 6784SOL    HW131814   0.844   0.261  14.526  0.1332  3.7053 -1.2799
 6784SOL    HW231815   0.950   0.337  14.456  1.3624 -0.9780 -1.4749
 6785SOL     OW31816   4.188   4.371   2.985 -0.3952  0.1975  0.2076
 6785SOL    HW131817   4.241   4.315   3.043 -0.4433  0.7846  0.8253
 6785SOL    HW231818   4.228   4.455   3.009  0.2806 -0.2203  0.5591
 6786SOL     OW31819   0.060   0.236   4.703 -0.3739 -0.1806 -0.6124
 6786SOL    HW131820   0.032   0.180   4.776 -1.9608  2.7283  0.9838
 6786SOL    HW231821   0.150   0.203   4.706  0.1332  1.6787  4.7014
 6787SOL     OW31822   0.945   2.111   7.062 -0.0855 -0.1855  0.1856
 6787SOL    HW131823   0.953   2.022   7.027  0.4685  0.8762 -2.3253
 6787SOL    HW231824   1.019   2.160   7.026  0.3755 -0.2217  1.0684
 6788SOL     OW31825   0.017   4.688   7.161 -0.9174 -0.2547 -0.4760
 6788SOL    HW131826   4.644   4.699   7.147 -1.4896 -2.3272  1.7792
 6788SOL    HW231827   0.016   4.621   7.229  2.0070  1.0213  0.8096
 6789SOL     OW31828   4.250   1.866  12.494  0.3377 -0.4373  0.5782
 6789SOL    HW131829   4.210   1.953  12.497 -2.1041 -1.5644  1.7181
 6789SOL    HW231830   4.332   1.874  12.542  0.1226 -0.6098  0.9760
 6790SOL     OW31831   1.283   3.040   2.325  0.2494  0.7376 -0.2549
 6790SOL    HW131832   1.240   3.064   2.407 -0.2861 -0.1007 -0.2997
 6790SOL    HW231833   1.374   3.016   2.346 -0.2585 -1.2100 -0.3257
 6791SOL     OW31834   1.405   2.333   0.431  0.5894 -0.1551  0.0091
 6791SOL    HW131835   1.490   2.307   0.467  0.4709  1.6432  1.5990
 6791SOL    HW231836   1.417   2.357   0.339 -0.1721 -0.1252 -0.0833
 6792SOL     OW31837   4.432   0.395  11.558  0.0103  0.2376 -0.3855
 6792SOL    HW131838   4.389   0.472  11.519  0.1479  1.0034  0.9519
 6792SOL    HW231839   4.525   0.417  11.552  0.1604 -0.5010 -0.6924
 6793SOL     OW31840   2.671   0.719   6.566 -0.3674 -0.9697 -1.5018
 6793SOL    HW131841   2.641   0.801   6.606  0.1944 -0.1173 -2.8453
 6793SOL    HW231842   2.611   0.660   6.614  0.5376 -0.8081 -0.1738
 6794SOL     OW31843   2.973   0.200  12.883 -0.0520  0.7893  0.1947
 6794SOL    HW131844   2.999   0.276  12.934  0.9367  0.3946  0.2895
 6794SOL    HW231845   2.998   0.222  12.793  2.6806 -1.8598  0.2962
 6795SOL     OW31846   0.523   1.392   4.878 -0.4797  0.0850 -0.2159
 6795SOL    HW131847   0.450   1.395   4.940  1.0090 -0.4004  1.5725
 6795SOL    HW231848   0.501   1.313   4.828 -1.5614 -0.1468  0.6188
 6796SOL     OW31849   4.329   2.448   8.850  0.4596  0.0799 -0.2022
 6796SOL    HW131850   4.346   2.536   8.816 -0.8073 -0.1580 -1.4388
 6796SOL    HW231851   4.368   2.453   8.938 -0.5712  0.6668  0.2290
 6797SOL     OW31852   3.072   0.735   7.887 -0.0177  0.2588  0.0147
 6797SOL    HW131853   3.059   0.672   7.958  0.2267 -0.1963 -0.3470
 6797SOL    HW231854   3.153   0.695   7.856 -0.0133 -0.3548  0.7979
 6798SOL     OW31855   0.461   1.616   5.087  0.3729  0.0548  0.2288
 6798SOL    HW131856   0.544   1.591   5.127  0.4878 -1.3531 -0.8892
 6798SOL    HW231857   0.410   1.597   5.166 -0.4532  0.6554 -0.1516
 6799SOL     OW31858   4.538   2.773   8.729 -0.7690 -0.2868 -0.4483
 6799SOL    HW131859   4.508   2.816   8.649  0.4414 -0.9719 -1.2774
 6799SOL    HW231860   4.492   2.819   8.799 -0.2456  1.5706 -1.3172
 6800SOL     OW31861   1.464   1.644  13.961 -0.7668  0.5174  0.1239
 6800SOL    HW131862   1.516   1.575  14.002  0.6112  1.1368 -0.5874
 6800SOL    HW231863   1.459   1.700  14.039 -2.9500  0.9172 -0.2900
 6801SOL     OW31864   1.571   3.187   9.122 -0.1165  0.2584  0.0233
 6801SOL    HW131865   1.529   3.257   9.172  1.1810  0.9617  0.1565
 6801SOL    HW231866   1.599   3.143   9.202 -0.9508  0.2805  0.3202
 6802SOL     OW31867   1.839   0.263  13.180  0.0166 -0.0646 -0.0714
 6802SOL    HW131868   1.788   0.337  13.213  0.4460 -0.8076  2.2497
 6802SOL    HW231869   1.930   0.295  13.182 -0.0869  0.2365 -0.2428
 6803SOL     OW31870   0.439   0.266  13.194 -0.0239  0.3237 -0.0960
 6803SOL    HW131871   0.465   0.239  13.282  0.1109  0.0992 -0.2032
 6803SOL    HW231872   0.519   0.242  13.148  0.5955 -1.1208  1.7478
 6804SOL     OW31873   0.013   3.827   1.702  0.0192 -0.1968  0.0692
 6804SOL    HW131874   0.004   3.765   1.774 -0.8971 -1.3797 -1.0603
 6804SOL    HW231875   4.676   3.898   1.728  0.2930  0.0030  0.1255
 6805SOL     OW31876   3.530   2.664  17.369 -0.7144  0.5228  0.1823
 6805SOL    HW131877   3.585   2.739  17.344  0.9747 -0.9178 -0.4551
 6805SOL    HW231878   3.492   2.705  17.446  0.9343  0.1334  1.2009
 6806SOL     OW31879   0.088   2.396   3.068 -0.6298 -0.2179 -0.7522
 6806SOL    HW131880   0.037   2.477   3.076 -0.4326 -0.1822  0.1048
 6806SOL    HW231881   0.091   2.378   3.162  0.9472 -2.5091 -1.2278
 6807SOL     OW31882   0.473   3.198   6.524 -0.0785  0.4339 -0.3000
 6807SOL    HW131883   0.541   3.259   6.497 -0.1615  1.6107  2.1656
 6807SOL    HW231884   0.489   3.131   6.457 -0.3605 -0.0143  0.0778
 6808SOL     OW31885   1.156   1.941   1.210  0.2503  0.3856  0.2859
 6808SOL    HW131886   1.129   2.014   1.154  0.0652  1.5123  1.8294
 6808SOL    HW231887   1.174   1.988   1.292  2.7401 -2.4327  1.3431
 6809SOL     OW31888   0.673   0.514   4.300  0.6815 -0.0217 -0.6816
 6809SOL    HW131889   0.616   0.575   4.347 -2.3069 -1.8712 -1.9330
 6809SOL    HW231890   0.747   0.575   4.288 -0.4994  1.5807  0.2071
 6810SOL     OW31891   1.350   2.009  10.574 -0.0237 -0.2227 -0.1830
 6810SOL    HW131892   1.437   2.035  10.604  0.7827 -0.6287 -2.1948
 6810SOL    HW231893   1.362   1.974  10.486 -2.1130  2.1873 -1.4226
 6811SOL     OW31894   2.385   2.404   4.965 -0.0462  0.1079  0.2537
 6811SOL    HW131895   2.301   2.393   4.920 -0.0725 -1.4123  0.6653
 6811SOL    HW231896   2.377   2.493   4.999 -0.4568  0.8759 -1.8455
 6812SOL     OW31897   3.614   1.860  16.617  0.3310  0.3570 -0.8011
 6812SOL    HW131898   3.614   1.953  16.595 -2.0411  0.4910 -0.2146
 6812SOL    HW231899   3.684   1.825  16.562 -0.5451 -1.3224 -0.8602
 6813SOL     OW31900   4.275   2.518   9.357 -0.2759  0.8823 -0.4998
 6813SOL    HW131901   4.359   2.545   9.394 -0.0401  2.0285 -1.8938
 6813SOL    HW231902   4.231   2.490   9.438 -1.1968  4.1227  0.0977
 6814SOL     OW31903   4.465   2.807   5.543  0.3408 -0.1026 -0.8680
 6814SOL    HW131904   4.491   2.745   5.612  0.7633 -1.4323 -2.2245
 6814SOL    HW231905   4.456   2.741   5.475 -0.8816 -0.4131 -0.3919
 6815SOL     OW31906   4.660   2.023  10.431 -0.3588 -0.7413 -0.0175
 6815SOL    HW131907   4.631   1.998  10.343 -2.1479  0.3563  0.2817
 6815SOL    HW231908   0.034   2.024  10.422 -0.4115 -0.3860 -0.5374
 6816SOL     OW31909   0.488   0.230   5.708 -0.1609  0.1155  0.0829
 6816SOL    HW131910   0.424   0.171   5.669  0.1160  0.0429 -0.2591
 6816SOL    HW231911   0.475   0.201   5.798  1.2219  1.8205  0.8408
 6817SOL     OW31912   1.434   0.106   1.865  0.1548  0.0150  0.1845
 6817SOL    HW131913   1.478   0.040   1.810 -0.9805 -1.4742  1.0624
 6817SOL    HW231914   1.460   0.186   1.820  0.4802 -0.0866  0.1901
 6818SOL     OW31915   0.786   1.337   2.794 -0.3066 -0.3491  0.0983
 6818SOL    HW131916   0.803   1.251   2.833  0.2298 -1.5291 -2.7573
 6818SOL    HW231917   0.827   1.313   2.711 -0.2583  1.9932 -0.5624
 6819SOL     OW31918   2.381   3.370   5.903 -0.4367 -0.2995  0.1658
 6819SOL    HW131919   2.432   3.406   5.830  0.8906 -1.3551  0.5785
 6819SOL    HW231920   2.324   3.446   5.916 -3.2911 -1.8808 -3.1117
 6820SOL     OW31921   0.215   3.695   0.862 -0.2101 -0.1463 -0.3052
 6820SOL    HW131922   0.270   3.751   0.917 -1.4006 -0.9157  1.6641
 6820SOL    HW231923   0.183   3.763   0.803  0.9656  0.5743 -0.1064
 6821SOL     OW31924   2.168   3.538   4.243 -0.8832  0.2078 -0.5333
 6821SOL    HW131925   2.220   3.611   4.209  0.2052  0.2370  1.2024
 6821SOL    HW231926   2.151   3.482   4.167 -1.2323  0.7362 -0.8369
 6822SOL     OW31927   0.725   1.485   5.896  0.2529 -0.3810 -0.2028
 6822SOL    HW131928   0.694   1.432   5.969 -0.3019  1.2064  0.7105
 6822SOL    HW231929   0.811   1.515   5.926  0.5800  0.9991 -2.5695
 6823SOL     OW31930   3.493   0.407   3.305 -0.1076  0.1225  0.3734
 6823SOL    HW131931   3.545   0.457   3.368  0.6217 -0.0331 -0.1113
 6823SOL    HW231932   3.553   0.409   3.231 -0.9729 -1.0112 -0.3797
 6824SOL     OW31933   0.267   1.511   7.092  0.0300  0.1675  0.0501
 6824SOL    HW131934   0.344   1.491   7.145 -0.7182  0.4108  1.2208
 6824SOL    HW231935   0.264   1.607   7.095 -1.7177  0.0792  0.8356
 6825SOL     OW31936   0.099   1.344   3.599  0.0538 -0.5439 -0.2196
 6825SOL    HW131937   0.011   1.376   3.618 -0.3375 -2.6494  1.3909
 6825SOL    HW231938   0.087   1.267   3.544 -1.3907 -1.1065  0.9110
 6826SOL     OW31939   3.424   4.129   0.754 -0.1111 -0.0031 -0.0707
 6826SOL    HW131940   3.499   4.115   0.697 -1.6528 -1.7938 -1.6684
 6826SOL    HW231941   3.407   4.040   0.784  1.2734 -0.1642  0.2178
 6827SOL     OW31942   2.357   2.780   9.067 -0.9628 -0.4424  0.7183
 6827SOL    HW131943   2.273   2.752   9.029 -1.2476  0.1293  0.9251
 6827SOL    HW231944   2.407   2.801   8.989  0.0072 -1.0270  1.1809
 6828SOL     OW31945   0.297   2.069  15.967 -0.2137  0.1994 -0.4579
 6828SOL    HW131946   0.241   2.133  15.923  2.8333  0.0472 -4.5615
 6828SOL    HW231947   0.267   1.984  15.934 -1.4227  0.6320 -0.4402
 6829SOL     OW31948   0.961   1.708   0.802 -0.5572 -0.3650  0.8021
 6829SOL    HW131949   1.012   1.743   0.875  0.8604 -0.1221 -0.2840
 6829SOL    HW231950   0.960   1.616   0.827  2.3089 -0.5147  0.4017
 6830SOL     OW31951   0.109   3.881   3.944  0.7738  0.7442 -0.7981
 6830SOL    HW131952   0.168   3.809   3.921  0.4049  0.3085 -0.3996
 6830SOL    HW231953   0.043   3.881   3.874  0.8700  0.8147 -0.8878
 6831SOL     OW31954   3.542   2.384  13.042  0.1851  0.0190  0.0638
 6831SOL    HW131955   3.617   2.328  13.064  0.2022 -0.6353 -1.7233
 6831SOL    HW231956   3.507   2.331  12.971 -0.1042  2.5521 -1.7038
 6832SOL     OW31957   2.301   4.425  12.364  0.4685  0.1291  0.4622
 6832SOL    HW131958   2.314   4.357  12.297 -0.3995  1.6842 -1.2819
 6832SOL    HW231959   2.206   4.423  12.371  0.3231 -0.2197 -1.6130
 6833SOL     OW31960   1.105   0.821   3.163 -0.5121 -0.1618 -0.3199
 6833SOL    HW131961   1.023   0.828   3.114 -1.3148  0.2539  1.0787
 6833SOL    HW231962   1.161   0.786   3.094  0.7752  1.7966 -0.2819
 6834SOL     OW31963   0.534   3.851   0.090 -0.4590 -0.5677 -0.4666
 6834SOL    HW131964   0.451   3.814   0.121 -0.2912 -2.6751 -2.4430
 6834SOL    HW231965   0.509   3.879   0.001 -0.3079 -2.9008 -1.2650
 6835SOL     OW31966   3.599   3.888   8.348  1.0666  0.0969 -0.0562
 6835SOL    HW131967   3.518   3.838   8.340  0.2006  1.7613 -1.5610
 6835SOL    HW231968   3.570   3.953   8.284  0.0757  1.0778  1.3917
 6836SOL     OW31969   1.675   1.881  11.099  0.0397  0.0205 -0.1780
 6836SOL    HW131970   1.714   1.842  11.178 -0.3883 -0.8903 -0.4126
 6836SOL    HW231971   1.755   1.900  11.050  0.5098  0.5919  0.8006
 6837SOL     OW31972   2.736   2.444   5.506 -0.4660 -0.3506  0.0634
 6837SOL    HW131973   2.742   2.518   5.567 -1.0099 -0.1577 -0.1066
 6837SOL    HW231974   2.830   2.430   5.509 -0.4942 -0.8919 -1.5188
 6838SOL     OW31975   3.082   2.826  12.068  0.3152  0.4123  0.2091
 6838SOL    HW131976   3.108   2.734  12.070  0.9085  0.5989  1.7196
 6838SOL    HW231977   2.988   2.822  12.082  0.2764  1.3622  0.2551
 6839SOL     OW31978   1.805   0.613  12.591  0.3556  0.3513  0.2746
 6839SOL    HW131979   1.874   0.664  12.632 -0.2913 -0.1590  2.0270
 6839SOL    HW231980   1.747   0.683  12.560 -0.3198  0.5984  2.0883
 6840SOL     OW31981   1.650   2.041   9.940 -0.8531  0.3475  0.4295
 6840SOL    HW131982   1.581   1.976   9.929 -1.7171  1.3320  0.0955
 6840SOL    HW231983   1.700   2.004  10.013 -1.3873 -2.9194 -0.8642
 6841SOL     OW31984   3.739   3.971   1.545 -0.3105 -0.5417 -0.0994
 6841SOL    HW131985   3.774   3.883   1.550 -1.4230 -0.9475  0.6014
 6841SOL    HW231986   3.817   4.019   1.573 -0.1843  0.0134 -1.3917
 6842SOL     OW31987   1.728   4.316   9.124  0.0912 -0.0108 -0.4156
 6842SOL    HW131988   1.817   4.307   9.089  0.9699  1.2647  1.4692
 6842SOL    HW231989   1.698   4.401   9.091 -0.5155 -0.1890 -0.3198
 6843SOL     OW31990   3.904   1.772  17.272  0.2854  0.3456 -0.4003
 6843SOL    HW131991   3.960   1.710  17.225 -0.3650 -1.1569  0.7868
 6843SOL    HW231992   3.900   1.726  17.356 -0.4443 -1.8499 -1.6522
 6844SOL     OW31993   3.645   2.548   9.628  0.3284  0.0603 -0.1438
 6844SOL    HW131994   3.675   2.490   9.698 -0.6668 -0.7843 -0.4190
 6844SOL    HW231995   3.682   2.509   9.549 -0.0242  0.0012 -0.2806
 6845SOL     OW31996   3.658   4.268   8.345  0.3194 -0.3133  0.8536
 6845SOL    HW131997   3.618   4.354   8.333  1.2962  0.0599  0.2514
 6845SOL    HW231998   3.648   4.259   8.439 -1.3986  0.3299  0.7205
 6846SOL     OW31999   0.382   3.595   4.128 -0.6200  0.0395  0.2313
 6846SOL    HW132000   0.407   3.540   4.053  0.4030 -0.1382  0.7151
 6846SOL    HW232001   0.433   3.557   4.199 -1.2473  1.5284  1.4648
 6847SOL     OW32002   3.872   1.706   5.104 -0.2261  0.5579  0.0545
 6847SOL    HW132003   3.875   1.661   5.020  2.5078 -0.0800  0.4653
 6847SOL    HW232004   3.851   1.632   5.161 -1.1703 -0.1285 -1.2072
 6848SOL     OW32005   4.379   2.399   6.900  0.4097  0.1769  0.3166
 6848SOL    HW132006   4.352   2.335   6.966  0.0063 -0.9498 -0.9444
 6848SOL    HW232007   4.296   2.445   6.885  0.3522  0.3042  0.9972
 6849SOL     OW32008   2.205   2.232   7.796 -0.1222  0.2901  0.3198
 6849SOL    HW132009   2.287   2.246   7.748  0.0503  1.7526  1.0498
 6849SOL    HW232010   2.146   2.207   7.725  0.8172  0.3967 -0.5011
 6850SOL     OW32011   0.986   4.271   3.697 -0.8954 -0.0199 -0.2538
 6850SOL    HW132012   1.049   4.200   3.681  1.3598  2.0249 -0.3867
 6850SOL    HW232013   0.951   4.237   3.780 -0.4398 -3.9236 -1.6447
 6851SOL     OW32014   1.265   3.185   4.575  0.1562  0.1706  0.7006
 6851SOL    HW132015   1.181   3.141   4.586  1.5850 -3.3208 -2.3530
 6851SOL    HW232016   1.329   3.119   4.603  0.9371  1.9478  3.1708
 6852SOL     OW32017   4.210   2.821   9.396 -0.5631 -0.0453 -0.3860
 6852SOL    HW132018   4.251   2.783   9.473  0.8339 -0.2349 -1.2135
 6852SOL    HW232019   4.256   2.774   9.326  1.8684  1.1781  0.4199
 6853SOL     OW32020   2.739   4.654   5.850 -0.2224  0.0938 -0.0029
 6853SOL    HW132021   2.762   0.025   5.857  1.7787 -0.4497  0.6749
 6853SOL    HW232022   2.683   4.654   5.772 -0.1094  1.2840 -0.0768
 6854SOL     OW32023   4.400   3.375   3.188  0.3755 -0.0473  0.1966
 6854SOL    HW132024   4.493   3.380   3.168  0.9417 -2.8221  2.0619
 6854SOL    HW232025   4.384   3.465   3.214  1.4478 -0.4982  2.4499
 6855SOL     OW32026   1.062   2.526   2.731  0.0224  0.0571  0.0990
 6855SOL    HW132027   1.008   2.576   2.669 -0.6970 -1.4667 -0.4922
 6855SOL    HW232028   1.001   2.452   2.734 -0.6421  0.4357 -3.2101
 6856SOL     OW32029   4.199   4.693   1.677 -0.4824  0.3126 -0.0008
 6856SOL    HW132030   4.202   0.008   1.589  5.6117  1.1523  0.5891
 6856SOL    HW232031   4.118   4.642   1.682  0.5834 -1.2913  0.5647
 6857SOL     OW32032   1.534   1.703  10.908 -0.0137 -0.2946 -0.3821
 6857SOL    HW132033   1.560   1.738  10.993  0.2239 -1.5472  0.0521
 6857SOL    HW232034   1.580   1.619  10.909 -1.7253 -1.2584 -2.2521
 6858SOL     OW32035   0.091   0.736  16.282 -0.2655  0.1536 -0.0649
 6858SOL    HW132036   0.035   0.697  16.349  0.2793  1.1252  0.9536
 6858SOL    HW232037   0.180   0.727  16.317 -1.1311  2.1245  2.6279
 6859SOL     OW32038   4.075   4.216   2.133  0.2284 -0.4949 -0.2821
 6859SOL    HW132039   3.993   4.224   2.181 -0.6080 -0.7926 -1.6716
 6859SOL    HW232040   4.115   4.164   2.204 -2.5600 -1.7884  0.3377
 6860SOL     OW32041   1.883   1.693  14.127  0.3458  0.2980 -0.1468
 6860SOL    HW132042   1.970   1.658  14.149  1.4255  2.8901 -0.3268
 6860SOL    HW232043   1.893   1.770  14.184  3.7732  1.2383 -2.0199
 6861SOL     OW32044   0.605   1.788  14.841  0.3812 -0.1228  0.0339
 6861SOL    HW132045   0.652   1.798  14.758 -0.2653 -0.9122 -0.4297
 6861SOL    HW232046   0.659   1.718  14.878  0.1222 -0.5833 -0.4489
 6862SOL     OW32047   0.837   0.447   9.531 -0.1188 -0.6831 -0.2813
 6862SOL    HW132048   0.866   0.533   9.563 -0.0952 -0.2456 -1.4778
 6862SOL    HW232049   0.770   0.434   9.598 -0.2049  2.3372  0.2133
 6863SOL     OW32050   4.215   4.066   1.723 -0.3464  0.1311  0.2738
 6863SOL    HW132051   4.231   4.160   1.714 -4.4805  0.7340 -1.1205
 6863SOL    HW232052   4.222   4.045   1.816 -0.6611 -1.6209 -0.1087
 6864SOL     OW32053   4.366   0.715   9.599  0.4763 -0.2386  0.1311
 6864SOL    HW132054   4.337   0.780   9.662  0.3072  1.0303 -1.2487
 6864SOL    HW232055   4.365   0.770   9.521 -0.1417 -2.6841 -1.5921
 6865SOL     OW32056   0.077   2.423   4.247  0.2977 -0.2622  0.5936
 6865SOL    HW132057   0.031   2.502   4.276  0.4654 -0.7345  2.1315
 6865SOL    HW232058   0.103   2.436   4.156  1.3486 -1.4475  0.7313
 6866SOL     OW32059   0.569   2.368   5.019  0.3664  0.1878 -0.4013
 6866SOL    HW132060   0.600   2.452   5.054 -2.0942  0.9568 -0.0041
 6866SOL    HW232061   0.554   2.307   5.092 -0.1023  1.6155  0.7083
 6867SOL     OW32062   0.860   2.841   4.423  0.0805 -0.8721 -0.4339
 6867SOL    HW132063   0.773   2.847   4.384 -0.0540  1.7339  0.2928
 6867SOL    HW232064   0.887   2.932   4.432  2.2579 -1.6628  1.0478
 6868SOL     OW32065   1.795   1.459   2.094  0.5628 -0.5249  0.7479
 6868SOL    HW132066   1.729   1.524   2.069  0.0364 -1.3728 -0.0459
 6868SOL    HW232067   1.851   1.508   2.154  0.7104 -2.6327  2.3432
 6869SOL     OW32068   3.275   1.021   2.100 -0.2537 -0.0811 -0.2841
 6869SOL    HW132069   3.343   1.033   2.167 -0.0085 -0.6287 -0.4347
 6869SOL    HW232070   3.326   1.052   2.025  0.7880  0.3113  0.5759
 6870SOL     OW32071   3.961   0.801  10.863 -0.5907 -0.3356  0.4993
 6870SOL    HW132072   4.004   0.738  10.921  0.0601 -0.3281  0.0283
 6870SOL    HW232073   3.907   0.855  10.921 -0.0909  2.2803 -1.4616
 6871SOL     OW32074   1.599   0.794   4.676  0.5373  0.2868 -0.3076
 6871SOL    HW132075   1.567   0.766   4.591  0.7158 -1.4795  0.2020
 6871SOL    HW232076   1.684   0.836   4.663 -0.1298  1.3716 -1.0982
 6872SOL     OW32077   0.710   0.234   3.111  0.6977 -0.0437  0.2930
 6872SOL    HW132078   0.710   0.229   3.206  0.8169  0.5238  0.3221
 6872SOL    HW232079   0.780   0.295   3.090 -0.6355  1.6484  0.7803
 6873SOL     OW32080   1.226   1.088  11.695  0.5611  0.0844  0.5198
 6873SOL    HW132081   1.133   1.103  11.714  0.3927 -3.1061  2.2397
 6873SOL    HW232082   1.253   1.180  11.695 -0.4625  0.3912 -0.6531
 6874SOL     OW32083   2.427   0.258   1.393 -0.4668 -0.2706 -0.0632
 6874SOL    HW132084   2.426   0.351   1.372 -1.4870  0.0345  1.3246
 6874SOL    HW232085   2.343   0.258   1.438 -0.2251 -2.5211  0.3892
 6875SOL     OW32086   0.476   1.853   5.865  0.3041 -0.1880  0.6166
 6875SOL    HW132087   0.390   1.814   5.877  1.7648 -3.5817  0.3192
 6875SOL    HW232088   0.531   1.785   5.903 -1.1686 -0.5759  2.0192
 6876SOL     OW32089   0.921   0.348  13.048  0.1805 -0.7713 -0.3160
 6876SOL    HW132090   0.963   0.368  13.132 -0.0106  0.9994 -0.6497
 6876SOL    HW232091   0.996   0.368  12.993 -0.2968 -0.0360 -0.7023
 6877SOL     OW32092   0.554   0.740  14.882  0.2655  0.4419 -0.0577
 6877SOL    HW132093   0.488   0.788  14.931 -0.3691 -0.2176 -0.2658
 6877SOL    HW232094   0.630   0.755  14.939 -0.0019 -0.7041  0.6018
 6878SOL     OW32095   3.058   3.562   9.099 -0.0128 -0.8469  0.1379
 6878SOL    HW132096   3.012   3.493   9.050 -1.4157  0.3376 -0.2190
 6878SOL    HW232097   3.024   3.547   9.187 -1.6568 -1.1433 -0.5290
 6879SOL     OW32098   1.757   2.275   7.428  0.4851 -0.0612 -0.4947
 6879SOL    HW132099   1.764   2.211   7.356 -0.9798  1.0247 -1.6014
 6879SOL    HW232100   1.707   2.230   7.495  1.7035 -0.6962 -0.0148
 6880SOL     OW32101   2.184   0.042  13.798  0.6630  0.1725  0.4777
 6880SOL    HW132102   2.180   4.714  13.880 -0.1032 -2.4724 -1.1710
 6880SOL    HW232103   2.279   0.045  13.787  0.6632 -0.0838  0.4031
 6881SOL     OW32104   3.223   3.913   7.916  0.2927  0.3760 -0.2233
 6881SOL    HW132105   3.232   3.825   7.952 -0.2158  0.0345 -0.9329
 6881SOL    HW232106   3.193   3.965   7.991 -0.6917  1.5873 -1.4510
 6882SOL     OW32107   1.345   3.804   2.889  0.7828 -0.1887 -0.3900
 6882SOL    HW132108   1.250   3.799   2.891  0.6741  2.2301 -0.2308
 6882SOL    HW232109   1.373   3.715   2.912  0.0462 -0.3833 -0.2460
 6883SOL     OW32110   3.875   1.174   3.057 -0.2967  0.1574  0.6186
 6883SOL    HW132111   3.911   1.257   3.087  0.3827  0.4059 -0.8993
 6883SOL    HW232112   3.829   1.142   3.135  0.4441  0.0524  1.0119
 6884SOL     OW32113   3.804   3.144   1.245  0.3860  0.1829 -0.0522
 6884SOL    HW132114   3.719   3.109   1.272 -0.6421  2.3215 -0.4894
 6884SOL    HW232115   3.829   3.176   1.331 -0.5088  0.3450  0.1517
 6885SOL     OW32116   3.983   2.003   8.602  0.6603  0.2314  0.0408
 6885SOL    HW132117   4.052   2.045   8.551 -1.8988  2.1626 -1.8100
 6885SOL    HW232118   3.934   1.974   8.525  0.5181 -0.8367  0.5341
 6886SOL     OW32119   3.182   3.071   9.070 -0.0766 -0.5089 -0.0501
 6886SOL    HW132120   3.125   3.141   9.040  0.3591  0.2095  0.7897
 6886SOL    HW232121   3.249   3.120   9.119  2.0238 -1.3232 -2.0800
 6887SOL     OW32122   0.309   4.420   3.670  0.3165  0.8450 -0.0268
 6887SOL    HW132123   0.343   4.508   3.690  2.2123  0.1690 -0.2849
 6887SOL    HW232124   0.338   4.382   3.753 -2.5486 -0.5971  0.2994
 6888SOL     OW32125   2.362   2.047  15.699 -0.1124  0.1309 -0.3878
 6888SOL    HW132126   2.330   1.958  15.713 -1.4733  0.5486 -0.7719
 6888SOL    HW232127   2.387   2.047  15.606 -0.5904 -0.0515 -0.5164
 6889SOL     OW32128   2.057   0.537  15.807 -0.4958  0.0827 -0.2961
 6889SOL    HW132129   2.062   0.615  15.862  0.1732 -0.4629  0.4154
 6889SOL    HW232130   2.061   0.567  15.717  0.1661  0.5017 -0.1232
 6890SOL     OW32131   2.648   4.420  14.890  0.2857  0.3200 -0.2971
 6890SOL    HW132132   2.610   4.333  14.901 -0.5316  0.8831  1.4473
 6890SOL    HW232133   2.608   4.473  14.959 -2.9152  0.5121 -2.2866
 6891SOL     OW32134   4.103   4.496   8.133 -0.6692  0.1677 -0.0431
 6891SOL    HW132135   4.188   4.465   8.103 -1.5170 -2.6159  0.4496
 6891SOL    HW232136   4.130   4.533   8.217 -0.8340  2.3643 -0.9620
 6892SOL     OW32137   4.228   3.111   6.996  0.2545  0.1718 -0.0449
 6892SOL    HW132138   4.216   3.103   7.091 -0.9138 -0.6321 -0.2666
 6892SOL    HW232139   4.153   3.167   6.978  2.2311  2.7239 -0.4482
 6893SOL     OW32140   3.805   4.314  13.185  0.3140  0.0774 -0.2273
 6893SOL    HW132141   3.847   4.375  13.124 -0.5805  0.9833  0.0521
 6893SOL    HW232142   3.746   4.268  13.126 -0.1980  1.8346 -1.0824
 6894SOL     OW32143   3.290   1.304  12.230  0.1666  0.0189  0.4977
 6894SOL    HW132144   3.324   1.390  12.254 -2.1929  0.4240  2.3755
 6894SOL    HW232145   3.209   1.333  12.189 -0.3383  0.1855  1.6019
 6895SOL     OW32146   2.975   1.536   8.760 -0.2581 -0.7023 -0.1571
 6895SOL    HW132147   2.912   1.565   8.694  0.0323  0.4794  0.0822
 6895SOL    HW232148   2.963   1.608   8.822 -0.2957  0.9083 -2.0645
 6896SOL     OW32149   2.332   2.995   2.414 -0.3461  0.1034 -0.6484
 6896SOL    HW132150   2.389   2.946   2.473  1.8899  0.6699 -2.3128
 6896SOL    HW232151   2.363   3.086   2.415  0.9266 -0.4130  3.0620
 6897SOL     OW32152   2.245   0.918   4.464  0.3700 -0.3733 -0.0730
 6897SOL    HW132153   2.340   0.909   4.475  0.6604  0.7428 -1.7631
 6897SOL    HW232154   2.234   0.950   4.375 -3.3295 -0.5410  0.3171
 6898SOL     OW32155   2.221   0.731   3.534 -0.0196  0.3264 -0.5174
 6898SOL    HW132156   2.149   0.675   3.563 -1.2966  1.7878 -0.8851
 6898SOL    HW232157   2.204   0.715   3.442 -1.1807  0.6670 -0.3535
 6899SOL     OW32158   0.442   1.658   6.843 -0.2360  0.2144 -0.5264
 6899SOL    HW132159   0.375   1.713   6.883 -1.2821 -1.8275  0.5392
 6899SOL    HW232160   0.460   1.710   6.764 -0.2552  0.4814 -0.3538
 6900SOL     OW32161   4.256   1.206   7.582 -0.2494 -0.1343  0.3432
 6900SOL    HW132162   4.224   1.233   7.496 -4.4741  1.3887  2.3975
 6900SOL    HW232163   4.252   1.291   7.626 -0.6668  0.2751 -0.4881
 6901SOL     OW32164   0.346   0.784  12.364  0.4952 -0.3140  0.2680
 6901SOL    HW132165   0.320   0.707  12.414  1.4219 -0.6724  0.2006
 6901SOL    HW232166   0.289   0.843  12.413 -1.9528 -1.6336 -0.9754
 6902SOL     OW32167   1.916   4.229   5.432  0.4264 -0.3875  0.4596
 6902SOL    HW132168   1.823   4.244   5.450  0.8450  0.8179  1.6375
 6902SOL    HW232169   1.925   4.268   5.345  1.3542 -3.5643 -0.8525
 6903SOL     OW32170   0.029   3.502   9.475 -0.4524 -0.2081  1.0125
 6903SOL    HW132171   4.665   3.496   9.433  0.5720 -3.5907 -0.6032
 6903SOL    HW232172   0.068   3.579   9.434 -0.6020 -0.4316  0.4434
 6904SOL     OW32173   1.218   1.737   2.755  0.9445  0.3662 -0.2304
 6904SOL    HW132174   1.255   1.666   2.808  0.2122 -1.0213 -1.5672
 6904SOL    HW232175   1.273   1.811   2.779 -0.4048  1.5364 -0.7646
 6905SOL     OW32176   2.292   3.577   5.272 -0.0515 -0.1335  0.6653
 6905SOL    HW132177   2.385   3.595   5.282 -0.3794  1.5688  0.6597
 6905SOL    HW232178   2.261   3.655   5.226 -0.2396  0.1839  1.3405
 6906SOL     OW32179   0.335   2.440   2.494 -0.7420  0.3423  0.5069
 6906SOL    HW132180   0.260   2.478   2.540 -0.7578 -1.1104  1.6520
 6906SOL    HW232181   0.380   2.387   2.560  0.4294 -1.5217 -1.7948
 6907SOL     OW32182   2.780   3.483   4.497  0.0931 -0.7602 -0.3603
 6907SOL    HW132183   2.757   3.575   4.494 -1.8096 -1.3522 -3.8148
 6907SOL    HW232184   2.798   3.469   4.404 -2.5187 -0.0964 -0.9451
 6908SOL     OW32185   0.157   0.637   7.274 -0.8746  0.2641 -0.1807
 6908SOL    HW132186   0.252   0.628   7.269 -0.8148  1.4304 -1.1748
 6908SOL    HW232187   0.136   0.696   7.202  0.5616  0.7444 -0.2049
 6909SOL     OW32188   1.355   3.575   2.544  0.2552  0.4758  0.0743
 6909SOL    HW132189   1.415   3.501   2.542 -1.4445 -0.9325  1.4953
 6909SOL    HW232190   1.398   3.641   2.489  0.0498  1.0543  0.6034
 6910SOL     OW32191   1.397   0.437   4.687 -0.4168  0.1225  0.4935
 6910SOL    HW132192   1.382   0.385   4.766 -0.6283  0.4105  0.6434
 6910SOL    HW232193   1.487   0.465   4.702 -0.2723  1.0403 -2.0260
 6911SOL     OW32194   1.035   0.526   5.816  0.1856  0.4071  0.4451
 6911SOL    HW132195   1.006   0.516   5.726  1.1439 -1.4035  0.3443
 6911SOL    HW232196   1.106   0.589   5.803  0.6828 -0.2600 -0.0421
 6912SOL     OW32197   1.690   0.398   6.619 -0.3060 -0.4230 -0.0483
 6912SOL    HW132198   1.627   0.330   6.642 -2.1638  1.1606 -0.4417
 6912SOL    HW232199   1.669   0.412   6.526  3.0729 -0.8274 -0.8974
 6913SOL     OW32200   4.151   3.994  17.277  0.2474 -0.4873  0.5044
 6913SOL    HW132201   4.130   4.018  17.186 -1.0940  0.7087  1.1249
 6913SOL    HW232202   4.234   3.949  17.268  0.3359 -0.2419  0.0599
 6914SOL     OW32203   1.182   2.426   9.456 -0.3625  0.3724  0.6216
 6914SOL    HW132204   1.260   2.380   9.425 -0.6938  0.8655 -0.9455
 6914SOL    HW232205   1.131   2.436   9.376  1.7586 -0.9626 -0.8917
 6915SOL     OW32206   1.747   0.905  12.515 -0.2781  1.1390 -0.1095
 6915SOL    HW132207   1.744   0.928  12.422 -0.4160 -0.9809 -0.6220
 6915SOL    HW232208   1.840   0.921  12.529  0.4495 -0.9182 -2.7261
 6916SOL     OW32209   1.005   4.476  13.303 -0.0278 -0.3635 -0.0765
 6916SOL    HW132210   1.002   4.561  13.260  0.0926  0.6886  1.9735
 6916SOL    HW232211   0.924   4.436  13.271  0.2002  0.0452 -1.1336
 6917SOL     OW32212   2.413   4.373   6.331  0.0313  0.1162  0.4408
 6917SOL    HW132213   2.480   4.404   6.392  0.9524 -2.1470  0.5739
 6917SOL    HW232214   2.446   4.284   6.323  2.7627  1.0330  1.5658
 6918SOL     OW32215   0.325   3.079   3.104 -0.1891 -0.0562 -0.3687
 6918SOL    HW132216   0.352   3.043   3.020  0.0311 -0.5786 -0.0775
 6918SOL    HW232217   0.393   3.048   3.164  1.3785 -1.0989 -2.7119
 6919SOL     OW32218   0.368   4.280   2.149  0.6339  0.3098 -0.3322
 6919SOL    HW132219   0.352   4.188   2.171  2.5734  0.3724  1.4034
 6919SOL    HW232220   0.455   4.271   2.110  1.2337 -0.5915  1.1941
 6920SOL     OW32221   0.046   3.210   2.092  1.0105  0.3046  0.0622
 6920SOL    HW132222   4.699   3.152   2.057  0.5254 -0.3047  1.9755
 6920SOL    HW232223   0.057   3.169   2.178 -4.3148 -0.5531  0.3420
 6921SOL     OW32224   2.504   1.309   6.045 -0.2157 -0.0994  0.0943
 6921SOL    HW132225   2.538   1.392   6.077  2.3577  0.1330 -3.2488
 6921SOL    HW232226   2.569   1.302   5.975 -0.3498 -0.8142  0.0403
 6922SOL     OW32227   0.788   0.063   6.784  0.2201  0.5789  0.3779
 6922SOL    HW132228   0.862   0.074   6.724 -0.6655  1.6340 -0.5243
 6922SOL    HW232229   0.834   0.067   6.868  0.6003 -1.4044  0.2614
 6923SOL     OW32230   3.257   1.925   3.149  0.2581 -0.1011 -0.4871
 6923SOL    HW132231   3.222   1.840   3.176 -0.6153  0.1852 -0.7168
 6923SOL    HW232232   3.335   1.911   3.095 -0.1850  0.3090 -1.2293
 6924SOL     OW32233   3.476   4.300  15.557  0.4110 -0.4034  0.9710
 6924SOL    HW132234   3.439   4.344  15.481  0.0790  1.6960  2.3143
 6924SOL    HW232235   3.432   4.215  15.553 -1.5334  0.6114  0.8709
 6925SOL     OW32236   3.125   2.710   4.274 -0.2993 -1.1258 -0.1031
 6925SOL    HW132237   3.038   2.722   4.314 -1.1618  1.4049 -2.7155
 6925SOL    HW232238   3.100   2.716   4.182  0.5480  3.0842 -0.0697
 6926SOL     OW32239   3.683   0.009   6.157 -0.2218 -0.1264 -0.1131
 6926SOL    HW132240   3.705   0.038   6.245  0.2420 -0.9167  0.0405
 6926SOL    HW232241   3.610   4.670   6.172  0.8121 -1.5902 -0.9296
 6927SOL     OW32242   2.495   0.905   4.152  0.1591 -0.2473  0.2485
 6927SOL    HW132243   2.413   0.856   4.152  0.0659 -0.0865 -2.0100
 6927SOL    HW232244   2.509   0.900   4.247  1.9045 -0.2660 -0.0245
 6928SOL     OW32245   0.904   0.093   4.657  0.2727 -0.3509  0.1159
 6928SOL    HW132246   0.980   0.151   4.652 -0.6707  1.0438  1.6847
 6928SOL    HW232247   0.908   0.070   4.564  1.3520 -1.7711  0.5238
 6929SOL     OW32248   1.081   1.045   8.206  0.2008  0.1347 -0.2626
 6929SOL    HW132249   1.073   1.097   8.126 -0.4458  0.5063  0.0364
 6929SOL    HW232250   1.038   0.964   8.176  0.9340 -0.2418 -0.2962
 6930SOL     OW32251   3.181   4.564   0.586 -0.2760  0.0316  0.0059
 6930SOL    HW132252   3.129   4.509   0.528  2.2873 -1.0310 -1.2741
 6930SOL    HW232253   3.250   4.505   0.615  0.2198  1.1394  1.0878
 6931SOL     OW32254   3.333   3.938  17.653  0.5311  0.0158  0.2724
 6931SOL    HW132255   3.381   3.980  17.581  2.5710 -0.7224  1.2109
 6931SOL    HW232256   3.384   3.857  17.655  0.3360 -0.0064  3.2615
 6932SOL     OW32257   4.567   4.636  10.267 -0.7854  0.4257  0.1926
 6932SOL    HW132258   4.538   4.718  10.227  0.0908  1.1409  1.0252
 6932SOL    HW232259   4.527   4.631  10.354  1.7966 -0.8761  1.3004
 6933SOL     OW32260   0.410   1.364  15.662 -0.1528  0.1355 -0.3098
 6933SOL    HW132261   0.318   1.340  15.662  0.0084 -0.4950 -1.3113
 6933SOL    HW232262   0.446   1.275  15.664 -2.7573 -0.8199  2.4041
 6934SOL     OW32263   2.405   1.236  13.758 -0.2349 -0.1650 -0.1579
 6934SOL    HW132264   2.483   1.182  13.775 -0.2329  0.5559  2.0976
 6934SOL    HW232265   2.336   1.170  13.765 -0.0878 -0.2602  0.4224
 6935SOL     OW32266   0.907   4.694  12.568  0.0702  0.0522 -0.0690
 6935SOL    HW132267   0.989   4.666  12.530  0.7253 -0.3767  1.6613
 6935SOL    HW232268   0.837   4.631  12.550  0.5064 -0.5495  0.3637
 6936SOL     OW32269   3.934   3.287   9.180 -0.0689 -0.3200 -0.0721
 6936SOL    HW132270   3.922   3.336   9.261 -2.3474 -1.8805  0.5202
 6936SOL    HW232271   3.961   3.200   9.210  2.0350 -0.1187 -1.3187
 6937SOL     OW32272   1.856   4.006  17.082 -0.4847  0.8552 -0.3457
 6937SOL    HW132273   1.941   4.031  17.044  1.2359 -2.2027  1.4463
 6937SOL    HW232274   1.785   4.015  17.018 -0.3993  2.2232 -0.2450
 6938SOL     OW32275   0.799   4.687  17.198  0.8733 -0.7117 -0.2976
 6938SOL    HW132276   0.855   0.040  17.175  1.4929 -0.2275  2.8188
 6938SOL    HW232277   0.859   4.622  17.161  3.0577  2.3144 -2.1663
 6939SOL     OW32278   2.288   2.721   4.827  0.1681  0.1409 -0.0602
 6939SOL    HW132279   2.209   2.708   4.774 -0.1434  0.3057  0.3648
 6939SOL    HW232280   2.256   2.759   4.908  1.1732 -2.1047  1.4115
 6940SOL     OW32281   4.401   3.742   7.390  0.7503  0.2739 -0.4825
 6940SOL    HW132282   4.366   3.804   7.453  1.5467  0.1439  0.0919
 6940SOL    HW232283   4.336   3.764   7.323  0.5006  0.7150 -0.0903
 6941SOL     OW32284   0.542   3.777   3.876  0.2255 -0.1918 -0.1333
 6941SOL    HW132285   0.586   3.754   3.958  1.3212 -0.0028 -0.6665
 6941SOL    HW232286   0.598   3.849   3.847  1.1018 -1.1165 -0.7799
 6942SOL     OW32287   4.456   1.966  14.809 -0.0684  0.0436  0.5356
 6942SOL    HW132288   4.497   1.972  14.895  3.3693 -1.1181 -1.0320
 6942SOL    HW232289   4.457   2.058  14.784 -0.5692  0.0431  0.5081
 6943SOL     OW32290   3.847   3.436   6.262 -0.3016 -0.4114 -0.4123
 6943SOL    HW132291   3.865   3.392   6.345  1.4980 -2.1707 -1.7355
 6943SOL    HW232292   3.754   3.422   6.244 -0.8312 -0.8450  2.6144
 6944SOL     OW32293   2.667   4.184   3.512 -0.3833  0.4347 -0.0437
 6944SOL    HW132294   2.740   4.127   3.535  0.1330  2.6201  3.6864
 6944SOL    HW232295   2.679   4.244   3.586  0.3768  0.6012 -0.3024
 6945SOL     OW32296   3.175   1.811   8.269 -0.0071 -0.6433  0.1694
 6945SOL    HW132297   3.103   1.861   8.231 -1.1435 -2.4879 -0.0688
 6945SOL    HW232298   3.177   1.843   8.359 -0.0629 -2.1563  0.6999
 6946SOL     OW32299   0.377   2.131   5.641 -0.1058 -0.5286  0.3969
 6946SOL    HW132300   0.337   2.121   5.727 -0.9890  2.0310  0.2825
 6946SOL    HW232301   0.445   2.064   5.641 -0.8563 -1.2867 -0.3437
 6947SOL     OW32302   2.405   0.239   7.905 -0.6083 -0.7734 -0.1167
 6947SOL    HW132303   2.461   0.176   7.950 -2.4382 -0.7185  2.2269
 6947SOL    HW232304   2.443   0.234   7.818  1.3262  1.9980  0.5798
 6948SOL     OW32305   4.040   0.381   4.202  0.3403 -0.0436  0.3139
 6948SOL    HW132306   4.096   0.344   4.134  0.3974  0.0537  0.3073
 6948SOL    HW232307   4.099   0.434   4.257 -1.0001 -1.1788  2.8582
 6949SOL     OW32308   1.600   3.847   9.345  0.2814 -0.4169 -0.0492
 6949SOL    HW132309   1.530   3.912   9.354 -0.5059 -1.1924 -0.5849
 6949SOL    HW232310   1.580   3.794   9.422  2.3293 -1.2875 -0.1115
 6950SOL     OW32311   0.988   0.611   6.882  0.1507 -0.1229 -0.0274
 6950SOL    HW132312   0.934   0.687   6.903 -0.6273 -0.2982 -1.4017
 6950SOL    HW232313   0.982   0.566   6.966 -0.5726  0.9190  0.4743
 6951SOL     OW32314   0.905   1.134   8.578 -0.2580  0.0016  0.4858
 6951SOL    HW132315   0.853   1.160   8.654 -1.8278 -0.1480 -0.5309
 6951SOL    HW232316   0.883   1.041   8.564 -1.9087  0.4421  0.0794
 6952SOL     OW32317   3.223   2.922  10.998 -0.6151 -0.3457  0.0447
 6952SOL    HW132318   3.298   2.872  11.030 -0.5022 -1.1504 -1.4283
 6952SOL    HW232319   3.151   2.862  11.021 -1.5543  0.9425  0.4774
 6953SOL     OW32320   1.107   0.849   7.202 -0.8508  0.8181 -0.1768
 6953SOL    HW132321   1.017   0.848   7.234 -1.6538 -1.3236 -2.5657
 6953SOL    HW232322   1.127   0.763   7.166 -0.3652  0.0237  1.9636
 6954SOL     OW32323   0.360   0.959   3.436  0.3020 -0.2767 -0.1157
 6954SOL    HW132324   0.307   0.898   3.385 -2.4844  2.5892 -0.6420
 6954SOL    HW232325   0.341   1.043   3.394  0.9059 -0.3269 -0.4801
 6955SOL     OW32326   4.331   3.340   5.137  0.3230 -0.0322  0.8567
 6955SOL    HW132327   4.377   3.373   5.060 -0.0906  2.2515  1.5932
 6955SOL    HW232328   4.401   3.320   5.199 -1.5117 -2.0071  2.3140
 6956SOL     OW32329   1.385   2.322   2.642  0.2038  0.1207 -0.5681
 6956SOL    HW132330   1.388   2.274   2.724  1.2020  0.3489 -0.4787
 6956SOL    HW232331   1.407   2.412   2.667  4.0118 -0.9032 -0.2537
 6957SOL     OW32332   2.021   3.022  14.754  0.1528  0.0523  0.2711
 6957SOL    HW132333   1.996   2.949  14.811 -0.1256  0.9856  1.3445
 6957SOL    HW232334   1.950   3.085  14.765  1.3523  1.1495  1.4821
 6958SOL     OW32335   2.808   4.160   0.589 -0.6932  0.2111  0.1632
 6958SOL    HW132336   2.742   4.219   0.553  0.9197  1.2477 -1.1194
 6958SOL    HW232337   2.760   4.077   0.586  0.0820 -0.1997 -0.8809
 6959SOL     OW32338   4.196   4.039  13.622 -0.7877  0.3917  0.3521
 6959SOL    HW132339   4.217   4.127  13.651  1.3730  0.0127 -0.0969
 6959SOL    HW232340   4.224   3.989  13.698 -0.2398 -1.5716 -1.1415
 6960SOL     OW32341   2.016   3.266   4.180  0.1523  0.1835 -0.1766
 6960SOL    HW132342   1.956   3.341   4.180  1.6138  1.3535 -1.4342
 6960SOL    HW232343   1.967   3.208   4.239 -0.3553  0.4862 -0.2967
 6961SOL     OW32344   4.112   3.311   8.919  0.3114 -0.3034  0.1335
 6961SOL    HW132345   4.136   3.325   9.011  0.7564  1.1525 -0.2060
 6961SOL    HW232346   4.192   3.335   8.873 -0.5573 -0.1554 -1.3008
 6962SOL     OW32347   2.869   1.351   4.331  0.7671  0.2855 -0.1362
 6962SOL    HW132348   2.911   1.291   4.269 -1.3359 -2.4767  1.0680
 6962SOL    HW232349   2.941   1.361   4.393  0.9159  2.6687 -0.7048
 6963SOL     OW32350   0.753   2.600   5.763 -0.1084  0.4849 -0.3004
 6963SOL    HW132351   0.777   2.508   5.773  0.9792  0.6321 -1.4098
 6963SOL    HW232352   0.800   2.649   5.831 -1.3050  2.1916 -0.7179
 6964SOL     OW32353   4.404   4.232   5.995  0.3690 -0.2393  0.3645
 6964SOL    HW132354   4.433   4.151   6.037  3.0169  1.2595  1.4179
 6964SOL    HW232355   4.359   4.281   6.064  0.1741  1.5010 -0.9999
 6965SOL     OW32356   0.353   0.313   3.331 -0.2807 -0.2436 -0.5944
 6965SOL    HW132357   0.276   0.274   3.291 -0.7655 -0.6607  0.7350
 6965SOL    HW232358   0.405   0.234   3.339 -0.5863 -0.4520 -0.6889
 6966SOL     OW32359   2.405   3.464   7.181  0.6993  0.2585  0.1082
 6966SOL    HW132360   2.457   3.451   7.260 -0.3725 -2.2687  0.4026
 6966SOL    HW232361   2.400   3.371   7.156  1.0107  0.4945 -0.8358
 6967SOL     OW32362   2.223   4.412   4.236  0.7054  0.3888 -0.0731
 6967SOL    HW132363   2.202   4.406   4.143  1.0136 -2.0798  0.0035
 6967SOL    HW232364   2.144   4.461   4.255  0.2650 -0.8584  1.3085
 6968SOL     OW32365   3.934   1.374   4.616 -0.4267 -0.2605 -0.3620
 6968SOL    HW132366   3.909   1.439   4.550 -0.5917  0.5437  0.4956
 6968SOL    HW232367   3.968   1.299   4.568 -1.0322 -0.0433 -1.1317
 6969SOL     OW32368   0.268   1.650   4.156  1.0027  0.5373  0.4620
 6969SOL    HW132369   0.265   1.613   4.244 -2.7104 -0.8256 -0.2403
 6969SOL    HW232370   0.233   1.737   4.175 -1.1939 -0.4817  1.0646
 6970SOL     OW32371   0.582   4.139   9.909  0.2319  0.1345 -0.2788
 6970SOL    HW132372   0.661   4.192   9.895  0.5190 -0.9650 -2.7917
 6970SOL    HW232373   0.522   4.210   9.933 -0.6858 -0.6841 -0.1560
 6971SOL     OW32374   0.340   2.044  10.292  0.0470 -0.0452 -0.6566
 6971SOL    HW132375   0.256   2.058  10.334  1.0367 -2.1549  2.0219
 6971SOL    HW232376   0.317   1.973  10.231 -2.9783  0.2816  0.1474
 6972SOL     OW32377   3.786   1.683   2.218 -0.5079  0.5870 -0.2185
 6972SOL    HW132378   3.728   1.620   2.177  1.2176 -0.5816 -0.8783
 6972SOL    HW232379   3.784   1.640   2.304 -1.0887 -1.7253 -1.4138
 6973SOL     OW32380   3.624   2.499  15.830 -0.3900  0.2109 -0.3051
 6973SOL    HW132381   3.540   2.544  15.828 -0.5409 -0.0285  0.4133
 6973SOL    HW232382   3.671   2.549  15.763  1.4942 -0.3000  0.6250
 6974SOL     OW32383   0.114   1.708  13.806  0.3214  0.2383  0.6985
 6974SOL    HW132384   0.096   1.642  13.739 -0.5786  1.3983 -0.2029
 6974SOL    HW232385   0.026   1.733  13.833  0.0187  0.8252 -0.8096
 6975SOL     OW32386   0.638   0.135   2.675  0.1746  0.2274 -0.1315
 6975SOL    HW132387   0.555   0.088   2.688  0.8191 -0.5704  1.2063
 6975SOL    HW232388   0.628   0.179   2.591  0.1427 -1.8700 -1.2337
 6976SOL     OW32389   3.973   0.366   9.518 -1.0430  1.0586  0.7327
 6976SOL    HW132390   3.954   0.280   9.479 -0.0949  1.5954 -0.9600
 6976SOL    HW232391   3.905   0.379   9.583 -2.9419 -1.2462 -0.8009
 6977SOL     OW32392   3.254   2.623   2.896 -0.0644  0.2445  0.8202
 6977SOL    HW132393   3.297   2.564   2.958  0.4442  1.0237  1.2052
 6977SOL    HW232394   3.231   2.696   2.954  0.2657  0.7371  0.3207
 6978SOL     OW32395   2.285   0.098   5.137 -0.1018 -0.2863 -0.5569
 6978SOL    HW132396   2.281   0.190   5.164 -0.2460 -0.7050  0.8594
 6978SOL    HW232397   2.374   0.082   5.106  0.0032  0.4323 -0.6289
 6979SOL     OW32398   4.248   0.167   6.518 -0.4499  0.4062  0.0362
 6979SOL    HW132399   4.322   0.114   6.546  0.3020  0.4776 -1.8234
 6979SOL    HW232400   4.296   0.250   6.513  1.4876 -0.9270 -3.3319
 6980SOL     OW32401   2.628   0.908   3.671 -0.1478 -0.5844 -0.1948
 6980SOL    HW132402   2.661   0.861   3.593 -1.7918  0.3656 -1.4572
 6980SOL    HW232403   2.692   0.882   3.737  0.1846  0.5435 -0.0868
 6981SOL     OW32404   1.193   0.156   3.882 -0.0454  0.6344 -0.1725
 6981SOL    HW132405   1.100   0.174   3.889 -0.1998  0.0083 -0.5557
 6981SOL    HW232406   1.201   0.114   3.796 -1.8599 -2.7732  1.3121
 6982SOL     OW32407   4.403   1.350   3.922  0.0518 -0.1443  0.2640
 6982SOL    HW132408   4.436   1.300   3.997  0.2589  0.6045  0.6698
 6982SOL    HW232409   4.309   1.338   3.935 -0.1921  0.4299 -1.0340
 6983SOL     OW32410   1.973   0.235   0.064 -0.1692 -0.1833  0.3594
 6983SOL    HW132411   2.016   0.316   0.039  0.0217 -1.1113 -2.4238
 6983SOL    HW232412   1.917   0.272   0.132 -0.1089 -0.0841  0.3548
 6984SOL     OW32413   3.863   1.048   4.545 -0.5025  0.1188  0.6115
 6984SOL    HW132414   3.882   1.072   4.454  0.6289  0.5196  0.9462
 6984SOL    HW232415   3.868   0.952   4.546  0.7104  0.1623 -1.1281
 6985SOL     OW32416   0.571   4.714  12.163 -0.3381  0.1453  0.4440
 6985SOL    HW132417   0.592   4.697  12.071  0.7018 -4.2258  1.5019
 6985SOL    HW232418   0.518   4.638  12.186 -0.1598 -0.8355 -2.5026
 6986SOL     OW32419   4.302   2.872   5.777  0.1805 -0.6209 -0.3614
 6986SOL    HW132420   4.315   2.845   5.686  1.5024  0.9041 -0.6407
 6986SOL    HW232421   4.288   2.967   5.785  0.9996 -0.6684  1.5753
 6987SOL     OW32422   4.651   1.128   4.431 -0.3566 -0.2361  0.5921
 6987SOL    HW132423   4.652   1.223   4.443  0.0646 -0.2134  0.3621
 6987SOL    HW232424   4.571   1.096   4.474  0.5841 -1.2573  1.5839
 6988SOL     OW32425   2.691   3.632  16.109 -0.0793  0.0648  0.2727
 6988SOL    HW132426   2.607   3.665  16.141  0.8438  0.7312  1.9752
 6988SOL    HW232427   2.695   3.651  16.015 -2.6499 -1.0775 -0.0701
 6989SOL     OW32428   0.129   0.213   3.216  0.1154 -0.5631  0.4628
 6989SOL    HW132429   0.143   0.261   3.134 -2.5183 -1.5033 -0.5370
 6989SOL    HW232430   0.037   0.193   3.202 -0.1492  0.8952  0.0812
 6990SOL     OW32431   2.757   0.626   3.544  0.3680 -0.2258 -0.0076
 6990SOL    HW132432   2.787   0.605   3.632  0.9660  2.1200  0.3504
 6990SOL    HW232433   2.661   0.619   3.548  0.3602  0.3929  1.0165
 6991SOL     OW32434   0.104   3.885   7.976  0.6791 -0.5237 -0.2536
 6991SOL    HW132435   0.179   3.831   7.949  0.0008 -1.1829 -0.8118
 6991SOL    HW232436   0.131   3.915   8.063  0.8205 -0.4006 -0.3405
 6992SOL     OW32437   2.107   3.505   0.253  0.1961 -0.2137 -0.5606
 6992SOL    HW132438   2.197   3.499   0.283 -0.2173 -0.6082  0.5693
 6992SOL    HW232439   2.104   3.565   0.177 -0.6412  0.6259  0.1399
 6993SOL     OW32440   3.368   2.945   2.898  0.0488  0.1734 -0.7117
 6993SOL    HW132441   3.337   3.033   2.878 -2.0330 -0.4125 -0.0336
 6993SOL    HW232442   3.328   2.898   2.824  0.9229 -0.3618 -0.8443
 6994SOL     OW32443   4.306   4.642   2.231 -0.0635 -0.0303  0.0918
 6994SOL    HW132444   4.361   4.641   2.153  2.0796 -1.2454  1.6147
 6994SOL    HW232445   4.372   4.612   2.294  0.3508 -0.0260 -0.3419
 6995SOL     OW32446   4.167   4.102   7.947 -0.0989  0.1040 -0.0647
 6995SOL    HW132447   4.139   4.073   7.860  0.5027  1.3116 -0.6631
 6995SOL    HW232448   4.253   4.134   7.919  0.2945  1.2874  2.5013
 6996SOL     OW32449   2.682   3.609   8.465  0.0573 -0.4360 -0.0970
 6996SOL    HW132450   2.737   3.670   8.514  1.1025 -1.1596 -0.3694
 6996SOL    HW232451   2.609   3.668   8.450 -0.3595 -0.4464  1.8470
 6997SOL     OW32452   3.881   2.309   5.912  0.2771  0.3842 -0.0591
 6997SOL    HW132453   3.972   2.319   5.939  0.2599  2.1902 -0.6655
 6997SOL    HW232454   3.876   2.213   5.917 -0.5025  0.3644 -1.3269
 6998SOL     OW32455   2.169   1.634   5.851 -0.1437 -0.1225 -0.1229
 6998SOL    HW132456   2.145   1.684   5.773  0.2839 -2.1477 -1.5567
 6998SOL    HW232457   2.130   1.547   5.841 -0.7989  0.2481 -0.7892
 6999SOL     OW32458   3.777   3.297   4.067  0.0519 -0.2112  0.0082
 6999SOL    HW132459   3.864   3.272   4.098  0.7576  2.9455  0.5648
 6999SOL    HW232460   3.784   3.383   4.109  2.5680  0.0314 -0.9443
 7000SOL     OW32461   2.766   0.582   2.099  0.1266  0.1273 -0.3212
 7000SOL    HW132462   2.857   0.603   2.076  0.5316 -1.4155 -0.0815
 7000SOL    HW232463   2.751   0.656   2.158 -4.7725 -0.7822 -0.4581
 7001SOL     OW32464   0.820   0.882   2.035  0.2182  0.0481  0.1517
 7001SOL    HW132465   0.755   0.905   2.101 -1.4441 -2.5748 -0.5811
 7001SOL    HW232466   0.814   0.956   1.975 -0.9386 -0.6508 -0.5882
 7002SOL     OW32467   2.735   1.926   2.470 -0.5652  0.0648 -0.0619
 7002SOL    HW132468   2.786   2.007   2.460 -0.4443  0.1211  1.0157
 7002SOL    HW232469   2.650   1.969   2.461 -0.7519 -0.1605  0.6243
 7003SOL     OW32470   1.435   2.406   8.024 -0.3375 -0.0582 -0.1715
 7003SOL    HW132471   1.520   2.437   8.056  0.5406 -2.6659  0.0385
 7003SOL    HW232472   1.439   2.433   7.933 -2.2773  1.4580  0.1956
 7004SOL     OW32473   1.458   2.727   1.762 -0.1514  0.0805  0.1159
 7004SOL    HW132474   1.399   2.659   1.795 -0.8521  0.6894  0.1233
 7004SOL    HW232475   1.409   2.783   1.701  1.3328  0.4384 -0.7548
 7005SOL     OW32476   0.536   0.933   6.007  0.4466 -0.2278  0.4238
 7005SOL    HW132477   0.462   0.911   5.950  0.8903 -2.0371  0.5414
 7005SOL    HW232478   0.518   0.879   6.084 -0.8886 -0.7927 -0.2983
 7006SOL     OW32479   2.029   1.874   4.264  0.2183  0.2129  0.5572
 7006SOL    HW132480   1.958   1.830   4.311  0.1794  0.8733  1.1167
 7006SOL    HW232481   1.991   1.961   4.249 -0.5246 -0.1895  0.0725
 7007SOL     OW32482   3.353   2.475   9.629  0.3846  0.0532  0.3195
 7007SOL    HW132483   3.427   2.518   9.588  1.6484 -0.5324  1.9946
 7007SOL    HW232484   3.302   2.537   9.681  0.0912 -0.5210  0.7181
 7008SOL     OW32485   0.413   4.024   0.675 -0.4545 -0.9351  0.2750
 7008SOL    HW132486   0.440   3.941   0.637  0.6882 -0.1338 -0.6819
 7008SOL    HW232487   0.364   4.001   0.754  0.9137 -2.2528  0.7417
 7009SOL     OW32488   0.800   3.428   7.122 -0.2747 -0.2411  0.8019
 7009SOL    HW132489   0.786   3.472   7.038  0.1273  0.3824  1.0625
 7009SOL    HW232490   0.830   3.341   7.093 -1.6154 -0.6219  0.5259
 7010SOL     OW32491   2.221   1.492   8.985  0.0381  0.7711 -0.5313
 7010SOL    HW132492   2.289   1.534   8.932  1.0194 -0.4593 -0.2380
 7010SOL    HW232493   2.263   1.410   9.011  1.5414  2.1001  1.2929
 7011SOL     OW32494   1.103   0.447   6.075  0.6652 -0.1399 -0.1212
 7011SOL    HW132495   1.079   0.510   6.008  1.2758  0.5342  0.2876
 7011SOL    HW232496   1.134   0.380   6.014  1.4353  0.7101 -0.6666
 7012SOL     OW32497   4.004   0.181  13.777  0.6975 -0.0801  0.1042
 7012SOL    HW132498   4.027   0.089  13.763 -2.4758 -1.0197  1.0388
 7012SOL    HW232499   4.023   0.224  13.694 -1.7966 -1.3658 -1.1452
 7013SOL     OW32500   2.755   3.724   6.394  0.2417 -0.1346 -0.5124
 7013SOL    HW132501   2.784   3.658   6.330  0.4908 -1.0598  0.5627
 7013SOL    HW232502   2.725   3.787   6.328 -1.8012 -0.3714  0.1956
 7014SOL     OW32503   0.731   4.188   6.718 -0.4618  0.3452 -0.3299
 7014SOL    HW132504   0.669   4.177   6.790  1.4951  0.4252  1.3607
 7014SOL    HW232505   0.733   4.283   6.708 -1.3894  0.2692 -1.2176
 7015SOL     OW32506   4.651   3.548   9.122 -0.0536  0.2706  0.1160
 7015SOL    HW132507   4.603   3.585   9.196  0.3484  2.0596 -0.5133
 7015SOL    HW232508   0.024   3.551   9.138  0.4286  0.4746 -2.7368
 7016SOL     OW32509   3.514   1.729   4.833  0.1150 -0.1670  0.5706
 7016SOL    HW132510   3.473   1.815   4.840 -0.5456 -0.2878 -1.7576
 7016SOL    HW232511   3.553   1.732   4.745 -1.2489  0.5177 -0.0105
 7017SOL     OW32512   3.177   4.677   2.378 -0.4054 -0.3672  0.4447
 7017SOL    HW132513   3.158   0.050   2.380 -0.8627 -0.4274 -2.0398
 7017SOL    HW232514   3.267   4.677   2.346 -0.7347 -1.8772 -0.4358
 7018SOL     OW32515   1.423   3.015  13.500  0.3411 -0.0257 -0.1544
 7018SOL    HW132516   1.442   2.994  13.408  0.4685  0.4007 -0.2254
 7018SOL    HW232517   1.407   2.926  13.532 -0.5999  0.9171  1.9656
 7019SOL     OW32518   4.616   1.556   6.042 -0.1808  0.5147  0.7017
 7019SOL    HW132519   4.528   1.518   6.046  0.3657 -1.2157 -3.2230
 7019SOL    HW232520   4.660   1.495   6.101  1.7098  1.0980 -0.1181
 7020SOL     OW32521   2.342   3.927  13.384 -0.2606  0.1980 -0.0244
 7020SOL    HW132522   2.263   3.982  13.379  0.1023  0.6867 -0.3445
 7020SOL    HW232523   2.335   3.883  13.299 -2.9781 -0.7013  0.6469
 7021SOL     OW32524   0.272   3.285   5.419  0.0118  0.4557 -0.0381
 7021SOL    HW132525   0.259   3.379   5.420  3.0881  0.9059 -1.0035
 7021SOL    HW232526   0.215   3.255   5.490  2.9617  0.1484  2.1843
 7022SOL     OW32527   3.542   2.536   3.362 -0.8151  0.3136  0.4292
 7022SOL    HW132528   3.611   2.562   3.424 -2.3773  1.6865  1.5735
 7022SOL    HW232529   3.538   2.616   3.310 -2.0994 -0.2504 -0.3192
 7023SOL     OW32530   4.586   0.186  11.743  0.3328  0.1388  0.1397
 7023SOL    HW132531   4.505   0.146  11.773 -0.5083  1.9328  0.2376
 7023SOL    HW232532   4.560   0.252  11.679  0.2908  0.0808  0.0966
 7024SOL     OW32533   4.595   4.250  10.567  0.0968 -0.2750  0.5466
 7024SOL    HW132534   4.620   4.166  10.528 -1.7604  0.6517 -2.6435
 7024SOL    HW232535   4.654   4.303  10.514  1.0507 -1.9793 -0.1146
 7025SOL     OW32536   1.561   2.957  11.946  0.8366  0.5720  0.0696
 7025SOL    HW132537   1.589   2.994  12.029  1.8684  0.1822 -0.1072
 7025SOL    HW232538   1.574   2.864  11.968 -0.1666  0.5878  0.7919
 7026SOL     OW32539   3.276   0.514   4.847  0.0184 -0.0687 -0.4293
 7026SOL    HW132540   3.289   0.424   4.875 -2.2929  0.0149  0.8834
 7026SOL    HW232541   3.292   0.501   4.754 -2.3523 -1.2440 -0.6756
 7027SOL     OW32542   3.868   1.995   7.625  0.2504  0.4092  0.3776
 7027SOL    HW132543   3.818   1.953   7.696  1.8628 -5.3402 -1.9303
 7027SOL    HW232544   3.890   2.080   7.663  0.2620  1.3980 -1.9063
 7028SOL     OW32545   4.173   0.042   0.595 -0.2708 -0.6701 -0.0304
 7028SOL    HW132546   4.083   0.057   0.566 -1.2656 -1.0845  2.9187
 7028SOL    HW232547   4.204   0.132   0.581  1.0089 -0.4033  4.7138
 7029SOL     OW32548   2.158   3.786   3.846 -0.0897 -0.2382  0.5721
 7029SOL    HW132549   2.093   3.825   3.905 -1.2403 -0.7444 -0.3825
 7029SOL    HW232550   2.097   3.763   3.776  0.9361 -0.5878 -0.2054
 7030SOL     OW32551   2.378   3.140   6.182 -0.5058 -0.1576  0.4645
 7030SOL    HW132552   2.461   3.154   6.136 -0.8179  0.8593  0.2130
 7030SOL    HW232553   2.420   3.108   6.263 -0.3093 -0.4421  0.2495
 7031SOL     OW32554   2.939   0.106  10.651 -0.4742 -0.1201  0.1664
 7031SOL    HW132555   2.868   0.167  10.629  0.9219  1.6214  0.4885
 7031SOL    HW232556   2.927   0.047  10.577 -0.4575  0.3914 -0.2480
 7032SOL     OW32557   3.613   3.725   3.137  0.2830  0.1446 -0.1940
 7032SOL    HW132558   3.692   3.739   3.188  0.7982  0.5236 -1.0988
 7032SOL    HW232559   3.611   3.790   3.067 -0.5729  0.6470  0.2911
 7033SOL     OW32560   2.362   0.914  11.648 -0.4754 -0.1270  0.7862
 7033SOL    HW132561   2.387   0.960  11.568 -0.0964  0.7468  1.4073
 7033SOL    HW232562   2.273   0.935  11.675 -0.1535  1.8986  0.2746
 7034SOL     OW32563   0.831   1.248   5.075  0.2335 -0.0254 -0.0232
 7034SOL    HW132564   0.738   1.246   5.098 -0.3450  0.0027 -2.3348
 7034SOL    HW232565   0.874   1.284   5.152  0.1862  2.2519 -1.0520
 7035SOL     OW32566   2.560   1.896   2.158  0.4973  0.2718  0.1548
 7035SOL    HW132567   2.575   1.989   2.170  0.5830  0.0848  1.5370
 7035SOL    HW232568   2.578   1.870   2.248 -0.2498 -0.2318  0.1610
 7036SOL     OW32569   1.905   3.114   7.131  0.0422 -0.0735  0.2065
 7036SOL    HW132570   1.865   3.091   7.047  2.8228 -2.8438 -0.3614
 7036SOL    HW232571   1.880   3.206   7.136  1.7168  0.4385 -0.8276
 7037SOL     OW32572   1.933   2.814   3.520 -0.2997  0.2666 -0.2950
 7037SOL    HW132573   1.919   2.834   3.613 -0.1210 -0.2915 -0.1457
 7037SOL    HW232574   2.007   2.755   3.507  1.2965  1.9765  1.1518
 7038SOL     OW32575   3.306   0.721   5.802  0.0547  0.2303 -0.3595
 7038SOL    HW132576   3.352   0.732   5.719 -0.8532 -0.5185 -0.9615
 7038SOL    HW232577   3.378   0.730   5.864 -0.5576 -1.6770  0.6139
 7039SOL     OW32578   2.001   1.984  13.872 -0.1337 -0.5459 -0.1785
 7039SOL    HW132579   1.926   2.036  13.901 -0.2106 -0.8836  0.2303
 7039SOL    HW232580   2.063   2.008  13.940 -0.1471 -1.5936  0.2024
 7040SOL     OW32581   0.187   3.003   7.761  0.8597 -0.2146  0.0096
 7040SOL    HW132582   0.115   3.018   7.700 -0.5271 -2.5288  1.0631
 7040SOL    HW232583   0.242   3.081   7.758  1.2424 -0.5115 -0.6459
 7041SOL     OW32584   1.358   3.178   7.856 -0.2250 -0.7560 -0.4996
 7041SOL    HW132585   1.365   3.222   7.771  0.3799 -0.2049 -0.1604
 7041SOL    HW232586   1.450   3.159   7.872 -0.8011 -0.9186  2.5346
 7042SOL     OW32587   0.281   0.582   2.862 -0.0490 -0.1051 -0.2537
 7042SOL    HW132588   0.205   0.633   2.836  0.2642 -0.3082 -1.5387
 7042SOL    HW232589   0.246   0.549   2.945  0.6151  1.1672  0.5356
 7043SOL     OW32590   0.437   4.485   7.717  0.3195  0.5768 -0.1597
 7043SOL    HW132591   0.441   4.446   7.804 -1.7966  0.3088 -0.1741
 7043SOL    HW232592   0.483   4.419   7.664  1.8077  1.5610 -0.0767
 7044SOL     OW32593   3.121   2.519   6.903 -0.3329 -0.2973 -0.1844
 7044SOL    HW132594   3.131   2.443   6.846 -0.6419  0.2505 -0.9622
 7044SOL    HW232595   3.027   2.535   6.900 -0.3680 -1.0195 -2.3412
 7045SOL     OW32596   4.321   3.017  13.414 -0.7200  0.3881 -0.2833
 7045SOL    HW132597   4.322   2.955  13.341 -1.2348  1.5772 -1.3145
 7045SOL    HW232598   4.348   3.094  13.364  1.0056 -0.5267 -0.7606
 7046SOL     OW32599   1.080   3.568  13.288  0.1830  0.4534 -0.2956
 7046SOL    HW132600   1.136   3.515  13.345 -0.3418 -1.9784 -2.0167
 7046SOL    HW232601   1.145   3.615  13.237  1.7698 -1.2298  0.1915
 7047SOL     OW32602   4.720   3.017   2.309 -0.3886  0.6078 -0.1575
 7047SOL    HW132603   4.650   3.079   2.331 -0.7457  0.7125 -1.6392
 7047SOL    HW232604   4.669   2.954   2.258  0.2512  0.4265 -0.5678
 7048SOL     OW32605   4.102   3.487  11.800  0.2048 -0.0274  0.1603
 7048SOL    HW132606   4.054   3.441  11.869 -0.7819  1.2952  0.3636
 7048SOL    HW232607   4.030   3.539  11.766  1.4817 -0.4873 -3.2688
 7049SOL     OW32608   2.785   1.313   7.229  0.1332  0.2285  0.1271
 7049SOL    HW132609   2.844   1.289   7.301  0.7802  0.9113 -0.1721
 7049SOL    HW232610   2.788   1.227   7.185  1.0441 -0.1958  1.0082
 7050SOL     OW32611   1.401   0.032   2.586 -0.4951 -0.3106  0.2167
 7050SOL    HW132612   1.315   0.001   2.615 -0.5825 -0.9700 -0.7507
 7050SOL    HW232613   1.419   0.097   2.653  0.0493  0.2364 -0.4594
 7051SOL     OW32614   3.828   1.823  16.477 -0.4101 -0.6204  0.5233
 7051SOL    HW132615   3.886   1.896  16.457 -2.5641  1.1316  0.7359
 7051SOL    HW232616   3.845   1.758  16.408 -2.7001 -0.2283 -0.3957
 7052SOL     OW32617   1.341   3.410   1.915 -0.7923 -0.6886  0.5239
 7052SOL    HW132618   1.400   3.435   1.986 -1.4793 -0.4064  0.9923
 7052SOL    HW232619   1.414   3.385   1.858 -0.2146  1.5930  0.2867
 7053SOL     OW32620   1.896   4.102  15.803 -0.1747 -0.4137 -0.3624
 7053SOL    HW132621   1.890   4.159  15.726  4.8191  2.4562  1.3758
 7053SOL    HW232622   1.872   4.160  15.875  4.0912  0.1174  0.6460
 7054SOL     OW32623   4.697   1.575   8.185  0.2273 -0.2921 -0.3161
 7054SOL    HW132624   0.057   1.625   8.194 -1.5991  2.1489  2.5800
 7054SOL    HW232625   4.640   1.645   8.153  1.1181 -0.0128 -1.3398
 7055SOL     OW32626   2.685   2.276   8.101 -0.1950 -0.7579  0.2132
 7055SOL    HW132627   2.691   2.271   8.006  1.8752  0.9051  0.2569
 7055SOL    HW232628   2.627   2.199   8.099 -2.2302  0.7869 -0.5382
 7056SOL     OW32629   3.282   2.131  15.084  0.3741  0.2770  0.0429
 7056SOL    HW132630   3.335   2.051  15.082  0.8085  0.5954 -1.1939
 7056SOL    HW232631   3.296   2.158  15.175 -0.6396  1.3175 -0.1074
 7057SOL     OW32632   1.892   1.477  11.485 -0.2692 -0.5174 -0.8407
 7057SOL    HW132633   1.924   1.387  11.476  2.0932  0.0433  1.8426
 7057SOL    HW232634   1.889   1.502  11.393 -1.5833 -0.2358 -0.7273
 7058SOL     OW32635   1.040   4.178   7.447  0.3077  0.7623  0.2649
 7058SOL    HW132636   1.116   4.175   7.389 -0.2813  0.3651 -0.5005
 7058SOL    HW232637   0.980   4.217   7.383  1.4392 -0.9677 -1.8790
 7059SOL     OW32638   1.233   2.245   6.942  0.0231  0.1062 -0.5051
 7059SOL    HW132639   1.304   2.296   6.902  0.0461  1.1224  0.8407
 7059SOL    HW232640   1.238   2.284   7.030 -0.4139 -0.3392 -0.2810
 7060SOL     OW32641   1.512   0.101   3.183  0.8984  0.0894 -0.2303
 7060SOL    HW132642   1.487   0.015   3.215 -0.3014 -0.1463 -1.8246
 7060SOL    HW232643   1.562   0.077   3.105 -2.0503 -0.2901 -2.0125
 7061SOL     OW32644   1.179   2.186   5.130 -0.4693 -0.2567  0.5881
 7061SOL    HW132645   1.255   2.183   5.071 -0.4042  0.4586  0.6350
 7061SOL    HW232646   1.148   2.097   5.116 -0.7205  0.0525 -0.8338
 7062SOL     OW32647   2.763   0.962   4.090  0.7590  0.7744  0.0197
 7062SOL    HW132648   2.792   0.970   4.181 -0.0073 -0.7431  0.3821
 7062SOL    HW232649   2.670   0.947   4.105  0.7732  0.1212 -0.5596
 7063SOL     OW32650   0.328   4.533   1.717 -0.4269  0.1227 -0.9189
 7063SOL    HW132651   0.380   4.605   1.682  1.3101 -1.5435 -1.7424
 7063SOL    HW232652   0.345   4.552   1.809 -0.8748  3.0567 -1.4267
 7064SOL     OW32653   1.207   0.164   5.399 -0.6180  0.0342  0.0615
 7064SOL    HW132654   1.293   0.177   5.360 -0.1371  0.3741  1.2566
 7064SOL    HW232655   1.220   0.082   5.446  2.0178 -0.1667 -1.0208
 7065SOL     OW32656   0.216   2.400   0.670 -0.2718  0.1702  0.6336
 7065SOL    HW132657   0.167   2.363   0.597 -0.4259  1.1586  0.2424
 7065SOL    HW232658   0.159   2.395   0.747 -0.1315 -0.8646  0.6719
 7066SOL     OW32659   0.287   1.121   0.393  0.1098  0.0123 -0.1590
 7066SOL    HW132660   0.220   1.155   0.335 -0.5927 -0.8646  0.1414
 7066SOL    HW232661   0.322   1.051   0.339 -0.5850  0.9356 -1.7911
 7067SOL     OW32662   4.197   4.464   7.016  0.1845 -0.0435  0.9022
 7067SOL    HW132663   4.257   4.399   6.981 -0.9036  0.1736 -1.3640
 7067SOL    HW232664   4.227   4.545   6.976 -1.2384 -1.3913 -2.8628
 7068SOL     OW32665   1.938   4.384   6.965  0.7897 -0.4223  0.2314
 7068SOL    HW132666   1.903   4.314   6.912 -0.9058 -0.8413  1.9129
 7068SOL    HW232667   2.010   4.335   7.006  1.1333 -1.5596 -1.7242
 7069SOL     OW32668   0.054   1.766  13.486 -0.0476 -0.0165  0.2129
 7069SOL    HW132669   0.092   1.847  13.519  0.2215 -1.1849  2.7781
 7069SOL    HW232670   0.133   1.712  13.484  0.1796  0.3260  0.0014
 7070SOL     OW32671   0.855   3.573   3.900  0.1587  0.0041 -0.0076
 7070SOL    HW132672   0.823   3.569   3.809 -0.7508  0.6771  0.2786
 7070SOL    HW232673   0.847   3.483   3.930 -0.0296  0.4012  1.1177
 7071SOL     OW32674   1.047   1.569  11.356 -0.0527  0.0278  0.4585
 7071SOL    HW132675   0.961   1.527  11.345 -0.5322  0.7137  1.5712
 7071SOL    HW232676   1.023   1.641  11.414 -0.3090 -0.3915  0.8715
 7072SOL     OW32677   2.015   2.374   7.967 -0.6973 -0.1522  0.2323
 7072SOL    HW132678   2.085   2.335   7.914  1.4560  0.2288  2.8175
 7072SOL    HW232679   2.007   2.456   7.918 -0.1704  1.6095  3.1123
 7073SOL     OW32680   0.453   4.662   0.355  0.0703 -0.1134  0.2268
 7073SOL    HW132681   0.507   4.584   0.341  0.6626  1.1397 -4.3787
 7073SOL    HW232682   0.378   4.621   0.398 -1.4741  1.1975 -1.2291
 7074SOL     OW32683   2.377   2.957   9.481  0.1975  0.2312  0.1798
 7074SOL    HW132684   2.442   2.925   9.419  0.7292 -0.3049  1.0100
 7074SOL    HW232685   2.380   2.874   9.529  1.2292  0.5195  0.6081
 7075SOL     OW32686   2.591   2.759   8.476 -0.0284  0.1147 -0.3993
 7075SOL    HW132687   2.628   2.674   8.498 -2.8686 -0.7959  0.8571
 7075SOL    HW232688   2.503   2.731   8.501 -0.1350 -0.5488 -1.5359
 7076SOL     OW32689   0.872   0.705   9.606  0.3052  0.0643 -0.3514
 7076SOL    HW132690   0.926   0.781   9.627 -0.7872  0.3773  1.3175
 7076SOL    HW232691   0.798   0.727   9.663 -0.6385 -0.1194 -1.5037
 7077SOL     OW32692   2.850   0.035   5.013 -0.0035 -0.4752 -0.5427
 7077SOL    HW132693   2.829   4.703   5.089 -0.8182 -0.3423 -0.6751
 7077SOL    HW232694   2.790   0.004   4.946 -1.9817  1.6418  0.2619
 7078SOL     OW32695   4.712   3.337   3.788  0.1864 -0.3317 -0.2095
 7078SOL    HW132696   4.721   3.303   3.877  1.1340 -0.2217 -0.2622
 7078SOL    HW232697   0.063   3.296   3.740 -0.0855 -0.9868 -0.0560
 7079SOL     OW32698   1.883   3.073   4.347  0.2538  0.0231  0.1506
 7079SOL    HW132699   1.874   2.984   4.313 -1.1814  0.1001  0.3189
 7079SOL    HW232700   1.795   3.102   4.322  0.7411  1.5643  0.2579
 7080SOL     OW32701   1.632   4.646   8.117  0.3242 -0.1274  0.2652
 7080SOL    HW132702   1.574   4.694   8.177 -0.1269  2.1898 -2.0344
 7080SOL    HW232703   1.563   4.611   8.060 -0.4586  0.4382  0.8515
 7081SOL     OW32704   0.823   2.415   7.004 -0.4130 -0.4393  0.2650
 7081SOL    HW132705   0.806   2.324   6.980  1.4920 -1.0344  1.1616
 7081SOL    HW232706   0.733   2.442   7.022 -0.5592 -2.4581  2.7300
 7082SOL     OW32707   0.048   4.237   4.192 -0.2843 -0.0776 -0.4953
 7082SOL    HW132708   0.036   4.292   4.270 -0.7445  0.3027 -0.8378
 7082SOL    HW232709   4.677   4.214   4.184  0.0574 -1.9263  1.0358
 7083SOL     OW32710   2.897   2.646   6.845  0.2239 -0.3020 -0.0713
 7083SOL    HW132711   2.886   2.677   6.756  1.7623 -1.3148 -0.6141
 7083SOL    HW232712   2.948   2.720   6.878 -1.4105  0.3039  1.1189
 7084SOL     OW32713   1.518   2.866   9.153 -0.1210  0.5317 -0.4186
 7084SOL    HW132714   1.557   2.887   9.068 -3.6764 -0.4368 -2.3158
 7084SOL    HW232715   1.550   2.940   9.204  0.3176 -0.3124  0.5314
 7085SOL     OW32716   0.434   2.792  12.628 -0.3784 -0.3559 -0.2107
 7085SOL    HW132717   0.449   2.725  12.695  1.2707  0.2680  0.0353
 7085SOL    HW232718   0.488   2.758  12.557 -0.2664 -1.0081  0.1915
 7086SOL     OW32719   4.374   3.315   0.387 -0.2582 -0.3663  0.2476
 7086SOL    HW132720   4.392   3.272   0.470 -1.2128  1.3242  1.3262
 7086SOL    HW232721   4.344   3.403   0.407 -2.9071 -1.6861  2.1824
 7087SOL     OW32722   3.096   0.942   4.578 -0.3411 -0.1785  0.1180
 7087SOL    HW132723   3.139   0.972   4.658 -0.6041 -1.7275  0.8428
 7087SOL    HW232724   3.069   0.854   4.605  2.0681 -0.8624  0.3036
 7088SOL     OW32725   0.259   4.071   3.441  0.1790  0.1247 -0.5212
 7088SOL    HW132726   0.199   4.143   3.421  0.5361  0.1295 -1.5284
 7088SOL    HW232727   0.249   4.075   3.537  0.0908 -1.5919 -0.4750
 7089SOL     OW32728   3.263   1.876   3.701 -0.1068  0.2576  0.0221
 7089SOL    HW132729   3.284   1.873   3.607 -0.0796 -2.8125  0.1514
 7089SOL    HW232730   3.238   1.968   3.709  1.1298  0.5173  0.8904
 7090SOL     OW32731   4.271   3.766   4.949 -0.0344  0.9431  0.1916
 7090SOL    HW132732   4.178   3.748   4.934  0.6027 -0.1237 -2.3230
 7090SOL    HW232733   4.322   3.685   4.943 -0.9456  0.5086 -1.5499
 7091SOL     OW32734   4.052   3.116   1.098  0.5738 -0.8800 -0.4270
 7091SOL    HW132735   3.969   3.149   1.134  1.0549 -1.8396  1.5534
 7091SOL    HW232736   4.093   3.085   1.178  0.2889  2.5130  1.0414
 7092SOL     OW32737   3.037   2.070   0.513 -0.5481 -0.0633 -0.3378
 7092SOL    HW132738   2.975   2.098   0.445  0.4069 -1.5876 -1.8150
 7092SOL    HW232739   3.112   2.122   0.484 -1.2111  1.4210  0.6001
 7093SOL     OW32740   2.354   3.182  14.723 -0.0354 -0.3477  0.0010
 7093SOL    HW132741   2.307   3.183  14.807  3.0017  0.6761  1.7157
 7093SOL    HW232742   2.320   3.097  14.697 -0.3644 -0.6131  1.2731
 7094SOL     OW32743   2.704   0.234   5.895  0.3893  0.5654  0.3131
 7094SOL    HW132744   2.629   0.219   5.953  1.1124  1.8496  1.5627
 7094SOL    HW232745   2.742   0.314   5.930  1.3904 -0.7214  2.1443
 7095SOL     OW32746   0.746   0.761  15.389  0.3934 -0.3076 -0.5976
 7095SOL    HW132747   0.677   0.809  15.436  1.5279  0.6677  0.0634
 7095SOL    HW232748   0.802   0.835  15.365 -1.2922  0.3385 -2.6306
 7096SOL     OW32749   3.258   0.456   8.535 -0.1751  0.1509 -0.3116
 7096SOL    HW132750   3.261   0.439   8.629 -3.0282  1.1276 -0.0261
 7096SOL    HW232751   3.170   0.420   8.527 -0.3967  0.6992 -0.3917
 7097SOL     OW32752   0.439   0.518   7.264  0.0702 -0.0693  0.5772
 7097SOL    HW132753   0.515   0.491   7.316 -0.5837 -0.4289  1.3482
 7097SOL    HW232754   0.422   0.440   7.212  1.7405  0.3944 -0.6787
 7098SOL     OW32755   1.530   4.220   0.433  0.2433  0.2979  0.4944
 7098SOL    HW132756   1.495   4.301   0.470 -1.1634  0.1607 -0.5373
 7098SOL    HW232757   1.465   4.205   0.365 -0.5877 -0.9006  1.5438
 7099SOL     OW32758   4.496   3.297   9.158 -0.5639 -0.2112 -0.0312
 7099SOL    HW132759   4.407   3.330   9.149 -1.5150 -2.0543  2.5340
 7099SOL    HW232760   4.538   3.365   9.106  0.0025 -0.0424  0.6538
 7100SOL     OW32761   3.332   4.342   7.771  0.3480 -0.0646 -0.4324
 7100SOL    HW132762   3.313   4.338   7.865 -1.4507  1.2663 -0.7326
 7100SOL    HW232763   3.319   4.435   7.751  0.1378 -0.5190 -2.4378
 7101SOL     OW32764   3.489   0.679  12.013 -0.1158  0.1560  0.1229
 7101SOL    HW132765   3.477   0.710  12.103  0.9768  1.6182 -0.2381
 7101SOL    HW232766   3.520   0.763  11.981  0.1553 -0.3200 -0.8678
 7102SOL     OW32767   2.968   3.114   5.384  0.0507  0.1724  0.9226
 7102SOL    HW132768   3.031   3.114   5.311 -0.0231  0.7523  0.8617
 7102SOL    HW232769   2.961   3.206   5.409  1.8282  0.3429  0.8238
 7103SOL     OW32770   1.672   2.688   3.915 -0.8002  0.5568  0.1860
 7103SOL    HW132771   1.759   2.647   3.913  0.0550  2.4810 -2.5302
 7103SOL    HW232772   1.678   2.727   3.827 -1.1810  1.2519  0.4663
 7104SOL     OW32773   1.170   2.847  16.262  0.0242 -0.3041 -0.0706
 7104SOL    HW132774   1.252   2.896  16.269  1.0389 -2.0479  0.3391
 7104SOL    HW232775   1.203   2.760  16.239  0.3001 -0.6731  1.7546
 7105SOL     OW32776   0.997   2.838   3.528 -0.1328  0.2134 -0.2976
 7105SOL    HW132777   0.938   2.776   3.485 -0.9074 -0.1129  1.2486
 7105SOL    HW232778   0.980   2.920   3.482 -0.6482  0.0686 -0.3667
 7106SOL     OW32779   3.549   0.566  16.075  0.3449 -0.1592  0.0976
 7106SOL    HW132780   3.505   0.626  16.015 -0.7148 -0.7981  0.2400
 7106SOL    HW232781   3.631   0.614  16.064 -0.4627  1.1805 -0.0291
 7107SOL     OW32782   1.478   2.572   2.680 -0.8226 -0.0679 -0.3503
 7107SOL    HW132783   1.571   2.567   2.658 -0.8516  0.8538 -0.7004
 7107SOL    HW232784   1.461   2.663   2.654  0.5009 -0.5141 -2.7314
 7108SOL     OW32785   1.735   0.638  10.766  0.6781  0.5488  0.0930
 7108SOL    HW132786   1.820   0.679  10.776  0.7301  0.0559  1.6258
 7108SOL    HW232787   1.684   0.665  10.843 -0.1754  0.5540 -0.4695
 7109SOL     OW32788   0.096   1.779   2.184  0.0339  0.1970  0.1623
 7109SOL    HW132789   0.110   1.745   2.096 -2.0680 -0.7747  0.1955
 7109SOL    HW232790   0.141   1.864   2.191  0.3742 -0.1819  2.5303
 7110SOL     OW32791   4.697   1.540   6.690  0.3171  0.1533 -0.1541
 7110SOL    HW132792   4.653   1.469   6.737  1.6697 -0.0604  0.7616
 7110SOL    HW232793   4.718   1.595   6.766 -0.3492  1.2955 -0.7929
 7111SOL     OW32794   1.215   1.150   5.592 -0.3347  0.6578  1.1103
 7111SOL    HW132795   1.184   1.060   5.577 -0.7456  0.9812  0.0131
 7111SOL    HW232796   1.127   1.187   5.581 -0.4517  0.2994  0.8228
 7112SOL     OW32797   4.068   1.561  17.156 -0.7591  0.5898  0.3537
 7112SOL    HW132798   4.058   1.478  17.203 -1.8012  0.1070 -0.7100
 7112SOL    HW232799   4.000   1.563  17.088  2.2159 -1.4042 -2.7134
 7113SOL     OW32800   3.764   2.916   5.512  0.1409  0.3174 -0.3685
 7113SOL    HW132801   3.754   2.839   5.568 -0.2386  1.1287  0.6797
 7113SOL    HW232802   3.836   2.965   5.553  0.4848 -1.0997  0.7478
 7114SOL     OW32803   1.615   3.193  13.602  0.1101 -0.1628 -0.5990
 7114SOL    HW132804   1.571   3.111  13.580 -0.2520  0.3074 -1.6136
 7114SOL    HW232805   1.632   3.232  13.517  1.4494  0.7862  0.1096
 7115SOL     OW32806   4.263   4.328   1.652 -0.3671 -0.2665  0.1985
 7115SOL    HW132807   4.221   4.349   1.569  0.5493 -2.6141 -0.8550
 7115SOL    HW232808   4.346   4.371   1.630 -0.0828 -2.1215 -2.3333
 7116SOL     OW32809   1.188   3.534  14.432  0.4581 -0.1201 -0.3653
 7116SOL    HW132810   1.157   3.457  14.384  0.3272 -0.8155  0.8526
 7116SOL    HW232811   1.152   3.608  14.383  0.0211 -1.5270 -2.1596
 7117SOL     OW32812   4.011   3.737   7.506 -0.2710 -0.0454  0.0389
 7117SOL    HW132813   4.063   3.657   7.501 -0.3782 -0.0907 -0.3559
 7117SOL    HW232814   3.940   3.711   7.448 -1.5100  2.3813  0.4515
 7118SOL     OW32815   4.452   2.920   0.079  0.7204  0.6615 -0.0469
 7118SOL    HW132816   4.541   2.929   0.113  1.4899 -1.8193 -1.4290
 7118SOL    HW232817   4.405   2.864   0.142  2.4604  1.2864  1.8120
 7119SOL     OW32818   2.593   2.712   4.376  0.0621  0.4598  0.0752
 7119SOL    HW132819   2.551   2.755   4.302  1.9434 -0.1154 -1.3156
 7119SOL    HW232820   2.534   2.723   4.450  0.2216 -0.5789  0.3503
 7120SOL     OW32821   0.672   2.658   8.106 -0.1774  0.1619  0.1954
 7120SOL    HW132822   0.637   2.570   8.095 -3.6970  1.4943  0.7363
 7120SOL    HW232823   0.716   2.648   8.191 -0.3059  1.2411  0.3908
 7121SOL     OW32824   4.396   1.698   4.523 -0.0145  0.4776 -0.7909
 7121SOL    HW132825   4.355   1.764   4.580 -0.0414 -0.3984  0.2159
 7121SOL    HW232826   4.465   1.754   4.490  0.5641  0.2840  0.0847
 7122SOL     OW32827   2.833   3.700  14.970  0.0289  0.1532  0.2229
 7122SOL    HW132828   2.914   3.653  14.991 -0.1717 -0.1563  0.2999
 7122SOL    HW232829   2.818   3.678  14.879 -0.5572 -2.1689  0.8865
 7123SOL     OW32830   2.512   1.073   6.201 -0.0551 -0.3175  0.3429
 7123SOL    HW132831   2.596   1.040   6.167 -2.1426 -2.6298 -2.6677
 7123SOL    HW232832   2.493   1.150   6.147 -3.8829 -0.5547  1.3135
 7124SOL     OW32833   1.722   0.973   1.426 -0.3751 -0.6423  0.0108
 7124SOL    HW132834   1.678   1.019   1.498 -1.8287 -1.2087 -0.5226
 7124SOL    HW232835   1.649   0.974   1.363 -0.3146  0.8905 -0.0394
 7125SOL     OW32836   2.239   0.933   5.328  0.4010 -0.0471  0.0045
 7125SOL    HW132837   2.263   0.940   5.235 -2.2091  3.2252 -0.4296
 7125SOL    HW232838   2.279   0.848   5.345  2.8380  1.1342  0.1890
 7126SOL     OW32839   1.833   1.629   8.360  0.0949 -0.5020 -0.1820
 7126SOL    HW132840   1.852   1.703   8.416  3.6907 -1.4356 -0.1683
 7126SOL    HW232841   1.920   1.607   8.326  0.0715  1.0756 -1.2714
 7127SOL     OW32842   0.340   1.288   8.290 -0.8688  0.8613 -0.0763
 7127SOL    HW132843   0.254   1.285   8.331 -0.0296 -1.2642  1.5095
 7127SOL    HW232844   0.309   1.321   8.205 -1.2208  1.2418  0.1971
 7128SOL     OW32845   0.136   3.291  15.708 -0.2147 -0.2778  0.0356
 7128SOL    HW132846   0.053   3.257  15.674 -1.0485  0.1762  1.6348
 7128SOL    HW232847   0.103   3.332  15.788  0.5492  0.1475  0.1332
 7129SOL     OW32848   3.326   2.690  13.538  0.0852  0.3308 -0.4519
 7129SOL    HW132849   3.367   2.741  13.469 -1.0642  1.4443 -0.3145
 7129SOL    HW232850   3.286   2.762  13.587  0.6936 -1.6894  3.0085
 7130SOL     OW32851   3.123   3.367   3.855 -0.0359 -0.2089  0.2743
 7130SOL    HW132852   3.175   3.331   3.783  0.0261 -1.5885  1.0145
 7130SOL    HW232853   3.199   3.396   3.904 -0.7303  2.3344 -0.1382
 7131SOL     OW32854   0.974   0.628  13.248 -0.3838 -0.6944  0.0942
 7131SOL    HW132855   0.940   0.655  13.333 -0.1945 -3.5654  1.0591
 7131SOL    HW232856   0.988   0.535  13.261 -0.8463 -0.8607 -0.6086
 7132SOL     OW32857   1.921   3.795  12.307  0.2612 -0.5995 -0.5239
 7132SOL    HW132858   1.883   3.775  12.221 -0.4665 -1.0663 -0.0932
 7132SOL    HW232859   1.982   3.724  12.327 -0.1193 -0.4032  1.3129
 7133SOL     OW32860   0.360   2.127   6.157 -0.1866 -0.8979  0.0311
 7133SOL    HW132861   0.356   2.119   6.252 -2.6632  1.4775  0.1220
 7133SOL    HW232862   0.456   2.128   6.154 -0.2339 -1.0572 -1.8277
 7134SOL     OW32863   0.227   2.023   3.098  0.0382 -0.1163 -0.6600
 7134SOL    HW132864   0.222   2.076   3.178 -0.9959  0.9359 -1.4219
 7134SOL    HW232865   0.280   2.075   3.037 -1.1462 -0.4689 -1.9923
 7135SOL     OW32866   4.133   2.811  13.110  0.3281 -0.3420  0.3047
 7135SOL    HW132867   4.056   2.845  13.064 -1.6851 -1.6399  2.6659
 7135SOL    HW232868   4.159   2.737  13.055 -1.0461 -1.9243  1.7797
 7136SOL     OW32869   0.490   1.097  14.908  0.0380  0.7855 -0.4622
 7136SOL    HW132870   0.447   1.025  14.955  1.0092 -0.1202 -0.9469
 7136SOL    HW232871   0.574   1.050  14.908  0.2120  1.0993 -0.0692
 7137SOL     OW32872   0.458   0.843  10.225 -0.5827 -0.0010 -0.3557
 7137SOL    HW132873   0.519   0.897  10.175 -1.3903 -0.5407 -1.9156
 7137SOL    HW232874   0.482   0.757  10.190 -1.8327 -1.0057  1.2355
 7138SOL     OW32875   3.192   4.184   4.142 -0.2723  0.2886  0.1197
 7138SOL    HW132876   3.123   4.118   4.144  1.3638 -1.5288 -2.5765
 7138SOL    HW232877   3.167   4.209   4.053  0.2112 -1.2625 -0.4458
 7139SOL     OW32878   3.906   3.429   4.314  0.9032  0.5171  0.1324
 7139SOL    HW132879   3.936   3.515   4.286  1.7429  0.2592  0.2243
 7139SOL    HW232880   3.962   3.421   4.391 -1.7546  2.2829  2.2485
 7140SOL     OW32881   2.876   4.384   9.453  0.1706 -0.1377  0.3308
 7140SOL    HW132882   2.792   4.425   9.435  0.7211  0.9271  0.2099
 7140SOL    HW232883   2.883   4.395   9.548  2.8212  0.7837  0.0127
 7141SOL     OW32884   2.812   0.523   2.739 -0.2256 -0.1731  0.2601
 7141SOL    HW132885   2.895   0.488   2.706 -1.9619 -0.3452 -3.8453
 7141SOL    HW232886   2.776   0.573   2.666  2.2371 -0.0054 -0.8308
 7142SOL     OW32887   4.607   1.898   6.194  0.1636 -0.4118  0.0409
 7142SOL    HW132888   4.658   1.904   6.113  0.9688  1.2319  0.6676
 7142SOL    HW232889   4.613   1.806   6.218  1.5226 -0.7420 -1.5430
 7143SOL     OW32890   3.899   4.468  15.686  0.2974 -0.0714 -0.0574
 7143SOL    HW132891   3.873   4.402  15.621  2.4940 -1.7052  0.7250
 7143SOL    HW232892   3.838   4.540  15.668  0.7276  0.3498  0.1499
 7144SOL     OW32893   2.559   2.704  12.584  0.7724  0.7141  0.1426
 7144SOL    HW132894   2.483   2.734  12.634 -0.1649 -0.7469 -0.4145
 7144SOL    HW232895   2.610   2.785  12.592  0.5909  0.6619  1.7692
 7145SOL     OW32896   1.668   3.822   3.110 -0.2716 -0.2097  0.5887
 7145SOL    HW132897   1.658   3.878   3.033  0.2416 -0.9855 -0.0422
 7145SOL    HW232898   1.608   3.748   3.100 -1.3588  1.1721 -3.0608
 7146SOL     OW32899   0.570   1.281  15.122  0.2504 -0.3832  0.2866
 7146SOL    HW132900   0.647   1.225  15.135 -0.7469 -2.0085 -0.7986
 7146SOL    HW232901   0.512   1.215  15.086  0.3434  1.3673 -3.0210
 7147SOL     OW32902   4.151   4.070   3.373  0.0833 -0.6459  0.4852
 7147SOL    HW132903   4.222   4.034   3.427 -0.2672 -1.8068  0.1848
 7147SOL    HW232904   4.102   3.988   3.364 -0.7242 -0.2084  0.7857
 7148SOL     OW32905   1.262   2.763   4.095 -0.0858  0.0836 -0.4346
 7148SOL    HW132906   1.237   2.695   4.031  0.4450 -0.0916 -0.4529
 7148SOL    HW232907   1.355   2.745   4.104  0.4839  2.2842 -2.1158
 7149SOL     OW32908   1.449   0.608  11.521  0.0143  0.3224 -0.4818
 7149SOL    HW132909   1.411   0.597  11.434 -0.9564 -0.1382  0.0082
 7149SOL    HW232910   1.483   0.698  11.517  1.1658 -0.0505  0.6381
 7150SOL     OW32911   4.271   2.193   7.037 -0.8093  0.2757 -0.3683
 7150SOL    HW132912   4.307   2.105   7.050 -1.2893 -0.1221 -1.7157
 7150SOL    HW232913   4.180   2.171   7.058  0.7520 -4.0989  1.8012
 7151SOL     OW32914   1.438   3.391  10.002 -0.0690  0.0166  0.2820
 7151SOL    HW132915   1.348   3.357   9.999 -0.9171  2.1063  1.8284
 7151SOL    HW232916   1.479   3.316   9.961  0.9736  0.4505  0.5186
 7152SOL     OW32917   4.254   0.218   3.064  0.0016  0.2867  0.8378
 7152SOL    HW132918   4.160   0.201   3.057 -0.4199  3.1305 -0.5327
 7152SOL    HW232919   4.289   0.238   2.977 -0.6506 -2.0225  0.0254
 7153SOL     OW32920   0.537   3.183   7.971 -0.0862 -0.7335  0.2875
 7153SOL    HW132921   0.526   3.251   7.905 -0.5190 -0.4093  0.6931
 7153SOL    HW232922   0.627   3.200   7.997  0.2664 -0.8862 -0.8636
 7154SOL     OW32923   3.101   2.673   8.561 -0.1945  0.0338 -0.1065
 7154SOL    HW132924   3.043   2.608   8.522 -1.0930  0.9642 -0.3189
 7154SOL    HW232925   3.026   2.721   8.596  0.6511  1.5102 -0.3326
 7155SOL     OW32926   2.580   3.810   3.386 -0.2998 -0.0822 -0.5588
 7155SOL    HW132927   2.580   3.739   3.322 -0.7061 -1.5156  1.0424
 7155SOL    HW232928   2.629   3.877   3.338  0.6964 -0.4942 -0.1112
 7156SOL     OW32929   1.968   2.028   8.122  0.1635  0.1106 -0.4534
 7156SOL    HW132930   1.882   2.030   8.165 -0.0314  2.6467 -0.9674
 7156SOL    HW232931   2.018   2.084   8.182  2.2862  1.5294 -3.5957
 7157SOL     OW32932   2.284   0.544  11.004 -0.1905  0.1859 -0.3938
 7157SOL    HW132933   2.375   0.513  11.002 -0.5878 -0.8731 -2.0585
 7157SOL    HW232934   2.275   0.520  11.096 -0.9454  0.8188 -0.3046
 7158SOL     OW32935   2.446   2.100   2.924  0.5999 -0.3207  0.3367
 7158SOL    HW132936   2.467   2.023   2.977 -1.8532 -0.5765  0.9332
 7158SOL    HW232937   2.424   2.170   2.986  2.8605  0.2428  0.5153
 7159SOL     OW32938   2.469   2.727   2.506  0.0099 -0.2892  0.7698
 7159SOL    HW132939   2.409   2.736   2.580  0.1456 -0.5750  0.9133
 7159SOL    HW232940   2.412   2.667   2.459  1.2414 -0.8777  0.0181
 7160SOL     OW32941   3.284   3.760   7.476  0.6454  0.1197  0.2328
 7160SOL    HW132942   3.339   3.830   7.441 -0.3613 -0.2594 -2.1394
 7160SOL    HW232943   3.223   3.811   7.528  0.7665  0.9851 -0.4809
 7161SOL     OW32944   0.096   0.730   2.720  0.3945  0.2137  0.7243
 7161SOL    HW132945   0.077   0.697   2.632  2.1438  3.5631 -0.9201
 7161SOL    HW232946   0.015   0.713   2.768  0.4837 -1.0293  0.4335
 7162SOL     OW32947   2.489   1.194   2.554 -0.6936  0.4997  0.4294
 7162SOL    HW132948   2.405   1.225   2.587 -2.5547 -1.2580 -2.6080
 7162SOL    HW232949   2.551   1.237   2.614 -1.2807 -1.4073  2.3970
 7163SOL     OW32950   2.620   0.544   3.212  0.2170 -0.0275 -0.6329
 7163SOL    HW132951   2.547   0.525   3.153  0.0258 -0.6356 -0.2126
 7163SOL    HW232952   2.605   0.477   3.279 -0.0016  0.4623 -0.1898
 7164SOL     OW32953   3.785   3.972   4.910 -0.5733 -0.7160 -0.0464
 7164SOL    HW132954   3.690   3.988   4.904 -0.7246 -1.5957  0.0315
 7164SOL    HW232955   3.799   3.960   5.004  0.6460 -0.6298 -0.2179
 7165SOL     OW32956   1.892   4.145   4.699  0.6096  0.1539  0.4715
 7165SOL    HW132957   1.973   4.182   4.664 -0.8008  1.9479 -0.8877
 7165SOL    HW232958   1.827   4.160   4.630  0.4980  1.0966  0.7786
 7166SOL     OW32959   0.056   3.670  17.457  0.2577  0.4361  0.2379
 7166SOL    HW132960   0.080   3.728  17.385  1.9745  0.2518  0.6695
 7166SOL    HW232961   0.003   3.603  17.414  0.7397 -0.8659  1.6945
 7167SOL     OW32962   1.482   3.114   1.670 -0.4209 -0.0473  0.4964
 7167SOL    HW132963   1.493   3.134   1.763 -2.5441  0.3119  0.6872
 7167SOL    HW232964   1.448   3.198   1.640 -2.0648  0.2743  3.1894
 7168SOL     OW32965   2.963   3.772  13.105 -0.0100  0.0192  0.4399
 7168SOL    HW132966   2.971   3.757  13.011  0.3278 -0.2528  0.5116
 7168SOL    HW232967   2.930   3.862  13.102  0.2710  0.1142  0.2049
 7169SOL     OW32968   0.150   1.993   1.836 -0.0261  0.1142  0.1256
 7169SOL    HW132969   0.142   1.988   1.931 -1.1708  0.1011  0.0202
 7169SOL    HW232970   0.228   2.048   1.844  0.2687 -0.5450  1.7008
 7170SOL     OW32971   0.284   0.547  12.466  0.5315  0.1596  0.5881
 7170SOL    HW132972   0.214   0.483  12.458 -0.4694  1.7196 -3.0389
 7170SOL    HW232973   0.364   0.495  12.464  0.1027 -0.4862  0.2469
 7171SOL     OW32974   2.931   0.494   5.636 -0.6254  0.2649  0.3292
 7171SOL    HW132975   2.982   0.513   5.558  0.8410  0.5313  1.3613
 7171SOL    HW232976   2.998   0.490   5.704 -1.1436 -0.3856  0.8055
 7172SOL     OW32977   4.015   0.115  16.664  0.3860 -0.1547 -0.1387
 7172SOL    HW132978   3.922   0.139  16.661  0.0719 -1.2598  0.8407
 7172SOL    HW232979   4.008   0.023  16.689 -2.2228 -0.5651 -2.3484
 7173SOL     OW32980   0.671   1.959   2.860  0.1357  0.0701 -0.2782
 7173SOL    HW132981   0.642   2.022   2.795 -1.4442  0.9722  1.3306
 7173SOL    HW232982   0.738   2.004   2.911 -1.3201  3.5621 -1.4959
 7174SOL     OW32983   4.348   4.047  14.179 -0.7014  0.4665  0.0220
 7174SOL    HW132984   4.369   4.140  14.171 -1.5642  0.6402 -0.1166
 7174SOL    HW232985   4.319   4.038  14.270  0.4580  2.3739  0.5852
 7175SOL     OW32986   1.436   4.093   8.014 -0.2298 -0.0680 -0.2032
 7175SOL    HW132987   1.418   4.181   7.980 -1.0142 -0.1090  0.1038
 7175SOL    HW232988   1.501   4.119   8.078 -1.5919  1.2036  0.6639
 7176SOL     OW32989   4.179   4.201   4.674 -0.7207 -0.5862  0.5835
 7176SOL    HW132990   4.187   4.144   4.751  2.8126  0.1557  0.7539
 7176SOL    HW232991   4.138   4.145   4.607  1.9541  0.0750 -1.6024
 7177SOL     OW32992   4.164   0.743   6.498  0.0089  0.8506 -0.1485
 7177SOL    HW132993   4.164   0.830   6.538  1.9612  0.5695  0.4666
 7177SOL    HW232994   4.108   0.756   6.421 -1.0230 -0.2229  0.4242
 7178SOL     OW32995   2.912   1.171   5.010  0.9670 -0.4466  0.6584
 7178SOL    HW132996   2.893   1.149   4.918 -2.8717 -0.5707  1.4796
 7178SOL    HW232997   3.005   1.148   5.013  1.5491  2.2841  2.5007
 7179SOL     OW32998   2.352   2.110   1.579 -0.0341 -1.0337 -0.2099
 7179SOL    HW132999   2.398   2.107   1.663 -2.6379  1.6679  1.2895
 7179SOL    HW233000   2.379   2.197   1.547  0.6204 -0.2186  2.5327
 7180SOL     OW33001   3.272   0.247  14.717  0.0257  0.3176  0.0054
 7180SOL    HW133002   3.291   0.154  14.734  0.4762  0.6552  1.3200
 7180SOL    HW233003   3.359   0.270  14.683  0.6128 -1.0047  0.6054
 7181SOL     OW33004   1.445   0.020  15.021  0.5471  0.1886 -0.2461
 7181SOL    HW133005   1.421   4.693  14.942 -3.0672 -1.1668  1.6956
 7181SOL    HW233006   1.512   0.083  14.995 -0.8440  1.0460 -1.7722
 7182SOL     OW33007   4.354   1.924   2.037  0.0885 -0.0464  0.5667
 7182SOL    HW133008   4.315   1.979   2.105 -1.7724 -1.0778  0.3211
 7182SOL    HW233009   4.430   1.894   2.086  0.0821 -0.8875  0.0693
 7183SOL     OW33010   4.054   2.071   4.484 -0.0653 -0.6109  0.3257
 7183SOL    HW133011   4.133   2.041   4.528  1.1008  1.7454 -0.1362
 7183SOL    HW233012   3.994   2.005   4.520 -0.2662  0.5804  2.1582
 7184SOL     OW33013   0.285   3.087  14.778 -0.1108 -0.1148  0.5107
 7184SOL    HW133014   0.270   2.999  14.812 -1.2703 -0.3458 -0.6172
 7184SOL    HW233015   0.374   3.064  14.752 -0.3861 -1.7391  1.0064
 7185SOL     OW33016   1.088   2.105   6.392 -0.3620  0.2040  0.2857
 7185SOL    HW133017   1.104   2.167   6.320 -0.3627 -0.7412 -0.5185
 7185SOL    HW233018   1.173   2.099   6.437 -0.2547 -0.6903 -0.0464
 7186SOL     OW33019   0.198   2.901   3.944  0.4120  0.1872  0.4913
 7186SOL    HW133020   0.245   2.819   3.931  0.5536  0.1370  1.3292
 7186SOL    HW233021   0.151   2.877   4.023 -0.7001 -0.8078 -0.4694
 7187SOL     OW33022   2.478   1.350   7.398  0.0686 -0.3883 -0.2873
 7187SOL    HW133023   2.477   1.282   7.466 -1.3880 -1.4115 -1.3318
 7187SOL    HW233024   2.565   1.329   7.364  1.3530  0.5049  2.4728
 7188SOL     OW33025   3.822   2.058   6.620  0.0247 -0.5529  0.1514
 7188SOL    HW133026   3.742   2.110   6.613  0.6605  0.5969  1.5230
 7188SOL    HW233027   3.848   2.067   6.711 -0.7292 -2.8705  0.5867
 7189SOL     OW33028   3.069   0.547   2.334 -0.7893 -0.3962 -0.5352
 7189SOL    HW133029   3.118   0.628   2.323  0.3017 -0.9130  0.4662
 7189SOL    HW233030   3.049   0.516   2.246  2.0667  1.1794 -1.7473
 7190SOL     OW33031   3.922   2.484  16.034 -0.3085 -0.1550 -0.2299
 7190SOL    HW133032   4.008   2.506  16.071 -0.1453  0.5888 -1.0516
 7190SOL    HW233033   3.903   2.562  15.982  3.0888 -0.3314 -1.7409
 7191SOL     OW33034   3.945   3.872   4.466  0.0978 -0.0283  0.4748
 7191SOL    HW133035   4.021   3.869   4.524  1.8957 -0.4385 -1.8593
 7191SOL    HW233036   3.889   3.934   4.511  0.4175  0.6927 -0.1267
 7192SOL     OW33037   4.423   2.446  12.157  0.0308 -0.0152 -0.4248
 7192SOL    HW133038   4.493   2.511  12.158 -1.6624  1.7960  1.3506
 7192SOL    HW233039   4.464   2.366  12.190 -0.1702 -0.3200 -0.9137
 7193SOL     OW33040   4.451   2.572   8.469 -0.2146  0.0055 -0.5285
 7193SOL    HW133041   4.421   2.662   8.456  1.1910  0.6624  0.7285
 7193SOL    HW233042   4.470   2.554   8.377  2.7612  3.3941 -0.5820
 7194SOL     OW33043   0.553   3.998  11.865 -0.1565  0.1960  0.1540
 7194SOL    HW133044   0.537   4.083  11.906 -2.0283  0.3356 -0.8993
 7194SOL    HW233045   0.513   4.003  11.778  0.3214 -0.3337 -0.0965
 7195SOL     OW33046   3.396   4.163   0.176 -0.3325 -0.7464  0.5460
 7195SOL    HW133047   3.359   4.099   0.114 -1.2929 -0.2574  0.6167
 7195SOL    HW233048   3.438   4.218   0.109 -1.2137 -2.1830 -1.2026
 7196SOL     OW33049   3.055   0.375  10.854 -0.6502 -0.1301 -0.4197
 7196SOL    HW133050   3.138   0.351  10.893  1.0910 -1.0898 -4.6530
 7196SOL    HW233051   3.095   0.373  10.767 -0.2629  0.8520 -0.2589
 7197SOL     OW33052   1.695   2.952   3.759 -0.3240 -0.0905 -0.4398
 7197SOL    HW133053   1.695   2.970   3.665 -1.4006  1.7154 -0.1050
 7197SOL    HW233054   1.610   2.988   3.784 -0.3660 -1.2777  1.1322
 7198SOL     OW33055   3.856   3.874   8.712  0.1266 -0.2543  0.4853
 7198SOL    HW133056   3.822   3.801   8.764  1.3989 -1.4551 -0.3435
 7198SOL    HW233057   3.839   3.839   8.624 -0.4785  1.1418  0.0557
 7199SOL     OW33058   0.900   3.801   3.049  0.3249  0.3347  0.1913
 7199SOL    HW133059   0.824   3.823   3.103 -0.0062 -1.1712  0.3255
 7199SOL    HW233060   0.865   3.770   2.965 -0.9354  1.0205  0.4624
 7200SOL     OW33061   0.849   2.730   9.362 -0.0098 -0.0193 -0.6241
 7200SOL    HW133062   0.767   2.772   9.388  1.4294  2.4748 -0.1249
 7200SOL    HW233063   0.839   2.644   9.401 -1.6838  0.0521 -0.8785
 7201SOL     OW33064   4.006   1.601   6.175  0.4281  0.0681  0.1278
 7201SOL    HW133065   3.945   1.672   6.196  2.0733  0.6149  3.1067
 7201SOL    HW233066   4.048   1.624   6.092 -0.4802 -0.0962 -0.3730
 7202SOL     OW33067   1.767   0.535   7.727 -0.2018  0.6689 -0.5823
 7202SOL    HW133068   1.686   0.568   7.766 -0.7249 -2.2416  0.7782
 7202SOL    HW233069   1.735   0.447   7.707  2.7375 -0.1759 -1.5798
 7203SOL     OW33070   3.246   3.651   8.022  0.1860  0.9072  0.0577
 7203SOL    HW133071   3.228   3.586   7.955  0.2081  0.5407  0.4021
 7203SOL    HW233072   3.308   3.600   8.075 -0.0488  1.2975  0.7097
 7204SOL     OW33073   0.079   0.948   7.307 -0.0186 -0.4266  0.4216
 7204SOL    HW133074   0.155   0.970   7.361  1.2568 -1.8309 -0.7960
 7204SOL    HW233075   0.018   0.904   7.366 -0.2562 -0.0492  0.4584
 7205SOL     OW33076   3.383   2.724   6.500  0.0328  0.1050 -0.2964
 7205SOL    HW133077   3.298   2.739   6.541  0.5025 -1.9880  1.4408
 7205SOL    HW233078   3.351   2.724   6.410 -1.7442  3.3658  0.3611
 7206SOL     OW33079   3.752   2.276   4.480  0.3910  0.1755  0.2165
 7206SOL    HW133080   3.716   2.219   4.548 -0.1750 -0.3150 -0.4948
 7206SOL    HW233081   3.713   2.234   4.403 -0.2832  1.6949 -0.2763
 7207SOL     OW33082   4.193   0.556   7.224 -0.2846  0.5611 -0.7071
 7207SOL    HW133083   4.212   0.640   7.181  2.4003  0.3652  0.0904
 7207SOL    HW233084   4.241   0.498   7.166 -1.7846 -0.8325 -0.5488
 7208SOL     OW33085   3.870   0.172   3.483  0.1003  0.2214 -0.2463
 7208SOL    HW133086   3.802   0.106   3.498 -0.7228  1.3376  0.8730
 7208SOL    HW233087   3.859   0.236   3.553  0.9397  1.1485 -0.9684
 7209SOL     OW33088   1.492   1.963  10.825  0.5545 -0.2191 -0.3475
 7209SOL    HW133089   1.526   1.886  10.873  1.6123  0.5638  0.1525
 7209SOL    HW233090   1.402   1.973  10.858  0.6048  1.7313 -0.8388
 7210SOL     OW33091   2.321   0.481   5.731 -0.2638  0.2092 -0.0841
 7210SOL    HW133092   2.300   0.391   5.758 -0.4110  0.7043  1.4332
 7210SOL    HW233093   2.335   0.531   5.811 -0.3380 -1.0947  0.7341
 7211SOL     OW33094   4.309   1.784   0.345 -0.1363 -0.0227  0.1445
 7211SOL    HW133095   4.355   1.740   0.274  1.6052  1.1770  0.5201
 7211SOL    HW233096   4.375   1.771   0.414  2.4616  3.5203 -1.7054
 7212SOL     OW33097   4.657   3.116   3.218 -0.0839 -0.9100 -0.0154
 7212SOL    HW133098   4.719   3.152   3.155  0.4792 -2.0441 -0.1275
 7212SOL    HW233099   4.690   3.151   3.301 -1.9956  2.0488 -0.5288
 7213SOL     OW33100   1.087   0.798   3.777 -0.3265  0.0087 -0.2537
 7213SOL    HW133101   1.167   0.787   3.829 -0.7157 -2.0182 -0.1093
 7213SOL    HW233102   1.019   0.755   3.827  0.1064  0.0958  0.4067
 7214SOL     OW33103   0.195   0.224   9.914  0.4075  0.5986  1.0089
 7214SOL    HW133104   0.243   0.266   9.985 -1.1630  0.3258  2.2429
 7214SOL    HW233105   0.239   0.265   9.840 -1.3751 -0.9365 -0.9327
 7215SOL     OW33106   0.640   3.792   8.141 -0.0075 -0.1173 -0.4160
 7215SOL    HW133107   0.601   3.815   8.225  2.3663  3.0173 -0.1928
 7215SOL    HW233108   0.556   3.761   8.107  1.0077 -1.1761 -1.9621
 7216SOL     OW33109   4.494   2.030  11.670 -0.3216  0.1937 -0.1376
 7216SOL    HW133110   4.526   1.985  11.748  0.2551 -2.1360 -1.7270
 7216SOL    HW233111   4.499   2.121  11.700 -1.7395  0.1573  0.2259
 7217SOL     OW33112   1.693   4.058   0.281  0.5967 -0.1839 -0.1238
 7217SOL    HW133113   1.624   3.995   0.303  1.5358 -0.8086  1.0458
 7217SOL    HW233114   1.675   4.128   0.344 -0.6095 -1.1702  0.6346
 7218SOL     OW33115   4.694   0.218   1.994  0.0335 -0.7065  0.0762
 7218SOL    HW133116   4.653   0.183   1.915 -0.7282 -1.2755  0.7184
 7218SOL    HW233117   0.052   0.165   2.001  0.3639  0.0361  1.9388
 7219SOL     OW33118   1.323   2.634   1.432 -0.4079 -0.8967  0.9219
 7219SOL    HW133119   1.235   2.611   1.462 -0.2623 -0.0786  1.9753
 7219SOL    HW233120   1.339   2.719   1.472  1.9580 -0.2491 -1.3868
 7220SOL     OW33121   0.221   0.217   8.271 -0.1724 -0.5305  0.0441
 7220SOL    HW133122   0.313   0.198   8.290 -0.1344  0.7531  1.1726
 7220SOL    HW233123   0.233   0.234   8.177 -1.4390  1.6158  0.2701
 7221SOL     OW33124   1.605   4.476   3.626  0.1807  0.2140 -0.1650
 7221SOL    HW133125   1.605   4.436   3.713  0.8198  3.9571  1.5669
 7221SOL    HW233126   1.530   4.433   3.587  0.7031 -1.2584  0.4461
 7222SOL     OW33127   4.354   1.397   4.360  0.5949 -0.0135 -0.0581
 7222SOL    HW133128   4.446   1.419   4.376 -0.2160  0.9801  3.1229
 7222SOL    HW233129   4.321   1.479   4.324 -0.2496  0.5410  2.0494
 7223SOL     OW33130   4.535   1.004   5.300  0.5672 -0.0033  0.2859
 7223SOL    HW133131   4.476   0.945   5.254 -0.9983  1.6585  0.1338
 7223SOL    HW233132   4.615   0.954   5.313  1.8734  2.1925  0.7854
 7224SOL     OW33133   1.364   2.381  13.407  0.2788 -0.2018 -0.3719
 7224SOL    HW133134   1.333   2.446  13.469  0.8965 -0.2478 -0.0131
 7224SOL    HW233135   1.289   2.376  13.348 -1.4361  0.2978  1.8071
 7225SOL     OW33136   1.574   1.210   2.571  0.0689  0.4484 -0.4246
 7225SOL    HW133137   1.563   1.133   2.516  3.3185 -1.3333  1.4112
 7225SOL    HW233138   1.506   1.194   2.636  1.9530 -2.8276  0.7069
 7226SOL     OW33139   4.550   1.329   8.574  0.4478  0.1672 -0.5626
 7226SOL    HW133140   4.492   1.268   8.620 -1.3904  1.1048 -1.6246
 7226SOL    HW233141   4.616   1.346   8.642 -1.1729  0.8999  0.8547
 7227SOL     OW33142   0.784   1.957   7.848 -0.6041 -0.2174  0.1841
 7227SOL    HW133143   0.829   1.874   7.833  1.7127  1.2008 -0.7154
 7227SOL    HW233144   0.749   1.979   7.762  2.7990  2.1988 -0.5991
 7228SOL     OW33145   0.551   2.760   6.889  0.0040 -0.4592  0.1694
 7228SOL    HW133146   0.510   2.822   6.830 -0.1772  0.0675  0.8474
 7228SOL    HW233147   0.589   2.699   6.826 -3.0797 -0.4806 -1.6375
 7229SOL     OW33148   1.178   0.326  15.529  0.4626 -0.0868  0.4457
 7229SOL    HW133149   1.095   0.327  15.482 -0.2343  0.2140  1.6721
 7229SOL    HW233150   1.184   0.242  15.575 -1.2956 -0.8656 -0.7532
 7230SOL     OW33151   3.531   3.463   5.182  0.0601  0.6688 -0.5533
 7230SOL    HW133152   3.557   3.377   5.214  0.2830  2.2080  3.3091
 7230SOL    HW233153   3.592   3.475   5.109  1.5301  0.2630  0.6308
 7231SOL     OW33154   0.934   2.847   9.111  0.0341 -0.0681  0.1212
 7231SOL    HW133155   0.887   2.828   9.193 -0.1229 -1.6181 -0.3229
 7231SOL    HW233156   0.953   2.759   9.078  0.2181 -0.6148  1.6542
 7232SOL     OW33157   0.707   3.848   2.270  0.2072 -0.0774 -0.2396
 7232SOL    HW133158   0.774   3.876   2.332 -0.1561  1.0535 -0.3602
 7232SOL    HW233159   0.724   3.894   2.188  0.7882 -3.5674 -2.0732
 7233SOL     OW33160   3.544   3.736  16.408  0.4494 -0.2282 -0.3557
 7233SOL    HW133161   3.461   3.692  16.391  0.7328 -0.7595 -0.3895
 7233SOL    HW233162   3.587   3.743  16.323  0.5856  2.1304 -0.0784
 7234SOL     OW33163   4.346   0.917   3.896 -0.4533  0.0636  0.5491
 7234SOL    HW133164   4.300   0.954   3.821 -3.1698 -1.2790  1.5429
 7234SOL    HW233165   4.439   0.936   3.884 -0.4680 -0.6418 -0.6797
 7235SOL     OW33166   4.263   0.268   0.461  0.0544 -0.0533  0.0050
 7235SOL    HW133167   4.205   0.277   0.385  0.6848  0.5433 -0.4083
 7235SOL    HW233168   4.304   0.355   0.463  1.4562 -0.6931 -1.0988
 7236SOL     OW33169   2.426   2.777   5.669 -0.0596 -0.5519 -0.8194
 7236SOL    HW133170   2.444   2.799   5.761 -0.5466 -1.0928 -0.6025
 7236SOL    HW233171   2.353   2.717   5.683 -1.2118  0.7652 -1.1831
 7237SOL     OW33172   3.305   3.875   3.998 -0.4815 -0.5912  0.2269
 7237SOL    HW133173   3.320   3.821   4.075  2.3302 -0.6884 -0.4085
 7237SOL    HW233174   3.211   3.891   4.010 -0.1231  0.4779  1.5485
 7238SOL     OW33175   0.619   2.475  15.444 -0.0927  0.1403  0.2332
 7238SOL    HW133176   0.703   2.431  15.445 -1.4121 -2.3782  2.2845
 7238SOL    HW233177   0.638   2.551  15.499  1.2431  1.4498 -2.0545
 7239SOL     OW33178   3.397   0.016   5.210  0.0789  0.3255  0.0682
 7239SOL    HW133179   3.308   0.028   5.244  1.1034  2.2046  2.0600
 7239SOL    HW233180   3.390   4.642   5.202  2.5356  0.0367  1.4008
 7240SOL     OW33181   3.692   0.841   8.181  0.7387 -0.1285 -0.0615
 7240SOL    HW133182   3.706   0.815   8.272 -2.9565 -0.5587  0.4107
 7240SOL    HW233183   3.637   0.917   8.196  0.0898 -1.2976  3.6245
 7241SOL     OW33184   2.929   3.518   9.337  0.1641  0.2447  0.0547
 7241SOL    HW133185   2.849   3.466   9.329 -0.4936  1.0026  1.8893
 7241SOL    HW233186   2.907   3.581   9.405 -0.8179 -0.4657  0.3905
 7242SOL     OW33187   2.406   4.258   4.785 -0.4129  0.1607 -0.2828
 7242SOL    HW133188   2.404   4.212   4.701  1.4498  0.2776 -0.3998
 7242SOL    HW233189   2.315   4.287   4.787  0.5864  3.3176 -0.5276
 7243SOL     OW33190   2.580   4.512  10.951 -0.1666 -0.2917 -0.2700
 7243SOL    HW133191   2.668   4.488  10.982 -0.4196  3.5375  3.4659
 7243SOL    HW233192   2.543   4.426  10.972 -1.5330  0.6804  1.2413
 7244SOL     OW33193   3.496   0.100  17.092 -0.0987  0.9920 -0.0713
 7244SOL    HW133194   3.418   0.045  17.088  0.0221  0.8618 -0.6343
 7244SOL    HW233195   3.484   0.120  17.185 -0.3574  1.1976 -0.1517
 7245SOL     OW33196   4.646   4.085   8.666 -0.0322 -0.2517 -0.1231
 7245SOL    HW133197   4.608   4.028   8.733 -2.8054  0.2492 -1.3110
 7245SOL    HW233198   4.713   4.024   8.634  1.5940  0.9678  0.8960
 7246SOL     OW33199   0.670   3.037  14.095 -0.4672  0.7106  0.1556
 7246SOL    HW133200   0.763   3.056  14.099  0.0129 -1.1864 -1.7508
 7246SOL    HW233201   0.631   3.124  14.086  0.3642  1.0004 -0.6100
 7247SOL     OW33202   0.014   1.360   6.469  0.1438 -0.3671  0.0694
 7247SOL    HW133203   0.057   1.427   6.522 -1.2897  0.6072 -0.0074
 7247SOL    HW233204   0.060   1.280   6.494 -0.5015 -0.8897 -0.3978
 7248SOL     OW33205   3.105   4.460   4.313  0.1275 -0.4276 -0.2993
 7248SOL    HW133206   3.070   4.396   4.252  0.7790  1.4052 -2.5900
 7248SOL    HW233207   3.074   4.422   4.395 -0.2102  1.6833  0.5660
 7249SOL     OW33208   4.597   0.691  10.213  0.0464  0.1436 -0.1386
 7249SOL    HW133209   4.592   0.758  10.281 -1.7769  0.4542 -0.5584
 7249SOL    HW233210   4.527   0.627  10.229  0.1891 -0.2361 -1.0082
 7250SOL     OW33211   1.398   0.684   3.340 -0.0223  0.2646 -0.2984
 7250SOL    HW133212   1.478   0.691   3.288  0.8362  0.0884  1.0026
 7250SOL    HW233213   1.431   0.667   3.429  1.9965 -0.6968 -1.2149
 7251SOL     OW33214   4.071   3.344   6.923  0.2037  0.2059  0.2687
 7251SOL    HW133215   4.087   3.423   6.871 -0.8419 -0.7287 -1.4513
 7251SOL    HW233216   4.103   3.382   7.005  2.2100  1.5018 -1.1343
 7252SOL     OW33217   0.715   0.203  15.961  0.3621 -0.3243  0.2043
 7252SOL    HW133218   0.761   0.270  16.012  0.8007  0.7883 -1.6608
 7252SOL    HW233219   0.678   0.253  15.888 -0.0104 -1.8203 -0.6189
 7253SOL     OW33220   1.083   0.655  10.424  0.0628 -0.4041  0.5606
 7253SOL    HW133221   1.034   0.734  10.446 -1.3333 -1.3034  0.6670
 7253SOL    HW233222   1.169   0.690  10.400 -0.0143  0.9228  2.1930
 7254SOL     OW33223   2.498   2.707  14.220  0.4289  0.1244 -0.0512
 7254SOL    HW133224   2.478   2.646  14.149 -0.3245  3.6531 -2.8969
 7254SOL    HW233225   2.523   2.789  14.178 -1.1016  0.8989  0.5334
 7255SOL     OW33226   4.328   3.444   6.752  0.1760  0.2611  0.3756
 7255SOL    HW133227   4.409   3.410   6.789 -0.2578  0.0552  1.1287
 7255SOL    HW233228   4.330   3.537   6.776 -1.8200 -0.4704  3.3923
 7256SOL     OW33229   0.182   3.594   3.046 -0.0366 -0.4152  0.0823
 7256SOL    HW133230   0.226   3.584   2.962  2.1762  1.0268  1.0739
 7256SOL    HW233231   0.261   3.619   3.095 -0.3168  0.0005  0.3232
 7257SOL     OW33232   0.454   2.732   7.674  0.2651 -0.4525  0.1573
 7257SOL    HW133233   0.368   2.692   7.678 -0.4904  0.7212 -3.8525
 7257SOL    HW233234   0.477   2.751   7.765 -0.8168  2.1006 -0.0845
 7258SOL     OW33235   3.772   1.233   4.138  0.6585 -0.8527 -0.0799
 7258SOL    HW133236   3.729   1.318   4.145  2.5564  0.3571 -3.1887
 7258SOL    HW233237   3.795   1.213   4.228 -0.8983  1.7100  0.8891
 7259SOL     OW33238   4.650   0.296   2.815  0.3334 -0.0314  0.0115
 7259SOL    HW133239   4.628   0.210   2.778  1.9934  0.1659 -1.4302
 7259SOL    HW233240   0.016   0.316   2.783 -1.0450  2.0225 -2.4062
 7260SOL     OW33241   3.784   2.904   9.592  0.3309 -0.0390 -0.2421
 7260SOL    HW133242   3.804   2.813   9.568 -0.8951 -0.3836  0.0212
 7260SOL    HW233243   3.783   2.941   9.504  1.4424 -0.3789 -0.3951
 7261SOL     OW33244   0.848   0.667   5.974 -0.3884  0.0244  0.0236
 7261SOL    HW133245   0.898   0.627   5.903 -2.9464  0.5508 -2.0554
 7261SOL    HW233246   0.796   0.591   5.999  1.4521 -1.0001  0.7506
 7262SOL     OW33247   1.308   4.107   6.387 -0.4475  0.9115  0.0390
 7262SOL    HW133248   1.233   4.121   6.330 -0.4921 -0.7662 -0.3133
 7262SOL    HW233249   1.298   4.018   6.420 -2.2054  1.7370  1.7265
 7263SOL     OW33250   1.091   4.217   6.872  0.1457  0.4092 -0.5002
 7263SOL    HW133251   1.177   4.218   6.912  0.1348  1.2244 -0.4833
 7263SOL    HW233252   1.101   4.245   6.781  2.5380 -1.2377 -0.7395
 7264SOL     OW33253   0.008   4.026   5.362 -0.7480  0.3495  0.3689
 7264SOL    HW133254   0.015   4.017   5.267 -1.0262 -2.1949  0.5863
 7264SOL    HW233255   4.720   3.932   5.379 -0.5780  0.7891  2.9746
 7265SOL     OW33256   1.192   2.185   7.917 -0.4151 -0.6376 -0.0737
 7265SOL    HW133257   1.231   2.231   7.842 -0.6385 -0.2758  0.0311
 7265SOL    HW233258   1.103   2.220   7.923 -0.9474 -2.0586  0.2862
 7266SOL     OW33259   0.409   0.384   9.708  0.0268 -0.3157 -0.4678
 7266SOL    HW133260   0.463   0.320   9.755  0.9053  0.5291 -0.3368
 7266SOL    HW233261   0.469   0.426   9.647  0.4641 -1.4078 -0.7779
 7267SOL     OW33262   0.960   2.063   0.936 -0.3354  0.4228 -0.2102
 7267SOL    HW133263   1.025   2.113   0.987  0.9086 -2.2134  0.8191
 7267SOL    HW233264   0.881   2.115   0.944 -1.2742 -0.9671 -0.5323
 7268SOL     OW33265   2.475   2.824   4.615  0.1283  0.3473  1.1831
 7268SOL    HW133266   2.388   2.801   4.648  0.3080 -0.3546  1.1772
 7268SOL    HW233267   2.498   2.891   4.679  0.7979 -0.1481  1.4613
 7269SOL     OW33268   0.876   4.237   5.584 -0.3460 -0.5524 -0.2568
 7269SOL    HW133269   0.848   4.293   5.513  0.5018  0.9284  0.5844
 7269SOL    HW233270   0.794   4.200   5.617 -1.1167  0.5740 -0.9218
 7270SOL     OW33271   3.874   4.547  16.498 -0.0595  0.5916 -0.3612
 7270SOL    HW133272   3.833   4.615  16.444  2.5949  1.2459 -1.5338
 7270SOL    HW233273   3.967   4.567  16.493  0.1171 -0.8359 -3.0012
 7271SOL     OW33274   2.334   3.224  11.696 -0.0915  1.0077 -0.3735
 7271SOL    HW133275   2.364   3.163  11.764  1.2382 -0.8629 -2.6326
 7271SOL    HW233276   2.318   3.171  11.617 -0.6759  1.2784 -0.4300
 7272SOL     OW33277   0.427   2.740   1.446  0.4231  1.1627  0.0601
 7272SOL    HW133278   0.462   2.790   1.373 -0.0607 -1.2999 -1.8420
 7272SOL    HW233279   0.506   2.693   1.471 -0.4124 -0.0573  0.4511
 7273SOL     OW33280   3.318   0.989   0.849 -0.1506 -0.5337 -0.0233
 7273SOL    HW133281   3.355   1.059   0.796 -1.4886  0.5870  0.5184
 7273SOL    HW233282   3.394   0.966   0.902  0.2204 -0.8018 -0.6690
 7274SOL     OW33283   1.184   2.002   0.317 -0.5110  0.0855 -0.4864
 7274SOL    HW133284   1.137   2.082   0.341  0.6346  0.2448  1.1951
 7274SOL    HW233285   1.112   1.942   0.332 -0.5488  0.5236  0.9969
 7275SOL     OW33286   3.396   0.028   8.296 -0.0246  0.0619 -0.4189
 7275SOL    HW133287   3.376   0.032   8.202  1.1738  1.4280 -0.6347
 7275SOL    HW233288   3.315   0.056   8.338  0.1456  1.1121 -0.7745
 7276SOL     OW33289   3.268   0.450   6.475 -0.0557  0.2878  0.0287
 7276SOL    HW133290   3.228   0.460   6.561 -0.2349  1.7613 -0.2289
 7276SOL    HW233291   3.205   0.384   6.448  0.4977 -0.2999  0.1662
 7277SOL     OW33292   2.939   0.412   8.512 -0.4359 -0.1229 -0.1828
 7277SOL    HW133293   2.848   0.436   8.530 -0.0554  1.4652 -0.4128
 7277SOL    HW233294   2.952   0.360   8.591 -0.7187 -0.3677 -0.2974
 7278SOL     OW33295   1.322   4.568  11.127 -0.1332 -0.3075  0.6834
 7278SOL    HW133296   1.330   4.500  11.060  2.9147  1.7630 -1.0641
 7278SOL    HW233297   1.366   4.522  11.199 -0.3977 -1.7360 -0.0712
 7279SOL     OW33298   0.257   2.923   2.800  0.9123 -0.3462 -0.2916
 7279SOL    HW133299   0.206   2.996   2.765  0.0134 -1.1707 -0.6790
 7279SOL    HW233300   0.188   2.877   2.848 -0.9814  1.6550 -1.1094
 7280SOL     OW33301   3.907   2.015   2.891 -0.0138  0.5742 -0.2963
 7280SOL    HW133302   3.821   2.012   2.933 -0.0845  2.0875 -0.3665
 7280SOL    HW233303   3.947   1.983   2.972 -0.4787 -1.3979 -0.8259
 7281SOL     OW33304   2.564   1.569   6.139  0.2783  0.2204 -0.0624
 7281SOL    HW133305   2.500   1.623   6.093  0.6781  1.6653  1.0501
 7281SOL    HW233306   2.639   1.594   6.086 -1.2988  1.2794 -1.8140
 7282SOL     OW33307   3.429   2.357   5.871 -0.2256  0.4575  0.3288
 7282SOL    HW133308   3.335   2.359   5.851  0.0774  0.6663 -1.0392
 7282SOL    HW233309   3.446   2.271   5.909  0.1914  0.1522 -0.5608
 7283SOL     OW33310   0.442   4.499   3.210 -0.0479  0.1078  0.1267
 7283SOL    HW133311   0.446   4.468   3.300 -1.6562 -1.0661 -0.1951
 7283SOL    HW233312   0.468   4.590   3.221  1.8970 -0.6885  2.1227
 7284SOL     OW33313   3.942   2.479   8.711  0.8729 -0.0959 -0.7013
 7284SOL    HW133314   4.013   2.426   8.746 -0.7715 -1.2389  0.8881
 7284SOL    HW233315   3.885   2.472   8.788 -3.2549 -1.4958 -3.8627
 7285SOL     OW33316   2.680   1.196   7.494  0.1399  0.1850  0.1800
 7285SOL    HW133317   2.661   1.114   7.540  2.6441  1.3803  3.2949
 7285SOL    HW233318   2.705   1.249   7.570  0.8527 -0.0405  0.0990
 7286SOL     OW33319   0.105   0.761   7.005 -0.0578 -0.3147  0.4006
 7286SOL    HW133320   0.071   0.824   6.942 -0.5185 -2.7746 -1.8179
 7286SOL    HW233321   0.196   0.787   7.011  0.5040 -2.8941  2.8951
 7287SOL     OW33322   3.588   0.852   4.506  0.0320  0.8524 -0.3934
 7287SOL    HW133323   3.673   0.875   4.543  1.5698 -4.1546 -0.7770
 7287SOL    HW233324   3.571   0.773   4.557 -0.2224  0.0202 -1.7515
 7288SOL     OW33325   1.165   3.502   6.796 -0.7763 -0.0418 -0.1039
 7288SOL    HW133326   1.109   3.565   6.842 -0.1446 -2.2931  3.8167
 7288SOL    HW233327   1.167   3.536   6.707  0.8762 -1.8290 -0.7501
 7289SOL     OW33328   0.839   4.714   5.678 -0.3004  0.1732 -0.3679
 7289SOL    HW133329   0.932   4.697   5.692 -0.3608 -0.3080 -0.5608
 7289SOL    HW233330   0.836   4.704   5.583 -0.0764 -0.6280 -0.2838
 7290SOL     OW33331   3.479   1.847   8.299 -0.1222  0.8390  0.5622
 7290SOL    HW133332   3.518   1.818   8.381  0.4062 -1.4327 -0.4663
 7290SOL    HW233333   3.428   1.771   8.271 -0.3045  1.0077  0.4402
 7291SOL     OW33334   0.973   2.959   7.448  0.2603  0.0155 -0.2502
 7291SOL    HW133335   0.890   2.950   7.495  1.0765  0.9139  1.3466
 7291SOL    HW233336   1.007   2.870   7.457 -0.0389  0.0025  0.7726
 7292SOL     OW33337   1.722   3.979  12.398  0.4612  0.0467 -0.4270
 7292SOL    HW133338   1.759   4.012  12.480  0.6153 -0.6160 -0.2267
 7292SOL    HW233339   1.779   3.907  12.371  0.4316  0.1991 -0.8943
 7293SOL     OW33340   1.225   2.371   2.900  0.3208 -0.4371  0.0794
 7293SOL    HW133341   1.188   2.421   2.827  0.5920 -0.3501 -0.0016
 7293SOL    HW233342   1.228   2.284   2.861 -0.1984 -1.2937  1.9635
 7294SOL     OW33343   1.245   1.952  13.594  0.1379 -0.3080 -0.5887
 7294SOL    HW133344   1.326   1.998  13.577  0.2801 -0.3559 -0.0314
 7294SOL    HW233345   1.270   1.887  13.659 -1.0561 -0.4374 -0.2621
 7295SOL     OW33346   0.582   2.452  12.264 -0.1806  0.6392 -0.4975
 7295SOL    HW133347   0.500   2.475  12.221  0.0383 -0.5187 -1.5225
 7295SOL    HW233348   0.580   2.368  12.219 -0.0126  0.7058 -0.6251
 7296SOL     OW33349   4.338   0.289   2.809  0.5622 -0.2207  0.3468
 7296SOL    HW133350   4.351   0.315   2.717  1.3730  0.8278  0.7545
 7296SOL    HW233351   4.322   0.196   2.799 -0.7176 -0.0441  0.7449
 7297SOL     OW33352   0.286   3.407   2.600  0.3303  0.2961  0.0683
 7297SOL    HW133353   0.369   3.361   2.591  0.6393  1.0856 -1.1916
 7297SOL    HW233354   0.260   3.437   2.512  3.2681  0.2166 -0.8358
 7298SOL     OW33355   0.676   2.868   3.998 -0.0006 -0.2176  0.2816
 7298SOL    HW133356   0.650   2.795   3.942  1.9713  1.7571 -3.1894
 7298SOL    HW233357   0.615   2.935   3.966 -1.6594 -1.6113  0.5338
 7299SOL     OW33358   4.664   0.830   8.007  0.0494 -0.2582 -0.0632
 7299SOL    HW133359   4.678   0.772   8.082  0.6355 -1.0935 -0.8193
 7299SOL    HW233360   4.629   0.915   8.033  1.9457  0.4728  0.0500
 7300SOL     OW33361   2.052   2.743  11.265 -0.2376 -0.2520 -0.9929
 7300SOL    HW133362   1.961   2.770  11.254 -0.3907 -0.1357  0.4933
 7300SOL    HW233363   2.054   2.657  11.224  2.3259  0.4118 -2.2563
 7301SOL     OW33364   2.970   2.847   2.109  0.7785 -0.2439 -0.0302
 7301SOL    HW133365   2.939   2.869   2.021  0.4464  1.6445  0.5657
 7301SOL    HW233366   2.947   2.925   2.158 -0.1503 -0.6969  0.2445
 7302SOL     OW33367   3.510   3.272   1.927  0.0085 -0.6548 -0.4343
 7302SOL    HW133368   3.445   3.221   1.975  0.2653  0.9659  1.6337
 7302SOL    HW233369   3.495   3.360   1.959 -0.5331 -2.6466  4.7642
 7303SOL     OW33370   1.734   3.415   8.920 -0.0416  0.3215  0.5381
 7303SOL    HW133371   1.650   3.435   8.879  0.3502  0.5943 -0.1288
 7303SOL    HW233372   1.751   3.326   8.888  0.1572 -0.0678  1.7502
 7304SOL     OW33373   2.102   3.281   8.429 -0.2542  0.7177  0.2200
 7304SOL    HW133374   2.197   3.286   8.438 -0.2565 -2.5947  2.0481
 7304SOL    HW233375   2.092   3.263   8.335 -1.9007  0.3112  0.4706
 7305SOL     OW33376   1.877   3.762   6.132  0.8019 -0.5432 -0.2372
 7305SOL    HW133377   1.907   3.839   6.086  0.2415  0.6713  1.4230
 7305SOL    HW233378   1.940   3.762   6.204 -0.8062 -1.0270  1.1775
 7306SOL     OW33379   0.619   0.494  15.996 -0.6764  0.5010 -0.5446
 7306SOL    HW133380   0.531   0.520  16.024  0.6664  4.0167  0.3445
 7306SOL    HW233381   0.617   0.526  15.905  0.7990  2.0489 -0.0181
 7307SOL     OW33382   2.493   0.529   6.664  0.5801  0.9910 -0.5683
 7307SOL    HW133383   2.436   0.536   6.588 -0.3388  0.4499  0.0723
 7307SOL    HW233384   2.455   0.588   6.729  0.3314 -0.9294  1.0276
 7308SOL     OW33385   3.431   4.467   6.370  0.3629 -0.1827 -0.4830
 7308SOL    HW133386   3.452   4.514   6.451 -0.0863 -1.1396  0.1923
 7308SOL    HW233387   3.473   4.381   6.378 -1.8760 -1.4627 -2.6771
 7309SOL     OW33388   1.197   3.405   4.951 -0.2425 -0.0069  0.3284
 7309SOL    HW133389   1.271   3.388   4.893 -0.0160  0.4815  0.4695
 7309SOL    HW233390   1.162   3.318   4.968  0.5429 -0.2835  0.5550
 7310SOL     OW33391   4.268   3.640   3.451 -0.2208 -0.4590 -0.4740
 7310SOL    HW133392   4.325   3.619   3.525  0.7677 -1.3806 -1.5019
 7310SOL    HW233393   4.315   3.616   3.371  0.6552  1.3684 -0.5228
 7311SOL     OW33394   1.310   0.470   3.773  0.8360 -0.0204  0.7636
 7311SOL    HW133395   1.264   0.422   3.842  1.8949 -1.7979  0.2380
 7311SOL    HW233396   1.362   0.518   3.837 -1.6070 -0.0655  2.8020
 7312SOL     OW33397   3.745   0.024  10.424 -0.3942 -0.3944 -0.4128
 7312SOL    HW133398   3.712   4.657  10.442 -0.3660 -0.5495 -1.1328
 7312SOL    HW233399   3.812   4.721  10.361  2.0076  0.9043  1.6152
 7313SOL     OW33400   2.045   4.639   3.097 -0.1316  0.1522 -0.0768
 7313SOL    HW133401   2.018   4.549   3.116 -0.6100  0.4450  0.6273
 7313SOL    HW233402   2.127   4.627   3.050 -1.2250 -0.9268 -1.6742
 7314SOL     OW33403   2.106   0.270  12.089  0.3275  0.2355 -0.5782
 7314SOL    HW133404   2.134   0.182  12.064 -0.4971  0.5452 -2.5342
 7314SOL    HW233405   2.010   0.262  12.095  0.5333 -0.6910  1.9364
 7315SOL     OW33406   4.308   1.580  10.057  0.0266 -0.6788  0.3764
 7315SOL    HW133407   4.289   1.496  10.098 -2.2735 -0.7046 -0.7476
 7315SOL    HW233408   4.397   1.598  10.086  0.2376 -0.2968 -0.5029
 7316SOL     OW33409   1.722   0.961   8.793  0.3980  0.1486 -0.0407
 7316SOL    HW133410   1.771   1.014   8.729 -1.2265  1.2015 -0.4118
 7316SOL    HW233411   1.726   1.014   8.872  0.3597 -0.8703  0.6381
 7317SOL     OW33412   3.988   2.751   0.082 -0.4233  0.2614 -0.2147
 7317SOL    HW133413   4.017   2.843   0.083  1.7520 -0.4210 -1.5423
 7317SOL    HW233414   3.895   2.763   0.062 -0.9059  1.0171  2.4356
 7318SOL     OW33415   1.336   0.376   9.203 -0.0035 -0.2017  0.3487
 7318SOL    HW133416   1.249   0.340   9.221  0.0951  0.2005  1.6273
 7318SOL    HW233417   1.326   0.462   9.243 -1.4252 -0.5167  0.6339
 7319SOL     OW33418   0.369   1.377  16.802 -0.1033  0.4295 -0.0963
 7319SOL    HW133419   0.327   1.443  16.747 -3.2538 -0.7610  0.8740
 7319SOL    HW233420   0.453   1.412  16.831  2.0481 -4.6322 -0.1710
 7320SOL     OW33421   1.113   4.520   2.326 -0.1233 -0.0679  0.8616
 7320SOL    HW133422   1.168   4.443   2.340  2.2564  1.1547 -1.8306
 7320SOL    HW233423   1.114   4.559   2.413 -2.1738  0.3244  0.7284
 7321SOL     OW33424   3.961   3.063   8.933  0.1086 -0.6299  0.0691
 7321SOL    HW133425   4.018   3.034   8.862  1.5154  0.7173  0.6402
 7321SOL    HW233426   3.978   3.157   8.933  1.5311 -0.8870 -0.6862
 7322SOL     OW33427   3.397   2.286   3.436 -0.7126  0.2744  0.2814
 7322SOL    HW133428   3.421   2.249   3.521  2.9505  1.1082 -0.3760
 7322SOL    HW233429   3.445   2.369   3.437  0.6211 -0.5240  2.3545
 7323SOL     OW33430   2.657   3.879   0.563 -0.1936 -0.2089 -0.2979
 7323SOL    HW133431   2.614   3.798   0.592  2.9893 -1.7211  0.1549
 7323SOL    HW233432   2.710   3.837   0.496  2.0165 -1.6790  2.3359
 7324SOL     OW33433   2.806   1.230  16.525  0.3094  0.2936  0.1413
 7324SOL    HW133434   2.754   1.152  16.545 -0.4291  0.6180 -0.5529
 7324SOL    HW233435   2.859   1.190  16.455  0.4373 -1.5463  1.2906
 7325SOL     OW33436   3.178   3.564   6.364 -0.0683 -0.6539  0.0635
 7325SOL    HW133437   3.235   3.534   6.293 -0.4395  0.9574 -0.8859
 7325SOL    HW233438   3.238   3.609   6.423  1.6310 -2.5532 -0.2287
 7326SOL     OW33439   4.178   4.653   8.348  0.2526 -0.7675 -0.4647
 7326SOL    HW133440   4.272   4.670   8.350 -0.4505  3.0112  0.6288
 7326SOL    HW233441   4.150   0.021   8.367  1.5961 -0.3083 -0.6415
 7327SOL     OW33442   4.150   1.828   2.459 -0.4381 -0.5019  0.3359
 7327SOL    HW133443   4.140   1.865   2.546  0.8551  0.2017  0.1934
 7327SOL    HW233444   4.090   1.882   2.408 -0.1713 -0.6724 -0.1615
 7328SOL     OW33445   3.399   3.993   7.413 -0.3132  0.1541 -0.1468
 7328SOL    HW133446   3.335   4.053   7.375 -2.3847 -1.5621  0.6035
 7328SOL    HW233447   3.425   4.046   7.488 -2.2563  0.0269  0.6227
 7329SOL     OW33448   3.840   2.015   5.891  0.3304  0.4638 -0.0601
 7329SOL    HW133449   3.767   1.965   5.927 -0.8652  1.7059 -0.7383
 7329SOL    HW233450   3.892   2.016   5.971 -1.1068  0.5893  0.8722
 7330SOL     OW33451   0.629   0.850  10.483  0.1685 -0.0493  0.1682
 7330SOL    HW133452   0.584   0.880  10.404  1.3372 -0.2832 -0.5872
 7330SOL    HW233453   0.553   0.801  10.517 -0.3724 -0.1324 -1.1448
 7331SOL     OW33454   1.341   3.279  13.639 -0.4279 -0.1312 -0.1879
 7331SOL    HW133455   1.298   3.209  13.688  1.3724  0.4272  2.2280
 7331SOL    HW233456   1.419   3.228  13.617  0.1817  0.0043  1.6860
 7332SOL     OW33457   0.368   3.991   2.156  0.2904  0.6279 -0.3373
 7332SOL    HW133458   0.288   3.968   2.110  0.4506 -1.4607  0.4076
 7332SOL    HW233459   0.430   3.955   2.092  1.4021  1.1941  0.4050
 7333SOL     OW33460   1.593   4.263   2.179 -0.2047  0.4141  0.0409
 7333SOL    HW133461   1.663   4.205   2.211 -1.8751 -2.7812 -2.0324
 7333SOL    HW233462   1.640   4.345   2.166 -1.0813  0.7683 -0.8562
 7334SOL     OW33463   1.301   1.573   3.919  0.6041  0.3969  0.1114
 7334SOL    HW133464   1.390   1.570   3.954  0.6690 -0.1228 -0.0989
 7334SOL    HW233465   1.304   1.495   3.864 -0.9910  0.3620  0.0645
 7335SOL     OW33466   1.281   4.091   9.752  0.2703  0.1305  1.1118
 7335SOL    HW133467   1.302   4.060   9.840 -3.6095  1.1010  2.3763
 7335SOL    HW233468   1.284   4.003   9.715 -0.6887  0.1265  1.0489
 7336SOL     OW33469   3.174   1.021  14.119 -0.0361  0.0725 -0.5941
 7336SOL    HW133470   3.230   0.945  14.102 -0.8756 -1.1185  1.9796
 7336SOL    HW233471   3.112   0.986  14.183 -1.9655 -0.1505 -2.5754
 7337SOL     OW33472   4.691   1.838  10.837  0.5694 -0.2297  0.2845
 7337SOL    HW133473   4.697   1.913  10.896  0.3865 -0.2245  0.2957
 7337SOL    HW233474   4.685   1.761  10.893 -0.3986 -0.2054  0.2198
 7338SOL     OW33475   3.224   2.839   7.694 -0.1486 -0.1037 -0.0559
 7338SOL    HW133476   3.243   2.928   7.724 -1.7492  0.6809 -1.3906
 7338SOL    HW233477   3.253   2.798   7.775 -2.0236 -1.8280 -0.2630
 7339SOL     OW33478   2.945   3.430   6.386 -0.1779  0.0928 -0.3914
 7339SOL    HW133479   2.905   3.489   6.322  1.4662  1.1115 -0.4957
 7339SOL    HW233480   3.022   3.485   6.402  0.2757 -0.6304 -0.0545
 7340SOL     OW33481   0.307   0.498  12.167 -0.4428  0.1577 -0.6892
 7340SOL    HW133482   0.214   0.502  12.144 -0.1691  1.1105 -1.6038
 7340SOL    HW233483   0.313   0.552  12.246  0.9805 -1.1990  0.1333
 7341SOL     OW33484   2.847   2.526   2.879 -0.1819 -0.2728 -0.3263
 7341SOL    HW133485   2.863   2.620   2.890  0.8148 -0.7975  2.6386
 7341SOL    HW233486   2.934   2.502   2.847  0.6804  1.5588  0.6415
 7342SOL     OW33487   0.052   1.050   8.982 -0.3669 -0.4567  0.1022
 7342SOL    HW133488   0.094   1.135   8.970 -1.1500 -0.0765  0.0976
 7342SOL    HW233489   0.135   1.001   8.985  0.2167  0.5223 -0.1278
 7343SOL     OW33490   2.126   3.870   4.262 -0.6207 -0.3005  0.1155
 7343SOL    HW133491   2.121   3.965   4.260 -0.0675 -0.2660  0.3659
 7343SOL    HW233492   2.173   3.856   4.344  0.9721  2.4324 -0.3394
 7344SOL     OW33493   1.544   4.252  13.940  0.5299  0.1252  0.6580
 7344SOL    HW133494   1.594   4.252  13.859  1.0018 -1.2573  0.9457
 7344SOL    HW233495   1.474   4.186  13.935  0.1685  0.6710 -1.3816
 7345SOL     OW33496   1.583   4.598   6.417  0.3247 -0.5795  0.3485
 7345SOL    HW133497   1.618   4.576   6.504 -0.4296 -1.2967  0.4674
 7345SOL    HW233498   1.643   4.552   6.358 -1.2728  0.9682 -2.4331
 7346SOL     OW33499   4.535   0.730   4.118 -0.0859  0.4989  0.7137
 7346SOL    HW133500   4.561   0.821   4.104  1.2481 -0.3784 -2.5235
 7346SOL    HW233501   4.616   0.684   4.141 -0.0629  0.9477  1.5265
 7347SOL     OW33502   3.421   0.405  15.288 -0.0943  0.2543 -0.4125
 7347SOL    HW133503   3.465   0.431  15.207  1.4482 -0.2295  0.2716
 7347SOL    HW233504   3.340   0.455  15.290 -0.3185 -0.1586  0.4478
 7348SOL     OW33505   1.869   1.726   2.251 -0.3018 -0.4865  0.4056
 7348SOL    HW133506   1.892   1.766   2.336 -0.1301 -0.1979  0.2226
 7348SOL    HW233507   1.949   1.722   2.200 -0.6806 -1.6645 -0.0825
 7349SOL     OW33508   4.298   4.329   8.489 -0.2355  0.1902  0.8594
 7349SOL    HW133509   4.288   4.263   8.557  1.0886 -1.2849 -0.3601
 7349SOL    HW233510   4.249   4.400   8.529 -2.1046 -2.6542  3.5792
 7350SOL     OW33511   1.777   0.711   9.626  0.2981 -0.6847  0.0434
 7350SOL    HW133512   1.716   0.703   9.553 -0.7520  0.2919  0.8106
 7350SOL    HW233513   1.762   0.630   9.676  0.3025 -0.8785 -0.2739
 7351SOL     OW33514   2.543   3.433   5.585  0.4837  0.0370 -0.5020
 7351SOL    HW133515   2.506   3.364   5.530  0.4820 -0.0806 -0.3551
 7351SOL    HW233516   2.460   3.480   5.581  0.3030 -0.2690 -0.3427
 7352SOL     OW33517   4.029   3.206   3.725  0.6345 -0.0549 -0.0894
 7352SOL    HW133518   4.114   3.176   3.694  0.7220  2.3626 -2.1566
 7352SOL    HW233519   4.043   3.297   3.701 -1.8800  0.2969 -0.2105
 7353SOL     OW33520   0.098   2.538   6.678  0.3594  0.3637 -0.3308
 7353SOL    HW133521   0.003   2.543   6.666  0.0472 -1.1653  1.5799
 7353SOL    HW233522   0.107   2.445   6.653 -1.3615  0.5509 -1.6563
 7354SOL     OW33523   1.864   3.615   2.337  0.0080  0.1967 -0.2644
 7354SOL    HW133524   1.919   3.647   2.265  1.4561  1.7634  1.5366
 7354SOL    HW233525   1.879   3.688   2.398  0.5553  1.2683 -1.6652
 7355SOL     OW33526   3.744   1.439  10.469 -0.1319  0.2056  0.6098
 7355SOL    HW133527   3.813   1.378  10.496 -0.4221 -0.7545 -0.7857
 7355SOL    HW233528   3.713   1.472  10.553  2.9601 -0.5907  2.0317
 7356SOL     OW33529   0.134   1.198   3.181 -0.0260  0.4159 -0.1357
 7356SOL    HW133530   0.094   1.185   3.267  0.5247 -1.2454 -0.1281
 7356SOL    HW233531   0.066   1.182   3.116 -2.1738  0.8036  2.0482
 7357SOL     OW33532   1.439   3.365   1.565 -0.5341  0.7148  0.6678
 7357SOL    HW133533   1.487   3.409   1.635  1.6093  0.2607 -0.5397
 7357SOL    HW233534   1.508   3.367   1.499 -1.2606  0.0921 -0.1055
 7358SOL     OW33535   4.606   3.393  10.313 -0.2663 -0.7416  0.3057
 7358SOL    HW133536   4.676   3.362  10.370  1.4416 -1.2106 -2.0272
 7358SOL    HW233537   4.574   3.308  10.281 -0.0239 -0.7940  0.2073
 7359SOL     OW33538   4.497   3.357   2.241  0.0574  0.3270  0.0919
 7359SOL    HW133539   4.415   3.372   2.194 -0.0917 -0.8847 -0.0500
 7359SOL    HW233540   4.491   3.267   2.272 -1.0640  0.1764 -0.5232
 7360SOL     OW33541   3.378   1.643   2.261  0.1715 -0.0361 -0.7898
 7360SOL    HW133542   3.326   1.610   2.335 -2.1240 -0.0276 -2.3891
 7360SOL    HW233543   3.343   1.591   2.189  3.0088  0.4892 -2.5571
 7361SOL     OW33544   3.626   2.128   1.032 -0.8518  0.1176  0.0534
 7361SOL    HW133545   3.553   2.170   1.078 -0.1001  0.0018  1.3532
 7361SOL    HW233546   3.643   2.168   0.947 -1.0786  0.6494  0.2591
 7362SOL     OW33547   3.599   0.748  10.777 -0.3258 -0.0254  0.9014
 7362SOL    HW133548   3.587   0.811  10.707 -0.2179 -0.3507  0.5919
 7362SOL    HW233549   3.672   0.696  10.744 -1.7167 -0.8176 -0.8699
 7363SOL     OW33550   1.589   4.581  12.945 -0.3742 -0.5872 -0.2187
 7363SOL    HW133551   1.613   4.515  13.010 -0.3972 -1.0256 -0.6514
 7363SOL    HW233552   1.555   4.646  13.006 -0.0442 -0.3522 -0.2859
 7364SOL     OW33553   0.633   4.392   3.964  0.1915 -0.3710 -0.2533
 7364SOL    HW133554   0.689   4.417   3.890  3.9703 -0.1883  2.6561
 7364SOL    HW233555   0.699   4.369   4.029  0.9241  0.8271 -0.5752
 7365SOL     OW33556   2.495   2.585   7.621 -0.3564 -0.1803  0.1478
 7365SOL    HW133557   2.509   2.668   7.574 -2.5633 -0.2557 -0.6673
 7365SOL    HW233558   2.573   2.596   7.674 -0.7752 -0.5757  0.8353
 7366SOL     OW33559   3.998   0.233   6.440  0.0404  0.4260  0.6263
 7366SOL    HW133560   4.004   0.322   6.474  0.1724 -0.1306  2.0274
 7366SOL    HW233561   4.080   0.193   6.469 -0.3510  0.1599  1.3480
 7367SOL     OW33562   1.693   0.162   1.114  0.0767 -0.0393  0.2302
 7367SOL    HW133563   1.623   0.207   1.066 -1.6356 -3.0037 -0.0538
 7367SOL    HW233564   1.651   0.153   1.200  0.1352 -2.0849  0.0501
 7368SOL     OW33565   0.966   2.202  10.499  0.3695  0.0725 -0.2530
 7368SOL    HW133566   0.906   2.233  10.431  0.8538  1.5172 -0.0123
 7368SOL    HW233567   1.049   2.231  10.461 -0.0557  2.2692  0.4473
 7369SOL     OW33568   4.032   4.685  11.596  0.0677  0.0250 -0.3450
 7369SOL    HW133569   4.125   4.664  11.595 -0.0098 -0.3188 -0.2107
 7369SOL    HW233570   4.019   4.709  11.504 -0.6809  0.2029 -0.2001
 7370SOL     OW33571   1.515   2.431   3.690 -0.2041  0.0880  0.4973
 7370SOL    HW133572   1.463   2.489   3.746 -1.6852  0.4101 -1.2139
 7370SOL    HW233573   1.590   2.488   3.675  0.1737  0.0071  2.1060
 7371SOL     OW33574   1.936   0.151   3.030 -0.5054 -0.1326  0.0044
 7371SOL    HW133575   1.990   0.221   3.068  0.4671 -0.0910 -1.4352
 7371SOL    HW233576   1.965   0.074   3.080 -1.6834 -1.1372 -0.8760
 7372SOL     OW33577   1.101   1.902   7.709  0.4583 -0.3197  0.0102
 7372SOL    HW133578   1.009   1.877   7.712 -0.5190  3.2440  0.4518
 7372SOL    HW233579   1.125   1.883   7.618 -0.7367  0.8389 -0.5433
 7373SOL     OW33580   0.262   1.276   6.276 -0.2106 -0.1142  0.5257
 7373SOL    HW133581   0.262   1.184   6.302 -0.3805 -0.3480 -0.3202
 7373SOL    HW233582   0.170   1.288   6.251 -0.0985  1.8115  0.9953
 7374SOL     OW33583   3.735   3.447   1.419  0.0011  0.5557  0.0197
 7374SOL    HW133584   3.699   3.509   1.355  1.4478 -2.3927 -3.6570
 7374SOL    HW233585   3.829   3.457   1.406  0.0103  0.0524 -0.2785
 7375SOL     OW33586   3.634   4.199   8.610  0.3707 -0.3359  0.1242
 7375SOL    HW133587   3.726   4.187   8.633  0.6637 -1.5077 -1.6522
 7375SOL    HW233588   3.610   4.285   8.645  0.5819 -0.5282  0.7448
 7376SOL     OW33589   4.288   3.988   6.636  0.2284  0.6847 -0.4607
 7376SOL    HW133590   4.308   3.898   6.662  0.7650  1.1605  0.7655
 7376SOL    HW233591   4.199   3.989   6.673 -0.8387 -1.2783 -2.9859
 7377SOL     OW33592   2.783   4.305   6.449  0.4778 -0.9131  0.5540
 7377SOL    HW133593   2.798   4.355   6.368  0.5703 -1.6953  0.0822
 7377SOL    HW233594   2.814   4.354   6.525 -1.4112 -0.6064  1.1117
 7378SOL     OW33595   4.327   4.087  11.512  0.4529 -0.4349 -0.3047
 7378SOL    HW133596   4.237   4.108  11.534 -0.2405 -0.7316 -2.9674
 7378SOL    HW233597   4.339   4.028  11.587  0.6604  1.7608  1.4145
 7379SOL     OW33598   0.712   3.442   4.688  0.0470  0.1631 -0.2619
 7379SOL    HW133599   0.791   3.455   4.636 -0.1356  2.6659  0.0920
 7379SOL    HW233600   0.718   3.351   4.716  2.0806  0.9227  1.7230
 7380SOL     OW33601   3.780   2.847   9.871 -0.6402  0.0366 -0.0339
 7380SOL    HW133602   3.760   2.865   9.779  0.5993  2.5336  0.1912
 7380SOL    HW233603   3.850   2.785   9.851  0.2274  0.7019  1.0041
 7381SOL     OW33604   0.133   4.305  15.392  0.2092  0.2719 -0.0355
 7381SOL    HW133605   0.226   4.313  15.375 -0.2422  1.4060 -1.9917
 7381SOL    HW233606   0.130   4.224  15.444 -0.8050  0.0603 -0.4187
 7382SOL     OW33607   2.354   3.565   9.298 -0.1616  0.2592 -0.0025
 7382SOL    HW133608   2.348   3.492   9.236 -2.5113  0.1424  0.3587
 7382SOL    HW233609   2.262   3.582   9.317 -0.1123  1.5444 -0.9210
 7383SOL     OW33610   1.548   1.743  12.519  0.0041  0.7973  0.4735
 7383SOL    HW133611   1.615   1.738  12.450 -0.7147 -2.6648  0.0456
 7383SOL    HW233612   1.507   1.830  12.520  0.9582  1.2595 -0.8259
 7384SOL     OW33613   4.588   2.086   0.410 -0.4403  0.4340  0.1398
 7384SOL    HW133614   4.505   2.044   0.434 -1.3472  2.0910 -0.0310
 7384SOL    HW233615   4.583   2.065   0.317 -0.2203  1.2054 -0.0491
 7385SOL     OW33616   3.638   2.705   4.412 -0.0148  0.6235 -0.1987
 7385SOL    HW133617   3.679   2.642   4.471 -1.3334  0.7337  0.8328
 7385SOL    HW233618   3.546   2.705   4.438  0.8701  0.0169  2.9456
 7386SOL     OW33619   0.816   2.154   7.336 -0.0895 -0.3825 -0.1651
 7386SOL    HW133620   0.879   2.161   7.264  1.2777  0.8550  1.1367
 7386SOL    HW233621   0.787   2.245   7.340  0.0030 -0.3492 -0.2397
 7387SOL     OW33622   3.733   1.707   9.552 -0.9163 -0.0673 -0.4604
 7387SOL    HW133623   3.761   1.724   9.642 -1.7967 -1.8036  0.1308
 7387SOL    HW233624   3.685   1.790   9.547 -0.7239  0.0712  0.0147
 7388SOL     OW33625   4.037   2.294   2.258 -0.2717  0.0275 -0.1267
 7388SOL    HW133626   3.971   2.272   2.323  0.5058 -0.2017  0.5778
 7388SOL    HW233627   4.004   2.371   2.211 -2.5088 -1.2599 -0.6614
 7389SOL     OW33628   2.311   2.708   6.554  0.8590 -0.4929 -0.5100
 7389SOL    HW133629   2.230   2.722   6.505 -0.3122 -0.8854  1.3044
 7389SOL    HW233630   2.336   2.617   6.534 -3.7279 -2.0028  0.5633
 7390SOL     OW33631   2.595   3.038   3.483  0.0381 -0.1826 -0.0554
 7390SOL    HW133632   2.679   3.084   3.490 -0.9063  1.7861 -1.4614
 7390SOL    HW233633   2.569   3.020   3.574 -0.0989  0.1038 -0.0377
 7391SOL     OW33634   2.398   4.196   3.482  0.6537 -0.0982 -0.3175
 7391SOL    HW133635   2.378   4.104   3.504 -1.5371 -0.1253 -2.4846
 7391SOL    HW233636   2.493   4.182   3.482  0.6245 -0.3253  1.1580
 7392SOL     OW33637   4.439   0.157  10.126  0.2669  0.3538 -0.4562
 7392SOL    HW133638   4.395   0.237  10.099 -0.1235  0.0382 -0.7434
 7392SOL    HW233639   4.506   0.143  10.059 -2.3645  1.1418 -3.2539
 7393SOL     OW33640   2.767   3.943   6.001 -0.4094  0.6228 -0.0717
 7393SOL    HW133641   2.741   3.894   6.079 -0.8734 -1.5474 -1.5786
 7393SOL    HW233642   2.837   3.995   6.042  2.2643 -2.4031 -0.8243
 7394SOL     OW33643   2.259   1.126   6.804 -0.0102 -0.2247  0.1469
 7394SOL    HW133644   2.273   1.137   6.710 -1.2930  2.8390  0.3174
 7394SOL    HW233645   2.171   1.089   6.802 -0.1598 -0.0778  3.0991
 7395SOL     OW33646   4.559   3.063   5.450 -0.2086 -0.3724 -0.4106
 7395SOL    HW133647   4.619   3.019   5.389 -0.3800 -5.5733  3.0837
 7395SOL    HW233648   4.504   2.988   5.471  0.7233 -1.0829 -0.4943
 7396SOL     OW33649   3.144   1.968   8.522 -0.1370 -0.3979  0.5869
 7396SOL    HW133650   3.096   2.043   8.486  1.0984 -0.4496 -1.1615
 7396SOL    HW233651   3.230   1.984   8.484 -1.1853  0.8229 -1.3273
 7397SOL     OW33652   2.096   2.092  10.343 -0.4953  0.2857  0.1495
 7397SOL    HW133653   2.163   2.160  10.334  0.8982 -0.7433  2.7934
 7397SOL    HW233654   2.130   2.021  10.290  0.9737  1.2319 -0.1754
 7398SOL     OW33655   0.176   1.278   0.827  0.4046  0.3588  0.1010
 7398SOL    HW133656   0.120   1.299   0.752 -0.5677 -0.4456  0.6155
 7398SOL    HW233657   0.117   1.231   0.885  2.0713 -0.3840  1.2142
 7399SOL     OW33658   2.868   3.292  10.205 -0.5112  0.0134  0.0305
 7399SOL    HW133659   2.836   3.349  10.135 -0.5945  2.1601  1.8060
 7399SOL    HW233660   2.851   3.344  10.284  2.3757 -0.7191  1.1152
 7400SOL     OW33661   1.996   0.562  13.309  0.2523  0.5747  0.2715
 7400SOL    HW133662   1.906   0.533  13.296  0.5570  0.2223 -1.0455
 7400SOL    HW233663   2.042   0.488  13.269  0.6304  0.2572  1.3033
 7401SOL     OW33664   0.374   3.073   3.648  0.2211  0.1564  0.3191
 7401SOL    HW133665   0.421   2.990   3.637  1.7723  1.2478 -1.1906
 7401SOL    HW233666   0.377   3.103   3.557  0.8464 -2.5772 -0.5631
 7402SOL     OW33667   2.072   3.640  12.689  0.3109  0.3165  0.2887
 7402SOL    HW133668   2.161   3.623  12.721 -0.3815  0.7192  2.4660
 7402SOL    HW233669   2.075   3.616  12.597 -2.3823  0.4090  0.1833
 7403SOL     OW33670   3.105   4.231   8.312  0.0861  0.8395  0.4959
 7403SOL    HW133671   3.023   4.230   8.362 -0.1310  0.6011  0.1359
 7403SOL    HW233672   3.121   4.137   8.307 -0.8991  0.6010  2.0377
 7404SOL     OW33673   1.514   0.728   2.491  0.5100  0.3302  0.0994
 7404SOL    HW133674   1.591   0.682   2.458  1.5277  0.5421  2.1608
 7404SOL    HW233675   1.507   0.675   2.570  2.9433  2.2903  1.6423
 7405SOL     OW33676   2.721   2.010  16.816  0.3530  0.0296 -0.1014
 7405SOL    HW133677   2.657   2.059  16.766  0.5248  2.3093  1.9016
 7405SOL    HW233678   2.737   2.076  16.883  2.2573  0.4565 -0.9624
 7406SOL     OW33679   3.639   0.600   7.392 -0.2752 -0.4618  0.4325
 7406SOL    HW133680   3.642   0.581   7.298 -1.9248  2.2213 -0.1997
 7406SOL    HW233681   3.725   0.636   7.411 -0.7998  1.6630 -1.1309
 7407SOL     OW33682   1.228   3.438   4.500  0.3243  0.0807  0.3487
 7407SOL    HW133683   1.251   3.355   4.541  0.9664  0.7230  1.2831
 7407SOL    HW233684   1.314   3.450   4.458 -0.0242 -0.6708 -0.5652
 7408SOL     OW33685   2.707   0.997  16.695 -0.0683 -0.1670  0.2413
 7408SOL    HW133686   2.734   1.005  16.787 -0.9632  0.0139  0.4912
 7408SOL    HW233687   2.776   0.941  16.660  0.7995  0.2647  1.2374
 7409SOL     OW33688   3.468   0.307  12.770 -0.1412  0.3108  0.0819
 7409SOL    HW133689   3.524   0.362  12.716  1.7485 -0.7532  0.9295
 7409SOL    HW233690   3.409   0.261  12.711 -2.4877  0.5398  2.2457
 7410SOL     OW33691   3.944   3.840   2.674 -0.0390 -0.1566  0.6502
 7410SOL    HW133692   4.017   3.822   2.734  0.4055  0.5633  0.3196
 7410SOL    HW233693   3.977   3.904   2.611 -2.2043 -0.4540 -0.7671
 7411SOL     OW33694   1.863   2.325   8.242 -0.3977 -0.5191  0.3122
 7411SOL    HW133695   1.795   2.378   8.200  1.0950  1.7827  0.8223
 7411SOL    HW233696   1.915   2.298   8.165 -0.0153  0.8208  0.1055
 7412SOL     OW33697   4.646   2.539   8.835 -0.1486  0.7482 -0.6253
 7412SOL    HW133698   4.587   2.615   8.829  1.6021  2.2130  0.5257
 7412SOL    HW233699   4.678   2.544   8.925 -0.0142 -0.3138 -0.6183
 7413SOL     OW33700   0.058   0.887   3.547  0.1906 -0.1982 -0.0765
 7413SOL    HW133701   0.073   0.800   3.511 -1.4582 -0.8090  0.7072
 7413SOL    HW233702   0.076   0.864   3.638 -2.4040  1.4267  0.8462
 7414SOL     OW33703   2.014   2.200   7.295 -0.4437 -0.0440 -0.0889
 7414SOL    HW133704   1.950   2.231   7.231  0.2124  2.7224  0.5690
 7414SOL    HW233705   2.095   2.215   7.247 -0.9964  0.9726 -0.7073
 7415SOL     OW33706   1.862   3.318  13.539 -0.6728  0.0373 -0.1622
 7415SOL    HW133707   1.788   3.354  13.489  0.0733  2.9181  0.7801
 7415SOL    HW233708   1.902   3.401  13.566 -0.6588  0.4251 -1.3495
 7416SOL     OW33709   3.476   1.275   6.354  0.4153  0.4056  0.0216
 7416SOL    HW133710   3.564   1.300   6.329  1.9202 -3.9992  0.9715
 7416SOL    HW233711   3.444   1.356   6.394  2.6467  1.5461 -0.5292
 7417SOL     OW33712   4.628   1.626   5.061 -0.0614 -0.4711 -0.0638
 7417SOL    HW133713   4.689   1.696   5.086  0.0315  0.2157 -2.2404
 7417SOL    HW233714   4.559   1.675   5.017  1.3693  1.9249  0.3447
 7418SOL     OW33715   1.279   3.823   7.615 -0.5484 -0.5528 -0.8135
 7418SOL    HW133716   1.293   3.734   7.584  0.7007 -0.9500  0.9010
 7418SOL    HW233717   1.224   3.814   7.692  0.1739  1.4618 -0.0595
 7419SOL     OW33718   1.458   3.183   8.864 -0.0537 -0.1803  0.5834
 7419SOL    HW133719   1.482   3.198   8.955  1.6399 -0.3545  0.1608
 7419SOL    HW233720   1.466   3.088   8.863  0.4379 -0.1678  2.8118
 7420SOL     OW33721   1.082   3.178   4.957 -0.2577 -0.2895 -0.2073
 7420SOL    HW133722   1.108   3.105   5.012 -0.8939 -2.4580 -2.7871
 7420SOL    HW233723   1.069   3.123   4.879  0.1423  2.0874 -1.9530
 7421SOL     OW33724   1.667   1.459  15.217  0.1316  0.3376 -0.1220
 7421SOL    HW133725   1.761   1.441  15.226  0.4258  2.3048  0.8978
 7421SOL    HW233726   1.617   1.403  15.276 -0.2791 -2.4672 -3.1896
 7422SOL     OW33727   3.091   1.211   1.516 -0.0698  0.1086 -0.3745
 7422SOL    HW133728   3.181   1.180   1.514 -0.7492 -1.9087 -0.8555
 7422SOL    HW233729   3.096   1.306   1.510  0.1839  0.0140 -1.7779
 7423SOL     OW33730   0.693   4.520   2.462  0.1664  0.0833  0.9448
 7423SOL    HW133731   0.651   4.568   2.390 -0.6807 -0.2974  1.1910
 7423SOL    HW233732   0.619   4.530   2.522 -1.2440  2.0174 -1.0663
 7424SOL     OW33733   0.749   3.943  15.569 -0.0847  0.6237  0.2202
 7424SOL    HW133734   0.779   3.979  15.485 -1.6896  1.9878  0.2222
 7424SOL    HW233735   0.719   3.861  15.529  1.0825  0.0872  0.4461
 7425SOL     OW33736   1.748   3.116   7.909  0.5741 -0.0696  0.1665
 7425SOL    HW133737   1.698   3.194   7.883  0.2054  0.0736  1.2946
 7425SOL    HW233738   1.693   3.066   7.969 -2.1004  1.9383 -0.6268
 7426SOL     OW33739   1.476   3.707   7.343 -0.2026  0.9470  0.1483
 7426SOL    HW133740   1.388   3.710   7.381 -0.1556  1.6411  0.2150
 7426SOL    HW233741   1.528   3.707   7.422 -1.3918 -4.3301  0.8955
 7427SOL     OW33742   3.806   4.414   1.410 -0.0407  0.1018  0.3132
 7427SOL    HW133743   3.753   4.462   1.347 -0.8788 -2.3614 -0.8238
 7427SOL    HW233744   3.809   4.325   1.376 -0.4138 -0.5631  2.0163
 7428SOL     OW33745   0.789   3.317   4.023 -0.4875 -0.3080 -0.3873
 7428SOL    HW133746   0.853   3.296   4.092 -1.1789 -1.9455 -0.2365
 7428SOL    HW233747   0.819   3.259   3.953 -0.1991  1.2751 -1.5823
 7429SOL     OW33748   1.953   1.664   6.184 -0.0136 -0.2032  0.3528
 7429SOL    HW133749   1.937   1.636   6.274 -0.1700  1.1504  0.7389
 7429SOL    HW233750   2.027   1.607   6.163 -0.2893 -0.8946  1.2418
 7430SOL     OW33751   3.996   3.631   8.419 -0.3351 -0.6508 -0.4300
 7430SOL    HW133752   3.957   3.716   8.399  1.6209  0.6570  1.2650
 7430SOL    HW233753   3.916   3.590   8.452 -0.7072  0.4644  0.0617
 7431SOL     OW33754   0.285   0.499   8.180 -0.4283 -0.4872 -0.1582
 7431SOL    HW133755   0.284   0.560   8.106  0.1137 -0.6595 -0.3032
 7431SOL    HW233756   0.324   0.419   8.144  1.4537  0.7014 -0.7253
 7432SOL     OW33757   3.934   2.660   6.195 -0.1026  0.2326 -0.6107
 7432SOL    HW133758   3.979   2.610   6.126  1.1798  0.5821 -0.0249
 7432SOL    HW233759   3.849   2.616   6.201 -0.9866  1.8227 -1.5448
 7433SOL     OW33760   3.046   4.398   6.150 -0.2019  0.7000 -0.0112
 7433SOL    HW133761   3.104   4.453   6.202  0.1329  2.4448 -2.2009
 7433SOL    HW233762   3.015   4.461   6.085 -0.0728  0.3163 -0.4460
 7434SOL     OW33763   4.412   1.777   4.033 -0.0857 -0.0084  0.5094
 7434SOL    HW133764   4.409   1.750   3.941 -0.2131  0.6340  0.3190
 7434SOL    HW233765   4.338   1.838   4.036 -1.1072 -1.2170  0.0500
 7435SOL     OW33766   1.500   1.728  13.609  0.0652 -0.5223  0.0981
 7435SOL    HW133767   1.429   1.695  13.664  0.7410 -1.5359  0.3623
 7435SOL    HW233768   1.551   1.772  13.677 -0.1897  0.3536 -0.2772
 7436SOL     OW33769   4.313   2.107  13.103 -0.6862  0.3514  0.7432
 7436SOL    HW133770   4.354   2.021  13.099  0.1697  0.8302 -0.7144
 7436SOL    HW233771   4.299   2.115  13.197 -0.7707  0.3107  0.7338
 7437SOL     OW33772   3.552   4.147   3.346  0.1921  0.3164  0.4120
 7437SOL    HW133773   3.480   4.085   3.357  0.5435 -0.1286  0.2335
 7437SOL    HW233774   3.614   4.115   3.412  1.6525  4.7758  1.2105
 7438SOL     OW33775   2.236   0.029  12.008 -0.1634  0.4428  0.4959
 7438SOL    HW133776   2.148   4.716  11.993  1.0685 -1.9121 -1.4478
 7438SOL    HW233777   2.272   4.701  12.082 -0.3600 -1.9172 -0.9613
 7439SOL     OW33778   3.038   0.390  13.049  0.4738 -0.4648  0.3308
 7439SOL    HW133779   2.951   0.430  13.046  0.8719  0.4812  1.6179
 7439SOL    HW233780   3.088   0.460  13.091 -0.1473  0.2235 -0.0745
 7440SOL     OW33781   4.598   0.145   3.138  0.3217  0.0377 -0.2410
 7440SOL    HW133782   4.513   0.184   3.116  0.6277  0.3278 -0.9104
 7440SOL    HW233783   4.581   0.057   3.105 -0.4027 -0.0421  0.3166
 7441SOL     OW33784   2.669   1.375   8.256  0.0803  0.2689  0.0947
 7441SOL    HW133785   2.626   1.304   8.304 -1.0078 -0.1847 -1.5778
 7441SOL    HW233786   2.760   1.352   8.274  0.1703  0.6016  0.0710
 7442SOL     OW33787   0.542   2.927   8.561  0.0093 -0.1217  0.0423
 7442SOL    HW133788   0.512   3.012   8.528 -0.2525 -1.0519 -2.0956
 7442SOL    HW233789   0.561   2.893   8.473 -1.5256  1.2393 -0.8141
 7443SOL     OW33790   2.797   2.241  16.176  0.4430 -0.0555  0.2892
 7443SOL    HW133791   2.739   2.237  16.252 -0.3964  0.4156 -0.3264
 7443SOL    HW233792   2.814   2.149  16.155  4.0806  1.4201 -3.2011
 7444SOL     OW33793   1.927   3.311  10.961 -0.3273 -0.2468  0.2355
 7444SOL    HW133794   1.935   3.388  10.905  0.7281 -1.7990 -1.7370
 7444SOL    HW233795   1.916   3.245  10.893  1.0504 -0.5572  0.3203
 7445SOL     OW33796   2.249   2.227   6.466 -0.0665 -0.1129  0.2571
 7445SOL    HW133797   2.154   2.215   6.465 -0.2058  0.9639 -0.6528
 7445SOL    HW233798   2.274   2.179   6.544 -1.5405 -1.6320 -0.2055
 7446SOL     OW33799   0.181   3.230   6.399  0.2520  0.0520  0.3456
 7446SOL    HW133800   0.186   3.161   6.465 -0.6380 -0.0432  0.3123
 7446SOL    HW233801   0.168   3.184   6.316 -1.7558 -0.2725  0.8506
 7447SOL     OW33802   0.599   2.146   5.208  0.1125 -0.2184 -0.1568
 7447SOL    HW133803   0.529   2.082   5.219  0.4001 -0.3477  0.8828
 7447SOL    HW233804   0.669   2.108   5.260  1.1394  0.9356 -0.6871
 7448SOL     OW33805   1.043   4.029   3.157 -0.3388  0.1761 -0.0017
 7448SOL    HW133806   1.019   3.942   3.124  0.0930  1.4934 -3.7438
 7448SOL    HW233807   0.961   4.077   3.143  1.4369  3.4086  0.9076
 7449SOL     OW33808   1.761   3.107   3.427  0.1889  0.3109  0.0043
 7449SOL    HW133809   1.802   3.158   3.357  0.8353 -0.7622 -0.4002
 7449SOL    HW233810   1.765   3.024   3.381  0.1431  0.0551  0.4604
 7450SOL     OW33811   2.011   2.311   3.054 -0.3805 -0.1610 -0.0861
 7450SOL    HW133812   1.947   2.380   3.071  0.0482 -0.3513  2.2838
 7450SOL    HW233813   1.960   2.231   3.067 -0.6918  0.1120  0.3738
 7451SOL     OW33814   0.247   4.715   7.015 -0.7404  0.2407 -0.7150
 7451SOL    HW133815   0.170   0.004   7.071  0.3277  0.3872  0.7217
 7451SOL    HW233816   0.254   4.620   7.005  1.2981  0.2586  0.6862
 7452SOL     OW33817   3.880   3.686   8.063 -0.2662 -0.0927  0.1270
 7452SOL    HW133818   3.889   3.781   8.069  2.2214 -0.4188  1.4880
 7452SOL    HW233819   3.800   3.679   8.115  1.0109  1.0913  2.2395
 7453SOL     OW33820   2.789   0.059   4.015 -0.4333  0.0297  0.3406
 7453SOL    HW133821   2.802   4.708   4.076 -0.1114 -0.1433  0.0699
 7453SOL    HW233822   2.766   0.122   4.082 -0.8956 -0.8315  0.9984
 7454SOL     OW33823   1.291   2.553   1.871  0.2415  0.3115 -0.0675
 7454SOL    HW133824   1.337   2.496   1.933  3.8445  1.3926 -1.7208
 7454SOL    HW233825   1.198   2.535   1.883  0.2909  1.0914  1.5250
 7455SOL     OW33826   1.893   0.879   5.623  0.3858  0.4761 -0.2440
 7455SOL    HW133827   1.975   0.883   5.575  0.2614  0.6804 -0.4366
 7455SOL    HW233828   1.901   0.792   5.664  1.6422  0.9523  0.5172
 7456SOL     OW33829   2.008   1.366   4.006 -0.1852 -0.1071 -0.3346
 7456SOL    HW133830   1.947   1.370   4.080  1.5862 -0.0342  1.1380
 7456SOL    HW233831   2.059   1.447   4.002 -0.7507  0.2501 -0.4242
 7457SOL     OW33832   3.596   3.513  11.943 -0.0908 -0.7029  0.9349
 7457SOL    HW133833   3.609   3.545  12.033  1.2126 -3.5610  1.7906
 7457SOL    HW233834   3.501   3.512  11.942 -0.0841  0.1148  0.1242
 7458SOL     OW33835   4.438   1.850   2.441  0.2614 -0.4187  0.2223
 7458SOL    HW133836   4.344   1.841   2.456  0.4688 -0.6448  1.3453
 7458SOL    HW233837   4.449   1.884   2.352  0.6447  0.8248  0.7475
 7459SOL     OW33838   0.692   0.769   8.776  0.2324  0.2766  0.2517
 7459SOL    HW133839   0.627   0.839   8.773  1.0748  1.0701  0.4941
 7459SOL    HW233840   0.642   0.698   8.815  2.8264 -1.8884 -0.3405
 7460SOL     OW33841   0.538   3.411  11.989 -0.1840 -0.2899 -0.4349
 7460SOL    HW133842   0.585   3.447  12.064 -0.2091  0.7754 -0.9309
 7460SOL    HW233843   0.461   3.468  11.982 -0.9196 -1.2059  0.1656
 7461SOL     OW33844   4.523   2.214  11.862 -0.1649 -0.0029 -0.6602
 7461SOL    HW133845   4.616   2.194  11.869 -0.1339  0.0118 -1.0341
 7461SOL    HW233846   4.530   2.307  11.839  0.1652  0.2376  0.4090
 7462SOL     OW33847   1.630   3.592   0.619 -0.2802  0.1938  0.4928
 7462SOL    HW133848   1.551   3.596   0.565  0.9724  1.2609 -1.2485
 7462SOL    HW233849   1.703   3.580   0.558 -0.2185 -0.4888  0.7036
 7463SOL     OW33850   4.228   4.643   9.433  0.7925 -0.0182  0.3397
 7463SOL    HW133851   4.257   4.552   9.434 -1.0006 -0.5887 -0.0311
 7463SOL    HW233852   4.293   4.690   9.380  0.4474 -1.3761 -1.2870
 7464SOL     OW33853   3.971   4.266   7.396 -0.5432 -0.2160  0.3575
 7464SOL    HW133854   3.955   4.267   7.491  1.8192  2.6282  0.7221
 7464SOL    HW233855   4.015   4.182   7.385 -0.4288 -0.2142  0.7662
 7465SOL     OW33856   2.658   2.661  13.192  0.2600 -0.1994 -0.1419
 7465SOL    HW133857   2.580   2.716  13.183  3.6054  4.6168  0.0368
 7465SOL    HW233858   2.616   2.575  13.185 -0.4967  0.2933 -1.6056
 7466SOL     OW33859   3.454   4.065   7.149  0.3998 -0.3080 -1.2360
 7466SOL    HW133860   3.453   4.030   7.239 -1.2597  3.8819  0.3327
 7466SOL    HW233861   3.382   4.014   7.112 -0.9355  2.8891 -2.9395
 7467SOL     OW33862   1.471   0.707  15.514  0.2320 -0.5942 -0.1493
 7467SOL    HW133863   1.429   0.645  15.572 -0.2247  0.0546  0.2182
 7467SOL    HW233864   1.426   0.681  15.434 -3.1990 -0.9953  1.9235
 7468SOL     OW33865   0.796   3.711   7.842 -0.2518 -0.3319  0.0018
 7468SOL    HW133866   0.749   3.701   7.759  1.7792  0.2927 -1.2213
 7468SOL    HW233867   0.764   3.795   7.874 -0.5629 -0.7044  0.6652
 7469SOL     OW33868   3.326   2.187   6.981 -0.2400 -0.4113  0.3558
 7469SOL    HW133869   3.342   2.183   7.076 -0.3693 -1.7227  0.3323
 7469SOL    HW233870   3.304   2.098   6.951 -2.2835  0.3727 -0.4638
 7470SOL     OW33871   2.526   2.788   8.163  0.2813 -0.2969  0.3761
 7470SOL    HW133872   2.492   2.857   8.220 -1.4532  1.1440 -2.4117
 7470SOL    HW233873   2.453   2.732   8.138  0.9704 -0.6847 -0.7840
 7471SOL     OW33874   1.745   2.411   4.502  0.7523 -0.0108  0.1146
 7471SOL    HW133875   1.840   2.402   4.502  0.3714 -4.1102  1.6894
 7471SOL    HW233876   1.710   2.330   4.541  1.7738  0.3646  1.8078
 7472SOL     OW33877   1.972   2.543  16.893  0.3935  0.0317 -0.1357
 7472SOL    HW133878   2.053   2.592  16.885  0.2591  0.6902  2.2894
 7472SOL    HW233879   1.916   2.567  16.819 -1.8249  0.4082  1.6442
 7473SOL     OW33880   1.773   2.833  10.450 -0.2484 -0.1292 -0.5405
 7473SOL    HW133881   1.817   2.789  10.376 -0.1965  0.4944 -0.8756
 7473SOL    HW233882   1.790   2.926  10.439 -0.7953  0.0667  0.2744
 7474SOL     OW33883   0.994   2.276   1.347 -0.2248  0.1323 -0.4334
 7474SOL    HW133884   0.932   2.204   1.354 -0.1811  0.1317 -0.0291
 7474SOL    HW233885   1.038   2.256   1.264 -1.7268  0.9661 -1.4303
 7475SOL     OW33886   2.655   2.328  15.957 -0.2965  0.1636  0.1182
 7475SOL    HW133887   2.675   2.320  16.050 -2.5741  0.7236  0.6443
 7475SOL    HW233888   2.636   2.236  15.939  1.0326 -0.1221  0.1124
 7476SOL     OW33889   1.656   0.172   4.911 -0.8307  0.6946  0.4358
 7476SOL    HW133890   1.685   0.158   5.002 -1.8597 -0.6123  0.5456
 7476SOL    HW233891   1.733   0.207   4.867  0.1834 -2.9530 -0.6449
 7477SOL     OW33892   2.001   2.237  12.402 -0.0139  0.3207  0.0749
 7477SOL    HW133893   1.934   2.244  12.470  0.0687 -0.4893  0.2451
 7477SOL    HW233894   2.040   2.323  12.413  1.1113 -0.1033 -0.5566
 7478SOL     OW33895   2.124   3.812   5.227  0.3982  0.2809 -0.3092
 7478SOL    HW133896   2.145   3.838   5.138  1.8615 -1.4462 -0.4581
 7478SOL    HW233897   2.141   3.892   5.277 -0.2493  0.5150 -0.4592
 7479SOL     OW33898   2.327   4.647   0.286 -0.1905 -0.3404  0.1808
 7479SOL    HW133899   2.417   4.681   0.286  0.0839 -1.0489  0.3515
 7479SOL    HW233900   2.283   4.699   0.220 -0.8248  0.0471  0.9072
 7480SOL     OW33901   4.136   3.540  16.341 -0.7231 -0.6013  0.6085
 7480SOL    HW133902   4.136   3.462  16.284 -1.6160  0.7861 -1.2894
 7480SOL    HW233903   4.042   3.549  16.350 -1.1734 -1.9295 -2.8905
 7481SOL     OW33904   1.786   3.333   0.219 -0.7208  0.1231 -0.5563
 7481SOL    HW133905   1.733   3.255   0.207 -2.3931  1.1856 -0.0149
 7481SOL    HW233906   1.841   3.322   0.141 -1.6503 -2.1163 -0.9052
 7482SOL     OW33907   2.496   4.593   6.522 -0.5268 -0.3649  0.2447
 7482SOL    HW133908   2.490   4.625   6.432  0.5039  0.3952  0.4454
 7482SOL    HW233909   2.580   4.633   6.546 -1.4759  0.2770  2.4289
 7483SOL     OW33910   3.278   1.907   5.663 -0.4744  0.0752  0.3860
 7483SOL    HW133911   3.261   1.997   5.692  2.2738  0.7422 -0.1264
 7483SOL    HW233912   3.197   1.895   5.614 -0.4564  0.0256  0.3690
 7484SOL     OW33913   4.478   4.599   2.032  0.8513  0.1830  0.3694
 7484SOL    HW133914   4.511   4.655   1.961  1.6149  0.9973  1.3743
 7484SOL    HW233915   4.565   4.589   2.071  2.5252 -1.6783 -3.8118
 7485SOL     OW33916   1.547   2.138  17.128  0.1261  0.2041  0.2989
 7485SOL    HW133917   1.579   2.170  17.044 -2.7467  2.6572  0.1204
 7485SOL    HW233918   1.574   2.205  17.191  0.2178  1.9458 -1.5794
 7486SOL     OW33919   1.864   1.189  11.413 -0.5069 -0.1676 -0.4959
 7486SOL    HW133920   1.828   1.186  11.502  1.5572 -1.6536  0.2990
 7486SOL    HW233921   1.784   1.193  11.360 -1.2706 -1.0540  0.5811
 7487SOL     OW33922   0.214   2.687  15.155 -0.4004  0.3335  0.1549
 7487SOL    HW133923   0.144   2.700  15.220 -0.3697 -0.3241  0.3224
 7487SOL    HW233924   0.229   2.593  15.158  3.3862  0.9434  0.6237
 7488SOL     OW33925   0.045   3.523  11.216  0.0357  0.0864 -0.3652
 7488SOL    HW133926   0.007   3.443  11.252 -0.7613 -0.3168 -2.0765
 7488SOL    HW233927   0.046   3.497  11.123 -0.9473  0.0717 -0.3746
 7489SOL     OW33928   4.692   3.248   9.772  0.1197  0.0592 -0.2546
 7489SOL    HW133929   4.661   3.158   9.783 -0.5010  0.6213  2.5103
 7489SOL    HW233930   4.613   3.267   9.721 -0.2687 -0.3290  0.2061
 7490SOL     OW33931   0.467   1.751   1.412  0.2190  0.0032 -0.2327
 7490SOL    HW133932   0.414   1.686   1.365 -1.6179  0.0934  1.7604
 7490SOL    HW233933   0.418   1.758   1.493 -0.2005  0.6069 -0.5421
 7491SOL     OW33934   0.793   4.641   4.861  0.2142  0.0570  0.2446
 7491SOL    HW133935   0.798   4.710   4.927  0.1440 -0.1584  0.4763
 7491SOL    HW233936   0.829   4.690   4.788 -0.9440  3.9967  2.3131
 7492SOL     OW33937   2.207   0.321   6.866 -1.0854 -0.6848  0.8059
 7492SOL    HW133938   2.125   0.347   6.823  0.2199 -1.4060 -2.0784
 7492SOL    HW233939   2.230   0.403   6.911  1.5934  0.1279 -2.0701
 7493SOL     OW33940   2.187   2.081   3.640 -0.0537 -0.4817 -0.0303
 7493SOL    HW133941   2.250   2.068   3.711  0.0178  0.9002  0.1632
 7493SOL    HW233942   2.155   1.992   3.626 -1.1895 -0.2179  0.9610
 7494SOL     OW33943   4.347   3.310  15.540  0.5336  0.1981 -0.1217
 7494SOL    HW133944   4.303   3.225  15.532  2.7564 -0.8092 -1.5851
 7494SOL    HW233945   4.438   3.281  15.545  0.5120  0.1725  0.1643
 7495SOL     OW33946   4.487   0.891   6.804  0.1147  0.1194 -0.2513
 7495SOL    HW133947   4.411   0.914   6.857 -0.2819 -0.3114 -0.6421
 7495SOL    HW233948   4.487   0.796   6.812  1.7038  0.1130 -0.1953
 7496SOL     OW33949   2.316   3.423   1.230 -0.3101  0.0134 -0.0257
 7496SOL    HW133950   2.268   3.495   1.272  1.1486  0.2701  1.2130
 7496SOL    HW233951   2.382   3.394   1.294  0.6614 -1.7841 -1.8326
 7497SOL     OW33952   2.957   1.844   0.348  0.1810 -0.1737  0.1300
 7497SOL    HW133953   2.917   1.802   0.425  0.1828 -1.9467 -0.8284
 7497SOL    HW233954   3.013   1.910   0.388  0.1183 -0.2678  0.3732
 7498SOL     OW33955   0.338   0.549   8.471 -0.4819 -0.0636 -0.2232
 7498SOL    HW133956   0.306   0.525   8.385 -0.1063  1.5666 -0.8167
 7498SOL    HW233957   0.267   0.542   8.534 -0.2263 -3.2685 -0.2792
 7499SOL     OW33958   3.150   1.387   1.193 -0.1290  0.0645 -0.2152
 7499SOL    HW133959   3.063   1.426   1.185 -0.0462  0.2947  0.0365
 7499SOL    HW233960   3.143   1.300   1.154  2.8491 -0.3583  0.1557
 7500SOL     OW33961   3.535   1.080   4.715  0.2001  0.2902  0.3060
 7500SOL    HW133962   3.627   1.086   4.743 -0.1912  0.1158  1.6400
 7500SOL    HW233963   3.542   1.073   4.620 -1.4873  0.2074  0.1886
 7501SOL     OW33964   2.725   0.054   9.882  0.2724 -0.7259  0.1071
 7501SOL    HW133965   2.667   0.005   9.823 -1.6061 -0.3186  1.5950
 7501SOL    HW233966   2.788   0.093   9.822 -0.4549 -2.9688 -2.1035
 7502SOL     OW33967   3.849   3.596  11.720 -0.3674 -0.3096 -0.0135
 7502SOL    HW133968   3.839   3.503  11.741  0.2350 -1.2555 -3.9705
 7502SOL    HW233969   3.762   3.614  11.755 -1.2065 -2.1632 -1.1402
 7503SOL     OW33970   4.665   0.279   8.915 -0.0234 -0.0712 -0.3879
 7503SOL    HW133971   4.693   0.306   8.828  1.5194 -0.8930 -0.1632
 7503SOL    HW233972   4.663   0.184   8.900  1.7037  0.1825 -2.2051
 7504SOL     OW33973   4.530   2.293   7.815  0.4773  0.3792  0.1098
 7504SOL    HW133974   4.592   2.308   7.886 -0.2414  2.6980  0.2335
 7504SOL    HW233975   4.481   2.229   7.867  1.6071  0.4065  1.2294
 7505SOL     OW33976   2.766   3.084  13.633  0.0325  0.4425 -0.4204
 7505SOL    HW133977   2.697   3.030  13.671 -0.2758  1.5525  0.6118
 7505SOL    HW233978   2.744   3.085  13.540  0.6860  1.4786 -0.5737
 7506SOL     OW33979   4.130   2.961   0.141  0.1528 -0.4035  0.6593
 7506SOL    HW133980   4.112   3.041   0.191 -1.3316 -1.7248  2.2257
 7506SOL    HW233981   4.132   2.890   0.205  1.6603 -1.9327 -1.0955
 7507SOL     OW33982   2.385   2.472   6.484  0.3748 -0.1895  0.2053
 7507SOL    HW133983   2.342   2.387   6.489  1.6103 -0.8028  0.3835
 7507SOL    HW233984   2.419   2.477   6.395 -0.0214 -0.5479  0.0330
 7508SOL     OW33985   0.135   3.974   5.625 -0.2394  0.3934 -0.1308
 7508SOL    HW133986   0.090   3.960   5.541 -0.0844  2.2544 -0.5385
 7508SOL    HW233987   0.223   3.938   5.612 -0.2409  0.9791 -1.7782
 7509SOL     OW33988   0.402   1.975   7.572 -0.1656  0.1987 -0.4310
 7509SOL    HW133989   0.413   1.898   7.516 -0.5843  1.4233 -2.1569
 7509SOL    HW233990   0.419   1.950   7.663  0.4634 -0.8083 -0.8191
 7510SOL     OW33991   4.610   1.635  14.377 -0.3216 -0.3281  0.4426
 7510SOL    HW133992   4.577   1.581  14.305  1.0145  0.3178 -0.6448
 7510SOL    HW233993   4.660   1.570  14.426 -1.2347 -2.1997 -1.0841
 7511SOL     OW33994   3.566   2.617   3.021  0.6581 -0.1309 -0.4282
 7511SOL    HW133995   3.497   2.553   3.038 -0.0393  0.7382  0.0590
 7511SOL    HW233996   3.598   2.600   2.932 -0.0268  2.1043 -1.1055
 7512SOL     OW33997   2.186   3.312  10.430 -0.7526 -0.0204 -0.1145
 7512SOL    HW133998   2.184   3.270  10.516 -0.2242  1.7425  0.7630
 7512SOL    HW233999   2.273   3.283  10.402 -0.3389  1.3591 -0.2578
 7513SOL     OW34000   2.558   3.701   4.722  0.0171 -0.2237  0.3834
 7513SOL    HW134001   2.584   3.618   4.681 -0.4978  0.5515 -1.5110
 7513SOL    HW234002   2.635   3.725   4.774 -0.6851  1.5686  0.5818
 7514SOL     OW34003   3.816   3.208   4.644  0.1816 -0.1379 -0.2165
 7514SOL    HW134004   3.740   3.261   4.668 -0.8228 -1.0915 -1.2749
 7514SOL    HW234005   3.797   3.131   4.698  2.1272 -1.2146 -1.0780
 7515SOL     OW34006   4.418   4.376   1.146  0.1881 -0.2599  0.8422
 7515SOL    HW134007   4.506   4.408   1.124 -0.6915  1.7990  0.4146
 7515SOL    HW234008   4.437   4.336   1.231 -1.1814 -2.3315  0.1935
 7516SOL     OW34009   2.903   4.049   3.550  0.4776  0.6247 -0.7864
 7516SOL    HW134010   2.986   4.077   3.511 -1.0952  2.6692 -2.5581
 7516SOL    HW234011   2.933   3.959   3.568 -1.1791  0.6443  2.1812
 7517SOL     OW34012   4.597   4.414   3.636  0.1551  0.3152  0.4775
 7517SOL    HW134013   4.646   4.397   3.717  0.4337 -1.4340 -0.0620
 7517SOL    HW234014   4.514   4.368   3.650 -1.1487  2.0219 -1.6571
 7518SOL     OW34015   0.503   3.597  10.767 -0.0144  0.1941 -0.8545
 7518SOL    HW134016   0.561   3.673  10.775  0.8220 -0.5530  0.2623
 7518SOL    HW234017   0.479   3.592  10.860 -3.2556  1.6150 -1.6178
 7519SOL     OW34018   1.127   0.342  12.439  0.2978  0.2124 -0.2165
 7519SOL    HW134019   1.079   0.299  12.510  0.1653  0.7022 -0.0058
 7519SOL    HW234020   1.217   0.347  12.472  0.2733  2.0725 -0.4384
 7520SOL     OW34021   4.297   3.655  16.145  0.0338  0.1722  0.0792
 7520SOL    HW134022   4.205   3.630  16.151 -1.0038  2.9068 -4.1824
 7520SOL    HW234023   4.330   3.575  16.186 -1.8808 -1.0480 -0.7293
 7521SOL     OW34024   4.372   0.358  12.020  0.2120 -0.6050  0.7043
 7521SOL    HW134025   4.343   0.337  11.932 -0.0564  0.8191  0.4436
 7521SOL    HW234026   4.320   0.298  12.073 -0.3264 -1.3041 -0.6428
 7522SOL     OW34027   1.097   2.086   2.764 -0.1791  0.0235 -0.4491
 7522SOL    HW134028   1.190   2.104   2.779 -0.1208 -0.0737 -0.7032
 7522SOL    HW234029   1.094   2.111   2.672 -0.1724 -2.0286 -0.9984
 7523SOL     OW34030   3.907   3.110   2.387 -0.1292 -0.3711  0.1743
 7523SOL    HW134031   3.959   3.109   2.467  1.0669 -0.3876 -0.6096
 7523SOL    HW234032   3.949   3.189   2.352  0.3623 -0.8035 -0.2017
 7524SOL     OW34033   1.437   0.951   5.346 -1.2864  0.6887  0.3790
 7524SOL    HW134034   1.401   1.037   5.328 -0.5014  1.0655  0.5847
 7524SOL    HW234035   1.530   0.950   5.323 -2.0898 -0.2836 -2.8253
 7525SOL     OW34036   2.539   3.250   6.709 -0.1763  0.0196  0.1114
 7525SOL    HW134037   2.609   3.303   6.671  1.3729 -1.4992  0.8842
 7525SOL    HW234038   2.574   3.162   6.698  0.0121 -0.2445  2.8636
 7526SOL     OW34039   2.395   2.876   5.910 -0.5457  0.0734 -0.1952
 7526SOL    HW134040   2.471   2.890   5.967  0.1803  0.6914 -1.3175
 7526SOL    HW234041   2.349   2.960   5.913 -0.4787  0.0836  0.5408
 7527SOL     OW34042   0.751   0.937   5.127 -0.3732  0.0933 -0.4989
 7527SOL    HW134043   0.696   0.881   5.072 -0.9376 -1.0327  1.2161
 7527SOL    HW234044   0.700   1.016   5.105  0.3407  0.9908  1.0481
 7528SOL     OW34045   4.468   2.925  10.804 -0.4588  0.0218  0.0632
 7528SOL    HW134046   4.468   2.923  10.709 -1.1755  1.2234  0.0460
 7528SOL    HW234047   4.388   2.977  10.809  0.8521  1.9197  0.8887
 7529SOL     OW34048   2.334   4.435   2.652  0.3413  0.2410  0.1308
 7529SOL    HW134049   2.407   4.394   2.607  0.6791 -0.0237  0.9296
 7529SOL    HW234050   2.293   4.488   2.583  1.1556  1.7956  0.8456
 7530SOL     OW34051   2.955   4.710  17.105  0.0766  0.1071  0.0903
 7530SOL    HW134052   2.922   0.026  17.186  1.4125 -0.6954  0.9949
 7530SOL    HW234053   2.982   0.066  17.056  3.2731 -0.6196  0.7280
 7531SOL     OW34054   0.183   1.486   2.320  0.3086 -0.1753 -0.6168
 7531SOL    HW134055   0.154   1.570   2.285 -0.9573 -0.7836 -1.0076
 7531SOL    HW234056   0.156   1.500   2.411  1.4568 -1.7724 -0.0303
 7532SOL     OW34057   3.510   1.104   4.086 -0.5985  0.3330 -0.3246
 7532SOL    HW134058   3.507   1.194   4.052 -1.4369  0.5388  0.2889
 7532SOL    HW234059   3.595   1.061   4.080 -0.3538  0.9015 -0.9043
 7533SOL     OW34060   2.084   3.669   8.800  0.2564 -0.4558 -0.1615
 7533SOL    HW134061   2.057   3.615   8.725  1.1014  0.0617 -0.8342
 7533SOL    HW234062   2.007   3.667   8.857  1.8082 -0.1869  1.9085
 7534SOL     OW34063   2.190   2.262   9.123  0.6436  0.8172 -0.1762
 7534SOL    HW134064   2.153   2.285   9.038  0.1711 -1.5742 -0.5970
 7534SOL    HW234065   2.199   2.168   9.109  1.9432  0.8675  0.3169
 7535SOL     OW34066   2.662   1.627  14.892  0.1040 -0.0525  0.2487
 7535SOL    HW134067   2.623   1.540  14.889  0.3248 -0.1720  0.7776
 7535SOL    HW234068   2.576   1.666  14.906  1.0123  1.4217  1.7505
 7536SOL     OW34069   2.894   3.914   9.325  0.6949  0.1493  0.1278
 7536SOL    HW134070   2.935   4.000   9.327  0.3302  0.3524 -1.0560
 7536SOL    HW234071   2.906   3.888   9.416  0.5235  0.0182  0.1120
 7537SOL     OW34072   1.929   2.820   4.203  0.5353  0.4717  0.2594
 7537SOL    HW134073   1.922   2.900   4.151 -0.7522  0.5235  0.5278
 7537SOL    HW234074   1.904   2.760   4.134 -0.5230 -0.1792  1.2093
 7538SOL     OW34075   4.089   0.599   9.438 -0.2241 -0.1153 -0.4591
 7538SOL    HW134076   4.052   0.523   9.483 -1.0029  1.4977  1.6427
 7538SOL    HW234077   4.153   0.550   9.388  0.4816 -0.4306  0.7441
 7539SOL     OW34078   2.874   0.656  13.525  0.0531  0.4225 -0.7513
 7539SOL    HW134079   2.812   0.583  13.519  0.5794 -0.1201  0.5612
 7539SOL    HW234080   2.869   0.699  13.439 -0.6959 -0.7434 -1.2965
 7540SOL     OW34081   3.436   0.846   7.010 -0.0792  0.1199  0.1115
 7540SOL    HW134082   3.377   0.922   7.006 -1.9994 -1.3179  1.3835
 7540SOL    HW234083   3.519   0.893   6.999  0.4366 -0.4870  1.4228
 7541SOL     OW34084   0.804   4.582   8.499 -0.3736 -0.0238  0.4875
 7541SOL    HW134085   0.774   4.661   8.543 -1.1885 -0.1262  0.1074
 7541SOL    HW234086   0.747   4.582   8.423 -0.7008  0.7474  0.7369
 7542SOL     OW34087   3.322   0.594  13.575 -0.2820 -0.2700 -0.3354
 7542SOL    HW134088   3.324   0.667  13.514  0.2618 -1.6983 -2.0133
 7542SOL    HW234089   3.407   0.586  13.618  0.1260  1.0371 -0.8988
 7543SOL     OW34090   2.735   0.928  12.258  0.4594 -0.2473 -0.1327
 7543SOL    HW134091   2.649   0.970  12.252 -0.5383 -2.0849  0.9711
 7543SOL    HW234092   2.788   1.000  12.291 -1.0232  1.6814 -1.9701
 7544SOL     OW34093   0.949   2.081   4.264 -0.2954 -0.0208  0.8206
 7544SOL    HW134094   0.935   1.995   4.304 -1.7616 -0.1654 -0.0145
 7544SOL    HW234095   0.959   2.139   4.340 -0.7014  1.0045  0.0859
 7545SOL     OW34096   2.962   2.004  17.331  0.2744 -0.0234  0.3054
 7545SOL    HW134097   2.927   1.952  17.403  0.8065 -2.8901 -1.4861
 7545SOL    HW234098   3.020   1.944  17.283  0.0584 -0.5170  0.6572
 7546SOL     OW34099   3.281   1.425   1.792  0.3353  0.2887 -0.2448
 7546SOL    HW134100   3.227   1.394   1.720 -1.2175  0.8346  0.6611
 7546SOL    HW234101   3.365   1.418   1.748  0.4649  0.2911  0.0023
 7547SOL     OW34102   3.048   4.012   0.027  0.1320  0.5095  0.2370
 7547SOL    HW134103   3.027   4.084  17.656  1.9532  1.0078  0.2065
 7547SOL    HW234104   3.143   4.005   0.018 -0.0117  2.1224 -2.4348
 7548SOL     OW34105   4.559   1.745   2.754 -0.0260  0.2145  0.3965
 7548SOL    HW134106   4.548   1.763   2.847  1.1727 -2.0009  0.9726
 7548SOL    HW234107   4.593   1.832   2.731  0.5175 -0.6160 -1.9368
 7549SOL     OW34108   4.063   1.545  11.830  0.3269 -0.2768  0.2845
 7549SOL    HW134109   4.088   1.468  11.881 -1.7620 -1.3185 -0.2578
 7549SOL    HW234110   4.077   1.620  11.888  0.7777 -0.8101  0.8682
 7550SOL     OW34111   2.428   0.557   1.863  0.1645 -0.1024 -0.1447
 7550SOL    HW134112   2.402   0.640   1.902  1.0976  1.1894 -2.2675
 7550SOL    HW234113   2.435   0.587   1.773  2.6651  1.5143  0.5900
 7551SOL     OW34114   2.912   0.009   5.532 -0.1220 -0.4666  0.1443
 7551SOL    HW134115   2.853   0.022   5.607  0.2337 -0.6535  0.4590
 7551SOL    HW234116   2.988   4.683   5.567  1.7763  1.1169 -1.8915
 7552SOL     OW34117   0.671   1.989  13.893 -0.2234 -1.2358 -0.0204
 7552SOL    HW134118   0.735   1.995  13.821 -0.5611  0.4890 -0.1908
 7552SOL    HW234119   0.645   1.897  13.890  0.3247 -1.3670 -0.7732
 7553SOL     OW34120   2.001   4.689  16.401  0.3786  0.1551  0.4125
 7553SOL    HW134121   2.080   4.681  16.347 -1.0222  1.4949 -1.8198
 7553SOL    HW234122   1.985   0.061  16.391 -3.9639 -0.6709 -0.3757
 7554SOL     OW34123   3.026   1.151   6.988 -0.4637  0.3423 -0.2448
 7554SOL    HW134124   3.029   1.239   7.026  4.4529  0.3619 -0.7020
 7554SOL    HW234125   3.075   1.096   7.049 -0.3480  0.7322  0.0177
 7555SOL     OW34126   3.104   4.240   7.604  0.4141 -0.1305 -0.5003
 7555SOL    HW134127   3.137   4.316   7.557  0.2437  0.0495 -0.3278
 7555SOL    HW234128   3.153   4.247   7.687 -3.0354  0.2647  1.4928
 7556SOL     OW34129   3.305   2.864   3.171  0.1256  0.0446 -0.0422
 7556SOL    HW134130   3.232   2.919   3.199  0.0392 -0.5528  0.9077
 7556SOL    HW234131   3.326   2.904   3.086  1.4790 -1.4858 -0.4176
 7557SOL     OW34132   4.126   0.955   4.085 -0.6707 -0.3651  0.3300
 7557SOL    HW134133   4.185   0.973   4.158 -1.9865  2.3584  0.7223
 7557SOL    HW234134   4.188   0.918   4.022 -0.4481 -0.1103  0.4015
 7558SOL     OW34135   2.294   2.858   4.223  0.6661 -0.3478 -0.1934
 7558SOL    HW134136   2.386   2.867   4.195  0.9991  0.0267  1.0184
 7558SOL    HW234137   2.266   2.949   4.214  0.3277 -0.4291  0.0916
 7559SOL     OW34138   3.768   2.446   9.398 -0.1589 -0.8773 -0.2861
 7559SOL    HW134139   3.815   2.486   9.325  0.0681 -0.8784 -0.1394
 7559SOL    HW234140   3.769   2.362   9.352 -2.4632  0.1116 -2.1608
 7560SOL     OW34141   0.590   3.133   0.312  0.6746 -0.8430  0.1485
 7560SOL    HW134142   0.659   3.109   0.374  0.2298 -2.0721  0.1651
 7560SOL    HW234143   0.513   3.110   0.363 -0.8420  1.0112 -1.3465
 7561SOL     OW34144   3.432   2.967  13.089  0.1604 -0.0300  0.3227
 7561SOL    HW134145   3.382   2.910  13.148 -0.5448 -1.9807 -2.1649
 7561SOL    HW234146   3.433   2.922  13.005 -0.4386 -0.1773  0.3927
 7562SOL     OW34147   2.279   2.182   8.726  0.2276 -0.4621 -0.1167
 7562SOL    HW134148   2.245   2.139   8.804  0.1804 -0.6199 -0.2236
 7562SOL    HW234149   2.234   2.134   8.656  1.4785 -0.6786 -0.7753
 7563SOL     OW34150   4.531   0.090   6.517 -0.0330 -0.1881  0.0037
 7563SOL    HW134151   4.524   0.098   6.422  4.2209 -1.3713 -0.3789
 7563SOL    HW234152   4.624   0.109   6.529  0.1120  0.4114 -2.0715
 7564SOL     OW34153   1.609   1.375   4.703 -0.4273 -0.8036 -0.5268
 7564SOL    HW134154   1.610   1.341   4.792  3.7635  2.6691  0.7557
 7564SOL    HW234155   1.537   1.437   4.710  1.0047  0.7938  0.1452
 7565SOL     OW34156   0.589   3.300   3.709 -0.0910 -0.1406 -0.3341
 7565SOL    HW134157   0.618   3.209   3.699 -0.7355 -0.3812  0.0488
 7565SOL    HW234158   0.545   3.314   3.625 -1.9869 -1.0826  0.5126
 7566SOL     OW34159   2.142   3.070   2.741 -0.1571  0.1126  0.4093
 7566SOL    HW134160   2.232   3.102   2.754  0.0447 -0.5009  0.5631
 7566SOL    HW234161   2.110   3.126   2.671  2.2812  1.3535  0.2642
 7567SOL     OW34162   3.605   0.627   1.788  0.4403 -0.2987  0.4769
 7567SOL    HW134163   3.546   0.584   1.725 -0.2197  0.7683  0.3764
 7567SOL    HW234164   3.584   0.719   1.773 -0.2579 -0.7283 -1.1418
 7568SOL     OW34165   3.784   2.168   1.909  0.1123  0.0989 -0.1192
 7568SOL    HW134166   3.854   2.103   1.916  0.2879  0.3426  0.3750
 7568SOL    HW234167   3.819   2.237   1.854 -1.3717  1.7855  1.0463
 7569SOL     OW34168   4.300   3.894   7.590 -0.2339  0.0525 -0.2704
 7569SOL    HW134169   4.216   3.927   7.622 -0.2528 -0.3721  0.1286
 7569SOL    HW234170   4.315   3.849   7.673 -0.5810 -1.0954 -0.8285
 7570SOL     OW34171   2.762   0.144  11.312 -0.1743 -0.4498 -0.1403
 7570SOL    HW134172   2.719   0.190  11.384 -0.3328 -2.1847  0.8820
 7570SOL    HW234173   2.699   0.072  11.302 -1.5504  0.7626 -0.1587
 7571SOL     OW34174   0.437   1.291  14.253  0.0307 -0.0409 -0.2842
 7571SOL    HW134175   0.380   1.246  14.190 -2.7741  0.7217  1.7189
 7571SOL    HW234176   0.474   1.221  14.307 -0.5938  1.2566  1.8031
 7572SOL     OW34177   0.756   0.405   9.799  0.3921  0.4733 -0.2861
 7572SOL    HW134178   0.772   0.334   9.862 -0.4287 -0.8221 -1.5461
 7572SOL    HW234179   0.769   0.476   9.862 -0.5180  1.2997 -1.0429
 7573SOL     OW34180   1.083   4.596   2.601 -0.1887  0.9669  0.2735
 7573SOL    HW134181   1.061   4.530   2.667  1.8727  1.0046  0.9997
 7573SOL    HW234182   1.065   4.682   2.640  1.5739  2.2943 -1.8764
 7574SOL     OW34183   4.244   0.984  14.648 -0.2300 -0.1022  0.0515
 7574SOL    HW134184   4.317   0.932  14.682  0.3372  0.0332 -0.9705
 7574SOL    HW234185   4.170   0.961  14.704 -0.7434  3.5155  0.8609
 7575SOL     OW34186   1.511   4.001   7.705  0.6151 -0.4477  0.1756
 7575SOL    HW134187   1.429   3.961   7.675  1.9488 -1.5626 -1.9742
 7575SOL    HW234188   1.489   4.028   7.794  0.6075 -2.5056  0.7964
 7576SOL     OW34189   2.495   2.324   4.333 -0.0437 -0.3426 -0.3914
 7576SOL    HW134190   2.442   2.365   4.401 -0.0950  0.2124 -0.7615
 7576SOL    HW234191   2.451   2.239   4.323  0.2385 -0.5654  0.3200
 7577SOL     OW34192   0.960   3.334  10.143 -0.3942  0.1943  0.4023
 7577SOL    HW134193   1.018   3.309  10.072 -0.2298  1.1224  0.2169
 7577SOL    HW234194   1.018   3.363  10.214 -0.8820  0.4901  0.6803
 7578SOL     OW34195   1.974   1.194   2.573 -0.0444  0.0217 -0.1106
 7578SOL    HW134196   1.980   1.212   2.479  0.0918 -0.8988 -0.2781
 7578SOL    HW234197   1.936   1.107   2.561  1.5001 -0.4150 -1.8926
 7579SOL     OW34198   1.913   4.134   3.964  0.1423 -0.0654 -0.0608
 7579SOL    HW134199   1.899   4.202   3.899 -3.7165 -0.1407  0.6859
 7579SOL    HW234200   1.826   4.126   4.003 -0.4926 -0.3397 -1.5606
 7580SOL     OW34201   2.267   4.456   7.782  0.0914  0.2915 -0.1998
 7580SOL    HW134202   2.221   4.393   7.726 -2.2020  1.8644 -0.1113
 7580SOL    HW234203   2.341   4.404   7.812  1.6255  2.1840 -0.6855
 7581SOL     OW34204   2.858   2.981  10.263 -0.4626  0.4351  0.1782
 7581SOL    HW134205   2.849   3.051  10.199 -0.3892  1.8426  1.7079
 7581SOL    HW234206   2.823   3.001  10.350 -1.3197 -2.1050  0.4134
 7582SOL     OW34207   4.112   0.264   9.735 -0.1049 -0.1250  0.3752
 7582SOL    HW134208   4.067   0.311   9.665  0.8000 -0.4213 -0.4232
 7582SOL    HW234209   4.196   0.250   9.689  0.0604  0.5436  0.4774
 7583SOL     OW34210   2.055   4.519   8.633 -0.5018 -0.4290  0.0452
 7583SOL    HW134211   1.994   4.534   8.705  0.2051 -3.6541  1.3097
 7583SOL    HW234212   2.068   4.606   8.594  0.1794 -1.7068 -2.6404
 7584SOL     OW34213   1.011   3.331  14.289 -0.3169  0.2557 -0.5978
 7584SOL    HW134214   0.938   3.281  14.325  0.8926 -0.8312  0.3486
 7584SOL    HW234215   0.971   3.383  14.220  0.5344  1.1529 -0.4154
 7585SOL     OW34216   1.728   4.547   4.951  0.1806 -0.1648 -0.8650
 7585SOL    HW134217   1.797   4.599   4.909  3.2756 -2.8035  0.9527
 7585SOL    HW234218   1.696   4.491   4.879 -0.4969 -2.4171  1.1851
 7586SOL     OW34219   2.232   3.378   1.660 -0.2171 -0.1761  0.3649
 7586SOL    HW134220   2.141   3.400   1.639  0.3702  2.7752  0.9099
 7586SOL    HW234221   2.254   3.312   1.594  3.7974 -0.9186  2.4233
 7587SOL     OW34222   1.006   3.828  10.680  0.0974 -0.5208  0.8092
 7587SOL    HW134223   0.974   3.914  10.650  0.3125 -0.7032  0.0622
 7587SOL    HW234224   0.950   3.826  10.757 -2.8563 -1.2659 -1.3649
 7588SOL     OW34225   1.562   2.685   4.642  1.1875 -0.2016  0.6411
 7588SOL    HW134226   1.628   2.736   4.690  1.0430  1.1274 -0.5533
 7588SOL    HW234227   1.498   2.754   4.626 -1.0875 -1.6510  3.4583
 7589SOL     OW34228   4.291   4.079   4.327  0.7139 -0.2769 -0.1173
 7589SOL    HW134229   4.297   4.163   4.372 -1.4236 -1.2359  1.9354
 7589SOL    HW234230   4.200   4.054   4.313  0.3804  0.2435  1.1344
 7590SOL     OW34231   4.664   1.354   0.659  0.1871  0.5262  0.2136
 7590SOL    HW134232   4.711   1.437   0.653 -3.2215  2.3643 -0.6115
 7590SOL    HW234233   4.593   1.363   0.596 -0.1826  0.6830  0.6528
 7591SOL     OW34234   3.314   4.368   3.766  0.3709 -0.1274  0.4910
 7591SOL    HW134235   3.334   4.373   3.673 -2.3624  0.6380 -0.0515
 7591SOL    HW234236   3.360   4.442   3.806  2.7329 -0.6086 -1.3642
 7592SOL     OW34237   3.770   0.191  16.577 -0.0815  0.0958 -0.2919
 7592SOL    HW134238   3.687   0.214  16.535 -0.4413 -0.6824 -0.0052
 7592SOL    HW234239   3.756   0.241  16.658 -1.3065 -1.1942  0.2984
 7593SOL     OW34240   4.575   4.672   9.402  0.1063 -0.3072  0.3331
 7593SOL    HW134241   4.552   4.648   9.492 -0.4520 -1.0077 -0.0036
 7593SOL    HW234242   4.509   4.613   9.367 -0.9429  1.0990 -0.0648
 7594SOL     OW34243   0.586   4.683   4.293  0.7883  1.1153 -0.4004
 7594SOL    HW134244   0.663   4.653   4.341  0.2294  0.8435  0.3192
 7594SOL    HW234245   0.571   0.048   4.333 -0.9975 -0.3469  2.0584
 7595SOL     OW34246   2.543   2.829   6.218 -0.0195  0.0506  0.4781
 7595SOL    HW134247   2.521   2.897   6.282 -1.2211 -0.9396  1.1326
 7595SOL    HW234248   2.628   2.864   6.193  0.4027  0.2026  2.1238
 7596SOL     OW34249   4.589   1.766   0.946 -0.3590  0.8762  0.3833
 7596SOL    HW134250   4.530   1.794   0.876 -0.6308  1.2711  0.7750
 7596SOL    HW234251   4.662   1.823   0.923  0.3970  1.0111  3.1575
 7597SOL     OW34252   2.687   0.651  13.968  0.7783 -0.4648  0.0535
 7597SOL    HW134253   2.617   0.698  13.924  1.4929  0.3334 -0.2205
 7597SOL    HW234254   2.763   0.675  13.915  0.2060 -1.1809 -1.0919
 7598SOL     OW34255   2.190   2.770   3.711  0.2286 -0.0710  0.4896
 7598SOL    HW134256   2.235   2.760   3.795  0.2986 -0.5937  0.3923
 7598SOL    HW234257   2.129   2.697   3.711  0.6619 -0.4448 -1.5860
 7599SOL     OW34258   0.343   0.109   2.663 -0.2033  0.7778  0.0203
 7599SOL    HW134259   0.315   0.159   2.740 -1.9344  1.0326 -0.7669
 7599SOL    HW234260   0.260   0.072   2.632 -1.6131  1.5440  2.8487
 7600SOL     OW34261   0.460   3.310  15.026 -0.0271 -0.2684 -0.4925
 7600SOL    HW134262   0.367   3.294  15.010 -0.5860  1.5425  0.9507
 7600SOL    HW234263   0.456   3.391  15.077  0.7681 -0.5513  0.0292
 7601SOL     OW34264   2.220   0.896   5.043  0.2097  0.4617 -0.0053
 7601SOL    HW134265   2.143   0.951   5.055  0.1130  0.0533  1.2437
 7601SOL    HW234266   2.269   0.956   4.987 -1.6123  1.3695 -0.6146
 7602SOL     OW34267   1.390   1.295   4.953 -0.7125  0.1672  0.8497
 7602SOL    HW134268   1.430   1.382   4.956  0.5375 -0.4618  2.0310
 7602SOL    HW234269   1.304   1.321   4.986 -0.8459  0.1069  0.5467
 7603SOL     OW34270   1.247   3.375   4.066  0.5842 -0.0452 -0.2485
 7603SOL    HW134271   1.177   3.440   4.077 -0.5230 -0.8318 -2.6058
 7603SOL    HW234272   1.237   3.312   4.137  0.5219  1.0322  0.6885
 7604SOL     OW34273   1.727   1.209   9.711 -0.2404 -0.2836  0.2079
 7604SOL    HW134274   1.685   1.179   9.631  0.1666  0.6770 -0.3608
 7604SOL    HW234275   1.765   1.123   9.732  0.5271 -0.1491 -0.6247
 7605SOL     OW34276   1.117   3.802  13.553  0.1498 -0.0704 -0.3152
 7605SOL    HW134277   1.144   3.711  13.564  0.7620  0.0407 -0.8572
 7605SOL    HW234278   1.075   3.797  13.467  1.5862  2.0463 -1.1537
 7606SOL     OW34279   3.883   1.072   6.272  0.4099  0.5584  0.1770
 7606SOL    HW134280   3.860   0.982   6.246  2.2768  0.5621 -1.4343
 7606SOL    HW234281   3.881   1.119   6.189 -0.5622 -0.6417 -0.4932
 7607SOL     OW34282   3.882   1.390  13.261 -0.1124 -0.9840  0.4342
 7607SOL    HW134283   3.947   1.319  13.253  0.2570 -0.4879 -0.8529
 7607SOL    HW234284   3.814   1.366  13.199  0.8004 -2.0713 -0.1667
 7608SOL     OW34285   0.626   1.497  13.753 -0.1011 -0.1158  0.2004
 7608SOL    HW134286   0.544   1.448  13.754 -0.1993  0.0459 -0.0483
 7608SOL    HW234287   0.683   1.442  13.807  0.0423  0.1996  0.3765
 7609SOL     OW34288   4.610   3.872   3.723  0.1729  0.0158 -0.1739
 7609SOL    HW134289   4.682   3.828   3.677 -0.8812 -0.5713 -1.2320
 7609SOL    HW234290   4.551   3.891   3.651  0.5323  2.0267  0.0808
 7610SOL     OW34291   4.175   1.867   5.532  0.4557  0.2684 -0.2397
 7610SOL    HW134292   4.159   1.773   5.537 -0.0682  0.2882 -1.6376
 7610SOL    HW234293   4.090   1.896   5.566  1.2974  0.4042  1.7541
 7611SOL     OW34294   2.056   3.810  15.333 -0.4353 -1.0018 -0.1479
 7611SOL    HW134295   1.994   3.814  15.260 -0.9457 -1.9183  0.2286
 7611SOL    HW234296   2.140   3.823  15.289  0.2924 -2.6799  0.7444
 7612SOL     OW34297   2.929   4.284   2.671  0.3751 -0.3189  0.2328
 7612SOL    HW134298   3.007   4.338   2.688  1.3191 -1.8912  0.9299
 7612SOL    HW234299   2.864   4.314   2.734  1.5462  0.2303  1.1848
 7613SOL     OW34300   4.478   0.105   4.800  0.1774  0.0397  0.2639
 7613SOL    HW134301   4.568   0.080   4.822 -0.6137 -3.4115 -0.3453
 7613SOL    HW234302   4.435   0.022   4.781  0.9857 -0.4434  0.5567
 7614SOL     OW34303   1.515   3.954   0.658 -0.4569  0.5016 -0.1523
 7614SOL    HW134304   1.475   4.030   0.615  2.1507  1.3341 -1.1486
 7614SOL    HW234305   1.477   3.882   0.609 -2.2546  2.4887 -1.6767
 7615SOL     OW34306   1.420   3.863   8.117  0.4075 -0.9080 -0.4532
 7615SOL    HW134307   1.432   3.952   8.085  2.8184 -0.9726  0.2398
 7615SOL    HW234308   1.328   3.865   8.144  0.5792  1.3773 -0.0610
 7616SOL     OW34309   1.126   1.906   5.802  0.2164  0.2322  0.0509
 7616SOL    HW134310   1.171   1.829   5.767 -1.5084 -0.6215 -0.2754
 7616SOL    HW234311   1.179   1.930   5.879  0.2379 -0.5312  0.2725
 7617SOL     OW34312   3.522   3.104   4.525 -0.2914  0.0473  0.3050
 7617SOL    HW134313   3.459   3.087   4.456  1.2077 -0.1054 -1.0227
 7617SOL    HW234314   3.590   3.145   4.472  0.8478 -1.6910  0.4212
 7618SOL     OW34315   4.308   3.299   6.537  0.3370  0.3223  0.0176
 7618SOL    HW134316   4.261   3.230   6.584 -0.3113 -0.0014 -1.1197
 7618SOL    HW234317   4.331   3.349   6.616 -1.1883 -0.6393  1.0746
 7619SOL     OW34318   1.534   3.704   3.679 -0.0336 -0.0261 -0.0632
 7619SOL    HW134319   1.535   3.787   3.728 -2.1864 -0.3263  0.4830
 7619SOL    HW234320   1.567   3.648   3.749  1.3430  2.0894  0.9819
 7620SOL     OW34321   3.504   3.613   3.962  0.2809 -0.2221  0.4645
 7620SOL    HW134322   3.558   3.628   4.040  0.2306  1.5720  0.1595
 7620SOL    HW234323   3.458   3.533   3.985 -0.2045  0.3355  1.4596
 7621SOL     OW34324   0.036   4.638   0.356 -0.5363 -0.0935 -0.8097
 7621SOL    HW134325   0.053   0.009   0.335 -0.7811  0.5100  1.6779
 7621SOL    HW234326   4.664   4.635   0.335 -0.6390  1.6968 -0.6499
 7622SOL     OW34327   4.239   1.636  11.627  0.0580 -0.4343 -0.2022
 7622SOL    HW134328   4.224   1.611  11.536  0.0066  1.9782 -0.8552
 7622SOL    HW234329   4.154   1.617  11.667  1.0873 -1.0371  1.7035
 7623SOL     OW34330   1.589   1.809   4.705 -0.4223 -0.0830 -0.1281
 7623SOL    HW134331   1.578   1.801   4.610 -1.5643  0.4081 -0.0414
 7623SOL    HW234332   1.649   1.741   4.734  0.2473  0.9212  0.8242
 7624SOL     OW34333   0.493   0.182   3.850  0.2445  0.1669 -0.0611
 7624SOL    HW134334   0.533   0.106   3.891  1.3779  1.7268  1.7675
 7624SOL    HW234335   0.566   0.208   3.793  0.3734 -0.8044 -0.3268
 7625SOL     OW34336   1.020   4.043   4.238 -0.6451 -0.6817 -0.5806
 7625SOL    HW134337   1.092   4.043   4.301 -0.6228 -1.6824 -0.6061
 7625SOL    HW234338   1.065   4.000   4.165  0.4658 -0.9337  0.2536
 7626SOL     OW34339   1.088   4.379   5.713 -0.1197  0.3637 -0.2417
 7626SOL    HW134340   1.062   4.446   5.776 -1.2080 -0.4013  0.1210
 7626SOL    HW234341   1.003   4.349   5.680 -0.3965 -0.3438  1.1056
 7627SOL     OW34342   4.409   3.856   5.167  0.1604  0.1391  0.1376
 7627SOL    HW134343   4.364   3.836   5.084 -0.9883  2.1408  0.2912
 7627SOL    HW234344   4.330   3.862   5.220 -0.9019 -0.1911 -1.3907
 7628SOL     OW34345   3.877   0.525  10.959 -0.0520  0.2200  0.1845
 7628SOL    HW134346   3.803   0.489  11.008 -0.2792 -0.4016 -0.6223
 7628SOL    HW234347   3.833   0.558  10.881 -0.2828  1.4989  0.8659
 7629SOL     OW34348   3.244   4.337   0.777  0.5634 -0.2211 -0.0946
 7629SOL    HW134349   3.293   4.341   0.859  1.9838  0.1688 -0.9489
 7629SOL    HW234350   3.282   4.260   0.734 -0.9968 -2.1449  1.9967
 7630SOL     OW34351   2.046   1.350   5.722 -0.0850 -0.0026  0.2232
 7630SOL    HW134352   2.038   1.271   5.668  0.6415 -1.4867  2.3024
 7630SOL    HW234353   1.997   1.329   5.801 -1.8456  3.5402  0.0589
 7631SOL     OW34354   1.347   3.821   6.434 -0.1873  0.0045 -0.0613
 7631SOL    HW134355   1.380   3.807   6.522 -0.8284  0.4623  0.2527
 7631SOL    HW234356   1.430   3.801   6.391 -1.3724 -1.4094 -1.7410
 7632SOL     OW34357   4.247   3.820  13.833 -0.2533 -0.2720  0.1725
 7632SOL    HW134358   4.167   3.843  13.881 -0.6958 -0.9993 -0.2241
 7632SOL    HW234359   4.247   3.726  13.850  1.6786 -0.0546  1.4500
 7633SOL     OW34360   3.301   0.322   4.307 -0.9929  0.2625  0.0439
 7633SOL    HW134361   3.330   0.390   4.246  0.7795  0.0284  0.6466
 7633SOL    HW234362   3.370   0.259   4.285 -0.4582 -0.2583  3.3352
 7634SOL     OW34363   3.475   1.790   2.995 -0.2336 -0.0597  0.8400
 7634SOL    HW134364   3.540   1.730   2.959 -0.1303  1.4113 -1.4161
 7634SOL    HW234365   3.532   1.865   3.015 -1.1117  0.8587 -0.1382
 7635SOL     OW34366   1.240   2.716   3.578  0.2437  0.2145 -0.2918
 7635SOL    HW134367   1.200   2.642   3.533  0.5647  1.0881 -2.0061
 7635SOL    HW234368   1.170   2.778   3.600 -0.3650 -0.9708  1.0860
 7636SOL     OW34369   2.445   1.137   4.380  0.1723  0.1885  0.0421
 7636SOL    HW134370   2.497   1.141   4.300  4.1670 -1.6193  2.5767
 7636SOL    HW234371   2.517   1.113   4.438  0.0160 -0.6666 -0.1240
 7637SOL     OW34372   0.076   2.351   0.919  0.0402 -0.3073  0.0477
 7637SOL    HW134373   0.009   2.420   0.928 -1.2998 -1.9515  2.6414
 7637SOL    HW234374   0.137   2.378   0.987  1.4025  0.3434 -1.4311
 7638SOL     OW34375   0.539   2.983   3.267 -0.3741 -0.7185  0.1827
 7638SOL    HW134376   0.559   2.969   3.359  0.0564  2.1307  0.5134
 7638SOL    HW234377   0.551   2.895   3.231  0.6356 -0.9217  1.0440
 7639SOL     OW34378   3.639   3.095  10.109  0.1486  0.5568  0.2119
 7639SOL    HW134379   3.578   3.126  10.175 -0.3661  2.6942 -1.2644
 7639SOL    HW234380   3.697   3.170  10.117  0.2249  0.4354  0.7632
 7640SOL     OW34381   1.019   2.970  11.922  0.2698  0.0573  0.2036
 7640SOL    HW134382   0.925   2.956  11.929  0.1189  0.0820 -1.6639
 7640SOL    HW234383   1.048   2.913  11.993  1.9493  1.8593  0.9745
 7641SOL     OW34384   1.676   2.760   6.030 -0.0859 -0.1457 -0.0516
 7641SOL    HW134385   1.764   2.792   6.051 -0.4008  1.5924 -1.3927
 7641SOL    HW234386   1.656   2.814   5.953 -1.0530  0.0726  0.3528
 7642SOL     OW34387   0.276   4.390   6.020  0.2178  0.0183 -0.2580
 7642SOL    HW134388   0.274   4.413   6.113  1.7977  0.1931 -0.2660
 7642SOL    HW234389   0.317   4.464   5.975 -1.5574  1.1059 -0.1016
 7643SOL     OW34390   3.772   1.079   7.022 -0.3143  0.1270  0.2724
 7643SOL    HW134391   3.799   0.987   7.026  2.1446  0.7476 -2.2806
 7643SOL    HW234392   3.727   1.087   6.937 -0.3526  2.3931  0.5137
 7644SOL     OW34393   2.857   0.066   8.531  0.0716  0.1564 -0.2629
 7644SOL    HW134394   2.830   0.138   8.588 -3.2420 -1.7509  0.5765
 7644SOL    HW234395   2.931   0.038   8.584 -1.2964 -0.8931  1.1087
 7645SOL     OW34396   0.977   1.637   5.919 -0.7253  0.5172 -0.1923
 7645SOL    HW134397   1.065   1.675   5.930 -0.9169  0.6266  0.9046
 7645SOL    HW234398   0.960   1.630   6.013 -0.5041 -2.7638 -0.4177
 7646SOL     OW34399   3.029   2.636  14.789 -0.2064 -0.0070  0.4977
 7646SOL    HW134400   2.946   2.649  14.742  0.2290 -0.1033 -0.2928
 7646SOL    HW234401   3.000   2.647  14.880  1.7833 -2.9558  1.4982
 7647SOL     OW34402   2.477   3.233   4.008 -0.3956 -0.5334  0.4539
 7647SOL    HW134403   2.488   3.328   4.011  0.0398 -0.5467 -1.0954
 7647SOL    HW234404   2.420   3.233   3.932 -3.3983  0.3483  2.6979
 7648SOL     OW34405   1.224   1.461  13.010 -0.1118 -0.1483 -0.1594
 7648SOL    HW134406   1.188   1.465  12.922 -1.5735  1.5024  0.5023
 7648SOL    HW234407   1.317   1.460  12.988 -0.3042 -2.3685 -0.8363
 7649SOL     OW34408   3.699   1.906   2.024  0.5169 -0.1503  0.0317
 7649SOL    HW134409   3.788   1.920   1.991  1.1162 -1.9081  0.8528
 7649SOL    HW234410   3.719   1.837   2.088  1.0927 -0.2623 -0.2733
 7650SOL     OW34411   3.044   1.975   4.606  0.5997 -0.3628  0.3110
 7650SOL    HW134412   3.084   2.062   4.607  1.0880 -0.5743 -1.5086
 7650SOL    HW234413   3.018   1.964   4.515 -0.5421  4.4372  0.0555
 7651SOL     OW34414   0.949   1.362   2.329 -0.6717 -0.1625  0.3663
 7651SOL    HW134415   0.882   1.312   2.281  0.1598 -0.4769 -0.4465
 7651SOL    HW234416   0.954   1.449   2.291  1.8155 -1.1649 -1.5961
 7652SOL     OW34417   4.371   1.103   8.737  0.5429  0.1315 -0.3325
 7652SOL    HW134418   4.447   1.061   8.777  0.2618 -0.4560 -0.4158
 7652SOL    HW234419   4.342   1.036   8.676  0.2070 -0.9281  1.0041
 7653SOL     OW34420   3.836   0.605   6.716 -0.0426  0.2591  0.1119
 7653SOL    HW134421   3.741   0.599   6.717 -0.1844  2.4739  0.2778
 7653SOL    HW234422   3.837   0.700   6.712 -0.9871  0.3109  1.2135
 7654SOL     OW34423   2.204   3.422   4.515 -0.1646  0.3591 -0.2136
 7654SOL    HW134424   2.250   3.341   4.495  1.0962  0.9670  0.2184
 7654SOL    HW234425   2.187   3.461   4.429  1.6753 -0.5960 -0.9886
 7655SOL     OW34426   1.143   1.377   6.073 -0.6131 -0.0780  0.0318
 7655SOL    HW134427   1.083   1.450   6.089 -1.4355 -0.9328  0.7695
 7655SOL    HW234428   1.080   1.315   6.039  0.8334 -0.5289 -1.8309
 7656SOL     OW34429   1.959   3.485   6.446 -0.1316  0.1322 -0.2294
 7656SOL    HW134430   2.002   3.567   6.422 -2.5607  1.4960  0.0453
 7656SOL    HW234431   2.000   3.415   6.395  1.6813  0.3743  0.8939
 7657SOL     OW34432   2.148   0.243   2.778 -0.2463 -0.1505 -0.1853
 7657SOL    HW134433   2.181   0.155   2.792 -0.3199 -0.4373 -1.7821
 7657SOL    HW234434   2.214   0.280   2.719 -0.1144  0.2692  0.2244
 7658SOL     OW34435   2.782   3.480   0.755 -0.2441 -0.2462  0.0083
 7658SOL    HW134436   2.805   3.523   0.838  2.5666 -0.8689 -0.4755
 7658SOL    HW234437   2.846   3.519   0.696 -1.0171 -0.4678 -0.9794
 7659SOL     OW34438   1.447   1.877   2.747  0.5320  0.5142  0.3907
 7659SOL    HW134439   1.520   1.895   2.807  1.7463 -1.6003 -0.4504
 7659SOL    HW234440   1.482   1.798   2.706  1.3559  0.6033  0.9295
 7660SOL     OW34441   0.382   0.673   9.847  0.4477 -0.3018 -0.4080
 7660SOL    HW134442   0.384   0.577   9.840  1.4639 -0.3475  0.4583
 7660SOL    HW234443   0.429   0.690   9.928 -0.0324  0.2782 -0.2542
 7661SOL     OW34444   3.267   2.898   7.428 -0.5230 -0.0244 -0.2032
 7661SOL    HW134445   3.263   2.835   7.500 -1.1755  0.7066  0.3924
 7661SOL    HW234446   3.319   2.967   7.469 -0.0919 -1.1835  1.2052
 7662SOL     OW34447   2.885   4.575   7.382 -0.0990 -0.3207  0.1522
 7662SOL    HW134448   2.828   4.638   7.426  0.7995  1.5090 -1.2729
 7662SOL    HW234449   2.959   4.635   7.376  0.8965 -1.4999  0.8064
 7663SOL     OW34450   2.904   2.841  10.983  0.0685  0.0587 -0.4941
 7663SOL    HW134451   2.815   2.871  11.005 -0.0333 -0.7252  0.1540
 7663SOL    HW234452   2.905   2.868  10.891  0.3678  0.7977 -0.2739
 7664SOL     OW34453   2.120   2.691  17.477 -0.0006 -0.3345  0.5615
 7664SOL    HW134454   2.070   2.771  17.494  0.2360 -0.1245  0.2788
 7664SOL    HW234455   2.198   2.729  17.435 -1.4202  1.5319 -0.4274
 7665SOL     OW34456   3.333   2.434   6.261 -0.0719 -0.1765 -0.4390
 7665SOL    HW134457   3.350   2.449   6.168 -0.9185 -0.7244 -0.6906
 7665SOL    HW234458   3.250   2.481   6.269  0.6663  1.3015 -1.6269
 7666SOL     OW34459   3.971   0.921   5.286  0.6121 -0.1444 -0.3070
 7666SOL    HW134460   4.053   0.875   5.266  2.3711  2.7625  0.2284
 7666SOL    HW234461   4.011   1.004   5.312  0.8597 -0.7177  1.1908
 7667SOL     OW34462   0.928   3.451  13.545  0.0679 -0.0450 -0.2577
 7667SOL    HW134463   1.012   3.487  13.575  0.6744 -0.5273 -1.3625
 7667SOL    HW234464   0.876   3.531  13.537  2.0554  1.2331 -0.4794
 7668SOL     OW34465   3.228   3.993   8.240 -0.4202  0.6711 -0.1336
 7668SOL    HW134466   3.312   4.019   8.202  0.8143  0.8838  2.7471
 7668SOL    HW234467   3.248   3.914   8.290 -0.2576 -0.1227 -1.4592
 7669SOL     OW34468   4.677   3.428  10.638 -0.1850  0.0965  0.5526
 7669SOL    HW134469   0.008   3.374  10.578  0.2171  0.1649  0.8414
 7669SOL    HW234470   4.673   3.507  10.584  3.1741 -0.6249 -0.7848
 7670SOL     OW34471   1.149   2.333   5.683  0.0084  0.2069  0.4610
 7670SOL    HW134472   1.174   2.355   5.594 -0.3785 -1.4215 -0.0403
 7670SOL    HW234473   1.109   2.247   5.667 -2.0400  0.8479  2.1286
 7671SOL     OW34474   2.847   4.229   7.126  0.3723  0.1268 -0.0190
 7671SOL    HW134475   2.801   4.253   7.207 -1.2768  0.4887 -1.0706
 7671SOL    HW234476   2.886   4.147   7.156 -1.0051 -0.9519 -1.2271
 7672SOL     OW34477   0.261   2.105   5.903  0.5273  0.0345  0.2225
 7672SOL    HW134478   0.282   2.120   5.995  0.7569 -1.6024  0.4244
 7672SOL    HW234479   0.168   2.083   5.906  0.1590  1.3393 -1.4751
 7673SOL     OW34480   1.050   3.595   9.140 -0.4533 -0.1450 -0.2633
 7673SOL    HW134481   1.093   3.671   9.101  0.3691  0.2362  1.3631
 7673SOL    HW234482   1.110   3.582   9.214  1.1530  3.4817 -0.9314
 7674SOL     OW34483   0.593   1.017   5.688 -0.2432 -0.5177 -0.4857
 7674SOL    HW134484   0.641   0.958   5.631  0.4919 -1.1403  0.7692
 7674SOL    HW234485   0.656   1.026   5.760 -2.3186  0.7583  1.1790
 7675SOL     OW34486   2.038   4.415   2.779  0.0760  0.5112  0.2771
 7675SOL    HW134487   2.031   4.504   2.743 -0.5773  0.6569  0.7699
 7675SOL    HW234488   1.954   4.389   2.742 -0.0748  0.6441  0.5199
 7676SOL     OW34489   1.333   2.891   3.030  0.4440  0.1498 -0.0451
 7676SOL    HW134490   1.416   2.900   3.078  0.0256 -1.5114  0.9867
 7676SOL    HW234491   1.283   2.836   3.091  1.1520 -0.1994  0.2234
 7677SOL     OW34492   2.981   0.214  16.138 -0.3323 -0.2072  0.1818
 7677SOL    HW134493   3.000   0.184  16.049  1.1191 -2.3720  1.2468
 7677SOL    HW234494   2.908   0.155  16.155 -0.9866  0.9171  1.2707
 7678SOL     OW34495   0.671   3.682   4.084 -1.4896 -0.4660  0.4595
 7678SOL    HW134496   0.627   3.667   4.167 -3.2492  1.5604 -0.1285
 7678SOL    HW234497   0.715   3.600   4.059 -0.4218  0.2592 -0.0708
 7679SOL     OW34498   1.939   1.920   7.639  0.3568 -0.0055  0.5314
 7679SOL    HW134499   1.981   1.834   7.633  1.0037  0.1982  2.0732
 7679SOL    HW234500   1.967   1.946   7.727 -1.1696  1.1475  0.6625
 7680SOL     OW34501   0.992   3.327  14.602 -0.3157 -0.0309 -0.3161
 7680SOL    HW134502   0.932   3.320  14.527  0.1678 -0.1157 -0.6970
 7680SOL    HW234503   0.946   3.270  14.664 -0.5591  0.3561 -0.1443
 7681SOL     OW34504   2.732   2.659   6.369 -0.0325  0.1943  0.5591
 7681SOL    HW134505   2.687   2.579   6.344  1.3405  0.3461 -2.4129
 7681SOL    HW234506   2.659   2.712   6.339  0.4593 -0.2197 -1.3229
 7682SOL     OW34507   2.337   2.965  13.415 -0.0440  0.0123  0.3553
 7682SOL    HW134508   2.349   2.872  13.394 -0.9909  0.1329 -0.7511
 7682SOL    HW234509   2.398   3.000  13.351 -1.0005 -0.3645 -0.7708
 7683SOL     OW34510   3.349   2.242   4.887 -0.2377 -0.3620 -0.2390
 7683SOL    HW134511   3.405   2.318   4.905 -0.8698 -0.2188  1.1551
 7683SOL    HW234512   3.265   2.265   4.928 -0.1388  1.3948 -1.0355
 7684SOL     OW34513   3.459   1.585   6.400 -0.4757 -0.7845 -0.2307
 7684SOL    HW134514   3.417   1.651   6.345 -2.3003 -1.3249  0.4974
 7684SOL    HW234515   3.539   1.567   6.351  0.6235  1.0733  0.8930
 7685SOL     OW34516   0.020   3.179   3.464 -0.1510 -0.3730 -0.2535
 7685SOL    HW134517   0.057   3.097   3.497 -2.4516 -1.8546 -1.3074
 7685SOL    HW234518   0.073   3.247   3.504  0.1780 -0.5102 -0.4565
 7686SOL     OW34519   3.623   1.773   4.581 -0.3418 -0.4914  0.6300
 7686SOL    HW134520   3.531   1.759   4.559  0.5105 -0.5548 -2.9126
 7686SOL    HW234521   3.659   1.707   4.522  0.9321  0.9783 -0.2275
 7687SOL     OW34522   3.563   2.486  17.147 -0.1287 -0.2145  0.2010
 7687SOL    HW134523   3.540   2.407  17.196  0.6125 -1.2997 -1.1580
 7687SOL    HW234524   3.550   2.552  17.215 -0.6316  1.4496 -1.5058
 7688SOL     OW34525   3.541   0.566  12.652  0.1366  0.3199 -0.2160
 7688SOL    HW134526   3.531   0.628  12.725  3.1968  1.7452 -1.0180
 7688SOL    HW234527   3.620   0.602  12.611  1.0279 -0.3201  0.9357
 7689SOL     OW34528   1.267   0.207  17.344  0.4465 -0.1206  0.5139
 7689SOL    HW134529   1.275   0.119  17.309  0.7115  0.4303 -0.8237
 7689SOL    HW234530   1.209   0.249  17.281  1.2179  1.2436  0.7113
 7690SOL     OW34531   3.643   0.253   2.317  1.1289  0.4989 -0.5244
 7690SOL    HW134532   3.685   0.308   2.383  1.4596 -1.3358  0.8157
 7690SOL    HW234533   3.708   0.200   2.271 -0.6546 -1.8068 -0.3897
 7691SOL     OW34534   4.002   0.550   8.080  0.3841  0.8119 -0.1276
 7691SOL    HW134535   3.974   0.642   8.077 -1.3683  0.3130  0.5634
 7691SOL    HW234536   4.057   0.548   8.158  0.7478  3.0112 -0.3344
 7692SOL     OW34537   2.352   0.511  14.006 -0.2353 -0.5180 -0.6894
 7692SOL    HW134538   2.284   0.550  13.951  0.3991  1.2297 -0.2590
 7692SOL    HW234539   2.355   0.572  14.080  1.9857 -0.5003 -0.7881
 7693SOL     OW34540   2.983   3.420   7.343  0.3745  0.1977  0.1318
 7693SOL    HW134541   3.009   3.508   7.318  1.9947 -0.7549 -1.5075
 7693SOL    HW234542   3.068   3.388   7.372  0.5600  0.8070  0.2418
 7694SOL     OW34543   4.407   3.017   3.010 -0.3087  0.2367 -0.1465
 7694SOL    HW134544   4.470   3.018   2.938  0.1059  0.5128  0.2187
 7694SOL    HW234545   4.457   2.982   3.084  2.8401  1.3582 -1.7594
 7695SOL     OW34546   4.721   1.293  14.277  0.8951 -0.0919 -0.0189
 7695SOL    HW134547   4.627   1.275  14.280  0.9734 -0.1325  1.6839
 7695SOL    HW234548   0.010   1.312  14.370 -0.4292  1.9956 -0.2923
 7696SOL     OW34549   3.722   3.300   7.830  0.0688 -0.1281  0.0305
 7696SOL    HW134550   3.729   3.283   7.924 -0.0672  0.3129  0.1240
 7696SOL    HW234551   3.731   3.396   7.833 -0.3665 -0.1711  2.7475
 7697SOL     OW34552   2.233   4.530   0.560 -0.1102  0.7334 -0.4055
 7697SOL    HW134553   2.265   4.537   0.470 -0.9537 -3.8567 -1.0601
 7697SOL    HW234554   2.154   4.479   0.544  1.2762 -1.5378 -0.0021
 7698SOL     OW34555   1.385   4.603  16.660  0.3456  0.5784 -0.0331
 7698SOL    HW134556   1.430   4.649  16.588  2.0004 -4.0557 -1.9564
 7698SOL    HW234557   1.407   4.661  16.733 -0.8051  2.5649 -1.2598
 7699SOL     OW34558   1.383   0.955   1.537 -0.7154 -0.7394 -0.2211
 7699SOL    HW134559   1.409   0.944   1.445 -0.9236 -0.6600 -0.2894
 7699SOL    HW234560   1.468   0.946   1.580 -0.3066  0.4468 -0.8059
 7700SOL     OW34561   1.734   4.106   0.036  0.2208 -0.2625 -0.4812
 7700SOL    HW134562   1.800   4.039   0.021 -2.3675 -3.3091  1.6908
 7700SOL    HW234563   1.699   4.081   0.122  2.2467 -1.9297 -0.1563
 7701SOL     OW34564   3.418   2.368  11.215 -0.0564 -0.1198 -0.3531
 7701SOL    HW134565   3.468   2.444  11.246 -1.6342 -0.3875  2.8684
 7701SOL    HW234566   3.473   2.299  11.254  0.7979  0.4558 -0.5247
 7702SOL     OW34567   1.935   3.881  15.943  0.2033  0.1210  0.2146
 7702SOL    HW134568   1.902   3.942  15.877 -1.2733 -1.0660 -0.1209
 7702SOL    HW234569   2.000   3.936  15.988 -1.2968  2.3454 -0.3445
 7703SOL     OW34570   4.068   0.189   2.552 -0.1803 -0.4265  0.7863
 7703SOL    HW134571   4.019   0.107   2.545 -1.3878  0.6335 -3.0923
 7703SOL    HW234572   4.061   0.230   2.466 -3.3482 -0.8241  0.8748
 7704SOL     OW34573   3.954   1.483  15.476  0.1977  0.2413  0.2611
 7704SOL    HW134574   3.992   1.568  15.454  1.0316 -0.4304 -0.8816
 7704SOL    HW234575   3.936   1.504  15.568  0.0893  1.8715 -0.1283
 7705SOL     OW34576   4.264   3.032   3.966  0.5081 -0.8135  0.6088
 7705SOL    HW134577   4.278   2.947   4.007  0.6988 -0.3142  1.5662
 7705SOL    HW234578   4.227   3.007   3.881 -0.3229 -0.9716  1.0247
 7706SOL     OW34579   2.863   0.552  10.589  0.0286  0.7102  0.5166
 7706SOL    HW134580   2.822   0.470  10.618 -0.6693  0.6111 -0.7599
 7706SOL    HW234581   2.943   0.561  10.641  0.4393  0.1561 -0.0340
 7707SOL     OW34582   3.153   3.243   6.907 -0.1777 -0.2765  0.5545
 7707SOL    HW134583   3.223   3.199   6.956  1.0722  0.7778 -0.3034
 7707SOL    HW234584   3.079   3.254   6.967  0.3128  0.6867  0.9685
 7708SOL     OW34585   1.390   0.288   7.658  0.1406  0.3480 -0.2845
 7708SOL    HW134586   1.475   0.299   7.699 -0.4622  1.7264  0.5877
 7708SOL    HW234587   1.349   0.220   7.712 -0.6398  0.8788 -0.2051
 7709SOL     OW34588   2.199   3.044   4.906 -0.0614  0.1026  0.7660
 7709SOL    HW134589   2.149   3.125   4.894  0.7467  0.5993  0.7393
 7709SOL    HW234590   2.204   3.005   4.819 -3.4546  0.9277  0.1942
 7710SOL     OW34591   3.986   2.053  13.801  0.1278 -0.2039  0.0990
 7710SOL    HW134592   3.959   2.025  13.889  1.0880 -2.4911 -0.3558
 7710SOL    HW234593   3.989   1.973  13.749  0.1798 -1.0093  1.3398
 7711SOL     OW34594   4.718   4.565   2.167 -0.2849  0.2258  0.0825
 7711SOL    HW134595   0.059   4.621   2.213 -2.0100  1.9063  0.4045
 7711SOL    HW234596   0.052   4.523   2.102  0.3557 -1.2751  1.6056
 7712SOL     OW34597   2.884   4.309  16.249  0.3521 -0.1647  0.2651
 7712SOL    HW134598   2.844   4.290  16.164 -2.3891  0.5735  1.4207
 7712SOL    HW234599   2.950   4.372  16.219  0.1851  0.4037  1.0821
 7713SOL     OW34600   3.927   1.221   6.491  0.4507  0.3338 -0.7182
 7713SOL    HW134601   3.934   1.314   6.473  4.2263  0.3916  1.0570
 7713SOL    HW234602   3.926   1.181   6.404  0.1396  0.2924 -0.6960
 7714SOL     OW34603   2.783   1.428   1.487 -0.0325  0.4199 -0.4692
 7714SOL    HW134604   2.806   1.338   1.462  1.1447  0.9200 -1.1986
 7714SOL    HW234605   2.869   1.468   1.499  0.7015 -1.2727 -0.0051
 7715SOL     OW34606   3.138   2.577   6.146 -0.0936  0.2376  0.0287
 7715SOL    HW134607   3.127   2.626   6.065  1.2917  2.0452  0.9190
 7715SOL    HW234608   3.144   2.648   6.210  2.3657 -1.2752  1.4957
 7716SOL     OW34609   1.273   1.990   2.173 -0.0379  0.8466 -1.0027
 7716SOL    HW134610   1.271   1.974   2.268 -0.7970  0.3119 -1.1155
 7716SOL    HW234611   1.350   2.047   2.161 -0.1644  0.6158 -2.8153
 7717SOL     OW34612   3.122   0.507   6.703  0.1774 -0.4087  0.2347
 7717SOL    HW134613   3.028   0.525   6.702  0.4164  0.9162  0.8593
 7717SOL    HW234614   3.132   0.466   6.789  2.8776  1.4656  0.8288
 7718SOL     OW34615   1.398   0.589  13.331 -0.1128  0.6236  0.1227
 7718SOL    HW134616   1.466   0.626  13.274  0.0031 -0.7479 -0.6152
 7718SOL    HW234617   1.420   0.628  13.415 -0.2246 -1.4843  1.1066
 7719SOL     OW34618   2.374   0.921   3.815 -0.0964 -0.6414  0.1396
 7719SOL    HW134619   2.449   0.867   3.791  1.8329  1.7276  0.8913
 7719SOL    HW234620   2.394   0.997   3.760  0.7126 -2.2200 -1.7501
 7720SOL     OW34621   1.293   0.308   7.223 -0.6037  0.1886 -0.2494
 7720SOL    HW134622   1.333   0.263   7.149 -0.6204 -1.9468  1.0224
 7720SOL    HW234623   1.292   0.241   7.292 -0.0160 -0.5351 -0.9367
 7721SOL     OW34624   1.608   3.683   4.351 -0.4379 -0.6153 -0.0387
 7721SOL    HW134625   1.701   3.705   4.357 -0.3349 -0.6859 -1.3069
 7721SOL    HW234626   1.591   3.703   4.259 -0.6487 -1.5719 -0.2150
 7722SOL     OW34627   2.192   3.666   7.851 -0.4479 -0.4164 -0.3909
 7722SOL    HW134628   2.174   3.729   7.921  0.2891  1.8525 -2.2467
 7722SOL    HW234629   2.112   3.615   7.846 -0.8771  0.1596  0.7314
 7723SOL     OW34630   3.248   3.069   6.704  0.4874 -0.2024 -0.5756
 7723SOL    HW134631   3.286   3.043   6.788 -0.3709  1.1739  0.2404
 7723SOL    HW234632   3.181   3.129   6.737 -0.6416 -1.8297  0.0621
 7724SOL     OW34633   4.594   1.034   3.252  0.4736 -0.0227 -0.3208
 7724SOL    HW134634   4.538   1.073   3.185 -0.2930  0.6181  0.7018
 7724SOL    HW234635   4.657   0.993   3.192  0.9444  0.0133  0.1463
 7725SOL     OW34636   2.590   3.682   3.928  0.0255 -0.3122  0.0280
 7725SOL    HW134637   2.512   3.737   3.940  0.2125  0.3950 -2.0530
 7725SOL    HW234638   2.623   3.705   3.842 -0.6133  0.4102 -0.0310
 7726SOL     OW34639   4.597   1.510   0.999 -0.5493  0.0529  0.3225
 7726SOL    HW134640   4.597   1.604   0.980  1.6315 -0.6998 -3.4394
 7726SOL    HW234641   4.568   1.473   0.915 -2.1909  1.3959  0.2937
 7727SOL     OW34642   4.260   4.678   6.090 -0.1208 -0.3399 -0.0099
 7727SOL    HW134643   4.321   4.694   6.017  0.4276 -1.6923  0.1611
 7727SOL    HW234644   4.220   4.602   6.048 -0.4059 -0.8442  1.1993
 7728SOL     OW34645   2.388   1.799   4.445  0.0607 -0.1611 -0.7835
 7728SOL    HW134646   2.416   1.808   4.536 -0.2921 -1.6990 -0.5282
 7728SOL    HW234647   2.324   1.728   4.448 -0.8934  0.7216  0.0370
 7729SOL     OW34648   1.992   2.147   0.529  0.2146 -0.2959  0.0470
 7729SOL    HW134649   2.029   2.204   0.596 -0.3924  0.7900 -0.5430
 7729SOL    HW234650   2.070   2.104   0.494 -0.2061 -1.2547  0.2756
 7730SOL     OW34651   0.458   1.395   7.761 -0.1089  0.7993 -0.5449
 7730SOL    HW134652   0.538   1.382   7.813  0.0743 -1.2743 -1.3296
 7730SOL    HW234653   0.442   1.488   7.748  2.3331  1.0101 -2.0256
 7731SOL     OW34654   1.173   1.292   4.727  0.0081 -0.1112  0.0714
 7731SOL    HW134655   1.203   1.248   4.807  0.6278  0.7849  0.3276
 7731SOL    HW234656   1.186   1.220   4.665  3.1343  0.1270  0.4635
 7732SOL     OW34657   1.688   2.958  16.905 -0.5282  0.0163 -0.1411
 7732SOL    HW134658   1.691   2.877  16.955  0.0725  0.0199 -0.1626
 7732SOL    HW234659   1.702   2.927  16.815  2.0722  0.2231  0.1737
 7733SOL     OW34660   1.507   1.397   0.563  0.3669  0.1761 -0.6023
 7733SOL    HW134661   1.579   1.409   0.501 -0.1905  1.4596 -0.9927
 7733SOL    HW234662   1.439   1.417   0.498  0.5137  2.0596 -0.1613
 7734SOL     OW34663   1.912   4.205  11.876 -0.1808 -0.2210  0.2868
 7734SOL    HW134664   1.851   4.215  11.802 -1.0100  1.1768  1.1647
 7734SOL    HW234665   1.974   4.145  11.835  1.1141  1.8549 -0.7643
 7735SOL     OW34666   4.065   3.524   7.918 -0.4012 -0.2891  0.4902
 7735SOL    HW134667   4.141   3.573   7.949 -0.5446  0.0050  0.3805
 7735SOL    HW234668   3.998   3.551   7.981 -0.8132 -2.0066  0.7980
 7736SOL     OW34669   0.339   1.297  11.290 -0.2102 -0.0693 -0.0107
 7736SOL    HW134670   0.309   1.309  11.200 -1.6469  0.2061  0.5057
 7736SOL    HW234671   0.368   1.207  11.276  0.5206 -0.3455  3.2835
 7737SOL     OW34672   4.713   2.976   6.856 -0.6729  0.0439  0.4225
 7737SOL    HW134673   0.064   2.930   6.813 -1.7510 -0.3188 -1.0188
 7737SOL    HW234674   4.705   3.038   6.783 -1.4400  0.6217  1.0024
 7738SOL     OW34675   3.614   4.520   4.000 -0.2106 -0.7524 -0.3615
 7738SOL    HW134676   3.599   4.516   4.094  1.6849 -1.6365 -0.0973
 7738SOL    HW234677   3.693   4.574   3.995 -2.1363  2.1304  0.6646
 7739SOL     OW34678   1.129   3.165   2.134  0.1749  0.2920 -0.1427
 7739SOL    HW134679   1.050   3.201   2.174  0.7767  0.2647  1.0676
 7739SOL    HW234680   1.171   3.123   2.209 -1.9501 -1.2359  0.1966
 7740SOL     OW34681   0.618   3.456   5.187 -0.2716  0.1381  0.9748
 7740SOL    HW134682   0.697   3.452   5.240 -0.2393  0.6869  0.9698
 7740SOL    HW234683   0.652   3.478   5.100 -1.9396 -1.6046 -0.1279
 7741SOL     OW34684   0.033   1.384  10.837  0.6943 -0.7298 -0.3772
 7741SOL    HW134685   4.691   1.314  10.852  0.8437 -0.7089  0.3140
 7741SOL    HW234686   0.067   1.365  10.749  3.8856 -2.2594  1.2027
 7742SOL     OW34687   0.882   3.874  12.194  0.7486 -0.0239 -0.3492
 7742SOL    HW134688   0.924   3.845  12.275  0.9183 -0.0224 -0.4365
 7742SOL    HW234689   0.857   3.791  12.154 -0.8369  0.3992 -0.2580
 7743SOL     OW34690   3.372   1.315   8.229 -0.2009  0.4730 -0.0654
 7743SOL    HW134691   3.410   1.241   8.276 -0.6888 -0.7987 -1.6947
 7743SOL    HW234692   3.299   1.274   8.184 -0.7093  1.0793  0.2068
 7744SOL     OW34693   1.232   4.518   8.424 -0.3562 -0.1912 -0.3455
 7744SOL    HW134694   1.215   4.513   8.330 -0.0140 -0.9672 -0.3687
 7744SOL    HW234695   1.185   4.598   8.447  2.2413  1.1069  0.4285
 7745SOL     OW34696   4.028   2.040   6.107  0.4258 -0.0280  0.0151
 7745SOL    HW134697   4.113   2.034   6.063  1.3878  0.0663  1.8528
 7745SOL    HW234698   4.063   2.067   6.192  0.7945 -2.3116  0.5899
 7746SOL     OW34699   0.888   0.802   2.745 -0.2783  0.3981  0.2487
 7746SOL    HW134700   0.974   0.776   2.714  0.0674  0.7480  0.9187
 7746SOL    HW234701   0.834   0.734   2.704  0.6698 -0.9026  1.1574
 7747SOL     OW34702   1.503   3.185  12.582  0.1004  0.1215  0.5419
 7747SOL    HW134703   1.596   3.180  12.602 -0.0024  2.0328  1.5325
 7747SOL    HW234704   1.479   3.093  12.573 -0.9154  0.3863  0.5754
 7748SOL     OW34705   3.594   0.558  15.445  0.3976 -0.0452 -0.9323
 7748SOL    HW134706   3.522   0.503  15.417  1.4963 -0.7234 -2.4646
 7748SOL    HW234707   3.591   0.624  15.375  1.5402 -0.4885 -1.4080
 7749SOL     OW34708   1.274   1.668   5.859  0.0572  0.1375 -0.2585
 7749SOL    HW134709   1.280   1.702   5.948  0.7198 -1.4317  0.2857
 7749SOL    HW234710   1.348   1.608   5.868 -0.1023  0.4471  2.9309
 7750SOL     OW34711   1.802   2.883   3.300  0.5002  0.4252  0.3102
 7750SOL    HW134712   1.866   2.852   3.235  0.0293 -1.5062  0.7786
 7750SOL    HW234713   1.846   2.855   3.380 -0.2416 -1.1156  0.1750
 7751SOL     OW34714   2.834   1.770   3.212 -0.3448  0.3410  0.2347
 7751SOL    HW134715   2.786   1.707   3.158 -0.5931 -0.2555  1.1651
 7751SOL    HW234716   2.841   1.847   3.156 -0.3629  0.5915  0.5785
 7752SOL     OW34717   1.906   3.491   7.461 -0.2040  0.5643  0.4763
 7752SOL    HW134718   1.971   3.498   7.531  0.4845  1.2848 -0.2485
 7752SOL    HW234719   1.893   3.397   7.466 -0.9117  0.5365 -2.2045
 7753SOL     OW34720   3.157   0.218   1.748  0.3493 -0.7383 -0.4212
 7753SOL    HW134721   3.226   0.251   1.691 -1.5686  0.9126 -1.7784
 7753SOL    HW234722   3.103   0.297   1.747  1.6950  0.1865 -0.0374
 7754SOL     OW34723   0.798   2.495  13.901 -0.1463  0.2444 -0.4137
 7754SOL    HW134724   0.784   2.402  13.921 -0.0862  0.2601 -0.2991
 7754SOL    HW234725   0.763   2.499  13.812 -0.9491 -0.7700 -0.1425
 7755SOL     OW34726   2.324   2.495   4.462  0.2313  0.3210 -0.6223
 7755SOL    HW134727   2.386   2.504   4.534 -0.5526  0.7012  0.0079
 7755SOL    HW234728   2.254   2.439   4.496 -0.1553  2.0444  1.4256
 7756SOL     OW34729   3.434   4.162   7.624  0.0424 -0.4219  0.0042
 7756SOL    HW134730   3.400   4.238   7.670 -0.1121 -0.3659 -0.1995
 7756SOL    HW234731   3.526   4.187   7.610 -0.3500  0.3819 -1.2221
 7757SOL     OW34732   1.998   0.048  13.287  0.1272  0.4291 -0.1384
 7757SOL    HW134733   2.021   0.055  13.380  0.2836 -0.4468 -0.1135
 7757SOL    HW234734   1.944   0.126  13.271  0.1702  1.0577  2.7187
 7758SOL     OW34735   2.245   4.708   2.226  0.8232 -0.5158 -0.4735
 7758SOL    HW134736   2.187   0.049   2.270 -0.5460 -3.5429  1.9399
 7758SOL    HW234737   2.215   4.715   2.135  0.7891  0.6553 -0.3691
 7759SOL     OW34738   2.840   3.008   6.871 -0.4845  0.2400  0.1457
 7759SOL    HW134739   2.812   3.094   6.840 -0.7120  0.1564  0.1223
 7759SOL    HW234740   2.753   2.973   6.890 -0.4406 -0.6377 -1.2396
 7760SOL     OW34741   1.057   4.018   2.867 -0.1497 -0.0741  0.1574
 7760SOL    HW134742   1.093   4.053   2.949 -3.0627  1.5916  0.7603
 7760SOL    HW234743   1.089   4.083   2.805 -0.5969 -0.7624 -0.7822
 7761SOL     OW34744   2.491   3.298  11.479 -0.3149 -0.3558  0.3713
 7761SOL    HW134745   2.472   3.205  11.463 -0.5938 -0.2309 -0.0100
 7761SOL    HW234746   2.453   3.310  11.566 -0.8435  0.0578  0.0779
 7762SOL     OW34747   0.098   0.934  14.709  0.0405  0.8419  0.4836
 7762SOL    HW134748   0.104   0.870  14.638 -0.9082  0.8426  0.3996
 7762SOL    HW234749   0.035   1.000  14.680 -1.7971 -0.3336  1.8325
 7763SOL     OW34750   0.356   4.555   8.201  0.1858  0.7107 -0.0578
 7763SOL    HW134751   0.288   4.588   8.260  0.3989  0.3327  0.3937
 7763SOL    HW234752   0.325   4.465   8.209 -3.5753  1.9336 -0.9066
 7764SOL     OW34753   0.758   3.792   8.706 -0.2791 -0.3290  0.6020
 7764SOL    HW134754   0.681   3.738   8.688 -0.1541 -0.9856  2.0381
 7764SOL    HW234755   0.718   3.870   8.743 -0.5978  0.2032 -0.8731
 7765SOL     OW34756   3.770   3.418   3.473 -0.0663 -0.3031 -0.3739
 7765SOL    HW134757   3.842   3.480   3.463  0.3423 -0.6114  0.6157
 7765SOL    HW234758   3.757   3.399   3.566 -1.5469  1.9136 -0.1496
 7766SOL     OW34759   2.157   1.538   5.571  0.2397  0.2943  0.5060
 7766SOL    HW134760   2.116   1.461   5.610  0.7583 -1.6821 -2.8913
 7766SOL    HW234761   2.102   1.610   5.602  1.8345  2.1365 -0.9340
 7767SOL     OW34762   0.393   1.977   7.264  0.0428 -0.1466  0.1663
 7767SOL    HW134763   0.312   1.944   7.302 -1.9538  2.1272 -2.1480
 7767SOL    HW234764   0.412   2.052   7.321 -3.3062  0.6975  0.1349
 7768SOL     OW34765   2.710   0.058   6.520  0.1104  0.4979 -0.1648
 7768SOL    HW134766   2.710   0.130   6.583 -1.5045  1.2609 -1.0602
 7768SOL    HW234767   2.805   0.045   6.523 -0.1320 -1.5644 -1.0963
 7769SOL     OW34768   2.785   1.522   5.445  0.4292  0.1877  0.1956
 7769SOL    HW134769   2.841   1.477   5.382  0.2660 -1.2308  1.0580
 7769SOL    HW234770   2.784   1.611   5.411 -0.3485  0.0658 -0.1102
 7770SOL     OW34771   0.487   0.415   4.144 -0.6663 -0.2878 -0.5592
 7770SOL    HW134772   0.566   0.452   4.183  0.0867 -0.7626 -1.6239
 7770SOL    HW234773   0.453   0.357   4.212  0.4983  1.3199  1.4053
 7771SOL     OW34774   3.207   1.209  11.885 -0.1704 -0.3974 -0.2822
 7771SOL    HW134775   3.217   1.303  11.900 -1.3342 -0.2957 -0.1410
 7771SOL    HW234776   3.113   1.199  11.898 -0.5223  1.9032 -0.9949
 7772SOL     OW34777   3.272   3.344   3.389  0.4748 -0.5143 -0.1806
 7772SOL    HW134778   3.218   3.395   3.329  1.3012 -0.0232 -0.4987
 7772SOL    HW234779   3.318   3.289   3.326 -0.2323 -1.1830 -0.1269
 7773SOL     OW34780   1.347   4.497   9.055 -0.0512 -0.7368  0.0122
 7773SOL    HW134781   1.289   4.574   9.049  0.7064 -0.2602 -1.3654
 7773SOL    HW234782   1.326   4.471   9.144  1.9452  2.6766  1.4764
 7774SOL     OW34783   1.399   3.431   6.038 -0.2746  0.2522 -0.0889
 7774SOL    HW134784   1.345   3.450   5.962 -0.1234 -0.0273 -0.2688
 7774SOL    HW234785   1.368   3.347   6.072 -3.8372  1.0255 -1.4605
 7775SOL     OW34786   2.626   3.268  17.297  0.4133 -0.0125 -0.0810
 7775SOL    HW134787   2.619   3.362  17.277 -0.9281 -0.4510 -1.7090
 7775SOL    HW234788   2.701   3.245  17.243 -0.5829 -2.3395 -0.4926
 7776SOL     OW34789   0.479   3.705   3.417 -0.3561  0.5190  0.2698
 7776SOL    HW134790   0.541   3.634   3.397 -0.7407 -0.1117  1.3119
 7776SOL    HW234791   0.402   3.654   3.440 -0.2583  0.2909  0.0978
 7777SOL     OW34792   0.433   2.229   7.125  0.1693 -0.0071 -0.0495
 7777SOL    HW134793   0.430   2.135   7.144 -2.5178 -0.3346 -2.0468
 7777SOL    HW234794   0.378   2.270   7.192  3.1428  1.5011  1.4618
 7778SOL     OW34795   3.364   2.661   4.406  0.2910  0.0968  0.3198
 7778SOL    HW134796   3.280   2.674   4.362 -0.9742 -0.2566  2.6063
 7778SOL    HW234797   3.385   2.578   4.362 -2.4947  0.1786 -1.1507
 7779SOL     OW34798   2.370   3.493   2.798 -0.2781  0.2748 -0.3806
 7779SOL    HW134799   2.441   3.554   2.775 -0.4030 -0.7796 -3.6742
 7779SOL    HW234800   2.332   3.537   2.874 -0.7386 -1.4884  0.3964
 7780SOL     OW34801   4.087   3.040   5.964 -0.1106 -0.0239  0.5077
 7780SOL    HW134802   4.147   3.092   5.911 -0.5349  0.5440  0.5824
 7780SOL    HW234803   4.122   3.055   6.052  0.3001 -0.4488  0.4200
 7781SOL     OW34804   0.584   1.592   3.077  0.0029  0.1415 -0.1115
 7781SOL    HW134805   0.659   1.607   3.020  0.3533  1.7787  0.7731
 7781SOL    HW234806   0.561   1.682   3.099 -1.3153 -0.1426 -0.3778
 7782SOL     OW34807   1.838   1.673   7.458 -0.1102 -0.4501  0.0573
 7782SOL    HW134808   1.760   1.694   7.509 -0.6378 -0.5216 -0.7052
 7782SOL    HW234809   1.861   1.765   7.440 -0.4471 -0.5133 -0.7179
 7783SOL     OW34810   0.895   2.307   2.790 -0.0959 -0.4008 -0.2587
 7783SOL    HW134811   0.912   2.247   2.863 -0.3430 -0.7624 -0.4968
 7783SOL    HW234812   0.828   2.264   2.737 -0.2761  0.1961 -0.5172
 7784SOL     OW34813   1.938   1.345   0.017  0.0841 -0.1491  0.2273
 7784SOL    HW134814   1.940   1.415   0.082  2.5113 -0.1988  0.2029
 7784SOL    HW234815   1.982   1.280   0.072  0.8113  0.3907  0.2984
 7785SOL     OW34816   1.338   3.030   2.778 -0.4315 -0.4700 -0.2388
 7785SOL    HW134817   1.365   3.116   2.812 -1.8522  1.2921 -3.5191
 7785SOL    HW234818   1.320   2.982   2.858  0.0533 -1.0779 -0.4964
 7786SOL     OW34819   3.457   4.605   3.780  0.5381 -0.2320 -0.1045
 7786SOL    HW134820   3.493   4.575   3.863  0.2711 -1.4074 -0.4141
 7786SOL    HW234821   3.534   4.598   3.724 -0.3227 -2.4762 -0.9882
 7787SOL     OW34822   4.164   3.715  12.599  0.0231  0.0774 -0.5956
 7787SOL    HW134823   4.082   3.757  12.626  0.7638  1.3440 -0.2807
 7787SOL    HW234824   4.136   3.627  12.575  3.7009 -1.8380  2.1577
 7788SOL     OW34825   2.792   4.657   3.601 -0.4831  0.5363 -0.2643
 7788SOL    HW134826   2.820   0.021   3.569  0.2637  1.5622  3.1147
 7788SOL    HW234827   2.700   4.660   3.576 -0.6889  0.3503  0.4769
 7789SOL     OW34828   0.903   0.751  12.793 -0.0812 -0.1788  0.2717
 7789SOL    HW134829   0.886   0.823  12.733 -2.3795 -0.3569  0.7052
 7789SOL    HW234830   0.904   0.680  12.728  2.2114  0.0959 -0.0022
 7790SOL     OW34831   1.919   1.276   0.440 -0.3413 -0.2132  0.4843
 7790SOL    HW134832   1.847   1.214   0.425  1.2125 -1.6419 -1.1588
 7790SOL    HW234833   1.962   1.246   0.520  0.3344  2.9165  1.2893
 7791SOL     OW34834   1.643   0.595   7.404  0.8463 -0.4366  0.0676
 7791SOL    HW134835   1.732   0.567   7.425  0.6195 -1.7610 -0.7401
 7791SOL    HW234836   1.598   0.514   7.430  0.3082 -0.6894 -1.6383
 7792SOL     OW34837   0.915   1.547   6.175  0.1514 -0.1656 -0.5925
 7792SOL    HW134838   0.840   1.492   6.194 -1.1099  1.2913 -1.3549
 7792SOL    HW234839   0.959   1.537   6.259 -2.1805 -1.2472  0.4710
 7793SOL     OW34840   0.730   3.538  14.071  0.5015  0.1801 -0.5208
 7793SOL    HW134841   0.668   3.589  14.122  0.3320 -0.2053 -0.3494
 7793SOL    HW234842   0.764   3.601  14.007 -0.3304 -1.0218 -2.1818
 7794SOL     OW34843   2.906   4.447  17.621  0.3838 -0.5383  0.3800
 7794SOL    HW134844   2.877   4.424   0.021 -1.6369 -0.8003 -0.3592
 7794SOL    HW234845   2.832   4.433  17.563  0.3054  1.4606  0.0040
 7795SOL     OW34846   1.961   1.557   7.226 -0.7836  0.4359 -0.5064
 7795SOL    HW134847   1.906   1.592   7.297  1.5379 -1.4557  2.2271
 7795SOL    HW234848   1.895   1.543   7.159 -0.3360 -0.8949 -0.6725
 7796SOL     OW34849   0.880   2.162   4.820  0.2772  0.1899 -0.1918
 7796SOL    HW134850   0.807   2.169   4.758  0.0709  0.3163  0.0667
 7796SOL    HW234851   0.867   2.082   4.871 -0.9609 -0.5142 -1.5730
 7797SOL     OW34852   4.073   2.699   5.667 -0.1086 -0.5452  0.4656
 7797SOL    HW134853   4.156   2.651   5.667  0.1089 -0.1891 -2.1458
 7797SOL    HW234854   4.021   2.633   5.622  0.5100 -0.9601  0.3717
 7798SOL     OW34855   1.270   4.346  16.687 -0.3475  0.1598 -0.2799
 7798SOL    HW134856   1.200   4.390  16.735  1.1339  0.2963  1.7579
 7798SOL    HW234857   1.340   4.411  16.686  2.3598 -2.7426 -1.1205
 7799SOL     OW34858   1.225   1.242   6.827 -0.3803  0.3220  0.3964
 7799SOL    HW134859   1.235   1.148   6.814  0.3413  0.4789 -0.2016
 7799SOL    HW234860   1.183   1.253   6.912 -2.7455 -0.3251 -0.6931
 7800SOL     OW34861   1.651   1.884  10.603  0.5777 -0.2503  0.0103
 7800SOL    HW134862   1.682   1.963  10.559 -2.6894  1.3948  0.6633
 7800SOL    HW234863   1.616   1.925  10.682  1.8355  1.2720 -0.2317
 7801SOL     OW34864   3.808   2.629   2.602  0.3214  0.1366 -0.5062
 7801SOL    HW134865   3.797   2.719   2.571 -0.6963  0.4932  0.8683
 7801SOL    HW234866   3.862   2.602   2.528 -1.2215  0.3242 -1.7062
 7802SOL     OW34867   1.447   2.488   2.393  0.5818 -0.0915  0.0932
 7802SOL    HW134868   1.351   2.487   2.400  0.5539  1.4323 -0.0021
 7802SOL    HW234869   1.469   2.451   2.478  1.0670  1.5572  0.6864
 7803SOL     OW34870   2.300   1.255  10.492 -0.6949 -0.3397  0.0259
 7803SOL    HW134871   2.303   1.164  10.524 -2.1503  0.3483  2.1342
 7803SOL    HW234872   2.281   1.304  10.572 -1.1283 -1.6421  0.7216
 7804SOL     OW34873   2.652   4.028  15.156 -0.6749 -0.0364 -0.0467
 7804SOL    HW134874   2.577   3.970  15.140  0.8628 -1.7669 -0.9666
 7804SOL    HW234875   2.659   4.074  15.073  1.9872 -0.4819 -0.0585
 7805SOL     OW34876   1.377   1.514   4.743  0.6231 -0.6110 -0.4615
 7805SOL    HW134877   1.358   1.586   4.683  0.2323 -0.2918  0.0448
 7805SOL    HW234878   1.297   1.463   4.731 -0.7519  1.3326  0.4400
 7806SOL     OW34879   4.571   2.574   7.769 -0.0988 -1.0162  0.5753
 7806SOL    HW134880   4.646   2.591   7.825  0.1962 -1.4523  0.3221
 7806SOL    HW234881   4.564   2.482   7.794 -0.0097 -0.6390  1.9738
 7807SOL     OW34882   3.097   3.531   3.561  0.4551  0.2092 -0.6562
 7807SOL    HW134883   3.155   3.463   3.595  0.6731  0.9882  0.5323
 7807SOL    HW234884   3.161   3.589   3.520  1.3674 -1.3507 -1.4554
 7808SOL     OW34885   2.105   1.164   5.516  0.4048  0.1143  0.0506
 7808SOL    HW134886   2.068   1.232   5.460 -0.5247  0.1564  0.7048
 7808SOL    HW234887   2.084   1.088   5.463  0.3003  0.9595 -1.1149
 7809SOL     OW34888   3.371   0.474   2.412 -0.4131 -0.1613 -0.4857
 7809SOL    HW134889   3.302   0.408   2.404  0.2549 -0.7171 -1.6359
 7809SOL    HW234890   3.384   0.511   2.325 -2.4341  2.2342  0.2330
 7810SOL     OW34891   0.770   1.031  15.177  0.2592  0.2871 -0.0964
 7810SOL    HW134892   0.793   1.041  15.270  2.3668 -1.4777 -0.4281
 7810SOL    HW234893   0.855   1.063  15.145  0.7310  0.1263  0.9733
 7811SOL     OW34894   3.356   1.887  14.813 -1.0954 -0.1812  0.5539
 7811SOL    HW134895   3.433   1.931  14.850 -1.1473 -0.4957  1.0388
 7811SOL    HW234896   3.323   1.958  14.760  0.6097  0.3891  0.2373
 7812SOL     OW34897   1.632   2.497   5.981 -0.1237  0.0663  0.0946
 7812SOL    HW134898   1.637   2.589   6.006  1.1715  0.2019 -0.6847
 7812SOL    HW234899   1.568   2.500   5.910  0.0858  1.0605 -0.0484
 7813SOL     OW34900   3.408   3.229  17.532 -0.2206 -0.1008 -0.7253
 7813SOL    HW134901   3.463   3.302  17.560  1.6020 -1.8968  0.3828
 7813SOL    HW234902   3.418   3.174  17.610 -4.3583  0.5460  0.2298
 7814SOL     OW34903   3.253   3.538   9.452  0.2602 -0.0733 -0.1986
 7814SOL    HW134904   3.226   3.457   9.409  0.1657 -0.2124  0.1241
 7814SOL    HW234905   3.338   3.550   9.410 -0.3197  2.3735 -0.6979
 7815SOL     OW34906   3.325   2.816   8.843  0.0161  0.9142 -0.1487
 7815SOL    HW134907   3.320   2.751   8.774 -0.8727  0.1829  0.6066
 7815SOL    HW234908   3.281   2.765   8.912  1.2819 -0.4384 -0.3522
 7816SOL     OW34909   1.958   3.590  13.523 -0.0539 -0.1197  0.0857
 7816SOL    HW134910   1.963   3.677  13.561 -4.0909  0.3050 -0.2899
 7816SOL    HW234911   1.931   3.626  13.438  1.6358 -1.0879 -0.8746
 7817SOL     OW34912   1.927   2.002   5.879  0.1198  0.3257  0.0253
 7817SOL    HW134913   1.939   2.096   5.866  0.6872  0.3187  0.4938
 7817SOL    HW234914   2.017   1.970   5.878 -0.1143 -0.4422  3.4125
 7818SOL     OW34915   3.134   0.814   4.118  0.1330  0.0362 -0.1179
 7818SOL    HW134916   3.090   0.866   4.185  3.7776  1.5408  1.1046
 7818SOL    HW234917   3.224   0.829   4.148  0.0488  1.8486 -0.7910
 7819SOL     OW34918   3.047   1.371   4.675 -0.3505 -0.5242 -0.1118
 7819SOL    HW134919   3.095   1.386   4.593 -1.5835  1.3053 -0.4911
 7819SOL    HW234920   3.106   1.415   4.736  1.7017 -2.3759 -0.7506
 7820SOL     OW34921   0.408   1.664   6.547  0.1073 -0.4868 -0.2576
 7820SOL    HW134922   0.314   1.668   6.528  0.0713  1.4997  0.3544
 7820SOL    HW234923   0.428   1.578   6.511  0.1516 -0.8841  0.7266
 7821SOL     OW34924   2.696   4.028   8.318  0.1529 -0.3592  0.2554
 7821SOL    HW134925   2.648   3.980   8.385 -0.5994  1.2533  0.8564
 7821SOL    HW234926   2.781   3.990   8.339 -0.4961 -1.6401  0.5898
 7822SOL     OW34927   0.469   1.944   0.061  0.4341  0.3127  0.7469
 7822SOL    HW134928   0.474   2.006  17.676 -0.1713 -0.4267  0.0800
 7822SOL    HW234929   0.404   1.883   0.027  1.0717  0.4246 -0.6608
 7823SOL     OW34930   1.609   2.954   5.839 -0.5947 -0.5442 -0.0129
 7823SOL    HW134931   1.589   3.048   5.836 -1.6201 -0.7488  0.2224
 7823SOL    HW234932   1.627   2.939   5.747 -0.0604  0.2518 -0.0409
 7824SOL     OW34933   3.655   4.106   1.794 -0.0392 -0.0226  0.2977
 7824SOL    HW134934   3.670   4.066   1.708  1.6822 -1.4917  1.3015
 7824SOL    HW234935   3.658   4.031   1.852 -0.3393 -0.1726  0.1228
 7825SOL     OW34936   0.154   2.635   4.580 -0.8051  0.3766 -0.0433
 7825SOL    HW134937   0.201   2.551   4.581  0.2191  1.0031  2.6243
 7825SOL    HW234938   0.120   2.634   4.669 -0.4588 -3.8264  0.0624
 7826SOL     OW34939   1.678   3.281   3.905 -0.9319 -0.2928  0.2629
 7826SOL    HW134940   1.677   3.238   3.819 -1.2092 -0.9763  0.6122
 7826SOL    HW234941   1.603   3.337   3.889 -0.2033  0.9372  1.1425
 7827SOL     OW34942   1.755   2.465  11.972  0.0028 -0.0355 -0.3272
 7827SOL    HW134943   1.713   2.389  12.013 -2.3636  0.1991 -2.3177
 7827SOL    HW234944   1.816   2.430  11.906 -0.7044  1.0066 -1.5389
 7828SOL     OW34945   1.703   4.631   7.615 -0.3197 -0.1279  0.0965
 7828SOL    HW134946   1.709   4.632   7.520 -0.2109  0.7123  0.1068
 7828SOL    HW234947   1.788   4.596   7.643  0.1007  0.3956 -0.5347
 7829SOL     OW34948   1.669   0.726   9.165 -0.5718 -0.8309  0.0137
 7829SOL    HW134949   1.601   0.675   9.120 -0.8523  0.9003 -1.5402
 7829SOL    HW234950   1.753   0.708   9.125 -0.6856  0.7300 -0.9521
 7830SOL     OW34951   3.044   4.165  16.951  0.0532  0.0797 -0.4546
 7830SOL    HW134952   3.125   4.120  16.926  0.6230  1.1225 -0.4803
 7830SOL    HW234953   3.008   4.176  16.863 -0.3361 -0.0848 -0.3169
 7831SOL     OW34954   1.690   1.134  17.521  0.3537  0.4501  0.0450
 7831SOL    HW134955   1.750   1.208  17.516 -1.5349  1.8874 -1.2725
 7831SOL    HW234956   1.707   1.099  17.608 -0.5925 -2.8820 -1.1136
 7832SOL     OW34957   2.680   3.351   9.032 -0.1293 -0.3522 -0.1337
 7832SOL    HW134958   2.760   3.359   8.981  0.1476  0.3554  0.4043
 7832SOL    HW234959   2.621   3.406   8.980  0.0464  1.4548  1.5475
 7833SOL     OW34960   4.660   0.054   5.421  0.7989 -0.4940 -0.4035
 7833SOL    HW134961   0.026   0.032   5.388  0.7585 -1.1557 -0.0771
 7833SOL    HW234962   4.659   0.041   5.516 -2.4475 -1.9550 -0.6358
 7834SOL     OW34963   1.158   4.421   8.142 -0.3516 -0.2455  0.1554
 7834SOL    HW134964   1.150   4.339   8.191  4.3783 -0.2388  0.9449
 7834SOL    HW234965   1.105   4.406   8.064 -0.4313 -1.0665  0.3663
 7835SOL     OW34966   1.252   1.151  10.355 -0.0265  0.6474  0.7096
 7835SOL    HW134967   1.182   1.090  10.332 -0.4666  1.0462  1.0031
 7835SOL    HW234968   1.230   1.168  10.447 -0.5222 -1.4129  0.9628
 7836SOL     OW34969   3.840   1.647   4.818 -0.7784  0.0244 -0.1646
 7836SOL    HW134970   3.745   1.658   4.827 -0.3736  1.5985  2.2029
 7836SOL    HW234971   3.841   1.568   4.764  2.3192 -0.3131  0.3881
 7837SOL     OW34972   3.231   2.487   7.735 -0.0865 -0.0414 -0.2359
 7837SOL    HW134973   3.226   2.395   7.761  0.7956  0.0858  0.3930
 7837SOL    HW234974   3.283   2.483   7.655  0.7661 -0.0953  0.3216
 7838SOL     OW34975   3.780   3.971   7.481 -0.1737  0.8478 -0.1009
 7838SOL    HW134976   3.720   3.918   7.429  0.7578 -1.1728  0.8980
 7838SOL    HW234977   3.867   3.941   7.453 -1.2432 -0.3811 -2.0765
 7839SOL     OW34978   2.202   3.680   7.166 -0.1579 -0.7217 -0.5282
 7839SOL    HW134979   2.278   3.629   7.193 -0.1394 -0.9141 -0.9349
 7839SOL    HW234980   2.192   3.646   7.077 -0.9775 -1.8702  0.0178
 7840SOL     OW34981   1.517   4.111   8.803  0.4475 -0.2528  0.1357
 7840SOL    HW134982   1.440   4.162   8.828  1.7036  0.8327  1.7892
 7840SOL    HW234983   1.540   4.074   8.888  0.4057 -1.8235 -0.5267
 7841SOL     OW34984   3.010   1.538  13.938 -0.1411  0.3146 -0.2840
 7841SOL    HW134985   2.971   1.579  14.015 -1.0497  0.2705 -0.7272
 7841SOL    HW234986   2.951   1.576  13.873  0.0476  2.7771  0.9872
 7842SOL     OW34987   2.761   3.327  13.298  0.2217  0.3514 -0.1320
 7842SOL    HW134988   2.828   3.390  13.271 -0.3283  1.4720  1.1556
 7842SOL    HW234989   2.700   3.387  13.340 -1.0842 -0.2972 -1.0769
 7843SOL     OW34990   1.809   2.166   7.934  0.4993  0.0344 -0.4225
 7843SOL    HW134991   1.878   2.113   7.894 -0.1353 -1.1942  0.1027
 7843SOL    HW234992   1.849   2.243   7.976 -1.2626  0.3377  0.6919
 7844SOL     OW34993   2.501   0.908  17.389 -0.2163  0.3529 -0.7413
 7844SOL    HW134994   2.546   0.876  17.468  1.1890  0.2646 -1.5846
 7844SOL    HW234995   2.441   0.972  17.425 -1.4319  0.7630 -3.5111
 7845SOL     OW34996   0.703   1.524  15.851 -0.6056 -0.1372 -0.4153
 7845SOL    HW134997   0.672   1.600  15.899  3.1855  1.2732 -0.2001
 7845SOL    HW234998   0.794   1.553  15.842 -1.1093  1.4135 -0.5013
 7846SOL     OW34999   0.911   3.103  13.584 -0.0045  0.3394  0.7830
 7846SOL    HW135000   0.953   3.045  13.649 -0.6150  0.5757  1.3867
 7846SOL    HW235001   0.984   3.118  13.524  0.1118  0.1122  0.8678
 7847SOL     OW35002   4.190   1.352  11.999  0.1134 -0.2951  0.0350
 7847SOL    HW135003   4.255   1.320  12.061  1.1048 -0.1678 -0.9373
 7847SOL    HW235004   4.114   1.368  12.056  0.3930  1.7501 -0.1548
 7848SOL     OW35005   3.323   1.710   4.581  0.0048 -0.2550  0.4091
 7848SOL    HW135006   3.290   1.631   4.625  1.2732 -0.0475  1.7311
 7848SOL    HW235007   3.253   1.776   4.590  1.3062  1.2294 -0.4829
 7849SOL     OW35008   3.541   1.802  11.415 -0.1308  0.3582  0.1210
 7849SOL    HW135009   3.599   1.768  11.347 -0.2550  2.3681 -1.0067
 7849SOL    HW235010   3.472   1.837  11.359  1.1528  0.9999 -1.0615
 7850SOL     OW35011   4.354   4.638   3.844  0.5774 -0.2834  0.0803
 7850SOL    HW135012   4.429   4.693   3.866  2.1931 -1.3334 -2.8475
 7850SOL    HW235013   4.313   4.695   3.778 -0.1766 -2.1200 -1.0473
 7851SOL     OW35014   2.049   0.176   1.506  0.2052  0.2259 -0.4034
 7851SOL    HW135015   2.127   0.192   1.559 -2.0429  1.6465  2.4742
 7851SOL    HW235016   1.979   0.236   1.532 -0.4946 -1.1971  0.9878
 7852SOL     OW35017   3.386   4.610   5.642  0.4430 -0.2236 -0.0790
 7852SOL    HW135018   3.369   4.697   5.605 -0.2206  0.0134  0.7827
 7852SOL    HW235019   3.313   4.614   5.705 -2.0025  0.8491 -2.9647
 7853SOL     OW35020   2.914   2.787   2.930  0.5533 -0.2347  0.2131
 7853SOL    HW135021   2.948   2.753   3.013  0.3568  0.1718  0.4561
 7853SOL    HW235022   2.892   2.873   2.965 -1.3209 -0.3314 -0.7309
 7854SOL     OW35023   0.394   2.802  10.990 -0.3879  0.9024 -0.4242
 7854SOL    HW135024   0.350   2.843  11.065  0.6178  2.3506 -0.6182
 7854SOL    HW235025   0.478   2.784  11.034 -0.0702  1.6375 -0.7344
 7855SOL     OW35026   3.555   2.714   6.206 -1.0424 -0.2230 -0.4364
 7855SOL    HW135027   3.576   2.770   6.281  1.3143  0.4038 -1.5921
 7855SOL    HW235028   3.607   2.634   6.207  0.8614  1.0063 -1.5982
 7856SOL     OW35029   3.015   0.547   4.915 -0.8303 -0.2685 -0.0095
 7856SOL    HW135030   2.984   0.463   4.948  1.0093 -0.7232  0.5594
 7856SOL    HW235031   3.101   0.526   4.879 -1.0069  0.4129 -0.8364
 7857SOL     OW35032   0.757   0.929   0.903  0.3048  0.1135  0.8814
 7857SOL    HW135033   0.809   0.855   0.872  2.2194  1.4888  0.7573
 7857SOL    HW235034   0.758   0.920   0.998  0.4029 -1.4428  0.7401
 7858SOL     OW35035   3.086   2.026  14.379  0.0046 -0.1512  0.5221
 7858SOL    HW135036   3.072   1.936  14.353 -0.5814  0.1149 -0.0734
 7858SOL    HW235037   3.067   2.070  14.296 -0.2844  0.2038  0.7778
 7859SOL     OW35038   1.731   2.839  14.820  0.8717 -0.3404  0.3493
 7859SOL    HW135039   1.719   2.933  14.805 -1.4316 -0.9304 -1.6201
 7859SOL    HW235040   1.778   2.808  14.742 -1.1301  1.5989 -1.6566
 7860SOL     OW35041   0.338   0.416  10.043 -0.2491  0.0510  0.2856
 7860SOL    HW135042   0.417   0.458  10.077 -0.1570 -0.2767  0.4759
 7860SOL    HW235043   0.270   0.441  10.105  2.2438 -0.6374  3.2824
 7861SOL     OW35044   1.923   1.393   6.851  0.5171  1.0664  0.5587
 7861SOL    HW135045   1.856   1.367   6.914 -0.6982 -0.6455 -1.4637
 7861SOL    HW235046   2.003   1.369   6.898  0.4186  1.3278  0.8609
 7862SOL     OW35047   4.010   3.171   4.141  0.4150  0.2300  0.8935
 7862SOL    HW135048   4.076   3.125   4.088  0.3861  1.0546  0.1456
 7862SOL    HW235049   4.064   3.173   4.220  1.2098  0.8059  0.3348
 7863SOL     OW35050   1.984   3.514   5.654 -0.0756 -0.6091 -0.3211
 7863SOL    HW135051   1.998   3.600   5.614 -0.0076 -0.3521  0.2497
 7863SOL    HW235052   1.941   3.540   5.735  1.4337  0.1515  0.2257
 7864SOL     OW35053   3.653   2.154   2.133  0.0546 -0.2101  0.8107
 7864SOL    HW135054   3.622   2.063   2.124  0.8704 -0.2770 -1.2562
 7864SOL    HW235055   3.667   2.175   2.040 -2.4168  1.4289  0.7917
 7865SOL     OW35056   0.912   2.864   3.165 -0.0612  0.0092 -0.2744
 7865SOL    HW135057   0.895   2.797   3.231  2.1776  0.6027  0.8848
 7865SOL    HW235058   0.960   2.808   3.104 -0.9360 -0.0338 -0.9310
 7866SOL     OW35059   1.534   4.263   6.396 -0.4506  0.2125  0.1939
 7866SOL    HW135060   1.464   4.199   6.410 -2.4116  2.6259  1.2746
 7866SOL    HW235061   1.475   4.338   6.396  1.2494  1.5469 -1.8573
 7867SOL     OW35062   1.953   3.849   4.006  0.0331  0.2249  0.3431
 7867SOL    HW135063   2.003   3.851   4.088 -0.3761 -0.5942  0.6146
 7867SOL    HW235064   1.931   3.942   4.013  0.1754  0.5210 -3.4029
 7868SOL     OW35065   0.600   1.604   4.447 -0.0460 -0.0567 -0.3934
 7868SOL    HW135066   0.579   1.659   4.523  0.1837 -0.0648 -0.3244
 7868SOL    HW235067   0.670   1.557   4.492 -1.2303 -2.5450 -1.1925
 7869SOL     OW35068   0.345   4.664  11.768  0.3618  0.8813  0.7417
 7869SOL    HW135069   0.346   4.576  11.730 -1.2667  1.0268  0.3651
 7869SOL    HW235070   0.384   4.711  11.694  0.6569  0.9010  0.9095
 7870SOL     OW35071   2.129   2.634   5.651 -1.5169 -0.1016  0.0723
 7870SOL    HW135072   2.071   2.667   5.583 -1.0967 -1.6762 -1.0604
 7870SOL    HW235073   2.057   2.598   5.704 -1.4535 -2.0315 -1.1383
 7871SOL     OW35074   4.654   1.106  15.454 -0.0060  0.1326 -0.8406
 7871SOL    HW135075   0.011   1.130  15.504 -0.2193  1.6487 -1.2253
 7871SOL    HW235076   4.696   1.118  15.369  1.6643 -0.2955 -0.0819
 7872SOL     OW35077   1.918   3.967   8.627  0.0551 -0.1695  0.2307
 7872SOL    HW135078   2.012   3.960   8.643  0.2337 -0.7083 -1.0135
 7872SOL    HW235079   1.889   4.037   8.685 -0.5292  0.1802 -0.4855
 7873SOL     OW35080   3.580   2.406  14.504  0.7199 -0.0634  0.2421
 7873SOL    HW135081   3.557   2.448  14.587 -0.7144 -0.6595  0.1518
 7873SOL    HW235082   3.535   2.323  14.523 -1.0480  0.8258 -0.0185
 7874SOL     OW35083   4.241   2.994   2.308  0.0904 -0.7073  0.3320
 7874SOL    HW135084   4.236   2.900   2.288  0.5686 -0.7768  0.5448
 7874SOL    HW235085   4.157   3.003   2.352 -0.8279 -1.9664 -1.1546
 7875SOL     OW35086   2.753   3.432   2.685  0.5387 -0.0142  0.3001
 7875SOL    HW135087   2.685   3.454   2.622  2.5257 -1.0107 -2.2034
 7875SOL    HW235088   2.817   3.497   2.653  0.8929 -0.4003  0.2290
 7876SOL     OW35089   0.091   0.283  12.723  0.3236 -0.0126 -0.6415
 7876SOL    HW135090   0.031   0.304  12.794  1.6891  0.9370  0.2377
 7876SOL    HW235091   0.175   0.262  12.764 -0.3502  0.3074  0.8840
 7877SOL     OW35092   4.350   1.905   5.312 -0.1970 -0.5160  0.7053
 7877SOL    HW135093   4.291   1.885   5.384 -0.6480  0.5109  0.6234
 7877SOL    HW235094   4.278   1.888   5.252  0.2129 -1.3778  0.4675
 7878SOL     OW35095   1.365   2.311   4.482  0.1072  0.4837  0.1418
 7878SOL    HW135096   1.460   2.324   4.476  0.2063  0.5809  1.8290
 7878SOL    HW235097   1.348   2.239   4.422 -1.3450  0.0202  1.0957
 7879SOL     OW35098   3.953   4.306   7.680  0.0273  0.1940  0.4252
 7879SOL    HW135099   3.923   4.393   7.656  1.3643  0.7011  0.5897
 7879SOL    HW235100   4.037   4.343   7.706 -1.3133  1.3504  3.1094
 7880SOL     OW35101   2.813   1.652   7.352 -0.2623  0.1653  0.0375
 7880SOL    HW135102   2.883   1.588   7.366 -0.1881  0.4244  0.8408
 7880SOL    HW235103   2.788   1.642   7.260 -1.0476  0.1309  0.2539
 7881SOL     OW35104   1.171   3.291  14.046 -0.2956  0.2278 -0.3428
 7881SOL    HW135105   1.079   3.285  14.071 -0.1942  0.8876  0.1837
 7881SOL    HW235106   1.183   3.220  13.983 -2.2760  1.6076 -2.2439
 7882SOL     OW35107   3.479   4.353   7.100 -0.1427  0.0845 -0.0767
 7882SOL    HW135108   3.451   4.262   7.107  1.6905 -0.3841  1.2218
 7882SOL    HW235109   3.510   4.366   7.190 -0.0364 -1.6044  0.1158
 7883SOL     OW35110   1.794   0.905   3.164 -0.3989  0.0081  0.3298
 7883SOL    HW135111   1.861   0.870   3.106  0.0013  0.7104  0.3697
 7883SOL    HW235112   1.793   0.995   3.132 -1.6254 -0.2643 -0.3656
 7884SOL     OW35113   4.334   1.383   5.598 -0.2448 -0.0965 -0.5981
 7884SOL    HW135114   4.411   1.384   5.654 -1.1550  3.6900  0.5484
 7884SOL    HW235115   4.351   1.308   5.541  1.2394 -0.2500  0.0393
 7885SOL     OW35116   0.219   4.605  16.359  0.0838 -0.0007 -0.1884
 7885SOL    HW135117   0.239   4.652  16.441  0.5486  1.7205 -1.2926
 7885SOL    HW235118   0.291   4.542  16.356 -0.3580 -0.6917  3.4163
 7886SOL     OW35119   3.517   1.057  11.515 -0.0843  0.7991  0.0941
 7886SOL    HW135120   3.526   1.003  11.437  1.5172  1.2655 -0.0459
 7886SOL    HW235121   3.575   1.129  11.488  2.5053 -1.3876 -0.2012
 7887SOL     OW35122   4.034   2.782   8.107 -0.6424  0.1552 -0.0956
 7887SOL    HW135123   4.106   2.768   8.045 -0.2321 -0.3032  0.4782
 7887SOL    HW235124   4.006   2.872   8.094  2.4087  1.4237  2.2275
 7888SOL     OW35125   3.605   4.025   9.359  0.5237 -0.2665 -0.1270
 7888SOL    HW135126   3.573   4.064   9.278 -1.4754  0.6290  1.1056
 7888SOL    HW235127   3.529   3.967   9.369  0.3347  0.0775  0.3807
 7889SOL     OW35128   1.045   4.606   6.392 -0.1512  0.0254 -0.4386
 7889SOL    HW135129   0.991   4.534   6.360 -1.0158  0.4862 -0.0368
 7889SOL    HW235130   1.123   4.596   6.337  0.5407  2.4201  0.0876
 7890SOL     OW35131   2.734   0.117   9.485 -0.0909  0.8749  0.7512
 7890SOL    HW135132   2.823   0.145   9.465 -0.9555  2.2830 -1.0500
 7890SOL    HW235133   2.748   0.083   9.573  0.4307 -0.1749  0.2694
 7891SOL     OW35134   3.435   1.031  16.699  0.2467 -0.6347 -0.4308
 7891SOL    HW135135   3.382   1.101  16.661  0.0876 -0.9728 -0.8328
 7891SOL    HW235136   3.368   0.968  16.727  1.4210 -0.7780  2.0361
 7892SOL     OW35137   2.723   3.845   4.164 -0.1354 -0.0847 -0.0849
 7892SOL    HW135138   2.682   3.930   4.181 -3.2087 -1.7620  0.8590
 7892SOL    HW235139   2.658   3.803   4.107  0.1349  2.3410 -2.2137
 7893SOL     OW35140   3.154   0.992  12.425  0.5297 -0.3230 -0.0461
 7893SOL    HW135141   3.084   1.056  12.431  1.9326  1.2085 -0.0277
 7893SOL    HW235142   3.146   0.963  12.334  2.5766 -0.5506 -0.1597
 7894SOL     OW35143   3.184   0.383  13.460  0.5800 -0.2227 -0.1671
 7894SOL    HW135144   3.252   0.434  13.504  1.3995 -0.9558 -0.5857
 7894SOL    HW235145   3.219   0.295  13.476  0.3315 -0.3873 -0.5110
 7895SOL     OW35146   0.202   3.539   9.214  0.3568  0.1524 -0.1078
 7895SOL    HW135147   0.270   3.524   9.148 -1.2446 -1.1312 -1.4835
 7895SOL    HW235148   0.228   3.477   9.281  0.4060  0.9505  0.6126
 7896SOL     OW35149   3.698   3.187   5.121 -0.0812 -0.0197 -0.0437
 7896SOL    HW135150   3.647   3.179   5.202  2.0952 -4.5781  0.8790
 7896SOL    HW235151   3.619   3.185   5.067 -1.7097  2.2624  2.2554
 7897SOL     OW35152   0.007   2.496  16.932 -0.2290  0.4718  0.0087
 7897SOL    HW135153   4.649   2.462  16.892 -0.9839 -0.1488  2.0138
 7897SOL    HW235154   0.049   2.525  16.851 -1.1534  1.5773 -0.0843
 7898SOL     OW35155   0.149   2.563   9.295  0.2286 -0.4235  0.6981
 7898SOL    HW135156   0.148   2.658   9.295 -0.7698 -0.4285 -0.6701
 7898SOL    HW235157   0.238   2.538   9.320 -0.2924 -1.8916  1.1192
 7899SOL     OW35158   0.341   2.437   4.126 -0.4213 -0.2300  0.0802
 7899SOL    HW135159   0.302   2.419   4.211 -1.0537  0.2825 -0.0998
 7899SOL    HW235160   0.333   2.352   4.083 -1.1642 -1.0567  1.8348
 7900SOL     OW35161   2.241   0.981   2.353  0.6603 -0.4894  0.5294
 7900SOL    HW135162   2.224   0.981   2.447 -0.3030  0.7981  0.3515
 7900SOL    HW235163   2.252   1.075   2.337 -0.9822  0.0499  2.6466
 7901SOL     OW35164   3.901   0.928   3.747  0.1826 -0.4698 -0.7390
 7901SOL    HW135165   3.992   0.898   3.751  1.1101  2.6492  0.8850
 7901SOL    HW235166   3.907   0.987   3.822  0.1059 -0.0733 -1.0439
 7902SOL     OW35167   3.045   0.989   6.756  0.3152 -0.3904  0.2360
 7902SOL    HW135168   3.021   1.066   6.808 -0.6044 -0.2241 -0.4492
 7902SOL    HW235169   2.959   0.962   6.725  0.5201  0.2815 -0.9423
 7903SOL     OW35170   3.351   0.980  11.822 -0.0567  0.3957 -0.2106
 7903SOL    HW135171   3.323   0.938  11.903  1.7691  0.4105  0.4293
 7903SOL    HW235172   3.310   1.066  11.837  1.8175  1.0107  1.3392
 7904SOL     OW35173   1.498   2.623   6.462  0.0510 -0.2167 -0.2599
 7904SOL    HW135174   1.561   2.564   6.421 -0.3883 -0.9421  0.1076
 7904SOL    HW235175   1.431   2.559   6.488 -1.5967  0.8830 -1.7816
 7905SOL     OW35176   2.904   2.658  17.646  0.4920  0.1709 -0.3490
 7905SOL    HW135177   2.854   2.710   0.021 -0.2910 -0.5020 -0.4150
 7905SOL    HW235178   2.951   2.599   0.017 -0.3848  2.1778  2.3643
 7906SOL     OW35179   0.433   2.685   5.283  0.5628 -0.3783  0.3036
 7906SOL    HW135180   0.393   2.599   5.278 -0.9073  0.2754  0.9728
 7906SOL    HW235181   0.499   2.682   5.213 -0.3106 -0.3527 -0.5237
 7907SOL     OW35182   0.682   2.145  11.603  0.2237 -0.3611  0.2360
 7907SOL    HW135183   0.725   2.214  11.551  3.2365 -1.4880  1.2203
 7907SOL    HW235184   0.669   2.077  11.537  2.1044 -1.1608  0.6926
 7908SOL     OW35185   2.404   1.887   0.633  0.2945  0.0045  0.2044
 7908SOL    HW135186   2.432   1.811   0.685 -2.1693 -0.3351  1.0370
 7908SOL    HW235187   2.405   1.957   0.699  2.1757  1.3923 -1.2701
 7909SOL     OW35188   1.872   0.467   2.917  0.9145 -0.2587  0.1465
 7909SOL    HW135189   1.946   0.505   2.868 -0.6435  1.4404 -0.8984
 7909SOL    HW235190   1.920   0.447   2.997  3.2004  1.8732 -0.6775
 7910SOL     OW35191   3.712   1.828  17.563  0.3893  0.1126  0.8399
 7910SOL    HW135192   3.719   1.890  17.636  1.6238  1.5392 -0.5023
 7910SOL    HW235193   3.666   1.876  17.494 -0.7472 -3.6176 -0.9796
 7911SOL     OW35194   1.843   3.634  11.350 -0.1803 -0.1352 -0.0306
 7911SOL    HW135195   1.925   3.608  11.307 -0.6798  0.3568 -1.2583
 7911SOL    HW235196   1.786   3.656  11.277 -2.2493  2.3529  2.3289
 7912SOL     OW35197   2.059   3.354   0.989 -0.0866  0.4137  0.2997
 7912SOL    HW135198   2.137   3.410   0.997 -0.8369  1.3063  1.2278
 7912SOL    HW235199   2.061   3.329   0.896  2.9180  0.9021  0.2340
 7913SOL     OW35200   0.671   3.196   2.270  0.5465  0.3051  0.1466
 7913SOL    HW135201   0.672   3.189   2.175 -0.3449  0.7368  0.1077
 7913SOL    HW235202   0.643   3.107   2.290  0.0386  0.1379 -1.2889
 7914SOL     OW35203   1.035   1.001   5.014  0.0696 -0.1638 -0.3285
 7914SOL    HW135204   1.019   0.922   4.963  2.6890  0.8510 -2.7232
 7914SOL    HW235205   0.947   1.018   5.047 -0.5201  0.6806 -2.3581
 7915SOL     OW35206   2.029   4.406  12.043 -0.2724  0.5276  0.1550
 7915SOL    HW135207   2.018   4.489  11.997 -2.3344 -0.0907 -0.4655
 7915SOL    HW235208   1.976   4.346  11.990  1.0293  0.6909 -1.3223
 7916SOL     OW35209   2.898   2.303   5.217 -0.0929 -0.0485 -0.0032
 7916SOL    HW135210   2.892   2.329   5.125  0.6781  2.0245  0.5423
 7916SOL    HW235211   2.809   2.277   5.241  0.2319 -0.8844  0.2938
 7917SOL     OW35212   1.523   2.929   8.839  0.0682 -0.0032 -0.4758
 7917SOL    HW135213   1.591   2.862   8.842 -2.8808 -2.9014  1.2407
 7917SOL    HW235214   1.524   2.926   8.743 -1.7007  0.1580 -0.4940
 7918SOL     OW35215   0.509   1.715   4.025  0.3240  0.3506  0.4684
 7918SOL    HW135216   0.548   1.754   4.102 -0.8365  2.1062  0.1746
 7918SOL    HW235217   0.435   1.667   4.063 -0.0760 -0.0135 -0.7368
 7919SOL     OW35218   2.348   3.862   4.002  0.2900  0.2902  0.7584
 7919SOL    HW135219   2.389   3.915   3.934 -0.8698  0.0424 -0.1459
 7919SOL    HW235220   2.277   3.822   3.952 -0.6930  0.4247  2.0427
 7920SOL     OW35221   2.364   3.927   3.506 -0.1061 -0.0903 -0.0500
 7920SOL    HW135222   2.303   3.854   3.495  0.8075 -0.6059 -1.6916
 7920SOL    HW235223   2.441   3.887   3.465  0.2129  3.2085 -2.6806
 7921SOL     OW35224   2.944   0.367   7.655  0.3465 -0.4536 -0.3628
 7921SOL    HW135225   2.953   0.307   7.729  1.2710  0.6233  0.3734
 7921SOL    HW235226   2.857   0.393   7.685  1.1816 -0.0666  1.6825
 7922SOL     OW35227   2.197   4.636   3.432  0.3628 -0.1480  0.2442
 7922SOL    HW135228   2.247   4.680   3.363  0.0419 -0.2158 -0.0305
 7922SOL    HW235229   2.115   4.620   3.386  1.9613 -0.9545 -2.3631
 7923SOL     OW35230   2.174   1.734   9.923 -0.4836 -0.0298  0.0735
 7923SOL    HW135231   2.141   1.822   9.904  1.7922  0.4368 -1.5956
 7923SOL    HW235232   2.093   1.683   9.922 -0.3766 -0.2213  1.3630
 7924SOL     OW35233   0.111   4.041   7.090  0.2541  0.8533  0.7080
 7924SOL    HW135234   0.027   3.996   7.087  1.6420 -1.5716 -0.9901
 7924SOL    HW235235   0.157   3.971   7.136  0.4409 -0.8487 -2.0996
 7925SOL     OW35236   2.250   1.711   6.293  0.2063  0.8500 -0.3662
 7925SOL    HW135237   2.332   1.696   6.340  1.1024  2.7329 -1.3185
 7925SOL    HW235238   2.192   1.756   6.354  0.4343  0.0650  0.4368
 7926SOL     OW35239   3.671   4.314   4.984 -1.0822 -0.4134  0.0237
 7926SOL    HW135240   3.609   4.270   5.042 -1.4225  1.8669  1.4039
 7926SOL    HW235241   3.748   4.313   5.042 -0.2075 -0.6219 -1.1368
 7927SOL     OW35242   1.124   4.129   8.217 -0.2755  0.0982  0.5260
 7927SOL    HW135243   1.197   4.139   8.279  0.0397 -1.7595  0.4559
 7927SOL    HW235244   1.143   4.039   8.189 -0.8043 -0.0038  0.5061
 7928SOL     OW35245   0.966   4.144  14.765 -0.0049 -0.3786 -0.0765
 7928SOL    HW135246   1.054   4.129  14.731  1.1818  1.9594  1.9853
 7928SOL    HW235247   0.900   4.108  14.705  0.1306  0.6100 -0.8170
 7929SOL     OW35248   1.176   4.090   4.702 -0.0834  0.1119 -0.2680
 7929SOL    HW135249   1.226   4.056   4.777  0.4080  0.7157 -0.3301
 7929SOL    HW235250   1.103   4.028   4.708  0.1239 -0.3444 -2.3499
 7930SOL     OW35251   3.987   0.231   6.145  0.0713  0.5362  0.0050
 7930SOL    HW135252   4.011   0.259   6.233 -0.6994  0.3887  0.2619
 7930SOL    HW235253   3.930   0.303   6.118 -1.2698 -0.6950 -0.4526
 7931SOL     OW35254   3.166   2.113  13.361  0.2270  0.2762 -0.0996
 7931SOL    HW135255   3.151   2.100  13.267  0.2730  3.0678 -0.4803
 7931SOL    HW235256   3.093   2.065  13.400  1.2545  0.0411  1.5194
 7932SOL     OW35257   2.697   1.035   8.179  0.7633  0.1061 -0.5476
 7932SOL    HW135258   2.785   1.074   8.179  0.1192  1.5312  0.5907
 7932SOL    HW235259   2.726   0.944   8.167  1.1477  0.0237  1.0342
 7933SOL     OW35260   1.079   0.262   9.261 -0.3144 -0.2365  0.3735
 7933SOL    HW135261   0.991   0.225   9.254 -0.9590  1.6342 -1.3382
 7933SOL    HW235262   1.118   0.196   9.318  0.6973 -0.4135 -0.5167
 7934SOL     OW35263   3.376   1.636   4.310  0.0187  0.0100 -0.2477
 7934SOL    HW135264   3.385   1.711   4.251 -1.2471  0.3905  0.0608
 7934SOL    HW235265   3.333   1.668   4.389 -1.1534  1.4494 -1.4757
 7935SOL     OW35266   0.875   3.114  14.769  0.4603 -0.0353  0.1403
 7935SOL    HW135267   0.894   3.023  14.743 -1.6553 -0.4437 -0.0417
 7935SOL    HW235268   0.864   3.093  14.862  0.1593 -1.1609 -0.1384
 7936SOL     OW35269   4.603   0.541  12.006  0.0324 -0.6062 -0.2742
 7936SOL    HW135270   4.515   0.506  12.024 -0.7008  1.8182  0.9010
 7936SOL    HW235271   4.644   0.532  12.092  0.6203 -0.2195 -0.5171
 7937SOL     OW35272   1.576   0.119   8.772 -0.5928  0.0699  0.1287
 7937SOL    HW135273   1.575   0.118   8.868  0.9700  0.9795  0.1558
 7937SOL    HW235274   1.483   0.103   8.757 -0.5925  1.9657 -1.8332
 7938SOL     OW35275   3.091   3.676  14.442  0.1369  0.1836 -0.5528
 7938SOL    HW135276   3.027   3.687  14.372 -0.2184 -0.6164 -0.3587
 7938SOL    HW235277   3.106   3.763  14.479 -1.6067  0.8969 -1.5357
 7939SOL     OW35278   3.157   0.815  14.706  0.5731 -0.0154  0.1798
 7939SOL    HW135279   3.123   0.777  14.625 -1.4296 -0.8363  1.4032
 7939SOL    HW235280   3.207   0.887  14.667  1.0869  0.0246  0.9060
 7940SOL     OW35281   2.116   4.189   7.944 -0.2276  0.7292 -0.1676
 7940SOL    HW135282   2.199   4.160   7.906 -0.9581 -1.5135 -0.0770
 7940SOL    HW235283   2.153   4.243   8.014  2.1809 -0.0875 -0.8141
 7941SOL     OW35284   3.009   4.042   2.779 -0.0071 -0.0291  0.1290
 7941SOL    HW135285   2.979   4.119   2.731  1.3230  0.0639 -0.5527
 7941SOL    HW235286   3.079   4.082   2.830  1.0535  0.5335 -1.7686
 7942SOL     OW35287   3.970   1.839   0.264  0.3743 -0.7657  0.0461
 7942SOL    HW135288   4.023   1.871   0.191  0.5628 -0.6713  0.2227
 7942SOL    HW235289   4.028   1.774   0.304 -0.7416 -0.8823  1.4585
 7943SOL     OW35290   1.951   3.912   7.137  0.2062 -0.6657  0.3040
 7943SOL    HW135291   1.931   3.846   7.203  0.6857 -1.3425 -0.2206
 7943SOL    HW235292   2.047   3.912   7.136  0.1844  1.5274 -1.6368
 7944SOL     OW35293   3.140   4.010   2.293 -0.2819 -0.3070 -0.1810
 7944SOL    HW135294   3.154   3.919   2.316  0.7039  0.0109  0.4454
 7944SOL    HW235295   3.220   4.048   2.328 -1.5565  2.0909  0.1419
 7945SOL     OW35296   3.459   2.671  10.398 -0.3238  0.0295 -0.1279
 7945SOL    HW135297   3.480   2.748  10.345 -1.5787  0.4591  0.0003
 7945SOL    HW235298   3.380   2.716  10.429 -0.4451  0.2952 -0.8105
 7946SOL     OW35299   1.715   0.074   9.979 -0.2827  0.0840 -0.3043
 7946SOL    HW135300   1.705   4.706   9.948 -1.5203  0.1140 -0.0268
 7946SOL    HW235301   1.706   0.058  10.073  0.5842  1.6867  0.0585
 7947SOL     OW35302   4.253   0.234   0.777  0.0931 -0.5336 -0.0040
 7947SOL    HW135303   4.160   0.255   0.771 -0.2739 -1.8915  0.9094
 7947SOL    HW235304   4.289   0.315   0.741 -2.2176  1.2121  1.6362
 7948SOL     OW35305   1.472   2.687   6.916  0.4048  0.3911  0.1975
 7948SOL    HW135306   1.501   2.631   6.987  0.8288  0.6088  0.1932
 7948SOL    HW235307   1.472   2.773   6.959  1.6841  2.0880 -3.1833
 7949SOL     OW35308   2.179   2.624  16.354 -0.3809  0.2318 -0.3359
 7949SOL    HW135309   2.186   2.529  16.339 -2.5424 -0.3807  2.4115
 7949SOL    HW235310   2.256   2.662  16.312  0.9800 -1.3446  0.7277
 7950SOL     OW35311   3.201   3.564   4.185 -0.0662  0.0278 -0.0861
 7950SOL    HW135312   3.152   3.511   4.248 -0.9589  0.2905 -0.5483
 7950SOL    HW235313   3.131   3.610   4.137  1.5319 -0.1580 -2.5998
 7951SOL     OW35314   2.306   0.337   5.492 -0.1273  0.2317  0.7798
 7951SOL    HW135315   2.365   0.374   5.425  1.7307 -2.2658  1.0288
 7951SOL    HW235316   2.314   0.396   5.567  1.2315  1.9284 -0.6915
 7952SOL     OW35317   0.818   2.224   1.661 -0.2526 -0.6857  0.2174
 7952SOL    HW135318   0.726   2.198   1.654 -1.3123  2.7325  1.2999
 7952SOL    HW235319   0.808   2.314   1.694 -0.3625 -0.7697  0.4118
 7953SOL     OW35320   1.809   3.086  10.381 -0.3233  0.2346 -0.8750
 7953SOL    HW135321   1.840   3.158  10.437 -1.2004  0.8344 -1.1467
 7953SOL    HW235322   1.850   3.106  10.297  0.4877 -1.3914 -0.8453
 7954SOL     OW35323   2.956   0.565   8.795  0.2197 -0.0125 -0.1847
 7954SOL    HW135324   2.930   0.599   8.709  2.8270 -2.6593 -2.0307
 7954SOL    HW235325   2.945   0.471   8.780  0.4089 -0.0643  0.0019
 7955SOL     OW35326   3.354   2.586   3.712 -0.1266  0.0379  0.6358
 7955SOL    HW135327   3.368   2.611   3.803  0.2438  0.3576  0.4928
 7955SOL    HW235328   3.432   2.532   3.701 -1.0979 -1.4893  1.2838
 7956SOL     OW35329   3.569   1.922  12.485  0.4229  0.2707 -0.1944
 7956SOL    HW135330   3.636   1.985  12.459  1.2097 -0.2165  0.6300
 7956SOL    HW235331   3.486   1.966  12.470 -0.5802 -0.9615  1.7331
 7957SOL     OW35332   3.321   0.879  13.028 -0.5688 -0.5135  0.2497
 7957SOL    HW135333   3.305   0.973  13.031  2.4896  0.0316 -1.0352
 7957SOL    HW235334   3.378   0.873  12.951 -0.9577  1.9255 -0.2381
 7958SOL     OW35335   3.490   3.144   4.944  0.0875  0.0597  0.6119
 7958SOL    HW135336   3.445   3.164   4.862  0.7705  1.7369  0.6462
 7958SOL    HW235337   3.565   3.109   4.895 -0.8657 -0.6695 -0.3040
 7959SOL     OW35338   0.660   1.458  15.533  0.6345 -0.0646  0.1224
 7959SOL    HW135339   0.593   1.447  15.600 -0.3275 -0.3031 -0.8891
 7959SOL    HW235340   0.686   1.549  15.552  3.0154 -0.2435 -2.2582
 7960SOL     OW35341   1.205   3.328  13.121  0.0714 -0.3310 -0.0498
 7960SOL    HW135342   1.210   3.334  13.217  0.2676 -3.1874  0.1247
 7960SOL    HW235343   1.295   3.302  13.100  0.8083 -0.1927  2.8646
 7961SOL     OW35344   1.930   1.436  15.348  0.7640 -0.5300  0.5895
 7961SOL    HW135345   1.975   1.357  15.319 -0.0729 -0.4455 -0.9555
 7961SOL    HW235346   2.006   1.490  15.366  1.0828 -1.2369  1.3187
 7962SOL     OW35347   3.352   0.284  13.019 -0.5208  0.0213 -0.0503
 7962SOL    HW135348   3.387   0.195  13.021  0.1937  0.2844 -0.8525
 7962SOL    HW235349   3.378   0.318  12.933  1.2031  3.2393  1.7467
 7963SOL     OW35350   4.708   1.734  12.618 -0.1009 -0.4344 -0.7005
 7963SOL    HW135351   4.612   1.735  12.622 -0.0340  1.5590  0.4148
 7963SOL    HW235352   0.006   1.640  12.611 -2.0697 -1.0247  1.5198
 7964SOL     OW35353   4.139   3.851   5.730  0.3142  0.1231 -0.0484
 7964SOL    HW135354   4.089   3.854   5.649 -1.1135  1.6976  0.9000
 7964SOL    HW235355   4.070   3.808   5.780  0.1698 -0.3349 -0.6513
 7965SOL     OW35356   1.016   4.389   6.201 -0.4575 -0.0108 -0.6424
 7965SOL    HW135357   1.018   4.336   6.122 -1.9121  1.6261 -1.7808
 7965SOL    HW235358   1.000   4.325   6.271 -0.1560  1.3844  0.6901
 7966SOL     OW35359   1.140   3.876   8.106 -0.3275 -0.4082  0.5177
 7966SOL    HW135360   1.108   3.902   8.020 -1.3081  0.8145  1.2471
 7966SOL    HW235361   1.066   3.818   8.122 -1.6266  1.2183  0.3735
 7967SOL     OW35362   2.547   0.713  11.128 -0.7233  0.6688 -0.8035
 7967SOL    HW135363   2.477   0.655  11.159  0.7757 -1.2198 -0.8996
 7967SOL    HW235364   2.551   0.683  11.037  3.9213  0.8536 -0.6799
 7968SOL     OW35365   3.076   3.564  14.706  0.1311  0.3588 -0.0059
 7968SOL    HW135366   2.986   3.588  14.728 -0.3320  0.0177 -1.5109
 7968SOL    HW235367   3.072   3.589  14.614  0.6763 -1.1135 -0.4303
 7969SOL     OW35368   3.435   1.378   7.422  0.0861 -0.3270  0.1644
 7969SOL    HW135369   3.398   1.466   7.426  0.7084 -0.0008 -1.2801
 7969SOL    HW235370   3.405   1.336   7.502  0.2637 -0.1390  0.3273
 7970SOL     OW35371   2.014   3.372   5.427  0.0465 -0.1040 -0.5228
 7970SOL    HW135372   2.020   3.408   5.516 -2.4152 -0.1822 -0.3090
 7970SOL    HW235373   1.918   3.369   5.418 -0.0237 -2.9133  1.3670
 7971SOL     OW35374   2.940   2.712   3.432  0.0898  0.1592  0.0039
 7971SOL    HW135375   2.948   2.619   3.452 -1.9736 -0.5508 -2.4836
 7971SOL    HW235376   3.023   2.756   3.449 -0.2833  1.1868 -0.8756
 7972SOL     OW35377   3.053   4.654  17.523  0.4173 -0.0133  0.1685
 7972SOL    HW135378   3.042   4.709  17.601  1.0176 -1.1345  1.0551
 7972SOL    HW235379   2.999   4.578  17.543 -2.4540  1.8627 -0.4173
 7973SOL     OW35380   1.672   2.568   1.695 -0.3949 -0.5482 -0.0873
 7973SOL    HW135381   1.722   2.649   1.702  1.7921 -1.6423 -3.2643
 7973SOL    HW235382   1.590   2.605   1.729 -1.7509 -3.7161  0.0365
 7974SOL     OW35383   3.686   0.956   2.682  0.5608 -0.5301  0.5718
 7974SOL    HW135384   3.743   0.924   2.753  1.3889  0.7720  0.4811
 7974SOL    HW235385   3.606   0.969   2.734 -0.2894 -0.7651 -0.6953
 7975SOL     OW35386   0.122   2.827   9.343 -0.2565  0.4509  0.5799
 7975SOL    HW135387   0.205   2.875   9.349  1.7942 -2.8322 -1.0158
 7975SOL    HW235388   0.078   2.877   9.274 -0.1128  0.0137  0.1702
 7976SOL     OW35389   0.239   4.051   5.148 -0.2980  0.1195 -0.5058
 7976SOL    HW135390   0.169   4.017   5.092 -1.6673  0.2570  1.0918
 7976SOL    HW235391   0.235   4.144   5.125  0.5529  0.7750  2.0064
 7977SOL     OW35392   3.731   2.115   8.718  0.4017  0.0555  0.0078
 7977SOL    HW135393   3.791   2.050   8.754 -1.3999 -0.4782  2.0306
 7977SOL    HW235394   3.762   2.191   8.767  0.0945 -0.1400  0.5043
 7978SOL     OW35395   1.816   0.453   7.046 -0.3915  0.0519  0.0120
 7978SOL    HW135396   1.793   0.365   7.015  0.7508  0.5608 -2.2974
 7978SOL    HW235397   1.871   0.497   6.980 -0.9140 -1.3637 -1.3693
 7979SOL     OW35398   4.335   0.552   0.494  0.2481 -0.2166 -0.2777
 7979SOL    HW135399   4.319   0.535   0.587  0.3227 -0.8444 -0.3777
 7979SOL    HW235400   4.264   0.613   0.474  1.0268  0.7948  0.0753
 7980SOL     OW35401   0.272   1.013   6.362 -0.2567  0.1474 -0.1709
 7980SOL    HW135402   0.238   0.987   6.277  1.8798 -1.4252 -0.5386
 7980SOL    HW235403   0.210   0.971   6.422  1.6884 -1.8282  0.4965
 7981SOL     OW35404   0.805   1.561   2.911  0.0011 -0.1402 -0.6224
 7981SOL    HW135405   0.804   1.470   2.880  0.8546 -0.1392 -0.6650
 7981SOL    HW235406   0.794   1.611   2.831  0.2444  1.3523  0.2837
 7982SOL     OW35407   1.948   0.718  10.950  0.4107  0.0731  0.6924
 7982SOL    HW135408   1.869   0.670  10.974  1.5450 -2.3540 -0.5142
 7982SOL    HW235409   1.953   0.770  11.030  1.3926  0.2158  0.5286
 7983SOL     OW35410   0.391   1.602   9.573 -0.1123  0.4001  0.3652
 7983SOL    HW135411   0.411   1.650   9.493 -0.4157 -1.1538 -0.6609
 7983SOL    HW235412   0.403   1.514   9.537 -0.4507 -0.1473  1.5979
 7984SOL     OW35413   2.953   1.168   8.081  0.1299 -0.3869 -0.5681
 7984SOL    HW135414   3.000   1.089   8.055 -1.4105 -1.9237  1.3045
 7984SOL    HW235415   3.014   1.227   8.124 -1.2556 -2.4160  4.1348
 7985SOL     OW35416   3.093   2.469  17.491  0.1470  0.3725 -0.0365
 7985SOL    HW135417   3.061   2.554  17.461  0.0594  1.0146  1.9039
 7985SOL    HW235418   3.176   2.497  17.529  0.3151  0.8003 -0.7121
 7986SOL     OW35419   4.186   2.129   4.849  0.2968 -0.0547 -0.5759
 7986SOL    HW135420   4.211   2.220   4.832 -0.9230 -0.0254 -2.3161
 7986SOL    HW235421   4.247   2.116   4.921 -1.9060  1.1415  1.4953
 7987SOL     OW35422   4.407   2.350   5.116  0.0783  0.0193  0.1925
 7987SOL    HW135423   4.373   2.313   5.034  0.6442 -1.2649  0.5440
 7987SOL    HW235424   4.329   2.384   5.160 -1.2404 -0.5352 -1.7056
 7988SOL     OW35425   4.392   1.787   7.964 -0.8170  0.2648 -0.0284
 7988SOL    HW135426   4.374   1.720   8.030 -0.7031 -0.4640 -0.7483
 7988SOL    HW235427   4.311   1.766   7.916 -0.2134 -1.0067 -0.4822
 7989SOL     OW35428   3.919   2.192  17.093 -0.2467  0.3752 -0.4230
 7989SOL    HW135429   3.991   2.253  17.081 -0.1489  0.4227  0.3903
 7989SOL    HW235430   3.855   2.231  17.035 -1.5812 -0.9209  0.1808
 7990SOL     OW35431   4.637   3.851   9.653  0.3141 -0.1831 -0.2214
 7990SOL    HW135432   4.686   3.818   9.578  2.4337 -1.1749  1.6221
 7990SOL    HW235433   4.568   3.785   9.652 -0.2155  0.3868 -2.5049
 7991SOL     OW35434   1.341   4.577   4.946 -0.1165  0.1420  0.1956
 7991SOL    HW135435   1.421   4.594   4.994 -0.4347  0.9678  0.4262
 7991SOL    HW235436   1.343   4.481   4.947  0.3000  0.1145 -2.9003
 7992SOL     OW35437   4.710   2.240   9.058 -0.5701 -0.3123  0.0942
 7992SOL    HW135438   0.042   2.237   9.138 -1.7996 -1.0584  0.8967
 7992SOL    HW235439   4.702   2.334   9.048 -2.0659 -0.4023  0.4196
 7993SOL     OW35440   4.656   3.987  14.445 -0.0413 -0.0645 -0.3111
 7993SOL    HW135441   4.611   3.911  14.407  0.5549 -0.7812  0.4143
 7993SOL    HW235442   0.006   3.939  14.486  0.7192  1.6281  0.3372
 7994SOL     OW35443   1.778   4.245   9.382  0.1352 -0.0750  0.4579
 7994SOL    HW135444   1.773   4.260   9.288  0.9392  1.4540  0.6615
 7994SOL    HW235445   1.698   4.293   9.405 -0.6891 -0.9837 -0.5192
 7995SOL     OW35446   1.075   3.946   1.365 -0.2899  0.4681  0.2307
 7995SOL    HW135447   1.106   4.012   1.427  1.6239  0.5699 -0.8287
 7995SOL    HW235448   0.987   3.934   1.401 -0.0927 -2.7373 -0.4243
 7996SOL     OW35449   3.657   2.869   1.126 -0.5040  0.7043  0.3109
 7996SOL    HW135450   3.636   2.785   1.166 -0.9673  0.5398 -0.2706
 7996SOL    HW235451   3.638   2.925   1.201  2.7739  0.4844  1.2920
 7997SOL     OW35452   4.181   3.206   7.287  0.0649 -0.4208 -0.6461
 7997SOL    HW135453   4.090   3.234   7.297  0.5854  1.1475 -0.1402
 7997SOL    HW235454   4.226   3.291   7.291 -1.1999  0.3058 -1.7600
 7998SOL     OW35455   4.615   3.778  10.287  0.2019  0.5812  0.3068
 7998SOL    HW135456   4.520   3.770  10.279  0.4011 -2.0806  0.5808
 7998SOL    HW235457   4.643   3.848  10.229 -0.4082  0.9141  0.4139
 7999SOL     OW35458   3.715   1.073   6.539 -0.5912 -0.5073  0.0141
 7999SOL    HW135459   3.785   1.129   6.504 -0.1556 -0.9443  0.1815
 7999SOL    HW235460   3.690   1.133   6.610 -2.8905  0.4386 -1.6239
 8000SOL     OW35461   2.028   3.125   3.931  0.1030 -0.3490 -0.4444
 8000SOL    HW135462   2.017   3.183   4.007  1.6813 -1.5529  0.7095
 8000SOL    HW235463   2.042   3.185   3.858 -2.3663 -1.2287 -1.6523
 8001SOL     OW35464   1.685   3.460   2.839  0.2074 -0.3237 -0.7623
 8001SOL    HW135465   1.768   3.425   2.871 -0.4108  0.3097  1.5273
 8001SOL    HW235466   1.721   3.540   2.800 -1.2643  1.2464  1.0720
 8002SOL     OW35467   4.139   3.147   0.333  0.4786 -0.6443 -0.5396
 8002SOL    HW135468   4.197   3.221   0.351  0.1770 -0.2578 -1.1464
 8002SOL    HW235469   4.138   3.090   0.410 -0.7705  0.6916  0.4231
 8003SOL     OW35470   3.337   2.862   9.448 -0.0148 -0.1044 -0.6650
 8003SOL    HW135471   3.301   2.834   9.364  0.9472  0.8899 -1.4113
 8003SOL    HW235472   3.411   2.803   9.444 -0.2170 -0.4764  1.1845
 8004SOL     OW35473   1.119   2.469   7.731  0.7468  0.5241 -0.0026
 8004SOL    HW135474   1.177   2.397   7.707 -0.0232  0.1705 -0.8254
 8004SOL    HW235475   1.131   2.523   7.652 -0.3584 -0.8679 -1.1272
 8005SOL     OW35476   2.038   0.259  13.493  0.2450 -0.1780  1.0483
 8005SOL    HW135477   2.034   0.251  13.589 -0.7044  2.1161  1.2123
 8005SOL    HW235478   2.115   0.314  13.486  0.3431 -0.5464 -0.7906
 8006SOL     OW35479   0.009   3.418   6.479  1.2215  0.0640  0.3715
 8006SOL    HW135480   0.075   3.486   6.466 -0.4434  0.8542 -3.8147
 8006SOL    HW235481   0.061   3.344   6.449 -2.3296 -2.4438  0.3634
 8007SOL     OW35482   2.291   3.332   9.517 -0.0214  0.3028 -0.2975
 8007SOL    HW135483   2.311   3.415   9.475 -0.7136  1.5205  1.7525
 8007SOL    HW235484   2.277   3.280   9.438 -2.1846  0.5679 -0.1009
 8008SOL     OW35485   0.354   4.473   4.592  0.2808 -0.0148  0.3121
 8008SOL    HW135486   0.410   4.401   4.620 -0.0933  0.0676  1.2746
 8008SOL    HW235487   0.346   4.464   4.497 -0.0057 -2.3510  0.5543
 8009SOL     OW35488   3.929   3.041   5.060  0.1279  0.2314  0.5017
 8009SOL    HW135489   3.984   3.047   5.138  1.1891  1.1502 -0.3315
 8009SOL    HW235490   3.852   3.078   5.103  0.3040 -1.0778  1.9779
 8010SOL     OW35491   4.300   1.954  13.569 -0.1802 -0.0906  0.1562
 8010SOL    HW135492   4.215   1.922  13.598 -1.0516  0.0568 -2.3347
 8010SOL    HW235493   4.356   1.879  13.592  0.2736 -0.0605 -0.8558
 8011SOL     OW35494   4.187   1.713   7.168  0.6235  0.4067  0.4451
 8011SOL    HW135495   4.117   1.682   7.111  2.5071 -1.4530 -0.8301
 8011SOL    HW235496   4.213   1.630   7.209 -1.2260 -0.4685 -0.1469
 8012SOL     OW35497   1.593   4.281  16.490 -0.2100  0.5264  0.4007
 8012SOL    HW135498   1.660   4.345  16.516  1.1410 -1.1764  1.0559
 8012SOL    HW235499   1.523   4.346  16.477  1.1316  2.0536  0.7306
 8013SOL     OW35500   4.206   4.113  13.954 -0.3763 -0.0466 -0.0711
 8013SOL    HW135501   4.123   4.121  14.001  0.1520  0.5205  0.7589
 8013SOL    HW235502   4.260   4.071  14.021  1.0509 -0.4096 -1.4516
 8014SOL     OW35503   2.768   1.416  12.003 -0.2352  0.7894 -0.4577
 8014SOL    HW135504   2.694   1.356  12.010  1.4253 -1.3548 -1.2178
 8014SOL    HW235505   2.765   1.456  11.916 -0.0706 -0.8613 -1.2377
 8015SOL     OW35506   3.369   4.478   2.014 -0.2661  0.1502  0.1266
 8015SOL    HW135507   3.320   4.439   2.086  0.2681 -1.8697 -0.6138
 8015SOL    HW235508   3.299   4.478   1.948  0.7641  0.7521 -0.9682
 8016SOL     OW35509   2.984   3.617  14.189 -0.1178 -0.0618 -0.1859
 8016SOL    HW135510   2.972   3.531  14.228 -1.4445  0.1184 -0.2165
 8016SOL    HW235511   2.951   3.589  14.104 -0.6925 -2.1306  0.7208
 8017SOL     OW35512   0.064   2.537   5.844  0.4252 -0.8241  0.5978
 8017SOL    HW135513   0.131   2.548   5.776  1.4186  1.0797  1.8838
 8017SOL    HW235514   0.095   2.605   5.904  1.9881 -1.0430  0.0124
 8018SOL     OW35515   4.570   2.376   8.632  0.1931 -0.3771  0.0536
 8018SOL    HW135516   4.601   2.426   8.708  0.8983 -1.5383  0.5257
 8018SOL    HW235517   4.556   2.454   8.578 -0.0006 -0.3216  0.1834
 8019SOL     OW35518   1.944   0.168  11.712 -0.2536 -0.3435  0.6818
 8019SOL    HW135519   1.906   0.203  11.792 -1.4086  0.6741 -0.3093
 8019SOL    HW235520   2.004   0.103  11.747 -0.0282 -0.3722  0.2475
 8020SOL     OW35521   4.202   1.482   3.683 -0.0624 -0.0892  0.2058
 8020SOL    HW135522   4.130   1.421   3.693  0.5247 -0.9240 -0.6700
 8020SOL    HW235523   4.265   1.441   3.624 -0.3512 -0.4038  0.1202
 8021SOL     OW35524   3.539   3.183   5.341 -0.3047 -0.5103 -0.4966
 8021SOL    HW135525   3.477   3.111   5.335 -0.8849 -0.2794  2.3922
 8021SOL    HW235526   3.507   3.214   5.426 -0.4607 -1.7064 -0.1176
 8022SOL     OW35527   0.903   0.554   4.105 -0.0605 -0.1079 -0.1118
 8022SOL    HW135528   0.856   0.636   4.088  2.0167  0.3939 -3.4666
 8022SOL    HW235529   0.990   0.595   4.107  0.2602 -0.8212  0.4470
 8023SOL     OW35530   0.115   3.126   1.814 -0.1489  0.2293  0.1896
 8023SOL    HW135531   0.158   3.150   1.896 -1.1053  0.4604  0.6323
 8023SOL    HW235532   0.024   3.108   1.837  0.4440 -2.8890  0.0455
 8024SOL     OW35533   3.763   4.120   4.217  0.1479  0.5081 -0.4485
 8024SOL    HW135534   3.687   4.090   4.267  0.7722  0.5902  0.5459
 8024SOL    HW235535   3.738   4.091   4.130 -2.2444  0.5333  0.2499
 8025SOL     OW35536   1.903   2.150   0.232 -0.0524  0.1401  0.2267
 8025SOL    HW135537   1.895   2.141   0.137 -0.5789  3.2190 -0.0228
 8025SOL    HW235538   1.980   2.096   0.249 -1.7532 -2.3506  0.0230
 8026SOL     OW35539   4.220   2.393   4.554  0.4642  0.1509 -0.5233
 8026SOL    HW135540   4.314   2.376   4.541  0.9041  0.9102  1.7563
 8026SOL    HW235541   4.191   2.371   4.465  0.2132  0.9461 -0.6409
 8027SOL     OW35542   0.252   3.865  17.647 -0.7071 -0.0008 -0.5893
 8027SOL    HW135543   0.277   3.834   0.046 -1.2878  2.5455  0.4684
 8027SOL    HW235544   0.338   3.894  17.617 -0.5231  1.6336  1.4868
 8028SOL     OW35545   4.721   0.473   6.604 -0.0770 -0.0829 -0.5748
 8028SOL    HW135546   0.086   0.512   6.587  0.9083 -2.0300  0.0064
 8028SOL    HW235547   4.682   0.456   6.518 -1.7579  1.7692 -0.1779
 8029SOL     OW35548   0.204   1.087   4.594 -0.2675  0.0166  0.0307
 8029SOL    HW135549   0.220   1.092   4.500 -0.0659 -0.8659  0.0217
 8029SOL    HW235550   0.136   1.021   4.603  0.0362 -0.1490  1.1319
 8030SOL     OW35551   4.094   3.309   1.738 -0.3145 -0.2592  0.1371
 8030SOL    HW135552   4.030   3.263   1.685  2.6351  0.1011 -3.7734
 8030SOL    HW235553   4.078   3.399   1.708  0.7047  0.1372  0.7587
 8031SOL     OW35554   4.500   3.476   0.732 -0.8512  0.1293 -0.0165
 8031SOL    HW135555   4.586   3.473   0.773 -0.5090 -1.2882 -0.8240
 8031SOL    HW235556   4.527   3.524   0.654  0.6158 -0.7603 -0.0594
 8032SOL     OW35557   0.888   1.291   4.811  0.1394 -0.3997  0.2364
 8032SOL    HW135558   0.872   1.256   4.899  2.1139 -0.9879  0.3659
 8032SOL    HW235559   0.979   1.320   4.806  0.3126 -1.2395 -1.5424
 8033SOL     OW35560   2.711   4.666   8.800  0.5293 -0.3289 -0.2297
 8033SOL    HW135561   2.725   0.037   8.779  0.1110 -0.2551 -0.1941
 8033SOL    HW235562   2.789   4.661   8.856 -0.3126  0.9564  1.0676
 8034SOL     OW35563   1.485   2.144   8.115 -0.1213  0.7424 -0.1725
 8034SOL    HW135564   1.496   2.231   8.078  2.3445  0.2013 -0.7753
 8034SOL    HW235565   1.393   2.144   8.142  0.3710 -2.8337  1.6130
 8035SOL     OW35566   0.485   3.695   7.707 -0.3441 -0.0954  0.1327
 8035SOL    HW135567   0.425   3.665   7.639 -2.0761  0.9432  1.2022
 8035SOL    HW235568   0.555   3.731   7.653 -0.4273 -1.7935 -1.1232
 8036SOL     OW35569   3.554   3.012  11.377  0.3502 -0.0218 -0.0207
 8036SOL    HW135570   3.471   3.042  11.340  0.7751 -0.7349 -1.5612
 8036SOL    HW235571   3.616   3.022  11.304  1.1313  1.4646  0.8276
 8037SOL     OW35572   0.516   2.451   3.640  0.2666 -0.4525 -0.4881
 8037SOL    HW135573   0.509   2.537   3.682 -3.1070 -1.5784  1.1976
 8037SOL    HW235574   0.445   2.395   3.670 -0.4216  0.7897  0.1888
 8038SOL     OW35575   2.509   4.654   6.253  0.5684  0.1810  0.1321
 8038SOL    HW135576   2.535   4.567   6.223 -0.0115  0.1376 -0.2390
 8038SOL    HW235577   2.436   4.680   6.196 -0.0773  0.6024  1.1598
 8039SOL     OW35578   3.039   3.595  16.690 -0.1559 -0.6523 -0.3889
 8039SOL    HW135579   2.958   3.627  16.649  0.9976  1.0830 -1.3323
 8039SOL    HW235580   3.001   3.534  16.753  3.6565 -1.0502  1.5488
 8040SOL     OW35581   3.477   3.829   2.015 -0.3709  0.0328  0.0110
 8040SOL    HW135582   3.558   3.834   1.964 -0.3742  1.8102  0.1545
 8040SOL    HW235583   3.480   3.917   2.053 -2.3552 -0.4738  1.3446
 8041SOL     OW35584   2.277   4.033   7.628 -0.4516 -0.5491  0.0242
 8041SOL    HW135585   2.295   3.939   7.631  1.2890 -0.2307 -0.7551
 8041SOL    HW235586   2.286   4.047   7.723 -1.1955 -0.9782  0.1612
 8042SOL     OW35587   3.591   4.002  16.216 -0.0510 -0.0051 -0.2408
 8042SOL    HW135588   3.671   4.038  16.177 -0.0440 -0.4952 -0.6864
 8042SOL    HW235589   3.573   3.919  16.172  1.2389 -0.0357 -0.7121
 8043SOL     OW35590   0.316   4.417   2.837 -0.1979 -0.3040  0.2046
 8043SOL    HW135591   0.388   4.415   2.899 -2.4244 -1.9862  2.7360
 8043SOL    HW235592   0.298   4.323   2.829 -2.2291  0.1283 -0.3857
 8044SOL     OW35593   3.099   3.911   1.744 -0.3782  0.1231 -0.1241
 8044SOL    HW135594   3.101   3.877   1.833 -2.0326  2.0359  0.6637
 8044SOL    HW235595   3.172   3.865   1.703 -1.1152  0.3420 -1.6704
 8045SOL     OW35596   0.699   2.495   3.457 -0.0541 -0.2117  0.2545
 8045SOL    HW135597   0.636   2.467   3.523 -0.9268 -0.8704 -0.8525
 8045SOL    HW235598   0.738   2.409   3.441 -3.0762 -1.2312 -1.6652
 8046SOL     OW35599   4.364   3.437   5.585  0.0287  0.5314 -0.5265
 8046SOL    HW135600   4.429   3.378   5.623 -0.4448  0.0277 -0.4865
 8046SOL    HW235601   4.359   3.508   5.648  2.3559 -0.3028  0.5883
 8047SOL     OW35602   2.316   4.002   6.034 -0.3260 -0.5549 -0.2301
 8047SOL    HW135603   2.291   4.007   6.127  0.7729  1.3158 -0.0273
 8047SOL    HW235604   2.236   4.036   5.995 -1.6222 -1.7590  1.3537
 8048SOL     OW35605   0.689   2.744   6.638  0.0505 -0.6343 -0.2437
 8048SOL    HW135606   0.659   2.663   6.596 -1.9203 -0.1916  0.3166
 8048SOL    HW235607   0.753   2.788   6.581  2.3033 -1.7815  1.4327
 8049SOL     OW35608   2.513   0.365   7.099  0.4997  0.2385 -0.2226
 8049SOL    HW135609   2.573   0.411   7.158  0.5177  2.6017 -2.0542
 8049SOL    HW235610   2.446   0.432   7.084 -0.0787  0.0839  1.7265
 8050SOL     OW35611   2.477   0.600   3.637 -0.0608  0.0264  0.1567
 8050SOL    HW135612   2.403   0.643   3.596  0.2441  0.5554  0.1492
 8050SOL    HW235613   2.440   0.568   3.719  1.2182  1.8067  1.4390
 8051SOL     OW35614   2.126   2.600   3.446  0.2738  0.1370  0.0731
 8051SOL    HW135615   2.144   2.507   3.464  0.8293 -0.3138 -2.8327
 8051SOL    HW235616   2.183   2.627   3.375 -0.8433  1.9404 -0.1333
 8052SOL     OW35617   2.484   1.994   6.803 -0.8422  0.3778 -0.1060
 8052SOL    HW135618   2.510   2.085   6.817 -0.8755  0.4367 -0.4354
 8052SOL    HW235619   2.498   1.989   6.709  0.1545 -1.3906  0.1335
 8053SOL     OW35620   0.820   2.612   7.611 -0.6292 -0.0943  0.0411
 8053SOL    HW135621   0.889   2.619   7.546 -0.7942  1.7461  0.0842
 8053SOL    HW235622   0.784   2.700   7.609  1.7488  0.9140  3.0078
 8054SOL     OW35623   0.361   2.524   9.066  0.4890  0.5780 -0.7704
 8054SOL    HW135624   0.372   2.590   9.135 -2.6895  0.4408 -0.1324
 8054SOL    HW235625   0.387   2.583   8.995  0.0616  2.3760  0.5537
 8055SOL     OW35626   3.144   0.873  15.681  0.2935 -0.3265  0.0860
 8055SOL    HW135627   3.089   0.807  15.724  0.4596 -0.4369  0.1296
 8055SOL    HW235628   3.153   0.937  15.751 -0.1326  1.4346 -1.4829
 8056SOL     OW35629   3.630   3.567   5.674  0.0838 -0.3395  0.1750
 8056SOL    HW135630   3.674   3.511   5.610 -1.4293  1.3780 -2.3123
 8056SOL    HW235631   3.673   3.526   5.750 -0.2775 -0.3126  0.3952
 8057SOL     OW35632   1.470   3.350  11.982  0.2852  0.2815  0.8324
 8057SOL    HW135633   1.453   3.256  11.985  1.4405 -0.0547 -3.4264
 8057SOL    HW235634   1.441   3.367  12.072  0.9729 -2.2128  1.5235
 8058SOL     OW35635   0.754   1.007   8.268  0.2532  0.2292  0.2012
 8058SOL    HW135636   0.816   0.946   8.228  0.3585  0.5564 -0.1265
 8058SOL    HW235637   0.812   1.054   8.328  0.4947 -0.7925  0.7752
 8059SOL     OW35638   2.615   4.451   0.212  0.5196 -0.1402  0.2490
 8059SOL    HW135639   2.648   4.531   0.254  1.7743 -0.1932 -0.6166
 8059SOL    HW235640   2.695   4.414   0.174  1.0661  1.7731 -0.4644
 8060SOL     OW35641   1.701   3.343  10.214 -0.0942 -0.2608  0.2032
 8060SOL    HW135642   1.777   3.334  10.271 -0.7830 -2.0638  0.8368
 8060SOL    HW235643   1.716   3.285  10.141  0.6138 -1.6004  1.4133
 8061SOL     OW35644   0.242   0.882   8.606  0.0961  0.2340 -0.4186
 8061SOL    HW135645   0.187   0.958   8.627 -0.3743  0.2246 -1.6477
 8061SOL    HW235646   0.240   0.882   8.511  1.9156 -1.4722 -0.4490
 8062SOL     OW35647   1.834   1.818   6.460 -0.0798 -0.2478 -0.2793
 8062SOL    HW135648   1.929   1.813   6.470 -0.0922  2.1127  0.9571
 8062SOL    HW235649   1.799   1.856   6.541 -0.9541  1.1017 -1.3069
 8063SOL     OW35650   2.852   2.965   5.153 -0.5874  0.8656 -0.1639
 8063SOL    HW135651   2.921   3.030   5.165  0.0005 -0.1577  1.9742
 8063SOL    HW235652   2.901   2.883   5.144  0.5632  1.5318  0.1175
 8064SOL     OW35653   0.948   2.508   7.242  0.2085 -0.0862  0.6383
 8064SOL    HW135654   0.889   2.475   7.175 -1.2553  0.3250  1.7273
 8064SOL    HW235655   0.937   2.602   7.231 -2.6266 -0.5478 -0.4149
 8065SOL     OW35656   4.315   2.751   2.947 -0.0723 -0.2567 -0.2072
 8065SOL    HW135657   4.354   2.837   2.963 -0.4934  0.0842 -1.0198
 8065SOL    HW235658   4.226   2.778   2.924 -0.6240 -0.7358  1.3481
 8066SOL     OW35659   2.220   4.054   1.571 -0.5677  0.2652  0.3162
 8066SOL    HW135660   2.140   4.014   1.605 -0.4937 -0.4112 -0.3305
 8066SOL    HW235661   2.281   3.989   1.605 -1.5179 -0.7960 -0.0051
 8067SOL     OW35662   3.698   0.899   7.280  0.3512 -0.5049  0.6383
 8067SOL    HW135663   3.743   0.982   7.267  0.3224 -0.4114  1.1682
 8067SOL    HW235664   3.761   0.828   7.294 -0.1441 -0.7272  1.6859
 8068SOL     OW35665   2.803   1.135   6.807 -0.4809  0.4964  0.5328
 8068SOL    HW135666   2.781   1.228   6.804 -0.0314  0.5247 -1.8580
 8068SOL    HW235667   2.866   1.135   6.879 -0.0752  1.1067  0.1808
 8069SOL     OW35668   3.402   4.627   6.633 -0.0645 -0.0433 -0.6195
 8069SOL    HW135669   3.339   4.700   6.631 -0.0951 -0.0752 -0.9142
 8069SOL    HW235670   3.480   4.676   6.660 -0.1984 -0.7186  0.9720
 8070SOL     OW35671   1.006   0.179   5.885  0.7167 -0.0488  0.7813
 8070SOL    HW135672   1.050   0.126   5.951 -0.7256  0.1453  1.8874
 8070SOL    HW235673   1.065   0.168   5.810  1.3594  1.3704  1.0850
 8071SOL     OW35674   0.430   4.258   3.859  0.2302  0.3144 -0.4682
 8071SOL    HW135675   0.506   4.304   3.896  0.7005 -1.3757  0.6559
 8071SOL    HW235676   0.378   4.253   3.939  2.1731  1.8701  0.8990
 8072SOL     OW35677   1.830   0.813   5.147 -0.3005 -0.5164 -0.3828
 8072SOL    HW135678   1.828   0.724   5.112 -2.5522 -0.4196 -0.5147
 8072SOL    HW235679   1.765   0.813   5.217  1.5180  2.2557  1.3257
 8073SOL     OW35680   2.435   3.397  12.525 -0.2863 -0.0928 -0.5917
 8073SOL    HW135681   2.477   3.480  12.502 -2.3337  1.4648  1.3187
 8073SOL    HW235682   2.458   3.396  12.618 -1.2263  0.8507 -0.3481
 8074SOL     OW35683   1.265   0.711   5.379 -0.3162 -0.7669 -0.1451
 8074SOL    HW135684   1.217   0.703   5.297  1.2115 -2.7709 -0.8740
 8074SOL    HW235685   1.328   0.777   5.350 -0.7732 -0.1321  0.3139
 8075SOL     OW35686   1.432   3.196  16.429  0.6706  0.2730  0.6280
 8075SOL    HW135687   1.391   3.269  16.475 -1.7702 -0.8161  0.2154
 8075SOL    HW235688   1.505   3.243  16.391 -0.6436  1.3497 -0.5661
 8076SOL     OW35689   2.713   1.180   2.745 -0.1080 -0.0492  0.3826
 8076SOL    HW135690   2.723   1.108   2.683 -2.7321 -0.6357  0.6237
 8076SOL    HW235691   2.797   1.190   2.789 -0.3037 -2.4677  1.3160
 8077SOL     OW35692   0.899   3.515   4.260  0.4918 -0.2100 -0.1719
 8077SOL    HW135693   0.915   3.556   4.345 -0.2314 -1.9614  0.8189
 8077SOL    HW235694   0.827   3.454   4.276  2.0302 -1.8823  0.3686
 8078SOL     OW35695   0.760   4.072   4.718  0.0919  0.0226  0.3501
 8078SOL    HW135696   0.796   4.037   4.637  2.1248 -3.7376  2.8760
 8078SOL    HW235697   0.823   4.042   4.783  0.9771 -2.8624 -1.8328
 8079SOL     OW35698   2.345   4.351   6.021 -0.2872  0.3157 -0.1020
 8079SOL    HW135699   2.336   4.400   6.104 -0.2143 -0.6672  0.4815
 8079SOL    HW235700   2.290   4.405   5.963  0.6472  1.1950 -0.1695
 8080SOL     OW35701   1.963   0.004   8.923  0.1490 -0.0612 -0.2799
 8080SOL    HW135702   1.957   0.097   8.905 -1.2122 -0.3974 -1.6100
 8080SOL    HW235703   2.058   4.719   8.923  0.3130  2.5351  0.2635
 8081SOL     OW35704   1.672   1.051  16.032  0.6329 -0.8815  0.3371
 8081SOL    HW135705   1.616   1.077  16.105 -0.1639  3.4068 -1.7479
 8081SOL    HW235706   1.738   1.119  16.045  0.2285 -0.2135 -1.0804
 8082SOL     OW35707   3.650   4.172   3.629 -0.4916 -0.3803 -0.5547
 8082SOL    HW135708   3.569   4.222   3.626  1.1450  2.2908 -0.8183
 8082SOL    HW235709   3.675   4.197   3.718 -2.6776  0.2928 -0.1461
 8083SOL     OW35710   1.590   0.574  14.971  0.0179  0.2393  0.6489
 8083SOL    HW135711   1.660   0.616  14.922 -1.6627  0.2578 -1.7388
 8083SOL    HW235712   1.601   0.487  14.931 -1.2850  0.4542 -0.1935
 8084SOL     OW35713   2.731   4.123   5.795  0.0648 -0.1328 -0.4811
 8084SOL    HW135714   2.764   4.053   5.851 -2.2499 -1.0281 -0.2175
 8084SOL    HW235715   2.638   4.135   5.818 -0.0466  0.6742 -1.3838
 8085SOL     OW35716   1.542   1.783   4.418  0.7285 -0.3613  0.4671
 8085SOL    HW135717   1.612   1.819   4.364  0.0135  0.1433 -0.1274
 8085SOL    HW235718   1.494   1.722   4.363  0.0330 -0.1885  0.8758
 8086SOL     OW35719   3.523   0.182   3.926 -0.0754  0.5675  0.4042
 8086SOL    HW135720   3.444   0.232   3.903 -1.9556 -2.2911  0.6109
 8086SOL    HW235721   3.483   0.112   3.978 -0.4802  1.2531  1.0184
 8087SOL     OW35722   1.882   4.187   4.991 -0.5685  0.1696  0.1076
 8087SOL    HW135723   1.977   4.177   4.985 -0.4282 -0.1520  3.0664
 8087SOL    HW235724   1.862   4.198   4.898  1.6506 -1.1146 -0.5188
 8088SOL     OW35725   2.393   3.812  15.341  0.5966  0.1243  0.2726
 8088SOL    HW135726   2.346   3.763  15.409  1.9162 -3.1219 -1.1127
 8088SOL    HW235727   2.458   3.864  15.388  0.5756  1.6133 -1.3776
 8089SOL     OW35728   2.756   0.740   4.550 -0.7025 -0.1348  0.4373
 8089SOL    HW135729   2.718   0.658   4.580 -1.3511 -0.4918 -1.4008
 8089SOL    HW235730   2.844   0.746   4.587 -1.4013 -0.2300  2.1459
 8090SOL     OW35731   3.169   4.027   8.606  0.0467 -0.0140 -0.3796
 8090SOL    HW135732   3.174   4.110   8.653  0.9660 -0.2207 -0.1050
 8090SOL    HW235733   3.261   4.009   8.586 -0.4826 -1.2044 -1.7030
 8091SOL     OW35734   1.652   4.159   4.046  0.0286 -0.2783  0.3571
 8091SOL    HW135735   1.616   4.074   4.071 -0.8993 -0.0204 -0.1054
 8091SOL    HW235736   1.653   4.212   4.125 -1.7646 -0.1499  0.2920
 8092SOL     OW35737   1.979   4.076   8.236 -0.3343  0.1228 -0.7713
 8092SOL    HW135738   1.941   4.127   8.308 -1.9194  0.3036 -1.7481
 8092SOL    HW235739   1.994   3.990   8.276  0.1837  0.2831 -0.6136
 8093SOL     OW35740   3.058   3.509   2.961 -0.0382 -0.0261  0.2023
 8093SOL    HW135741   3.148   3.494   2.935 -0.4282 -2.8132  0.5067
 8093SOL    HW235742   3.077   3.533   3.052 -1.0871 -2.0156  0.9527
 8094SOL     OW35743   2.963   1.163   2.820 -0.1779 -0.0604  0.0315
 8094SOL    HW135744   3.008   1.212   2.889 -1.3995  0.3114  0.5622
 8094SOL    HW235745   2.965   1.074   2.854 -1.3067  0.1505  0.6427
 8095SOL     OW35746   0.567   3.360  13.661  0.0219 -0.1669 -0.2131
 8095SOL    HW135747   0.545   3.453  13.649  0.2842  0.0061  0.6414
 8095SOL    HW235748   0.650   3.360  13.708  0.4443  3.6697 -0.9156
 8096SOL     OW35749   2.559   4.511   4.518 -0.0658  0.7993  0.4207
 8096SOL    HW135750   2.517   4.511   4.604 -0.2031  1.1738  0.3561
 8096SOL    HW235751   2.627   4.577   4.536  1.0125  0.2065 -1.4317
 8097SOL     OW35752   3.675   2.093   8.439 -0.3049  0.0549 -0.0598
 8097SOL    HW135753   3.661   2.073   8.531 -0.3766  2.0425  0.3559
 8097SOL    HW235754   3.717   2.179   8.442  1.9200 -1.0072 -0.4509
 8098SOL     OW35755   2.259   1.019   2.634 -1.1223  0.2141  0.2269
 8098SOL    HW135756   2.233   1.109   2.617  0.0047 -0.1097 -3.3579
 8098SOL    HW235757   2.277   1.022   2.727 -0.1359  0.9878  0.0018
 8099SOL     OW35758   0.258   1.754   4.579  0.0712  0.0374 -0.1183
 8099SOL    HW135759   0.165   1.774   4.593 -0.0890  0.0984 -1.3171
 8099SOL    HW235760   0.280   1.724   4.667 -1.3108 -2.3136 -0.5786
 8100SOL     OW35761   2.577   1.028   0.397  0.0269  0.2786 -0.2962
 8100SOL    HW135762   2.504   0.973   0.426 -1.2197  2.1642  0.1067
 8100SOL    HW235763   2.581   1.073   0.481  0.5646 -0.5174  0.1078
 8101SOL     OW35764   3.908   4.222   8.278 -0.7250 -0.2272 -0.3043
 8101SOL    HW135765   3.915   4.316   8.295  0.4588 -0.5933  1.1729
 8101SOL    HW235766   3.816   4.206   8.300 -1.2577  0.2565 -2.1621
 8102SOL     OW35767   0.429   2.485  15.228 -0.2259 -0.2391  0.6069
 8102SOL    HW135768   0.492   2.451  15.292  1.0731  0.7754 -0.1717
 8102SOL    HW235769   0.360   2.418  15.231  1.5048 -2.0090  0.8057
 8103SOL     OW35770   0.608   1.308  17.674 -0.6693 -0.4574  0.3994
 8103SOL    HW135771   0.576   1.223   0.016 -3.7094 -0.2117 -2.2491
 8103SOL    HW235772   0.528   1.357   0.003  0.1825  0.8984  0.5465
 8104SOL     OW35773   3.956   2.705   9.499 -0.3496 -0.5409 -0.4025
 8104SOL    HW135774   3.937   2.632   9.440 -4.4325  0.3010 -0.0704
 8104SOL    HW235775   4.041   2.739   9.470  0.0391 -0.4442  0.8589
 8105SOL     OW35776   2.789   3.744   0.357 -0.4008 -0.2328  0.0475
 8105SOL    HW135777   2.709   3.735   0.306 -1.2313  0.6490  1.2228
 8105SOL    HW235778   2.855   3.750   0.287  0.3964  0.3297  0.8617
 8106SOL     OW35779   0.357   3.206  15.360  0.1538 -0.3069 -0.0736
 8106SOL    HW135780   0.338   3.144  15.290  1.2319  0.6447 -1.2057
 8106SOL    HW235781   0.308   3.283  15.332  0.7224  0.6873  1.6242
 8107SOL     OW35782   3.310   1.040   3.196  0.4890 -0.3111 -0.0451
 8107SOL    HW135783   3.225   0.996   3.189 -0.1539  0.6420  1.8794
 8107SOL    HW235784   3.300   1.086   3.280 -0.0812 -1.0560  0.2954
 8108SOL     OW35785   3.107   3.963   3.132  0.4689 -0.0090 -0.0164
 8108SOL    HW135786   3.106   4.052   3.097  0.1633 -1.2133 -3.0471
 8108SOL    HW235787   3.198   3.936   3.116  0.1481 -0.2572 -1.4239
 8109SOL     OW35788   2.975   2.679   4.669 -0.5572  0.3413 -0.6114
 8109SOL    HW135789   2.940   2.710   4.586 -2.4760 -1.2344 -0.3674
 8109SOL    HW235790   2.892   2.655   4.711  0.2916 -0.0117  0.8797
 8110SOL     OW35791   3.780   0.714   3.260  0.0116 -0.5699 -0.1653
 8110SOL    HW135792   3.739   0.628   3.255  1.5802 -1.4637  2.1696
 8110SOL    HW235793   3.695   0.757   3.265 -0.1383 -0.9326  0.4944
 8111SOL     OW35794   3.611   4.540   1.233 -0.4021 -0.1191 -0.1425
 8111SOL    HW135795   3.658   4.528   1.151 -0.2529 -2.0028  0.2285
 8111SOL    HW235796   3.567   4.624   1.218  1.2197  0.6571 -0.5338
 8112SOL     OW35797   0.305   1.023   5.164  0.1329  0.2127 -0.4899
 8112SOL    HW135798   0.281   0.999   5.253  2.4917  1.6038  0.5244
 8112SOL    HW235799   0.231   0.991   5.112  1.1680 -1.3320 -1.0031
 8113SOL     OW35800   1.968   0.131   1.828 -0.4732 -0.1853 -0.4696
 8113SOL    HW135801   2.017   0.214   1.820 -0.1495 -0.3482 -0.1593
 8113SOL    HW235802   1.904   0.142   1.758  0.2705  1.2691 -0.9261
 8114SOL     OW35803   4.543   3.775   2.596 -0.3074  0.1334  0.3993
 8114SOL    HW135804   4.528   3.711   2.665 -0.8527 -0.4712 -0.2748
 8114SOL    HW235805   4.563   3.704   2.535 -0.8208  1.2205 -1.0294
 8115SOL     OW35806   4.346   1.587   2.654  0.0145  0.0685  0.3476
 8115SOL    HW135807   4.418   1.636   2.693  1.7251 -1.7097 -0.5557
 8115SOL    HW235808   4.291   1.660   2.626 -0.2958 -0.2454  0.1373
 8116SOL     OW35809   3.928   0.039   4.052  0.1270 -0.4242 -0.9051
 8116SOL    HW135810   3.865   0.110   4.044  2.0206  1.1011 -2.3381
 8116SOL    HW235811   3.994   0.077   3.994  0.3220 -0.4189 -0.6839
 8117SOL     OW35812   2.042   4.258   5.659 -0.2033 -0.1126  0.3854
 8117SOL    HW135813   1.996   4.324   5.710  0.3898  2.0255 -1.8868
 8117SOL    HW235814   1.980   4.251   5.587 -0.4462  0.1380  0.5730
 8118SOL     OW35815   2.661   0.201  17.209  0.4329  0.1126 -0.1597
 8118SOL    HW135816   2.724   0.139  17.246  2.0443  0.7142 -1.8718
 8118SOL    HW235817   2.582   0.188  17.261  0.5099 -0.0184 -0.0741
 8119SOL     OW35818   3.569   0.604   6.698 -0.0339  0.8766  0.0339
 8119SOL    HW135819   3.522   0.613   6.615  0.5212  0.0228 -0.3713
 8119SOL    HW235820   3.525   0.673   6.748 -0.7285  0.6609 -0.2821
 8120SOL     OW35821   0.368   2.125   1.913  0.6343  0.9182  0.3765
 8120SOL    HW135822   0.338   2.161   1.996  0.1577  0.0279  0.5871
 8120SOL    HW235823   0.461   2.103   1.924  0.4674 -0.0257 -0.0825
 8121SOL     OW35824   0.140   0.680   9.265  0.7000 -0.7198 -0.1115
 8121SOL    HW135825   0.172   0.605   9.314 -0.8319 -1.7856 -0.7766
 8121SOL    HW235826   0.073   0.641   9.209  0.8695 -1.8056  0.4412
 8122SOL     OW35827   3.158   2.297  14.031 -0.5275  0.4685  0.2256
 8122SOL    HW135828   3.249   2.285  14.058 -0.5888 -2.1516 -0.7820
 8122SOL    HW235829   3.129   2.212  14.062 -1.2215  0.6230 -0.0074
 8123SOL     OW35830   2.236   3.883   5.550  0.0853 -0.4188 -0.5388
 8123SOL    HW135831   2.200   3.963   5.511 -1.2598 -1.0492 -0.5859
 8123SOL    HW235832   2.165   3.819   5.553 -0.8374  0.6991  1.8917
 8124SOL     OW35833   3.592   2.978   7.437  0.5272  0.1375  0.6022
 8124SOL    HW135834   3.539   2.961   7.360  0.3453 -0.1331  0.7904
 8124SOL    HW235835   3.678   2.976   7.394  0.4491 -0.0562  0.4550
 8125SOL     OW35836   3.350   4.259   4.948 -0.0700 -0.0743 -0.3331
 8125SOL    HW135837   3.260   4.288   4.966 -0.7185 -1.8276 -0.7274
 8125SOL    HW235838   3.355   4.171   4.986  1.1197  0.1597  0.0428
 8126SOL     OW35839   1.562   2.368   4.051 -0.1691  0.1620  0.1268
 8126SOL    HW135840   1.546   2.441   3.991 -1.4249 -1.6686 -1.7383
 8126SOL    HW235841   1.476   2.362   4.094  0.2277  0.4185  0.9716
 8127SOL     OW35842   0.685   4.100   7.723 -0.3608  0.8931  0.1252
 8127SOL    HW135843   0.686   4.023   7.665  1.3417  1.0235 -0.0207
 8127SOL    HW235844   0.757   4.081   7.783 -0.2682 -0.1114 -0.2930
 8128SOL     OW35845   0.820   4.640   2.788 -0.1403 -0.0367 -0.5687
 8128SOL    HW135846   0.793   4.654   2.879  0.3379  1.9202 -0.7195
 8128SOL    HW235847   0.770   4.705   2.739 -2.4286 -1.4057 -0.0237
 8129SOL     OW35848   3.688   0.592   1.061  0.0034  0.0254 -0.3189
 8129SOL    HW135849   3.651   0.597   1.149  1.8692  0.8557  0.4081
 8129SOL    HW235850   3.783   0.605   1.070  0.1415 -0.2075 -1.3774
 8130SOL     OW35851   4.322   0.281  13.370  0.4289 -0.2068 -0.4062
 8130SOL    HW135852   4.391   0.293  13.304  0.7511 -2.7887 -0.5573
 8130SOL    HW235853   4.243   0.256  13.323 -0.2817  0.9479  0.1890
 8131SOL     OW35854   3.283   1.531   7.627  0.5109  0.0898 -0.0420
 8131SOL    HW135855   3.242   1.499   7.707  0.8594  0.8082  0.4168
 8131SOL    HW235856   3.216   1.507   7.563  1.0711 -0.6149 -0.3544
 8132SOL     OW35857   0.967   3.215   7.352 -0.4783  0.2787 -0.5675
 8132SOL    HW135858   0.993   3.134   7.397 -1.5936  0.9838  1.3185
 8132SOL    HW235859   0.932   3.185   7.268  1.1931 -0.6901 -0.9126
 8133SOL     OW35860   0.387   0.782   7.811 -0.1778 -0.3177 -0.3487
 8133SOL    HW135861   0.299   0.772   7.847  0.1836 -2.1646  0.0444
 8133SOL    HW235862   0.434   0.714   7.859 -0.5931 -0.1939  0.2267
 8134SOL     OW35863   1.689   3.875   3.513  0.0392 -0.1075 -0.5924
 8134SOL    HW135864   1.633   3.799   3.529  0.3028 -0.4303 -1.2309
 8134SOL    HW235865   1.758   3.870   3.580 -0.5599  1.2405  0.1274
 8135SOL     OW35866   0.635   0.504  13.197  0.1394  0.0036 -0.3855
 8135SOL    HW135867   0.696   0.442  13.237  0.1999  1.3971  1.6620
 8135SOL    HW235868   0.688   0.537  13.124 -2.0456  0.9762 -1.5247
 8136SOL     OW35869   3.828   4.264   2.260  0.1557 -0.0218  0.2072
 8136SOL    HW135870   3.812   4.182   2.306  1.4437 -1.5282 -1.9965
 8136SOL    HW235871   3.800   4.326   2.327  0.6975  0.9183 -0.4240
 8137SOL     OW35872   4.718   3.665  10.539 -0.3266  0.2349  0.0629
 8137SOL    HW135873   0.089   3.642  10.531 -0.0850  1.1306  0.2242
 8137SOL    HW235874   4.697   3.721  10.464  2.0447 -1.6833 -2.0327
 8138SOL     OW35875   1.296   2.324   1.285 -0.4850 -0.7015 -0.3516
 8138SOL    HW135876   1.286   2.298   1.377 -1.4956 -2.7043 -1.0208
 8138SOL    HW235877   1.314   2.412   1.317 -1.4948 -0.2787 -0.9744
 8139SOL     OW35878   0.090   0.141   6.522  0.6249  0.5000 -0.6894
 8139SOL    HW135879   0.130   0.176   6.602 -1.1933  0.0572  0.4156
 8139SOL    HW235880   0.120   0.215   6.470  3.4732 -0.0710  0.1159
 8140SOL     OW35881   4.557   2.866   9.429 -0.4857  0.0121 -0.4451
 8140SOL    HW135882   4.523   2.786   9.469  1.0775 -0.3883  0.0704
 8140SOL    HW235883   4.652   2.854   9.427 -0.2444  1.8039  0.3552
 8141SOL     OW35884   2.771   3.467   1.786  0.0982  0.0881 -0.5397
 8141SOL    HW135885   2.797   3.534   1.723 -2.8925  2.0507  0.3545
 8141SOL    HW235886   2.770   3.511   1.871 -0.0624  1.9596 -1.5217
 8142SOL     OW35887   0.203   2.751   6.074 -0.2178  0.0699 -0.0027
 8142SOL    HW135888   0.124   2.759   6.126 -0.6469 -2.8500 -0.2154
 8142SOL    HW235889   0.217   2.844   6.055 -0.5255  0.2917  0.8710
 8143SOL     OW35890   1.842   0.630   5.436 -0.0242  0.7202 -0.5711
 8143SOL    HW135891   1.748   0.629   5.457  0.4225  1.1401  1.4543
 8143SOL    HW235892   1.877   0.624   5.525 -0.6939 -0.5147 -0.3916
 8144SOL     OW35893   1.785   3.279   3.215 -0.9271 -0.1777 -0.3812
 8144SOL    HW135894   1.815   3.291   3.124  0.6108  0.9534  0.2676
 8144SOL    HW235895   1.808   3.359   3.263 -0.0813 -1.1499  0.8362
 8145SOL     OW35896   3.975   3.763   6.186 -0.3478  0.1923 -0.0169
 8145SOL    HW135897   4.012   3.808   6.110 -1.1674  0.4894 -0.2377
 8145SOL    HW235898   3.959   3.679   6.143  1.4281 -1.1076  1.8475
 8146SOL     OW35899   3.845   1.974   1.131  0.4121  0.1279  0.3559
 8146SOL    HW135900   3.860   1.949   1.040 -2.2013  2.2731 -0.6814
 8146SOL    HW235901   3.752   1.991   1.119  0.6041  0.9352 -0.0076
 8147SOL     OW35902   4.279   3.473   2.799 -0.6418  0.0512 -0.1193
 8147SOL    HW135903   4.225   3.416   2.854  0.9177 -2.8819 -1.6334
 8147SOL    HW235904   4.250   3.441   2.714 -1.1842  0.3307 -0.0370
 8148SOL     OW35905   0.972   0.181   6.975  0.1092 -0.3351 -0.4506
 8148SOL    HW135906   0.994   0.214   6.887  0.9655  3.2263  1.1066
 8148SOL    HW235907   1.046   0.123   6.995 -0.1838 -0.9265 -1.0526
 8149SOL     OW35908   1.868   2.413   7.189 -0.3083  0.1220  0.3982
 8149SOL    HW135909   1.829   2.398   7.276  1.6462 -1.4597  1.0197
 8149SOL    HW235910   1.935   2.476   7.216  0.1183  0.3232 -1.1503
 8150SOL     OW35911   1.251   3.310   7.108  0.4562  0.5040 -0.4708
 8150SOL    HW135912   1.210   3.255   7.041 -0.5415  0.5381  0.1111
 8150SOL    HW235913   1.312   3.364   7.058  1.3370  0.6366  0.7322
 8151SOL     OW35914   2.861   3.342   7.837  0.0351 -0.5859  0.1087
 8151SOL    HW135915   2.937   3.313   7.889  0.7002  0.2609 -0.4087
 8151SOL    HW235916   2.840   3.267   7.781 -1.7596 -0.4264  0.5483
 8152SOL     OW35917   3.023   1.098   1.772 -0.4000 -0.3922  0.2629
 8152SOL    HW135918   3.028   1.147   1.690 -0.8840 -0.4140  0.2215
 8152SOL    HW235919   2.941   1.131   1.810  0.2327  1.1173  0.3357
 8153SOL     OW35920   2.938   3.428   5.947  0.8601 -0.1459  0.3803
 8153SOL    HW135921   3.023   3.440   5.903  0.9505  0.2713  0.6739
 8153SOL    HW235922   2.888   3.406   5.868  1.6126 -2.4037  0.5385
 8154SOL     OW35923   3.467   0.175  14.341 -0.0290 -0.3901 -0.4208
 8154SOL    HW135924   3.519   0.130  14.273  2.5551 -1.1503  2.0629
 8154SOL    HW235925   3.397   0.215  14.289 -0.1937 -0.3439 -0.1582
 8155SOL     OW35926   2.133   1.195   7.568  0.4550  0.1376 -0.4378
 8155SOL    HW135927   2.112   1.112   7.611  1.8301  0.5616  1.0522
 8155SOL    HW235928   2.221   1.177   7.534 -0.8975  0.3222 -3.9641
 8156SOL     OW35929   3.835   0.467   4.379  0.1858 -0.7341  0.3138
 8156SOL    HW135930   3.910   0.473   4.438  0.6086 -0.5921 -0.2341
 8156SOL    HW235931   3.880   0.455   4.295  0.9388 -0.0489  0.6176
 8157SOL     OW35932   1.364   2.130   2.826 -0.2588 -0.2519  0.1944
 8157SOL    HW135933   1.390   2.049   2.781  0.0941 -0.5051  0.8561
 8157SOL    HW235934   1.449   2.149   2.868  0.3875  3.0313 -2.5812
 8158SOL     OW35935   2.774   2.895   8.329  0.0235 -0.0301  0.2154
 8158SOL    HW135936   2.702   2.846   8.370  0.2733 -0.6660 -0.1080
 8158SOL    HW235937   2.735   2.931   8.249 -2.2367  0.0487  1.3438
 8159SOL     OW35938   2.412   2.523  10.929  0.0845  0.0249  0.2979
 8159SOL    HW135939   2.466   2.459  10.975  1.0445  1.3480  1.0026
 8159SOL    HW235940   2.331   2.483  10.959  0.9965 -1.9178  0.2106
 8160SOL     OW35941   2.309   0.558   4.409 -0.5282 -0.5532  0.4409
 8160SOL    HW135942   2.374   0.498   4.373 -0.0556 -0.2048  0.7057
 8160SOL    HW235943   2.309   0.533   4.501  0.0418 -1.2720  0.2485
 8161SOL     OW35944   0.165   0.822   6.568 -0.4759  0.0596  0.4045
 8161SOL    HW135945   0.218   0.746   6.543 -0.9479  0.4984 -1.9284
 8161SOL    HW235946   0.227   0.882   6.608 -1.8036 -0.0048  2.5631
 8162SOL     OW35947   0.082   2.995   4.921 -0.5864 -0.0630  0.0341
 8162SOL    HW135948   0.027   3.051   4.976 -1.6261 -0.1578 -0.9054
 8162SOL    HW235949   0.089   2.914   4.971  0.3212  0.0870  0.1565
 8163SOL     OW35950   4.694   2.292  10.226  0.0539  0.2195 -0.3336
 8163SOL    HW135951   0.027   2.370  10.237 -1.0316  0.8529  0.5560
 8163SOL    HW235952   0.004   2.260  10.142 -1.8499 -2.3061 -0.1241
 8164SOL     OW35953   2.051   2.788   2.158  0.3402 -0.3081 -0.4271
 8164SOL    HW135954   2.072   2.825   2.072  2.0367 -0.8022 -0.2308
 8164SOL    HW235955   1.963   2.757   2.138  0.0501 -0.3222  0.9322
 8165SOL     OW35956   1.626   4.255  14.189 -0.1557  0.3195  0.1578
 8165SOL    HW135957   1.674   4.172  14.187 -0.2575  0.2420  1.2456
 8165SOL    HW235958   1.602   4.261  14.096 -0.2533 -0.5342  0.1332
 8166SOL     OW35959   4.019   1.583   2.582  0.1684 -0.1578 -0.2318
 8166SOL    HW135960   4.045   1.503   2.536 -0.7801 -0.0964 -0.8626
 8166SOL    HW235961   4.041   1.652   2.520 -0.8829  0.3026 -0.0865
 8167SOL     OW35962   0.154   0.554   2.187  0.0008  0.2622 -0.0449
 8167SOL    HW135963   0.116   0.477   2.228  1.4675 -1.3360 -1.7121
 8167SOL    HW235964   0.095   0.562   2.112  0.2441 -1.6096 -0.4392
 8168SOL     OW35965   4.017   2.252  17.510 -0.2201  0.0578  0.1227
 8168SOL    HW135966   3.996   2.252  17.604 -1.2251 -0.0543 -0.1036
 8168SOL    HW235967   3.938   2.219  17.468  1.8510 -1.8322 -2.2601
 8169SOL     OW35968   4.574   1.556   4.643 -0.0838 -0.3527 -0.7997
 8169SOL    HW135969   4.498   1.583   4.593  0.2745  2.0751 -0.0614
 8169SOL    HW235970   4.529   1.530   4.724  0.7083 -1.3614 -0.6722
 8170SOL     OW35971   0.260   0.097   5.591  0.0726 -0.5560 -0.2622
 8170SOL    HW135972   0.199   0.149   5.644  0.6354  2.4923 -2.5979
 8170SOL    HW235973   0.224   0.009   5.602 -1.4050  0.2412  1.2880
 8171SOL     OW35974   3.147   2.221  11.161 -0.4152 -0.6963  0.1113
 8171SOL    HW135975   3.241   2.210  11.154 -0.2805  0.1644  0.5799
 8171SOL    HW235976   3.130   2.228  11.255  0.3595 -0.8958  0.2657
 8172SOL     OW35977   1.034   1.042   4.358  0.2441 -0.5522  0.0162
 8172SOL    HW135978   1.120   1.055   4.398 -1.2723  1.9550  2.4304
 8172SOL    HW235979   1.027   1.115   4.297 -0.5473  0.9946  1.9824
 8173SOL     OW35980   0.917   2.938  15.905  0.1962 -0.8362  0.3443
 8173SOL    HW135981   0.859   3.011  15.883 -0.2536 -1.2474  0.1589
 8173SOL    HW235982   0.853   2.867  15.916  0.2154 -0.9362 -0.1741
 8174SOL     OW35983   2.917   1.207   4.089 -0.9550  0.4463 -0.7216
 8174SOL    HW135984   2.894   1.115   4.080  0.0065  0.1131  0.2437
 8174SOL    HW235985   2.983   1.221   4.020 -1.0147  0.8966 -0.6882
 8175SOL     OW35986   4.519   4.132   4.193  0.6887  0.2960 -0.2985
 8175SOL    HW135987   4.522   4.068   4.122 -1.6329 -0.6773  0.4897
 8175SOL    HW235988   4.435   4.110   4.233  0.4346  1.2213 -0.3201
 8176SOL     OW35989   0.757   0.718   7.638  0.5919 -0.0497  0.6263
 8176SOL    HW135990   0.770   0.737   7.731  3.1441 -0.2568  0.3210
 8176SOL    HW235991   0.728   0.628   7.655  3.1791 -0.8481  0.8453
 8177SOL     OW35992   4.712   3.625   1.895 -0.0466 -0.2965 -0.1812
 8177SOL    HW135993   0.071   3.572   1.900 -0.3696 -0.6457  1.2656
 8177SOL    HW235994   4.646   3.567   1.858 -1.4238  0.8806  0.4494
 8178SOL     OW35995   4.035   4.715   3.152 -0.1868 -0.2131  0.6370
 8178SOL    HW135996   3.987   4.634   3.133  0.8299 -0.2177 -1.8729
 8178SOL    HW235997   3.986   0.055   3.098 -2.2893 -1.5055  1.0658
 8179SOL     OW35998   4.427   3.929  15.704 -0.0345 -0.4569  0.2362
 8179SOL    HW135999   4.379   4.008  15.679  1.1946 -0.2448 -1.4809
 8179SOL    HW236000   4.355   3.869  15.717 -1.6521  1.3612 -0.3326
 8180SOL     OW36001   3.165   0.146  15.237  0.1099  0.1646 -0.5853
 8180SOL    HW136002   3.253   0.111  15.221  0.1505 -0.5855  1.3045
 8180SOL    HW236003   3.158   0.232  15.194  1.2599  0.4392 -0.2225
 8181SOL     OW36004   2.085   4.178   2.094  0.2355 -0.1672 -0.1310
 8181SOL    HW136005   2.145   4.216   2.158  1.7353 -0.2064 -1.5113
 8181SOL    HW236006   2.096   4.231   2.015  0.4861  0.4193  0.2898
 8182SOL     OW36007   1.265   2.620   6.733 -0.6075  0.4489 -0.2389
 8182SOL    HW136008   1.305   2.650   6.815  0.8375  0.8028 -1.0757
 8182SOL    HW236009   1.200   2.691   6.725 -1.9534 -0.5694  1.5930
 8183SOL     OW36010   1.635   0.148  17.378  0.0100  0.1595 -0.3682
 8183SOL    HW136011   1.647   0.221  17.317 -2.0841  1.1226  0.4073
 8183SOL    HW236012   1.671   0.182  17.459 -0.6026  0.1677 -0.1074
 8184SOL     OW36013   0.678   2.494   8.491  0.0224 -0.4702 -0.2827
 8184SOL    HW136014   0.609   2.496   8.425 -0.0549 -0.6489 -0.2064
 8184SOL    HW236015   0.632   2.554   8.551 -0.0122  0.0148 -0.7916
 8185SOL     OW36016   4.051   3.812   3.468 -0.1060  0.0278  0.3798
 8185SOL    HW136017   4.110   3.745   3.502 -1.6164 -0.1674  2.5635
 8185SOL    HW236018   3.984   3.819   3.536 -2.1908  1.6212 -1.8471
 8186SOL     OW36019   3.473   0.276  16.750 -0.4741 -0.1829  0.7233
 8186SOL    HW136020   3.480   0.280  16.655  0.9780 -1.3222  0.7742
 8186SOL    HW236021   3.379   0.283  16.764 -0.5970 -0.8438  0.2036
 8187SOL     OW36022   1.868   0.942   2.547  0.3833  0.3406  0.0554
 8187SOL    HW136023   1.827   0.868   2.503 -0.4055  0.2090  0.9991
 8187SOL    HW236024   1.812   0.939   2.625 -0.7100  0.8629 -0.7149
 8188SOL     OW36025   1.244   0.660   7.900 -0.3377  0.4426 -0.5066
 8188SOL    HW136026   1.175   0.717   7.934  0.9268  0.8295  1.4317
 8188SOL    HW236027   1.253   0.718   7.823  3.2402 -2.5298 -2.3123
 8189SOL     OW36028   2.693   0.503  13.381  0.4973 -0.6674  0.4858
 8189SOL    HW136029   2.722   0.587  13.344  0.7674 -0.6140  0.8275
 8189SOL    HW236030   2.772   0.449  13.381  0.1382 -1.1897  0.5352
 8190SOL     OW36031   0.892   1.801   1.486 -0.2011  0.3526 -0.3189
 8190SOL    HW136032   0.851   1.764   1.407 -1.2664  1.1546 -0.1493
 8190SOL    HW236033   0.977   1.758   1.479  1.1656  2.9988  0.1374
 8191SOL     OW36034   4.000   0.357   0.805  0.2000  0.4091  0.0294
 8191SOL    HW136035   3.982   0.392   0.718  2.0243 -0.7535 -0.8159
 8191SOL    HW236036   3.917   0.321   0.835  0.9463  0.4780  2.1869
 8192SOL     OW36037   0.633   2.860   4.269 -0.5935  0.2128  1.0768
 8192SOL    HW136038   0.642   2.903   4.184  1.3247 -0.0486  1.1475
 8192SOL    HW236039   0.614   2.767   4.263  2.2845 -0.2100 -1.7578
 8193SOL     OW36040   1.095   3.222   6.892  0.0217  0.6976  0.0618
 8193SOL    HW136041   1.156   3.172   6.837 -0.4334  0.9998 -0.7172
 8193SOL    HW236042   1.107   3.313   6.864 -0.1972  0.0159 -2.2756
 8194SOL     OW36043   0.645   0.643   1.632  0.4947  0.4611 -0.0134
 8194SOL    HW136044   0.565   0.626   1.584  0.2922  0.5471  0.2938
 8194SOL    HW236045   0.615   0.702   1.701 -2.9548 -0.1596 -1.0235
 8195SOL     OW36046   4.073   1.003   1.653 -0.5117 -0.5282  0.3135
 8195SOL    HW136047   3.979   0.988   1.646 -0.4578 -0.3800 -0.7750
 8195SOL    HW236048   4.081   1.019   1.747 -1.2691 -1.3112  0.5140
 8196SOL     OW36049   1.801   2.804  17.286 -0.1121  0.0176 -0.3421
 8196SOL    HW136050   1.792   2.862  17.210 -0.2223  0.9836  0.4098
 8196SOL    HW236051   1.842   2.725  17.251 -2.5271 -0.4776 -2.1105
 8197SOL     OW36052   0.103   3.118  11.461  0.1097  0.0198 -0.6451
 8197SOL    HW136053   0.095   3.100  11.555  1.2343  1.4047 -0.2906
 8197SOL    HW236054   0.196   3.099  11.453 -0.0570 -1.0105 -0.2089
 8198SOL     OW36055   1.801   1.206   1.974  0.0122 -0.6953 -0.4227
 8198SOL    HW136056   1.790   1.287   2.025 -1.7650 -0.5018 -1.0905
 8198SOL    HW236057   1.770   1.156   2.050 -1.9343 -0.1162 -0.8305
 8199SOL     OW36058   4.714   1.715   1.657 -0.1057 -0.3378  0.0163
 8199SOL    HW136059   0.066   1.751   1.608 -0.2930  2.1284  1.5488
 8199SOL    HW236060   4.654   1.684   1.589 -1.6755  2.5871  0.0779
 8200SOL     OW36061   4.633   0.173   9.920 -0.0278 -0.6880 -0.2431
 8200SOL    HW136062   4.720   0.198   9.951 -0.4354 -1.0483  1.2302
 8200SOL    HW236063   4.648   0.110   9.849  1.0944 -0.5253 -0.1519
 8201SOL     OW36064   3.707   4.609   2.888 -0.2990  0.1611 -0.7499
 8201SOL    HW136065   3.779   4.558   2.923 -1.7897 -0.5493  1.3180
 8201SOL    HW236066   3.741   4.638   2.803 -1.0632  0.3891 -0.9776
 8202SOL     OW36067   3.123   4.448   9.372  0.1741  0.3550  0.5383
 8202SOL    HW136068   3.031   4.428   9.389  0.1985 -0.8846 -0.7739
 8202SOL    HW236069   3.149   4.497   9.450  3.6565 -0.4242 -0.1181
 8203SOL     OW36070   1.807   3.259   2.626 -0.1841 -0.5435  0.2389
 8203SOL    HW136071   1.809   3.294   2.715 -0.5144  0.8805 -0.3249
 8203SOL    HW236072   1.895   3.258   2.590 -1.1680 -0.2565 -2.1781
 8204SOL     OW36073   2.021   0.807   7.087  0.9063 -0.4472 -0.0627
 8204SOL    HW136074   2.007   0.788   6.995 -0.3957 -1.0463  0.2629
 8204SOL    HW236075   1.930   0.818   7.116  0.8541 -0.8715 -0.0681
 8205SOL     OW36076   4.265   0.976  16.504 -0.5607 -0.1143  0.1020
 8205SOL    HW136077   4.229   0.996  16.591 -1.0684 -1.7616  0.2753
 8205SOL    HW236078   4.355   0.973  16.537 -1.6755  1.4876  3.3419
 8206SOL     OW36079   4.050   3.942   7.696 -0.1432 -0.4898 -0.2322
 8206SOL    HW136080   3.961   3.963   7.725  0.4875  1.7724  0.0126
 8206SOL    HW236081   4.038   3.862   7.644  0.3782  0.0273 -1.1573
 8207SOL     OW36082   1.186   2.136   2.506 -0.0997  0.1831  0.1033
 8207SOL    HW136083   1.246   2.199   2.546 -0.1586 -0.9624  2.0103
 8207SOL    HW236084   1.245   2.066   2.477 -1.5281 -0.3408 -1.5124
 8208SOL     OW36085   3.154   2.202   4.678  0.6010  0.2167 -0.2818
 8208SOL    HW136086   3.097   2.216   4.753  0.7369 -1.7961  0.2098
 8208SOL    HW236087   3.236   2.240   4.710 -0.7783 -0.1401  3.7166
 8209SOL     OW36088   0.237   0.977  10.579  0.0314 -0.1710  0.4490
 8209SOL    HW136089   0.249   0.971  10.485 -0.1891  1.1213  0.3394
 8209SOL    HW236090   0.224   0.884  10.598 -0.4926 -0.6203 -2.1975
 8210SOL     OW36091   1.637   4.644  14.001 -0.1570  0.4443  0.3794
 8210SOL    HW136092   1.592   4.659  14.084  0.0093  2.6383  0.0533
 8210SOL    HW236093   1.702   4.579  14.028 -0.8818 -0.7652 -0.8290
 8211SOL     OW36094   1.931   0.501   4.682  0.2660  0.2563  0.3217
 8211SOL    HW136095   1.845   0.535   4.707 -0.0543  0.0218 -0.4466
 8211SOL    HW236096   1.972   0.578   4.643  1.1870 -0.7907 -0.7728
 8212SOL     OW36097   3.185   0.849   6.214  0.3100 -0.4072  0.1037
 8212SOL    HW136098   3.236   0.929   6.226  1.1693 -0.5897 -2.3277
 8212SOL    HW236099   3.094   0.871   6.234  0.0237  0.5367 -2.2566
 8213SOL     OW36100   4.445   2.603   5.340 -0.3626 -0.6192  0.7043
 8213SOL    HW136101   4.509   2.580   5.272  1.5938 -2.6622  3.2504
 8213SOL    HW236102   4.378   2.632   5.278 -1.6324 -0.6085  2.0904
 8214SOL     OW36103   0.174   0.078  12.409 -0.0448  0.2340 -0.5715
 8214SOL    HW136104   0.168   0.144  12.340 -1.8106  0.9597  0.2577
 8214SOL    HW236105   0.107   0.112  12.469 -0.1450  0.9317 -1.0718
 8215SOL     OW36106   3.244   1.508   4.806 -0.5181 -0.2228  1.0649
 8215SOL    HW136107   3.312   1.491   4.871 -0.6169 -0.1636  1.1834
 8215SOL    HW236108   3.230   1.602   4.821  0.6801 -0.0350  1.0413
 8216SOL     OW36109   3.699   4.648   5.154  0.0969  0.5528 -0.3055
 8216SOL    HW136110   3.604   4.659   5.156 -0.2440 -2.6385  1.0344
 8216SOL    HW236111   3.718   4.570   5.206 -1.5530  0.8189  0.6769
 8217SOL     OW36112   3.574   4.451   4.264 -0.3384  0.0688  0.5778
 8217SOL    HW136113   3.581   4.376   4.323 -1.2205 -0.6338 -0.2175
 8217SOL    HW236114   3.484   4.479   4.282 -0.0393  1.5593 -0.2063
 8218SOL     OW36115   2.450   3.796   9.185 -0.0830 -0.0914 -0.6553
 8218SOL    HW136116   2.427   3.736   9.255  2.1573 -1.9794 -1.5501
 8218SOL    HW236117   2.540   3.775   9.158 -0.0821  1.3353 -1.7866
 8219SOL     OW36118   1.609   3.109   7.500 -0.1902  0.3656  0.2785
 8219SOL    HW136119   1.540   3.167   7.531 -1.3222 -0.0060 -1.5517
 8219SOL    HW236120   1.603   3.033   7.557 -0.7831  0.1926 -0.0106
 8220SOL     OW36121   1.736   0.106  13.824 -0.4011  0.1556 -0.1946
 8220SOL    HW136122   1.777   0.161  13.891 -0.6548  0.2418 -0.1125
 8220SOL    HW236123   1.720   0.025  13.874 -0.1410  0.1217 -0.1664
 8221SOL     OW36124   1.078   4.683  16.694  0.1011 -0.3180  0.3048
 8221SOL    HW136125   1.097   4.716  16.782  2.6553 -0.9619 -0.0002
 8221SOL    HW236126   1.162   4.692  16.650 -0.0779  1.9591  0.4211
 8222SOL     OW36127   2.088   1.761   6.534 -0.4662 -0.6211  0.0086
 8222SOL    HW136128   2.153   1.792   6.597 -0.6226  1.0760 -0.6762
 8222SOL    HW236129   2.045   1.696   6.590  0.9221 -2.2350 -0.7690
 8223SOL     OW36130   0.578   3.217   4.852  0.1590  0.1900  0.5542
 8223SOL    HW136131   0.502   3.162   4.832 -0.5312  0.8048  1.4680
 8223SOL    HW236132   0.626   3.166   4.917 -0.8328 -2.8041 -1.0549
 8224SOL     OW36133   0.617   1.983   7.057 -0.2496 -0.0181  0.7282
 8224SOL    HW136134   0.705   1.963   7.090 -0.2524 -0.3018  0.5657
 8224SOL    HW236135   0.576   1.899   7.080 -1.3574  0.8094  1.7475
 8225SOL     OW36136   4.552   2.533   2.257 -0.0996  0.4139  0.3073
 8225SOL    HW136137   4.587   2.564   2.174  2.1648 -0.8755  0.7995
 8225SOL    HW236138   4.624   2.506   2.314  2.5757  2.1427 -2.2623
 8226SOL     OW36139   0.148   0.311   5.078  0.2343 -0.5999  0.2566
 8226SOL    HW136140   0.204   0.371   5.029  0.0009  0.6203  1.4918
 8226SOL    HW236141   0.209   0.237   5.073  0.3798 -0.2884 -2.6913
 8227SOL     OW36142   1.871   0.974   9.696 -0.0519  0.1224 -0.0336
 8227SOL    HW136143   1.918   0.909   9.748  0.7863 -0.2362 -1.2480
 8227SOL    HW236144   1.858   0.909   9.627  0.4332  0.1587 -0.1578
 8228SOL     OW36145   1.750   3.423   1.125 -0.1951  0.4191  0.8578
 8228SOL    HW136146   1.679   3.471   1.085 -1.0128  0.1101  1.9419
 8228SOL    HW236147   1.821   3.435   1.062  0.7740  1.3829  2.1091
 8229SOL     OW36148   1.474   0.611   3.968 -0.2438 -0.3867 -0.0111
 8229SOL    HW136149   1.537   0.678   3.940 -0.1395  0.4172  2.1485
 8229SOL    HW236150   1.406   0.656   4.019  1.1526  1.8779 -0.1385
 8230SOL     OW36151   3.355   0.013   4.855 -0.4201 -0.6859  0.1762
 8230SOL    HW136152   3.433   0.033   4.803 -1.2182  0.5602 -0.5442
 8230SOL    HW236153   3.386   4.653   4.897 -0.8986  0.5500  2.9289
 8231SOL     OW36154   1.855   2.947   8.491  0.1588 -0.7439  0.0346
 8231SOL    HW136155   1.768   2.958   8.529  0.9821  1.3679  1.2913
 8231SOL    HW236156   1.835   2.967   8.399 -0.7110 -3.8632 -0.4501
 8232SOL     OW36157   4.376   3.510   4.874  0.1509 -0.0955  0.5005
 8232SOL    HW136158   4.398   3.495   4.783  2.2117 -0.2275  1.0306
 8232SOL    HW236159   4.313   3.440   4.893 -0.3891  0.2825  0.0924
 8233SOL     OW36160   2.436   0.936  16.967 -0.1065 -0.2752  0.5838
 8233SOL    HW136161   2.474   0.854  16.997 -0.5225 -0.5561  0.3415
 8233SOL    HW236162   2.343   0.917  16.978 -0.1147  0.1979  1.3090
 8234SOL     OW36163   0.615   4.566  15.034  0.4798  0.1501 -0.0496
 8234SOL    HW136164   0.604   4.536  14.944  3.2915  0.5839 -0.5426
 8234SOL    HW236165   0.583   4.485  15.074 -1.1187  0.8596  0.1033
 8235SOL     OW36166   1.997   0.555   5.988  0.0614  0.0677  0.9852
 8235SOL    HW136167   2.009   0.621   6.056  0.6907  1.1045 -0.1154
 8235SOL    HW236168   1.981   0.476   6.039 -1.4246 -0.9794 -1.0845
 8236SOL     OW36169   1.084   4.503   5.124  0.1731 -0.6381 -0.1043
 8236SOL    HW136170   1.167   4.517   5.170  0.2995  0.9730 -0.8230
 8236SOL    HW236171   1.058   4.595   5.118 -0.2801 -0.7899 -0.4398
 8237SOL     OW36172   3.615   1.606   2.446  0.4890  0.0788  0.0005
 8237SOL    HW136173   3.587   1.558   2.368  0.2094  1.7268 -0.9031
 8237SOL    HW236174   3.591   1.697   2.433  0.0789  0.1440  1.2468
 8238SOL     OW36175   4.672   3.851   2.237 -0.2759  0.1873  0.3862
 8238SOL    HW136176   4.641   3.763   2.218 -0.0333 -0.1203  1.3947
 8238SOL    HW236177   4.694   3.885   2.150 -0.4938  0.6505  0.5068
 8239SOL     OW36178   4.158   1.219   4.465 -0.0100 -0.2995 -0.2391
 8239SOL    HW136179   4.214   1.288   4.431 -1.2752  1.7395  1.8287
 8239SOL    HW236180   4.226   1.161   4.501  1.0098 -0.6380 -2.7099
 8240SOL     OW36181   1.510   1.477  10.495  0.1943 -0.0347 -0.0433
 8240SOL    HW136182   1.457   1.536  10.549  0.3239 -0.2002  0.2641
 8240SOL    HW236183   1.585   1.526  10.464 -2.5499  4.1809  0.0078
 8241SOL     OW36184   1.198   2.185  12.466  0.5378 -0.2282  0.2856
 8241SOL    HW136185   1.154   2.235  12.536  0.1089  0.0442 -0.1799
 8241SOL    HW236186   1.147   2.214  12.391  1.2309 -0.2276 -0.1764
 8242SOL     OW36187   1.316   3.307   1.138 -0.3030 -0.0647  0.4212
 8242SOL    HW136188   1.281   3.252   1.208 -1.5254  1.3376  0.9332
 8242SOL    HW236189   1.309   3.401   1.157  1.5196 -0.0218  0.8507
 8243SOL     OW36190   0.354   2.049   2.457 -0.3502  0.3986 -0.6231
 8243SOL    HW136191   0.366   1.958   2.431 -1.0298  0.4455 -1.0895
 8243SOL    HW236192   0.287   2.041   2.525 -0.8527 -2.5612 -1.5003
 8244SOL     OW36193   0.111   4.341  10.458 -0.3500 -0.0232 -0.1269
 8244SOL    HW136194   0.202   4.343  10.430  0.3602 -2.0241  2.0684
 8244SOL    HW236195   0.108   4.421  10.511 -0.1482 -0.0239 -0.1135
 8245SOL     OW36196   4.360   2.418   3.344  0.0512 -0.0215 -0.0138
 8245SOL    HW136197   4.284   2.361   3.330 -1.7130  2.3983 -0.2373
 8245SOL    HW236198   4.412   2.391   3.268 -0.1148 -2.4284  0.7121
 8246SOL     OW36199   2.837   0.474   3.025  0.1684 -0.8918  0.2876
 8246SOL    HW136200   2.806   0.503   2.940  0.5717 -0.5549  0.2543
 8246SOL    HW236201   2.770   0.511   3.083 -2.2487  0.4991 -3.4011
 8247SOL     OW36202   2.363   0.818   6.218  0.5644  1.3122  0.0186
 8247SOL    HW136203   2.440   0.876   6.224  2.5800 -1.0977 -2.2446
 8247SOL    HW236204   2.391   0.758   6.287  1.4881 -0.5545 -2.0150
 8248SOL     OW36205   4.476   0.866   7.804 -0.0448 -0.7704  0.0194
 8248SOL    HW136206   4.557   0.868   7.854  0.2843  1.9466 -0.6311
 8248SOL    HW236207   4.417   0.836   7.874  1.7544 -1.4551  1.2297
 8249SOL     OW36208   1.485   1.991   5.733 -0.0891  0.2538 -0.0228
 8249SOL    HW136209   1.503   1.964   5.823 -1.8023  0.1732  0.3003
 8249SOL    HW236210   1.454   1.910   5.692  1.5497  0.6562 -2.0477
 8250SOL     OW36211   0.311   2.627   6.380 -0.2038  0.6713  0.0181
 8250SOL    HW136212   0.293   2.536   6.402  1.8528  0.1728 -0.3441
 8250SOL    HW236213   0.226   2.657   6.350 -0.2874 -0.5888 -1.0344
 8251SOL     OW36214   4.052   2.234   2.564  0.2673 -0.3146  0.0502
 8251SOL    HW136215   4.061   2.155   2.617  2.8661 -1.4419 -2.0919
 8251SOL    HW236216   4.089   2.205   2.481 -1.0859 -1.1114 -0.2687
 8252SOL     OW36217   0.222   3.316   9.379 -0.1168  0.5192  0.0570
 8252SOL    HW136218   0.145   3.357   9.419  0.4667  1.6320  0.0461
 8252SOL    HW236219   0.252   3.279   9.462  1.7406  0.0576 -0.8270
 8253SOL     OW36220   0.646   2.934  16.894 -0.0736  0.5750 -0.6853
 8253SOL    HW136221   0.606   3.020  16.892 -0.6017  0.3571  0.2605
 8253SOL    HW236222   0.672   2.929  16.987  1.0649  1.8261 -0.9316
 8254SOL     OW36223   3.318   3.450   2.950 -0.8450  0.2548  0.2503
 8254SOL    HW136224   3.379   3.501   2.896 -0.0133  1.5306  2.4091
 8254SOL    HW236225   3.352   3.480   3.034 -1.0927  1.0626  0.0706
 8255SOL     OW36226   3.349   4.581   3.304 -0.2863 -0.1656  0.2410
 8255SOL    HW136227   3.308   4.602   3.387  0.6249  0.3101  0.5661
 8255SOL    HW236228   3.424   4.523   3.319 -0.8783 -0.8107  0.6466
 8256SOL     OW36229   2.688   0.437  14.133 -0.0093 -0.0388  0.1276
 8256SOL    HW136230   2.667   0.473  14.219  0.4927  1.0512 -0.2110
 8256SOL    HW236231   2.707   0.519  14.089  1.0255  0.6501  1.8644
 8257SOL     OW36232   1.329   2.978   5.874 -0.2867  0.0463 -0.0016
 8257SOL    HW136233   1.423   2.962   5.867 -0.6849 -2.6369  1.2715
 8257SOL    HW236234   1.290   2.892   5.862 -1.2131  0.2450  1.5537
 8258SOL     OW36235   0.797   3.320   7.566 -0.0856  0.1523 -0.3326
 8258SOL    HW136236   0.841   3.274   7.494  0.7691  1.5022 -0.6784
 8258SOL    HW236237   0.796   3.410   7.535 -0.0535  0.1286 -0.4022
 8259SOL     OW36238   1.602   0.003   5.820 -0.1274  0.1870  0.3094
 8259SOL    HW136239   1.527   0.053   5.788  0.2030  0.8503  0.5681
 8259SOL    HW236240   1.625   0.036   5.907  1.1123  0.8353 -0.2674
 8260SOL     OW36241   0.482   1.812   2.362  0.1205  0.3637  0.7179
 8260SOL    HW136242   0.456   1.760   2.286  0.2582  0.2441  0.7525
 8260SOL    HW236243   0.496   1.735   2.417 -0.9244  0.3575  0.9739
 8261SOL     OW36244   1.597   0.549   5.487  0.2293  0.0190  0.5118
 8261SOL    HW136245   1.515   0.570   5.533  1.2829  1.9141  1.5372
 8261SOL    HW236246   1.602   0.456   5.506 -1.0473 -0.1486  0.0350
 8262SOL     OW36247   1.487   3.531   8.773 -0.3926  0.3747  0.0309
 8262SOL    HW136248   1.528   3.546   8.688 -3.0006  0.2453 -1.2425
 8262SOL    HW236249   1.397   3.527   8.742  0.0206  1.7817 -1.3711
 8263SOL     OW36250   2.020   2.015   0.879  0.7092 -0.3175 -0.1008
 8263SOL    HW136251   1.968   2.085   0.840 -1.4160 -0.1789  2.9386
 8263SOL    HW236252   2.023   2.044   0.970 -1.4884 -0.4088  0.0101
 8264SOL     OW36253   3.985   4.428  16.974  0.0991  0.0985  0.1373
 8264SOL    HW136254   3.910   4.416  17.032 -0.8033 -0.9137 -1.2112
 8264SOL    HW236255   4.048   4.456  17.040  1.4983  1.5808 -1.8253
 8265SOL     OW36256   0.228   2.338   3.549  0.1200 -0.0966  0.1016
 8265SOL    HW136257   0.161   2.366   3.611  0.5320 -0.3194  0.6444
 8265SOL    HW236258   0.283   2.289   3.610  1.8362  1.7233 -0.0202
 8266SOL     OW36259   1.103   3.724  17.424  0.4236 -0.1463  0.2592
 8266SOL    HW136260   1.075   3.690  17.339 -0.7293 -1.4193  1.1436
 8266SOL    HW236261   1.122   3.812  17.391 -3.2943  1.7405  3.0366
 8267SOL     OW36262   1.043   1.936   5.088 -0.6904 -0.6594  0.3543
 8267SOL    HW136263   0.989   1.900   5.159 -1.2114  3.7805  2.2553
 8267SOL    HW236264   0.978   1.927   5.018 -0.3284  1.6912 -0.2941
 8268SOL     OW36265   0.863   2.658   3.328  0.5712 -0.0057  0.3108
 8268SOL    HW136266   0.893   2.573   3.296 -0.2842  0.6860 -2.3189
 8268SOL    HW236267   0.794   2.636   3.391  1.5239  1.4519  1.8600
 8269SOL     OW36268   1.847   3.779   0.348  0.2394  0.0588 -0.5446
 8269SOL    HW136269   1.842   3.687   0.375 -1.9356  0.3136 -0.1236
 8269SOL    HW236270   1.782   3.817   0.407 -0.2974  0.5590 -1.4750
 8270SOL     OW36271   3.794   0.930  15.574 -0.0139  0.6778  0.8539
 8270SOL    HW136272   3.884   0.899  15.560  0.0260  1.0055  0.3956
 8270SOL    HW236273   3.797   1.025  15.576 -1.9185  0.7086  1.7335
 8271SOL     OW36274   2.296   0.515   7.884 -0.1566  0.2012 -0.3608
 8271SOL    HW136275   2.302   0.423   7.857  2.1649 -0.1296  1.3474
 8271SOL    HW236276   2.322   0.506   7.976 -1.0891 -0.0272 -0.1148
 8272SOL     OW36277   3.505   0.153   7.536 -0.0878 -0.2732  0.2771
 8272SOL    HW136278   3.471   0.240   7.517 -0.1697 -0.9978 -3.0365
 8272SOL    HW236279   3.508   0.126   7.444  2.5949 -0.8608  0.5172
 8273SOL     OW36280   0.657   2.025   3.172 -0.6824 -0.5473 -0.3062
 8273SOL    HW136281   0.633   2.115   3.193 -1.8129 -1.3051  1.7117
 8273SOL    HW236282   0.730   2.036   3.110  0.6028 -0.5927  1.1946
 8274SOL     OW36283   3.858   0.259   5.806 -0.0627  0.5611 -0.1859
 8274SOL    HW136284   3.943   0.232   5.839 -0.5870 -0.7478  0.0995
 8274SOL    HW236285   3.793   0.250   5.875  1.1485  3.6045  1.3507
 8275SOL     OW36286   0.027   2.747   4.366  0.0362  0.3829  0.1683
 8275SOL    HW136287   4.668   2.746   4.419  0.3346  0.1917  0.6248
 8275SOL    HW236288   0.083   2.695   4.424  1.4896  0.9062 -0.7881
 8276SOL     OW36289   1.176   2.427   2.381 -0.3969 -0.5179  0.3161
 8276SOL    HW136290   1.099   2.439   2.438  1.8988 -1.4886  3.6268
 8276SOL    HW236291   1.152   2.342   2.345  0.3228 -0.4581 -0.2944
 8277SOL     OW36292   1.771   2.612   7.491  0.2107  0.5737 -0.3756
 8277SOL    HW136293   1.795   2.624   7.399 -1.8374 -0.5727 -1.0606
 8277SOL    HW236294   1.855   2.629   7.534 -0.1994 -1.5817  1.2326
 8278SOL     OW36295   4.617   2.450   9.339  0.2723 -0.0468 -0.3738
 8278SOL    HW136296   4.573   2.501   9.407  0.4518  0.2150 -0.4505
 8278SOL    HW236297   4.684   2.513   9.313  1.2555  0.0545  2.4851
 8279SOL     OW36298   2.726   2.458  17.584  0.4159 -0.0726 -0.2168
 8279SOL    HW136299   2.780   2.383  17.611  0.3722  0.0676  0.2539
 8279SOL    HW236300   2.781   2.536  17.581 -0.9937  0.9908  1.9516
 8280SOL     OW36301   2.917   0.837  16.638  0.1298  0.6909 -0.0006
 8280SOL    HW136302   3.008   0.862  16.658  0.2474  0.1764  0.0992
 8280SOL    HW236303   2.927   0.801  16.550  2.8511  1.7613 -0.1431
 8281SOL     OW36304   0.801   2.470  11.751  0.7065  0.2676  0.3630
 8281SOL    HW136305   0.874   2.426  11.707  0.1048 -0.2671 -0.1061
 8281SOL    HW236306   0.797   2.412  11.828  1.3512  1.2292  1.1159
 8282SOL     OW36307   4.558   3.744  12.376 -0.1946  0.0018  0.0726
 8282SOL    HW136308   4.605   3.676  12.424 -1.7033 -0.2704  1.1914
 8282SOL    HW236309   4.546   3.702  12.291 -3.0399 -1.1846  1.0375
 8283SOL     OW36310   4.314   1.206  12.741  0.3613 -0.1244 -0.2936
 8283SOL    HW136311   4.234   1.257  12.731  0.6965  0.2164 -1.1694
 8283SOL    HW236312   4.384   1.271  12.741 -0.1644  0.4457 -1.4032
 8284SOL     OW36313   0.633   2.573   2.874  0.3372 -0.3163 -0.2717
 8284SOL    HW136314   0.693   2.546   2.804 -0.3717  3.1065 -2.1838
 8284SOL    HW236315   0.546   2.560   2.836  0.8231 -0.3775 -1.3556
 8285SOL     OW36316   4.419   2.337   3.786 -0.0746 -0.0035 -0.6221
 8285SOL    HW136317   4.500   2.300   3.752 -1.2026 -1.9805 -1.1907
 8285SOL    HW236318   4.447   2.427   3.803 -1.9766  0.4914 -0.0785
 8286SOL     OW36319   2.857   3.061   9.038 -0.1864  0.1792  0.6665
 8286SOL    HW136320   2.865   3.155   9.021  0.3362  0.3868  2.0619
 8286SOL    HW236321   2.822   3.028   8.956 -2.7453  1.6024  1.1984
 8287SOL     OW36322   0.644   3.121   2.996  0.0124 -0.2598  0.2737
 8287SOL    HW136323   0.603   3.056   2.938  2.0665 -0.5518 -0.8320
 8287SOL    HW236324   0.631   3.071   3.077  1.9210  0.0105  0.7362
 8288SOL     OW36325   1.892   1.393   8.638 -0.4628 -0.6383 -0.2506
 8288SOL    HW136326   1.813   1.396   8.584 -0.0763 -1.3386 -0.8506
 8288SOL    HW236327   1.955   1.426   8.574 -0.9238  0.4963 -0.1187
 8289SOL     OW36328   4.108   2.140   6.357  0.3856 -0.2125 -0.2295
 8289SOL    HW136329   4.179   2.204   6.363 -0.0518  0.1964  0.6261
 8289SOL    HW236330   4.131   2.089   6.435  2.8404 -0.3532 -1.0440
 8290SOL     OW36331   0.475   3.895   2.401  0.6385 -0.6720 -0.9263
 8290SOL    HW136332   0.432   3.940   2.328 -2.5980 -0.2415  1.2499
 8290SOL    HW236333   0.557   3.862   2.362  0.1177 -2.9144 -0.0926
 8291SOL     OW36334   1.135   0.367   7.563 -0.1291 -0.5193  0.1587
 8291SOL    HW136335   1.230   0.356   7.568 -0.0536 -1.1879 -3.1468
 8291SOL    HW236336   1.103   0.277   7.565  0.7008 -0.8025  0.7935
 8292SOL     OW36337   4.339   1.349   9.372  0.2863 -0.2681 -0.0319
 8292SOL    HW136338   4.251   1.338   9.407  0.3449  0.0939  0.2282
 8292SOL    HW236339   4.334   1.293   9.295 -0.0822  1.3533 -1.1911
 8293SOL     OW36340   0.033   2.735   8.287 -0.6509  0.1330  0.0247
 8293SOL    HW136341   0.113   2.784   8.272 -0.2504 -0.8269 -1.0264
 8293SOL    HW236342   4.695   2.751   8.213 -0.7212 -1.2745 -0.2315
 8294SOL     OW36343   4.366   1.197   1.637 -0.3635 -0.1614 -0.1641
 8294SOL    HW136344   4.336   1.137   1.569  0.8691  1.3336 -2.0350
 8294SOL    HW236345   4.385   1.140   1.711 -2.4414  0.0044  0.4914
 8295SOL     OW36346   1.551   3.826   0.306 -0.4526 -0.2704  0.1827
 8295SOL    HW136347   1.551   3.751   0.247  1.5208  0.1599 -0.3344
 8295SOL    HW236348   1.478   3.808   0.366 -0.4008  0.5824  0.5078
 8296SOL     OW36349   1.290   1.573   8.195  0.0965 -0.3357 -0.2558
 8296SOL    HW136350   1.329   1.617   8.119  3.3689 -0.1887  1.5001
 8296SOL    HW236351   1.316   1.629   8.268  0.6562 -1.4035  0.3628
 8297SOL     OW36352   4.044   1.403   4.167 -0.0208  0.1790 -0.1581
 8297SOL    HW136353   4.009   1.448   4.090  0.0938  0.8295  0.1697
 8297SOL    HW236354   4.120   1.459   4.180 -2.0549  2.5420  1.5055
 8298SOL     OW36355   4.672   3.313  11.344  0.5790  0.7007 -0.2887
 8298SOL    HW136356   4.590   3.271  11.321  0.2650  0.8311  0.6002
 8298SOL    HW236357   0.001   3.238  11.376 -0.4995  0.0031 -0.2479
 8299SOL     OW36358   4.664   0.002   9.676 -0.4138  0.5087  0.0261
 8299SOL    HW136359   0.018   4.666   9.658 -0.7907 -0.9290  2.8699
 8299SOL    HW236360   4.699   0.090   9.667  0.3809  0.3147  1.2160
 8300SOL     OW36361   2.917   2.290  17.397 -0.3912  0.0813 -0.3311
 8300SOL    HW136362   2.968   2.212  17.375  0.3490 -0.2685  2.6474
 8300SOL    HW236363   2.979   2.356  17.426 -1.4658  0.7225  0.5299
 8301SOL     OW36364   0.111   2.242   6.638  0.7178  0.0216 -0.3055
 8301SOL    HW136365   0.115   2.150   6.613 -0.1884  0.1445 -0.9367
 8301SOL    HW236366   0.158   2.232   6.720 -0.4618  3.0306  0.7523
 8302SOL     OW36367   4.625   4.354   4.402 -0.3444  0.2499  0.5915
 8302SOL    HW136368   4.620   4.355   4.498  1.8012 -2.5014  0.7152
 8302SOL    HW236369   4.537   4.380   4.377 -0.3664  1.9576  2.4393
 8303SOL     OW36370   4.581   4.327   6.249 -0.7792  0.0512 -0.0194
 8303SOL    HW136371   4.590   4.238   6.282 -1.1917 -0.7219 -1.9799
 8303SOL    HW236372   4.486   4.339   6.250 -0.4840  2.3174  2.1904
 8304SOL     OW36373   2.957   4.620   6.007 -0.1490 -0.5230  0.3296
 8304SOL    HW136374   2.886   4.596   5.948 -0.4077  1.6848 -0.2886
 8304SOL    HW236375   2.911   4.667   6.076  1.2014  1.5293 -0.1565
 8305SOL     OW36376   2.193   1.035   3.541 -0.0005  0.0973 -0.4606
 8305SOL    HW136377   2.246   1.070   3.470  1.5787  0.0475  0.7003
 8305SOL    HW236378   2.205   0.940   3.545 -0.4743 -0.0561 -2.4269
 8306SOL     OW36379   1.326   3.499   0.698  0.6570  0.0100  0.2152
 8306SOL    HW136380   1.296   3.477   0.610 -0.8241  0.0990  0.6991
 8306SOL    HW236381   1.269   3.435   0.742  1.3406 -1.2602 -0.7377
 8307SOL     OW36382   1.164   2.141   9.233 -0.1263 -0.0317 -0.5083
 8307SOL    HW136383   1.209   2.127   9.150 -0.9562  2.3215 -1.3283
 8307SOL    HW236384   1.223   2.204   9.273 -1.6153  0.4961  0.8612
 8308SOL     OW36385   0.803   4.025   6.168  0.5475  0.1503 -0.0536
 8308SOL    HW136386   0.812   3.952   6.229  2.8467 -0.1015 -0.6877
 8308SOL    HW236387   0.810   4.103   6.222 -1.2514  0.7325 -0.6722
 8309SOL     OW36388   3.956   2.451   2.742 -0.4115 -0.4798  0.2899
 8309SOL    HW136389   3.900   2.526   2.724  0.8537  0.1928 -0.8660
 8309SOL    HW236390   4.015   2.445   2.667 -0.6901 -0.4753  0.0735
 8310SOL     OW36391   4.041   3.786  15.339 -0.1712  0.3438 -0.4531
 8310SOL    HW136392   4.080   3.698  15.346  1.6382  0.8825 -3.7752
 8310SOL    HW236393   4.117   3.837  15.310  0.8836 -0.3875  0.9817
 8311SOL     OW36394   4.092   2.467   3.653 -0.0905 -0.2209  0.5485
 8311SOL    HW136395   4.024   2.535   3.649 -1.6223 -1.7600  0.2242
 8311SOL    HW236396   4.176   2.511   3.641  0.3088 -1.6423 -2.0152
 8312SOL     OW36397   1.431   2.714  15.830  0.3795 -0.5765 -0.5149
 8312SOL    HW136398   1.436   2.619  15.846 -0.7296 -0.6956 -0.9124
 8312SOL    HW236399   1.464   2.755  15.910  2.0811  0.6836 -1.8709
 8313SOL     OW36400   1.032   3.277   6.569  0.1105 -0.0842  0.1334
 8313SOL    HW136401   0.962   3.245   6.626 -0.2988 -2.2872 -1.5993
 8313SOL    HW236402   1.009   3.369   6.559  0.8073 -0.1264 -1.9697
 8314SOL     OW36403   1.308   2.291   7.670  0.1849 -0.8768 -0.4928
 8314SOL    HW136404   1.389   2.339   7.690  0.7738 -2.5419  1.0304
 8314SOL    HW236405   1.342   2.202   7.676  1.7622 -0.2382  0.2715
 8315SOL     OW36406   4.561   2.582   6.624  0.6963  0.5513 -0.5720
 8315SOL    HW136407   4.570   2.639   6.548 -0.1056  0.4469 -0.7407
 8315SOL    HW236408   4.543   2.497   6.583  0.9231 -0.8427  2.1556
 8316SOL     OW36409   0.194   0.190   3.650  0.2660  0.3676 -0.4673
 8316SOL    HW136410   0.238   0.125   3.596  1.7194  0.9627  0.0135
 8316SOL    HW236411   0.134   0.131   3.698  0.5278  1.0653  0.7249
 8317SOL     OW36412   3.989   3.790   3.067 -0.3239  0.0137  0.0648
 8317SOL    HW136413   4.044   3.841   3.127  0.6947 -2.0510  0.8631
 8317SOL    HW236414   3.901   3.795   3.103 -0.2018  0.9249  0.2283
 8318SOL     OW36415   1.207   4.264   9.531  0.0799  0.1070  0.1646
 8318SOL    HW136416   1.126   4.261   9.481 -0.7402  0.5324  1.4541
 8318SOL    HW236417   1.210   4.183   9.582  2.3170  0.5036  0.6423
 8319SOL     OW36418   2.032   2.544   6.464 -0.0882  0.4158 -0.5522
 8319SOL    HW136419   2.013   2.545   6.370  0.7215  0.9133 -0.7138
 8319SOL    HW236420   2.059   2.457   6.492 -0.3930  1.0478  1.7158
 8320SOL     OW36421   0.778   1.085   1.857  0.2198  0.2517 -0.5634
 8320SOL    HW136422   0.737   1.074   1.772 -2.7781 -0.4165  0.9711
 8320SOL    HW236423   0.854   1.141   1.842 -0.3966  1.5274  1.0405
 8321SOL     OW36424   2.059   2.895   2.410  0.0440  0.7502  0.2835
 8321SOL    HW136425   2.073   2.872   2.318 -0.1179 -1.8441  0.8973
 8321SOL    HW236426   2.139   2.946   2.422  0.0094  0.9562 -0.3440
 8322SOL     OW36427   0.719   2.375  16.076  0.0412 -0.0114  0.6408
 8322SOL    HW136428   0.772   2.298  16.097 -0.2818  0.0482  1.6804
 8322SOL    HW236429   0.756   2.438  16.138  0.1720  0.2180  0.3250
 8323SOL     OW36430   1.352   3.568   5.106  0.2473 -0.4107 -0.4003
 8323SOL    HW136431   1.430   3.512   5.108  0.3123 -0.1977  2.8478
 8323SOL    HW236432   1.285   3.507   5.075 -0.3107 -1.3679  2.6830
 8324SOL     OW36433   0.663   2.555   2.576 -0.1889  0.4853  0.1619
 8324SOL    HW136434   0.742   2.595   2.540  0.2408  0.1036  0.6795
 8324SOL    HW236435   0.594   2.594   2.522  0.8516  1.4676 -0.4601
 8325SOL     OW36436   1.945   0.400   4.157 -0.1964  0.4635  0.7475
 8325SOL    HW136437   1.865   0.448   4.138  0.3984  1.2916  0.3128
 8325SOL    HW236438   1.960   0.429   4.247  0.4075  1.5805  0.2796
 8326SOL     OW36439   3.053   3.439   4.359 -0.3619 -0.3555 -0.1639
 8326SOL    HW136440   2.970   3.435   4.310 -0.4333 -0.1149 -0.0649
 8326SOL    HW236441   3.047   3.348   4.387  1.4845 -0.1556  0.8305
 8327SOL     OW36442   2.985   3.773   0.147  0.3610  0.0623 -0.2985
 8327SOL    HW136443   2.994   3.862   0.114 -0.3398 -0.0793 -0.8791
 8327SOL    HW236444   3.077   3.753   0.127  0.7379  1.9221 -0.4304
 8328SOL     OW36445   1.123   0.264   3.289 -0.4230 -0.0473 -0.6523
 8328SOL    HW136446   1.093   0.354   3.278 -0.4933  0.2853  2.3174
 8328SOL    HW236447   1.216   0.282   3.296 -0.3459 -0.4467 -0.6225
 8329SOL     OW36448   3.280   0.453   2.018 -0.6110 -0.0131 -0.5612
 8329SOL    HW136449   3.349   0.401   1.977  0.4817 -0.6394  2.0404
 8329SOL    HW236450   3.312   0.543   2.011 -0.3677  0.1160  2.1635
 8330SOL     OW36451   0.542   3.182   9.373 -0.2663  0.1819  0.1121
 8330SOL    HW136452   0.636   3.191   9.359 -0.3343 -0.4028 -0.7449
 8330SOL    HW236453   0.524   3.253   9.434 -1.2574  1.0550 -1.1820
 8331SOL     OW36454   3.739   4.512   6.957 -0.2400 -0.4187  0.2456
 8331SOL    HW136455   3.754   4.464   7.038  1.0161 -0.4329  0.0091
 8331SOL    HW236456   3.657   4.474   6.925 -0.4405 -0.2283  0.5352
 8332SOL     OW36457   3.664   4.042  13.261 -0.6879  0.2628 -0.0757
 8332SOL    HW136458   3.627   4.129  13.271  3.0372  1.8471 -0.3641
 8332SOL    HW236459   3.623   3.991  13.332  1.1676 -0.8672  0.1997
 8333SOL     OW36460   2.442   4.105   0.622  0.2355  0.8227 -0.1759
 8333SOL    HW136461   2.504   4.038   0.651 -1.9306 -1.8220 -1.6612
 8333SOL    HW236462   2.500   4.172   0.586  0.6224  0.2869 -0.5410
 8334SOL     OW36463   0.827   3.238   2.646 -0.3662  0.4344  0.2071
 8334SOL    HW136464   0.837   3.217   2.553  1.7311  0.4153  0.4306
 8334SOL    HW236465   0.799   3.153   2.682 -0.1853 -0.6039 -2.0646
 8335SOL     OW36466   1.943   0.439   7.929  0.3143  0.3357 -0.7019
 8335SOL    HW136467   1.920   0.496   8.002  2.3476  0.6165 -0.2840
 8335SOL    HW236468   1.888   0.483   7.865  2.9858  3.2486 -1.0128
 8336SOL     OW36469   2.043   3.769  16.787  0.2368  0.3875 -0.8100
 8336SOL    HW136470   1.997   3.820  16.720 -1.6416 -1.6038 -1.0588
 8336SOL    HW236471   2.048   3.693  16.729 -0.3751 -0.4674  0.2576
 8337SOL     OW36472   4.317   1.773  14.952 -0.4522 -0.8025 -0.1237
 8337SOL    HW136473   4.290   1.863  14.970  2.6152  0.4020 -1.5386
 8337SOL    HW236474   4.380   1.781  14.880 -0.7465 -1.0069 -0.4056
 8338SOL     OW36475   0.158   4.564   5.614  0.1642  0.7025  0.4985
 8338SOL    HW136476   0.077   4.521   5.641  0.8218 -1.2083 -0.6565
 8338SOL    HW236477   0.209   4.488   5.641 -1.2510 -0.8042 -1.0914
 8339SOL     OW36478   4.167   1.364   6.764 -0.4206 -0.0860 -0.3306
 8339SOL    HW136479   4.088   1.316   6.790 -0.8519  0.4383 -0.6722
 8339SOL    HW236480   4.218   1.360   6.844  1.5342 -0.5979 -1.5903
 8340SOL     OW36481   0.503   2.097   8.361  0.3535 -0.1726  0.4230
 8340SOL    HW136482   0.418   2.066   8.390 -0.9437  2.2572 -0.7828
 8340SOL    HW236483   0.488   2.184   8.399  0.6763 -0.2633  0.7577
 8341SOL     OW36484   1.659   2.893   5.594 -0.3283 -0.5279 -0.2099
 8341SOL    HW136485   1.695   2.960   5.536  0.4796 -0.4356  0.3988
 8341SOL    HW236486   1.622   2.829   5.532 -0.4694  0.2638 -0.9418
 8342SOL     OW36487   4.193   4.303   0.243 -0.1100  0.0625 -0.0271
 8342SOL    HW136488   4.264   4.268   0.297  1.4207  1.7687 -0.9688
 8342SOL    HW236489   4.181   4.238   0.173  1.0521  2.2958 -2.2708
 8343SOL     OW36490   3.582   4.389   6.756  0.3817 -0.4890  0.4186
 8343SOL    HW136491   3.579   4.442   6.676 -1.1161  0.8163  1.3518
 8343SOL    HW236492   3.621   4.308   6.723 -0.6710 -0.4443 -0.9465
 8344SOL     OW36493   2.589   0.384   3.952 -0.2050 -0.4550 -0.0524
 8344SOL    HW136494   2.513   0.406   3.898 -0.1001  1.0059  0.3928
 8344SOL    HW236495   2.604   0.297   3.915 -3.0304 -1.3893  0.9499
 8345SOL     OW36496   4.326   3.010   7.420 -0.4007  0.2187 -0.2631
 8345SOL    HW136497   4.293   2.949   7.355 -2.8327  0.7809  0.4349
 8345SOL    HW236498   4.270   3.081   7.386 -2.4220 -1.4421 -0.3797
 8346SOL     OW36499   2.940   3.144   2.134  0.3633 -0.4007 -0.5380
 8346SOL    HW136500   2.932   3.171   2.225 -0.1753  0.4844 -0.8403
 8346SOL    HW236501   2.851   3.133   2.098  1.1450 -3.0130 -1.6467
 8347SOL     OW36502   2.093   2.356   9.379  0.2427 -0.1567  0.4194
 8347SOL    HW136503   2.131   2.330   9.295 -0.2300  1.4524 -0.2754
 8347SOL    HW236504   2.171   2.339   9.430 -0.3122 -1.2920  0.9032
 8348SOL     OW36505   0.566   1.771  13.589  0.5171 -0.8718 -0.1530
 8348SOL    HW136506   0.590   1.863  13.582 -0.0977 -0.5323  2.2652
 8348SOL    HW236507   0.652   1.731  13.600  1.2881  0.8614  0.0266
 8349SOL     OW36508   0.893   1.595  17.632 -0.8097 -0.7430 -0.1780
 8349SOL    HW136509   0.814   1.605  17.579 -0.4426 -0.4859 -0.6739
 8349SOL    HW236510   0.886   1.503  17.657 -1.0991 -1.2977 -2.2853
 8350SOL     OW36511   1.847   2.484   4.825 -0.0156  0.5863  0.2097
 8350SOL    HW136512   1.782   2.506   4.758 -0.9236 -0.7454  0.6608
 8350SOL    HW236513   1.797   2.493   4.907  0.2543  0.2268  0.4138
 8351SOL     OW36514   3.642   1.941  10.982 -0.2960  0.4200 -0.0450
 8351SOL    HW136515   3.631   1.961  10.889 -1.5040 -1.9965 -0.4298
 8351SOL    HW236516   3.666   2.026  11.017 -1.3645 -0.6506  3.2989
 8352SOL     OW36517   2.997   3.928  13.410 -0.2036 -0.1658 -0.5050
 8352SOL    HW136518   2.952   3.870  13.349 -0.7519  0.3285 -0.5739
 8352SOL    HW236519   2.941   4.005  13.401 -1.2665 -0.9613 -0.5603
 8353SOL     OW36520   3.988   1.139  13.272  0.1625  0.3705  0.5739
 8353SOL    HW136521   3.914   1.107  13.323 -0.6088 -2.2160 -2.2363
 8353SOL    HW236522   4.028   1.052  13.272  1.6510  1.0420  1.7165
 8354SOL     OW36523   2.782   3.578  14.723 -0.7542 -0.0652  0.1322
 8354SOL    HW136524   2.697   3.607  14.755 -0.4359  2.2139 -1.1244
 8354SOL    HW236525   2.766   3.527  14.644  1.1853 -0.0567 -0.2774
 8355SOL     OW36526   2.741   2.951   9.805  0.2807 -0.0660  0.2137
 8355SOL    HW136527   2.798   2.963   9.881  1.3100 -2.6708 -0.1472
 8355SOL    HW236528   2.665   2.925   9.857 -0.8828 -1.7179 -2.3388
 8356SOL     OW36529   1.166   1.175   3.210 -0.0742  0.3346 -0.1891
 8356SOL    HW136530   1.088   1.151   3.261  0.0988 -0.1683 -0.1668
 8356SOL    HW236531   1.134   1.151   3.123 -0.7842 -0.4165  0.2707
 8357SOL     OW36532   0.423   0.912   4.214  0.2513  0.5891 -0.0330
 8357SOL    HW136533   0.431   0.916   4.119 -0.8086 -0.3979 -0.1568
 8357SOL    HW236534   0.399   0.997   4.250 -0.0236 -0.0860  1.3846
 8358SOL     OW36535   3.417   4.594   7.016  0.4454  0.5363 -0.2935
 8358SOL    HW136536   3.432   4.508   7.054  0.6145  1.0378  0.7575
 8358SOL    HW236537   3.390   4.572   6.927  2.7042 -1.3501 -0.5083
 8359SOL     OW36538   1.432   3.425   3.881 -0.2411 -0.0306  0.4635
 8359SOL    HW136539   1.364   3.451   3.819 -0.0459 -0.5243  0.0492
 8359SOL    HW236540   1.374   3.394   3.951  0.5647 -0.0553  1.1226
 8360SOL     OW36541   2.236   3.512   1.939  0.3188 -0.1240 -0.1335
 8360SOL    HW136542   2.206   3.477   1.855 -1.8200 -2.9510  1.8122
 8360SOL    HW236543   2.315   3.560   1.914  0.0569  2.4942  4.1323
 8361SOL     OW36544   3.141   4.532   8.827 -0.6411 -0.5916 -0.6284
 8361SOL    HW136545   3.190   4.613   8.842 -0.2251 -1.2933  1.8450
 8361SOL    HW236546   3.124   4.515   8.919 -0.7638  0.1780 -0.5093
 8362SOL     OW36547   4.325   1.604  17.195 -0.4227  0.2419 -0.4362
 8362SOL    HW136548   4.355   1.644  17.113  0.1294  0.0052 -0.3504
 8362SOL    HW236549   4.230   1.603  17.184 -0.3306  1.6732 -1.3352
 8363SOL     OW36550   4.198   4.399   8.825  0.3932 -0.8519  0.0168
 8363SOL    HW136551   4.180   4.308   8.850 -0.8238 -0.2580  1.3017
 8363SOL    HW236552   4.157   4.413   8.739 -0.0193 -0.6627  0.2443
 8364SOL     OW36553   4.078   1.703  15.426  0.6590  0.0089  0.0347
 8364SOL    HW136554   4.133   1.697  15.349  0.7361 -1.7748  0.2433
 8364SOL    HW236555   4.055   1.796  15.429 -0.2312 -0.2059  0.0791
 8365SOL     OW36556   1.443   0.679  11.227  0.6735  0.6262  0.0480
 8365SOL    HW136557   1.509   0.737  11.265  1.0453  1.9235 -2.5830
 8365SOL    HW236558   1.367   0.733  11.206  1.2901  1.6272  0.4550
 8366SOL     OW36559   1.918   3.340  10.375 -0.1538 -0.1146 -0.1415
 8366SOL    HW136560   1.892   3.352  10.467  2.5646 -0.6934  0.6780
 8366SOL    HW236561   2.013   3.334  10.382 -0.0684  1.6010  0.1715
 8367SOL     OW36562   2.737   3.369   5.069 -0.4775  0.3984 -0.1605
 8367SOL    HW136563   2.742   3.367   4.974 -0.3894 -0.2572 -0.1396
 8367SOL    HW236564   2.647   3.345   5.091  0.0775 -1.6516 -0.1813
 8368SOL     OW36565   2.516   3.677   8.212  0.0476 -0.3876  0.1999
 8368SOL    HW136566   2.508   3.627   8.131 -1.4600 -0.3718  0.3337
 8368SOL    HW236567   2.448   3.637   8.267  0.8244  0.8348  2.0601
 8369SOL     OW36568   3.888   2.473   3.192  0.0831 -0.1388  0.4511
 8369SOL    HW136569   3.866   2.539   3.258 -2.1142  0.0298 -0.4296
 8369SOL    HW236570   3.804   2.450   3.153 -0.1946  1.7352 -0.0743
 8370SOL     OW36571   0.850   3.845   8.982  0.4882 -0.1322 -0.5003
 8370SOL    HW136572   0.836   3.776   8.917 -0.2539 -0.7092  0.2627
 8370SOL    HW236573   0.839   3.803   9.068  1.3480  1.5242  0.4248
 8371SOL     OW36574   3.212   2.111   2.630  0.4674  0.1539 -0.4797
 8371SOL    HW136575   3.263   2.037   2.664  0.2277  0.5130  0.6924
 8371SOL    HW236576   3.152   2.117   2.704  0.2021  0.3421 -0.7140
 8372SOL     OW36577   1.691   2.545  16.766 -0.1535 -0.2806  0.2005
 8372SOL    HW136578   1.670   2.612  16.831 -0.3802 -0.8585  0.7321
 8372SOL    HW236579   1.612   2.551  16.713 -0.6159 -2.3344  0.6661
 8373SOL     OW36580   3.507   3.073  16.861  0.1042 -0.5994 -0.5791
 8373SOL    HW136581   3.542   3.125  16.934  1.5681  1.7454 -2.9668
 8373SOL    HW236582   3.448   3.133  16.815 -1.3515 -1.0068  0.7249
 8374SOL     OW36583   3.355   3.471   4.908  0.2846 -0.0204 -0.3699
 8374SOL    HW136584   3.441   3.507   4.932 -0.0253 -0.7289  1.8126
 8374SOL    HW236585   3.337   3.431   4.993  5.1102 -0.4410  0.4525
 8375SOL     OW36586   1.496   2.876  16.049 -0.1674 -0.1607 -0.9863
 8375SOL    HW136587   1.471   2.904  16.137 -1.0164  1.9185 -1.8783
 8375SOL    HW236588   1.444   2.944  16.006 -1.8528 -1.1761 -0.5731
 8376SOL     OW36589   1.212   2.671   2.225 -0.4395 -0.1892 -0.1597
 8376SOL    HW136590   1.218   2.686   2.319 -1.9888 -0.4293 -0.0280
 8376SOL    HW236591   1.175   2.583   2.229 -0.8139 -0.0550 -0.6395
 8377SOL     OW36592   2.920   2.586   5.194  0.1181  0.2629  0.5280
 8377SOL    HW136593   2.905   2.597   5.100  3.1595 -0.0429 -0.0136
 8377SOL    HW236594   2.890   2.498   5.217  0.6170  0.3733  1.5774
 8378SOL     OW36595   2.221   3.786  13.830 -0.2944  0.6414  0.1518
 8378SOL    HW136596   2.307   3.824  13.815  0.8975 -1.9717  0.3755
 8378SOL    HW236597   2.223   3.772  13.925  1.4732  1.5282  0.2474
 8379SOL     OW36598   2.469   4.213   7.458 -0.4176  0.4097 -0.0473
 8379SOL    HW136599   2.497   4.295   7.498 -0.0250 -0.5193  1.5971
 8379SOL    HW236600   2.397   4.189   7.517 -0.0161  0.1297  0.3316
 8380SOL     OW36601   0.202   1.987   6.578 -0.4200 -0.0318  0.7960
 8380SOL    HW136602   0.261   2.021   6.510  1.1735 -0.4267  1.9824
 8380SOL    HW236603   0.272   1.949   6.631  0.3483  0.9667  0.4958
 8381SOL     OW36604   2.608   0.039   1.567  0.0329  0.2795 -0.8089
 8381SOL    HW136605   2.557   0.115   1.594 -1.7885 -1.4375  0.5730
 8381SOL    HW236606   2.576   0.016   1.480  2.1538 -1.9997 -1.0115
 8382SOL     OW36607   2.146   0.085  13.058 -1.1857 -0.4046 -0.2378
 8382SOL    HW136608   2.114   0.037  12.982  0.9209 -1.9229 -0.1709
 8382SOL    HW236609   2.099   0.051  13.135 -2.2315  0.1671 -0.6280
 8383SOL     OW36610   2.313   4.482   6.841 -0.3503  0.1411 -0.2897
 8383SOL    HW136611   2.233   4.526   6.811 -0.0138  1.1537  0.2768
 8383SOL    HW236612   2.363   4.562   6.858  0.6889 -0.1376 -1.9971
 8384SOL     OW36613   4.270   2.079   5.936  0.0994  0.0461  0.2574
 8384SOL    HW136614   4.237   2.089   5.846  1.7421 -0.5509 -0.4180
 8384SOL    HW236615   4.304   2.168   5.940 -1.2240  0.4201  3.1839
 8385SOL     OW36616   4.546   3.985   6.243 -0.6259 -0.4321  0.5901
 8385SOL    HW136617   4.603   3.967   6.318 -1.2111  0.8362  1.3500
 8385SOL    HW236618   4.575   3.924   6.176  1.3908 -0.4128  1.4569
 8386SOL     OW36619   0.402   4.577   5.306  0.3185 -0.0173  0.2802
 8386SOL    HW136620   0.480   4.627   5.284 -0.0677  0.8069  0.7700
 8386SOL    HW236621   0.447   4.493   5.317 -1.5537 -1.3158 -1.9538
 8387SOL     OW36622   4.591   1.450  13.699 -0.8028  0.4041 -0.1613
 8387SOL    HW136623   4.612   1.422  13.788 -0.0601 -0.3589 -0.5774
 8387SOL    HW236624   4.681   1.456  13.665 -1.0502 -1.9517 -1.1505
 8388SOL     OW36625   2.436   3.166   4.517 -0.0835 -0.3898  0.1155
 8388SOL    HW136626   2.452   3.162   4.422 -1.8952 -1.7647 -0.1402
 8388SOL    HW236627   2.365   3.101   4.520  0.7001 -1.3060 -1.3059
 8389SOL     OW36628   4.629   3.599  13.298  0.0323 -0.0391  1.2217
 8389SOL    HW136629   4.543   3.558  13.310  1.6591 -4.0950 -1.0328
 8389SOL    HW236630   4.627   3.597  13.202  1.7270  0.5614  1.1779
 8390SOL     OW36631   4.171   1.783   5.130 -0.7705 -0.4572 -0.2976
 8390SOL    HW136632   4.176   1.688   5.142 -1.9747 -0.6842 -1.5537
 8390SOL    HW236633   4.132   1.788   5.043  1.2808  0.4182 -1.1604
 8391SOL     OW36634   3.613   4.402   7.347 -0.1534  1.0866  0.4197
 8391SOL    HW136635   3.637   4.325   7.400 -1.4783  0.1766 -0.2948
 8391SOL    HW236636   3.590   4.466   7.414 -2.6068 -1.2325  1.8243
 8392SOL     OW36637   2.083   1.702   9.130  0.1723 -0.8109 -0.2695
 8392SOL    HW136638   2.042   1.616   9.138 -1.1170 -0.2069 -0.4328
 8392SOL    HW236639   2.150   1.698   9.198 -0.2240 -1.3866  0.0838
 8393SOL     OW36640   4.342   4.177   6.944  0.1579 -0.2774  0.4321
 8393SOL    HW136641   4.414   4.132   6.988 -0.8126 -1.6040  0.6679
 8393SOL    HW236642   4.387   4.249   6.901  0.4019 -0.7802 -0.1583
 8394SOL     OW36643   2.809   3.239   3.420  0.1650 -0.2990  0.3283
 8394SOL    HW136644   2.887   3.192   3.446 -0.4474 -2.0066 -0.9240
 8394SOL    HW236645   2.842   3.321   3.382 -1.3691 -0.6307 -1.7858
 8395SOL     OW36646   0.652   2.482   4.099  0.0024 -0.0283 -0.4552
 8395SOL    HW136647   0.622   2.524   4.179  0.4818 -0.8428  0.1490
 8395SOL    HW236648   0.615   2.394   4.111 -0.6595  0.3080 -0.0291
 8396SOL     OW36649   2.985   4.438   7.899  0.1353  0.5343 -0.1145
 8396SOL    HW136650   3.041   4.445   7.823  1.1954 -0.4433  0.5842
 8396SOL    HW236651   3.034   4.495   7.958  2.7553 -2.1545  0.3323
 8397SOL     OW36652   1.890   1.340  12.170  0.2099  0.2988  0.1641
 8397SOL    HW136653   1.935   1.278  12.229 -1.1511  0.1117  1.0106
 8397SOL    HW236654   1.807   1.347  12.217  0.3189  0.5873  0.3171
 8398SOL     OW36655   0.572   4.544  10.033 -0.3558 -0.0275 -0.0257
 8398SOL    HW136656   0.577   4.487  10.110  0.5591 -0.5465 -0.4696
 8398SOL    HW236657   0.477   4.542  10.021 -0.1121  1.2953 -2.1705
 8399SOL     OW36658   4.346   3.250   1.078 -0.3158 -0.2051 -0.6752
 8399SOL    HW136659   4.364   3.321   1.016 -0.0068 -2.3778 -3.0634
 8399SOL    HW236660   4.276   3.286   1.132  2.0802  0.7912  1.7516
 8400SOL     OW36661   4.123   3.608   5.491 -0.6264  0.0378  0.4077
 8400SOL    HW136662   4.209   3.585   5.527  0.8797  0.8410 -2.6410
 8400SOL    HW236663   4.145   3.590   5.400 -1.3863  2.7635 -0.2915
 8401SOL     OW36664   3.433   3.200   5.580  0.6276 -0.1845  0.6976
 8401SOL    HW136665   3.452   3.271   5.640  0.0003  0.7074 -0.1609
 8401SOL    HW236666   3.350   3.163   5.608  1.2518 -2.7764 -0.7977
 8402SOL     OW36667   2.331   2.063   0.810  0.1880  0.7542  0.3769
 8402SOL    HW136668   2.389   2.085   0.883 -0.3844  2.7676  0.2163
 8402SOL    HW236669   2.240   2.055   0.841 -0.2220  1.5608 -0.6186
 8403SOL     OW36670   0.209   0.694   1.260  0.1086 -0.2753 -0.1591
 8403SOL    HW136671   0.274   0.646   1.208  1.8043  2.7961 -0.8944
 8403SOL    HW236672   0.131   0.690   1.205  1.6987  2.0745 -2.6162
 8404SOL     OW36673   0.715   2.155   3.754  0.7323 -0.5042  0.0809
 8404SOL    HW136674   0.722   2.216   3.681  3.1633  1.0360  1.5951
 8404SOL    HW236675   0.798   2.107   3.754  1.9332  1.6004 -1.3013
 8405SOL     OW36676   1.621   1.678   8.698  0.9273  0.1541 -0.3064
 8405SOL    HW136677   1.536   1.661   8.658  0.8247  1.2987 -0.5841
 8405SOL    HW236678   1.637   1.590   8.733 -0.3419 -0.6009 -1.6448
 8406SOL     OW36679   0.612   2.531  15.870  0.9411 -0.7090 -0.3204
 8406SOL    HW136680   0.671   2.516  15.796  3.0147 -0.0701  1.1855
 8406SOL    HW236681   0.650   2.472  15.936 -0.5920  0.3462  1.5067
 8407SOL     OW36682   1.900   3.432  15.714  0.7507  0.5243 -0.4642
 8407SOL    HW136683   1.950   3.479  15.648  1.9632 -1.6621 -1.1170
 8407SOL    HW236684   1.837   3.395  15.653 -0.2934 -0.3716  1.1446
 8408SOL     OW36685   2.162   1.784   8.877 -0.2836  0.4389 -0.1387
 8408SOL    HW136686   2.145   1.741   8.961 -2.7380 -0.1235 -0.9252
 8408SOL    HW236687   2.183   1.716   8.813  1.0587  0.2426  0.5063
 8409SOL     OW36688   1.874   0.805   7.547  0.1179 -0.1772 -0.2430
 8409SOL    HW136689   1.881   0.843   7.634 -0.6706 -0.1070 -0.2038
 8409SOL    HW236690   1.857   0.716   7.577  1.5583  0.0662  1.2408
 8410SOL     OW36691   4.380   2.073   7.941 -0.2794  0.1827  0.3280
 8410SOL    HW136692   4.407   2.107   8.026 -1.8569 -0.8692  1.2417
 8410SOL    HW236693   4.385   1.978   7.946  0.0990  0.1822 -0.0572
 8411SOL     OW36694   0.957   3.922   7.543  0.1183 -0.0571  0.3711
 8411SOL    HW136695   1.008   3.880   7.474  1.0189 -0.4383  1.2551
 8411SOL    HW236696   0.994   4.009   7.531 -0.5534 -0.1334 -2.3000
 8412SOL     OW36697   1.598   4.018  16.597 -0.3911 -0.1595  0.2199
 8412SOL    HW136698   1.537   3.992  16.528  0.5244 -1.0679 -0.2301
 8412SOL    HW236699   1.598   4.112  16.576 -0.0884 -0.3235 -0.5004
 8413SOL     OW36700   4.013   4.414   4.753 -0.4830  0.1103  0.3619
 8413SOL    HW136701   3.990   4.332   4.708 -2.2233  0.1820  1.1198
 8413SOL    HW236702   4.073   4.387   4.823  0.3251  0.9254 -0.0141
 8414SOL     OW36703   1.962   1.922   2.414  0.3472  0.0440  0.2098
 8414SOL    HW136704   1.990   1.997   2.362 -0.6557 -0.3452 -0.8883
 8414SOL    HW236705   1.959   1.959   2.503  1.0157  0.9420 -0.1460
 8415SOL     OW36706   4.521   3.289   6.358 -0.8452  0.0290 -0.3738
 8415SOL    HW136707   4.452   3.299   6.424 -2.0608  0.3072 -1.6737
 8415SOL    HW236708   4.587   3.354   6.382 -1.9332  0.3349  1.8003
 8416SOL     OW36709   1.452   1.887   6.953  0.3538  0.3793  0.8545
 8416SOL    HW136710   1.496   1.969   6.973  0.1661  0.8263 -0.5395
 8416SOL    HW236711   1.527   1.839   6.916  2.1814  0.8851  3.9750
 8417SOL     OW36712   0.003   3.284   6.033 -0.0110 -0.6216  0.4122
 8417SOL    HW136713   4.632   3.268   6.010  0.3532  0.3795 -1.7024
 8417SOL    HW236714   0.018   3.216   6.099 -1.5948  0.0595  1.4785
 8418SOL     OW36715   2.110   3.826   0.309 -0.2433  0.4589  0.0265
 8418SOL    HW136716   2.014   3.829   0.312 -0.2519 -0.9199  0.7126
 8418SOL    HW236717   2.123   3.798   0.218  0.9024 -0.0810  0.3704
 8419SOL     OW36718   2.637   1.473   8.990  1.0055 -0.3691 -0.1634
 8419SOL    HW136719   2.700   1.470   9.062 -1.1277  1.3984  1.8120
 8419SOL    HW236720   2.563   1.422   9.024  0.3628 -0.1429 -1.2184
 8420SOL     OW36721   3.102   1.859   0.661 -0.3278 -0.1583  1.0273
 8420SOL    HW136722   3.076   1.938   0.614 -1.0948  0.4121  2.4019
 8420SOL    HW236723   3.152   1.809   0.597 -1.2658  0.9962 -0.6130
 8421SOL     OW36724   2.683   0.385  14.592  0.7040  0.3004  0.1891
 8421SOL    HW136725   2.737   0.444  14.646  0.3496 -0.4061  1.3101
 8421SOL    HW236726   2.759   0.336  14.561  0.6594 -0.7103  1.6912
 8422SOL     OW36727   3.142   4.342   4.666  0.5027  1.0231  0.6625
 8422SOL    HW136728   3.056   4.380   4.682  0.0486 -0.2727  1.2789
 8422SOL    HW236729   3.115   4.281   4.597  2.1524 -0.0733  0.9848
 8423SOL     OW36730   1.049   3.191   8.608 -0.5214 -0.1397 -0.6026
 8423SOL    HW136731   1.090   3.211   8.524  0.3091 -0.1616 -0.2016
 8423SOL    HW236732   1.000   3.268   8.637 -1.0655 -2.0408  3.5683
 8424SOL     OW36733   3.335   0.089   7.117  0.6045  0.3587  0.1461
 8424SOL    HW136734   3.389   0.111   7.193  0.1404 -2.0136  1.1584
 8424SOL    HW236735   3.372   0.009   7.078 -2.7859 -0.4994 -1.3321
 8425SOL     OW36736   1.751   1.211   6.158  0.4367 -0.4280 -0.2792
 8425SOL    HW136737   1.803   1.237   6.234  2.5592  0.5981 -2.0698
 8425SOL    HW236738   1.726   1.299   6.132  1.1073  0.3502  1.7224
 8426SOL     OW36739   0.790   3.641   1.126  0.6067 -0.4279  0.2691
 8426SOL    HW136740   0.723   3.671   1.064  1.5589  0.0813 -0.5087
 8426SOL    HW236741   0.766   3.686   1.207 -1.6046 -2.0270  0.5059
 8427SOL     OW36742   1.945   3.365   9.074  0.2143  0.0693  0.3528
 8427SOL    HW136743   1.986   3.442   9.114  0.6394  0.2305 -0.4162
 8427SOL    HW236744   1.868   3.395   9.025  1.2145  0.6873 -0.8319
 8428SOL     OW36745   0.092   2.465   3.976 -0.0402 -0.1433  0.3327
 8428SOL    HW136746   0.172   2.512   3.953 -0.2621  0.4021  0.6785
 8428SOL    HW236747   0.101   2.384   3.925  2.3453  0.1053  0.3631
 8429SOL     OW36748   4.513   0.973   5.685  0.3210  0.7540 -0.5419
 8429SOL    HW136749   4.579   0.996   5.750  2.3195 -1.9326 -1.6209
 8429SOL    HW236750   4.496   0.880   5.698 -1.3503  1.2992  1.0876
 8430SOL     OW36751   1.830   3.147   2.141 -0.4641  0.2066  0.7887
 8430SOL    HW136752   1.812   3.104   2.225 -0.1408  0.6383  1.0763
 8430SOL    HW236753   1.895   3.211   2.169 -1.1577  0.2648  2.2443
 8431SOL     OW36754   0.554   0.076  17.541 -0.1777 -0.5736  0.1633
 8431SOL    HW136755   0.519   4.712  17.566 -4.3963  1.2117  0.3584
 8431SOL    HW236756   0.481   0.109  17.489  0.0556 -1.3918 -0.6922
 8432SOL     OW36757   1.881   0.033  12.205  0.2169 -0.2234 -0.0622
 8432SOL    HW136758   1.864   0.100  12.272  2.7720  0.2749  0.0933
 8432SOL    HW236759   1.872   4.674  12.256  1.4903 -0.5583 -0.3596
 8433SOL     OW36760   3.889   2.912  10.178 -0.5327 -0.0668 -0.1750
 8433SOL    HW136761   3.947   2.851  10.223  0.3610 -0.2865 -1.6500
 8433SOL    HW236762   3.933   2.994  10.200 -0.5200 -0.3130  0.7283
 8434SOL     OW36763   3.730   2.050  14.541  0.6141 -0.7864  0.2669
 8434SOL    HW136764   3.769   2.083  14.622 -0.3765  1.1179 -0.0452
 8434SOL    HW236765   3.638   2.049  14.566  0.4898 -1.8443 -0.2168
 8435SOL     OW36766   4.321   3.341   3.916 -0.3500  0.4613  0.2677
 8435SOL    HW136767   4.302   3.252   3.945 -0.4223  0.8017  1.2499
 8435SOL    HW236768   4.357   3.328   3.828  2.0577 -1.5545  1.5583
 8436SOL     OW36769   2.060   0.721   7.918 -0.5777 -0.8376  0.2247
 8436SOL    HW136770   2.129   0.656   7.931 -0.9049 -1.0152  1.0699
 8436SOL    HW236771   2.020   0.727   8.004  1.5969 -0.3832  1.2103
 8437SOL     OW36772   3.059   1.524   3.190 -0.3468  0.1843 -0.3120
 8437SOL    HW136773   3.019   1.524   3.276 -0.8055  1.6017 -0.5151
 8437SOL    HW236774   3.143   1.550   3.227 -0.6056 -0.4988  0.7626
 8438SOL     OW36775   3.397   2.527   8.984 -0.2338  0.4479  0.6014
 8438SOL    HW136776   3.314   2.487   8.958 -1.2102  1.9583  1.3999
 8438SOL    HW236777   3.462   2.479   8.932  1.2719  4.1277 -0.8975
 8439SOL     OW36778   3.909   3.018   6.593  0.3353 -0.4426 -0.0272
 8439SOL    HW136779   4.001   2.996   6.584  0.1520 -1.3570  0.3612
 8439SOL    HW236780   3.877   2.991   6.507  0.0970 -0.0215 -0.0745
 8440SOL     OW36781   0.485   1.349  15.358  0.3997 -0.4626  0.0939
 8440SOL    HW136782   0.557   1.373  15.417  0.1202 -0.8564  0.5957
 8440SOL    HW236783   0.518   1.323  15.272 -0.2899  0.5362 -0.4733
 8441SOL     OW36784   0.266   0.607  11.358  0.2201 -0.4035  0.1910
 8441SOL    HW136785   0.281   0.546  11.430  0.4071 -0.1534  0.3658
 8441SOL    HW236786   0.188   0.654  11.390  0.4944 -0.6988  1.2974
 8442SOL     OW36787   2.121   2.744   6.041 -0.1087  0.3972  0.3822
 8442SOL    HW136788   2.202   2.706   6.076  0.1321  1.0998  0.6149
 8442SOL    HW236789   2.154   2.767   5.954  1.4003  2.3674  1.4620
 8443SOL     OW36790   1.477   0.930   2.958 -0.3133  0.6304 -0.7827
 8443SOL    HW136791   1.489   1.023   2.943  0.8267  0.3439 -1.6399
 8443SOL    HW236792   1.387   0.911   2.932  0.5060 -1.5380 -2.0211
 8444SOL     OW36793   4.347   1.406   6.997 -0.0647 -0.5557 -0.1669
 8444SOL    HW136794   4.356   1.499   7.015  0.4191 -0.4024 -1.2159
 8444SOL    HW236795   4.388   1.363   7.072  0.8168  0.4502 -0.0872
 8445SOL     OW36796   1.013   0.706  16.368  0.1723 -0.4565  0.3833
 8445SOL    HW136797   1.045   0.717  16.458 -1.3580  1.2223  0.7310
 8445SOL    HW236798   1.054   0.782  16.326 -3.1234  0.9715 -0.3301
 8446SOL     OW36799   2.663   3.428   2.934 -0.1335 -0.0066  0.4687
 8446SOL    HW136800   2.737   3.487   2.946  0.3358 -0.3299 -0.8262
 8446SOL    HW236801   2.675   3.410   2.841 -2.0322  0.6787  0.0946
 8447SOL     OW36802   2.263   2.047   0.466  0.0551  0.5115 -0.0364
 8447SOL    HW136803   2.310   2.124   0.498  0.3156  0.5403 -0.4762
 8447SOL    HW236804   2.333   1.986   0.486  0.7154  1.6946  1.2656
 8448SOL     OW36805   1.321   4.281  14.497 -0.0759 -0.5563  0.3593
 8448SOL    HW136806   1.322   4.261  14.403  2.2941  0.0383  0.2631
 8448SOL    HW236807   1.415   4.293  14.512 -0.2106 -0.8461  1.4140
 8449SOL     OW36808   1.300   3.646   9.817  0.6892  0.3885  0.4552
 8449SOL    HW136809   1.315   3.727   9.769  1.0988 -0.1112 -0.2719
 8449SOL    HW236810   1.377   3.598   9.786  1.6653  2.2047  0.0808
 8450SOL     OW36811   4.021   1.112   0.861  0.2186  0.0549  0.2675
 8450SOL    HW136812   4.000   1.054   0.934 -2.6599  0.0174 -0.6049
 8450SOL    HW236813   4.113   1.135   0.876  0.9226 -2.4823 -0.1578
 8451SOL     OW36814   2.097   1.345   8.090  0.0497 -0.3396  0.8242
 8451SOL    HW136815   2.099   1.251   8.107  2.4472 -0.4745 -0.2479
 8451SOL    HW236816   2.125   1.351   7.999  0.0782 -0.0526  0.8503
 8452SOL     OW36817   1.617   1.277  12.043  0.4128 -0.3916  0.2713
 8452SOL    HW136818   1.670   1.272  11.963  1.3361  1.0742  0.8015
 8452SOL    HW236819   1.600   1.370  12.057 -0.6469 -0.7596  1.3750
 8453SOL     OW36820   1.897   2.093   6.978 -1.2278  0.1812 -0.5568
 8453SOL    HW136821   1.991   2.104   6.996 -1.3457 -2.7474  1.9561
 8453SOL    HW236822   1.888   2.165   6.916  0.8863 -0.8673 -2.1170
 8454SOL     OW36823   0.394   3.884   2.859 -0.3038 -0.4231 -0.2329
 8454SOL    HW136824   0.411   3.874   2.953 -1.6009 -1.0096 -0.0528
 8454SOL    HW236825   0.377   3.791   2.840  0.4748 -0.6307  0.0778
 8455SOL     OW36826   3.408   3.116   9.534 -0.2956 -0.5642 -0.1475
 8455SOL    HW136827   3.388   3.028   9.505 -3.0588 -0.1214  0.4392
 8455SOL    HW236828   3.474   3.104   9.603  0.0746  2.0550 -0.0331
 8456SOL     OW36829   4.195   3.280  11.640 -0.3475 -0.1746  0.0397
 8456SOL    HW136830   4.156   3.352  11.690  1.2231  0.2546  0.6348
 8456SOL    HW236831   4.112   3.244  11.608  0.5297 -4.9564  3.1492
 8457SOL     OW36832   4.365   2.774   0.287  0.2166  0.3035 -0.1793
 8457SOL    HW136833   4.408   2.699   0.327 -1.7282 -0.0135  1.3255
 8457SOL    HW236834   4.279   2.777   0.329 -0.0006  1.7272 -0.7279
 8458SOL     OW36835   0.352   1.323   5.110  0.2130 -0.0895  0.4100
 8458SOL    HW136836   0.351   1.244   5.165 -0.0305  0.6116  1.4123
 8458SOL    HW236837   0.370   1.398   5.167  1.0927 -0.1338  0.1909
 8459SOL     OW36838   4.018   1.595   4.004 -0.8880  0.8434  0.2681
 8459SOL    HW136839   4.008   1.618   3.912  0.9552 -1.3529 -0.5152
 8459SOL    HW236840   4.032   1.674   4.056  2.8367  0.1789  0.3243
 8460SOL     OW36841   4.080   0.726   1.871  0.7491  0.1094 -0.5357
 8460SOL    HW136842   4.038   0.640   1.878  1.1502 -0.0444  0.0832
 8460SOL    HW236843   4.006   0.785   1.879 -0.1394 -0.9934 -0.6134
 8461SOL     OW36844   0.674   2.547  12.635  0.6908  0.2658  0.2784
 8461SOL    HW136845   0.714   2.622  12.681 -1.7178  0.0867  2.6547
 8461SOL    HW236846   0.594   2.540  12.686 -1.8787  4.4145 -3.2096
 8462SOL     OW36847   2.873   1.859   3.982  0.4173 -0.3581  0.0138
 8462SOL    HW136848   2.869   1.810   3.900 -0.4605 -0.0600 -0.1228
 8462SOL    HW236849   2.963   1.842   4.011 -0.0551 -0.1198  1.6188
 8463SOL     OW36850   3.565   0.947   8.789 -0.6536  0.0479 -0.0873
 8463SOL    HW136851   3.521   0.939   8.704  0.2341 -1.0265 -0.4422
 8463SOL    HW236852   3.648   0.994   8.776 -0.3402 -0.9329 -1.6572
 8464SOL     OW36853   3.306   0.316   3.855  0.0316  0.3209  0.0038
 8464SOL    HW136854   3.251   0.239   3.837 -0.3472  1.3468 -3.1877
 8464SOL    HW236855   3.310   0.357   3.768  1.0357 -0.7484 -0.4647
 8465SOL     OW36856   1.260   4.717   7.729  0.0564 -0.2714 -0.2344
 8465SOL    HW136857   1.268   0.005   7.824  0.2437  0.2486 -0.3075
 8465SOL    HW236858   1.165   4.708   7.722 -0.0632 -0.2539  1.2797
 8466SOL     OW36859   4.173   3.654   2.044 -0.2913  0.1235 -0.1369
 8466SOL    HW136860   4.257   3.696   2.062 -0.3866  0.4460 -0.4375
 8466SOL    HW236861   4.142   3.708   1.971 -1.1096 -0.7335 -0.4225
 8467SOL     OW36862   0.326   2.752   7.045 -0.0193 -0.7342 -0.3743
 8467SOL    HW136863   0.300   2.661   7.059  1.7398 -0.8970  1.8134
 8467SOL    HW236864   0.409   2.748   6.998 -0.8653  0.2599 -1.9777
 8468SOL     OW36865   2.073   3.726   6.385  0.5757  0.1124 -0.7601
 8468SOL    HW136866   2.072   3.786   6.460 -1.1957 -0.4153 -0.3613
 8468SOL    HW236867   2.164   3.738   6.356  0.7121  1.7486  0.3452
 8469SOL     OW36868   2.399   2.470   6.841  0.2134 -0.3194  0.2084
 8469SOL    HW136869   2.392   2.405   6.910 -1.0481 -0.7554 -0.3214
 8469SOL    HW236870   2.419   2.413   6.767 -0.1815  1.2485 -1.1052
 8470SOL     OW36871   4.177   4.539   6.598 -0.7596 -0.2629  0.6566
 8470SOL    HW136872   4.134   4.555   6.513 -1.2688 -1.3741  0.7043
 8470SOL    HW236873   4.126   4.464   6.628  0.3896 -0.3650  2.3163
 8471SOL     OW36874   3.017   3.979   2.052  0.3083  0.7289  0.0123
 8471SOL    HW136875   3.005   4.067   2.016  1.5767  0.9721  0.1992
 8471SOL    HW236876   3.050   3.996   2.140 -1.6697  2.0384  0.4950
 8472SOL     OW36877   3.756   2.856   2.451  0.4870  0.1717 -0.2283
 8472SOL    HW136878   3.767   2.934   2.396 -0.4355  1.1666  0.9926
 8472SOL    HW236879   3.666   2.826   2.437  0.7042 -1.1344  1.1955
 8473SOL     OW36880   4.084   0.997   8.513  0.3618 -0.2149  0.2688
 8473SOL    HW136881   4.125   1.082   8.529  1.3231 -0.9617  1.7882
 8473SOL    HW236882   4.012   1.021   8.454  1.7362 -1.4473 -1.9278
 8474SOL     OW36883   1.064   0.422   4.843  0.2097  0.3982 -0.2671
 8474SOL    HW136884   1.127   0.493   4.841  1.8691 -1.0002  2.1568
 8474SOL    HW236885   1.003   0.442   4.772 -1.4425  3.5390  2.0607
 8475SOL     OW36886   0.042   1.556   2.689 -0.0657 -0.1896 -0.3983
 8475SOL    HW136887   4.701   1.627   2.685 -0.3805 -0.5111 -1.2590
 8475SOL    HW236888   0.001   1.493   2.629 -0.1988  0.2807 -0.8011
 8476SOL     OW36889   0.080   1.534   8.554 -0.1495  0.2636 -0.1575
 8476SOL    HW136890   0.047   1.481   8.626  1.9469  0.6381  1.0626
 8476SOL    HW236891   4.720   1.563   8.512 -0.8234 -1.2431  0.0795
 8477SOL     OW36892   3.864   0.240   7.523  0.5907 -0.1176  0.6238
 8477SOL    HW136893   3.783   0.199   7.494  0.3297  0.2729  0.8084
 8477SOL    HW236894   3.889   0.291   7.446 -0.6876 -2.9160 -1.5994
 8478SOL     OW36895   4.117   1.331   7.823  0.7397 -0.0031  0.2347
 8478SOL    HW136896   4.169   1.378   7.758 -0.4566 -1.0055 -1.4564
 8478SOL    HW236897   4.171   1.350   7.900  0.0472  1.5998  0.3106
 8479SOL     OW36898   0.513   0.087  11.624  0.3100  0.4704 -0.1895
 8479SOL    HW136899   0.584   0.147  11.648  0.3730  0.0849  0.6082
 8479SOL    HW236900   0.564   0.051  11.551  0.8854 -2.0584  1.4472
 8480SOL     OW36901   0.827   4.696   6.059  0.0780  0.8965  0.0767
 8480SOL    HW136902   0.763   0.043   6.078 -0.3800  0.3395  0.5072
 8480SOL    HW236903   0.915   0.011   6.066  0.2644  0.3695  0.4859
 8481SOL     OW36904   1.129   1.656  12.403  0.3304  0.0187  0.8147
 8481SOL    HW136905   1.187   1.717  12.357  0.4619 -1.7071 -1.3269
 8481SOL    HW236906   1.130   1.692  12.492  1.3401  1.4675  0.2185
 8482SOL     OW36907   2.864   4.372   1.162 -0.1227 -0.2207  0.1403
 8482SOL    HW136908   2.793   4.342   1.105 -1.3576 -1.9426  2.5889
 8482SOL    HW236909   2.944   4.333   1.129 -0.2066 -1.5845  1.5584
 8483SOL     OW36910   0.206   4.473  10.933 -0.0993  0.0811 -0.2519
 8483SOL    HW136911   0.116   4.446  10.919 -0.4471  0.8008  0.5643
 8483SOL    HW236912   0.200   4.535  11.006 -0.8160 -0.2539 -0.0299
 8484SOL     OW36913   1.989   2.953  12.213  0.5837  0.0624 -0.0527
 8484SOL    HW136914   1.973   2.889  12.144  0.5259  0.8669 -0.7815
 8484SOL    HW236915   2.071   2.926  12.252  0.1302  0.1418  0.9636
 8485SOL     OW36916   1.639   0.080   2.917  0.4043  0.3936  0.0170
 8485SOL    HW136917   1.674   0.053   2.833  1.2261  0.9715  0.1694
 8485SOL    HW236918   1.720   0.082   2.969 -0.1508 -1.3775  0.9665
 8486SOL     OW36919   0.389   0.273   5.406 -0.0426 -0.2859  0.4263
 8486SOL    HW136920   0.466   0.258   5.460  1.0910 -0.3349 -1.2136
 8486SOL    HW236921   0.330   0.205   5.439 -1.5080  1.2684  0.9995
 8487SOL     OW36922   0.754   0.237  11.528  0.0907 -0.0658 -0.0905
 8487SOL    HW136923   0.770   0.159  11.476  0.8727 -0.3000  0.5005
 8487SOL    HW236924   0.808   0.216  11.605  0.6646  1.9078  0.0535
 8488SOL     OW36925   3.306   1.362   2.487 -0.0759 -0.1389  0.0161
 8488SOL    HW136926   3.263   1.304   2.550  0.8204 -0.7039  0.1059
 8488SOL    HW236927   3.265   1.338   2.403  0.7037  0.1046 -0.4420
 8489SOL     OW36928   2.951   0.255   3.800  0.1226 -0.1585  0.4243
 8489SOL    HW136929   2.958   0.247   3.895  3.7219  1.1222  0.2747
 8489SOL    HW236930   3.036   0.215   3.782 -0.3591 -0.3294 -1.4800
 8490SOL     OW36931   3.773   0.247   4.037 -0.0071 -0.1461  0.2081
 8490SOL    HW136932   3.794   0.303   3.963 -1.6416  1.7359  1.1451
 8490SOL    HW236933   3.684   0.211   4.030 -1.3864  3.4128 -0.8306
 8491SOL     OW36934   4.380   2.439   1.392 -0.3893 -0.2089  0.2186
 8491SOL    HW136935   4.453   2.461   1.334 -1.5292  0.1308 -1.1043
 8491SOL    HW236936   4.403   2.351   1.422 -0.8817 -0.3119  0.2938
 8492SOL     OW36937   0.640   2.772   3.099  0.2466  0.0478  0.3111
 8492SOL    HW136938   0.622   2.735   3.013 -2.6426  1.5111  0.2857
 8492SOL    HW236939   0.722   2.817   3.077 -0.1955  1.0210  0.6345
 8493SOL     OW36940   3.368   1.179   1.533  0.2717 -0.0529  0.8524
 8493SOL    HW136941   3.414   1.217   1.459  2.6873 -2.2748  1.1764
 8493SOL    HW236942   3.434   1.126   1.579 -1.2256 -1.1445  1.7116
 8494SOL     OW36943   1.940   3.391   2.891 -0.4107  0.2186  0.0006
 8494SOL    HW136944   1.989   3.450   2.832 -2.0560  0.9204 -0.6515
 8494SOL    HW236945   2.011   3.364   2.949  0.0996  1.2585 -0.1456
 8495SOL     OW36946   2.998   2.057  14.122 -0.2995 -0.3746  0.6782
 8495SOL    HW136947   2.904   2.059  14.141 -0.5872 -3.0659 -0.4511
 8495SOL    HW236948   2.990   1.980  14.065 -1.0111  0.0198  0.2590
 8496SOL     OW36949   4.401   2.504   5.986  0.1992  0.1257 -0.5295
 8496SOL    HW136950   4.354   2.468   5.911  0.1138  2.2892 -1.5186
 8496SOL    HW236951   4.444   2.423   6.015 -0.2138 -1.3552 -4.0603
 8497SOL     OW36952   1.692   4.389  12.754  0.7170 -0.1781  0.5025
 8497SOL    HW136953   1.696   4.346  12.840 -2.0680  1.5275  1.4691
 8497SOL    HW236954   1.660   4.477  12.769 -0.9908 -0.2115 -2.9233
 8498SOL     OW36955   4.622   1.752  15.198  0.4021 -0.5849  0.2909
 8498SOL    HW136956   4.529   1.773  15.206  0.4823 -0.5997  1.2546
 8498SOL    HW236957   4.664   1.737  15.283 -2.3716  0.1887  1.7805
 8499SOL     OW36958   1.287   4.462  13.409  0.3365 -0.0951 -0.0628
 8499SOL    HW136959   1.200   4.464  13.370  0.4059 -0.7896 -0.2441
 8499SOL    HW236960   1.320   4.552  13.410  0.2126 -0.0617  0.8181
 8500SOL     OW36961   1.299   0.138   8.007 -0.3214  0.3381 -0.3452
 8500SOL    HW136962   1.383   0.184   8.012  0.6844 -1.6094  1.0273
 8500SOL    HW236963   1.244   0.210   7.977 -0.0873 -0.3704 -2.4853
 8501SOL     OW36964   0.586   1.814  15.724 -0.7570  0.0702 -0.4918
 8501SOL    HW136965   0.501   1.795  15.763  0.7079 -1.5994  1.8857
 8501SOL    HW236966   0.574   1.904  15.694  2.2454  1.0451  1.2134
 8502SOL     OW36967   3.988   2.536   2.429 -0.5178  0.1857 -0.7083
 8502SOL    HW136968   3.959   2.537   2.338 -1.4198  1.5568 -0.4189
 8502SOL    HW236969   4.023   2.448   2.444 -0.2377  0.3209 -0.5573
 8503SOL     OW36970   0.687   0.535   4.841  0.0119 -0.0253  0.0972
 8503SOL    HW136971   0.741   0.506   4.767  0.2659 -0.2542  0.3694
 8503SOL    HW236972   0.749   0.500   4.905  0.3776 -2.1314 -1.3944
 8504SOL     OW36973   3.124   4.162   9.044 -0.0796 -0.6170 -0.2611
 8504SOL    HW136974   3.037   4.168   9.085 -0.9714 -0.5358 -2.1312
 8504SOL    HW236975   3.179   4.209   9.107 -1.1384  0.3293 -0.0304
 8505SOL     OW36976   1.876   3.877  11.463  0.7400 -0.0929 -0.4062
 8505SOL    HW136977   1.865   3.787  11.434 -2.3295  0.3773 -0.6708
 8505SOL    HW236978   1.841   3.875  11.552  3.0682 -1.2982  0.4786
 8506SOL     OW36979   2.775   4.608   2.184 -0.1748  0.6577 -0.2328
 8506SOL    HW136980   2.849   4.647   2.137  0.1279  1.1284  0.6435
 8506SOL    HW236981   2.813   4.607   2.272  3.7968  0.8503 -1.9126
 8507SOL     OW36982   3.233   1.729  15.256  0.6155 -0.1255 -0.5856
 8507SOL    HW136983   3.178   1.805  15.238 -0.0888 -1.1087 -2.6321
 8507SOL    HW236984   3.175   1.654  15.238 -0.0142  0.2739 -0.1958
 8508SOL     OW36985   0.440   1.438   1.158  0.1289  0.2032 -0.1567
 8508SOL    HW136986   0.483   1.418   1.240  0.5240 -0.8728 -0.6243
 8508SOL    HW236987   0.412   1.526   1.185 -1.0068  0.2019 -1.3254
 8509SOL     OW36988   3.248   2.636   4.676  0.0483 -0.4690  0.7203
 8509SOL    HW136989   3.292   2.641   4.591 -2.3887  0.7728 -0.4754
 8509SOL    HW236990   3.168   2.686   4.663 -0.0952 -0.3075  2.2924
 8510SOL     OW36991   1.928   1.920  14.267  0.1224  0.1081 -0.5130
 8510SOL    HW136992   1.990   1.977  14.221  0.4930  0.0896 -0.0301
 8510SOL    HW236993   1.934   1.945  14.359 -0.8344  0.2748 -0.4902
 8511SOL     OW36994   1.160   3.562  10.037 -0.5203 -0.0038 -0.0124
 8511SOL    HW136995   1.206   3.582   9.956 -1.9670 -1.1383 -1.1308
 8511SOL    HW236996   1.222   3.511  10.087 -1.4355 -0.3680  0.7517
 8512SOL     OW36997   4.670   0.461  13.952 -0.2614  0.0841 -0.0972
 8512SOL    HW136998   4.671   0.368  13.977  2.1645  0.4951  1.3641
 8512SOL    HW236999   0.042   0.475  13.937  0.1286 -1.3651  0.9622
 8513SOL     OW37000   3.224   1.515  11.961 -0.0564  0.5187 -0.4257
 8513SOL    HW137001   3.139   1.487  11.995 -0.4228  0.8942 -1.0414
 8513SOL    HW237002   3.198   1.590  11.908 -1.0112 -0.4364 -1.3054
 8514SOL     OW37003   1.433   4.446   2.994 -0.2245 -0.4370  0.2980
 8514SOL    HW137004   1.371   4.516   2.976 -2.0588 -1.8374  1.1609
 8514SOL    HW237005   1.500   4.480   2.935  0.2362 -1.3028  0.3178
 8515SOL     OW37006   3.696   3.579  13.977 -0.2722  0.0827  0.6054
 8515SOL    HW137007   3.623   3.517  13.974 -1.3387  1.3619 -0.0619
 8515SOL    HW237008   3.717   3.575  13.883 -0.6437  1.4975  0.4637
 8516SOL     OW37009   3.336   3.406   2.169 -0.6154 -0.3238  0.5817
 8516SOL    HW137010   3.278   3.369   2.102 -1.0234  0.3744  0.5424
 8516SOL    HW237011   3.286   3.383   2.248 -1.2477  0.6728  0.4809
 8517SOL     OW37012   3.960   4.386  15.975  0.6552 -0.1003  0.3309
 8517SOL    HW137013   4.054   4.365  15.974  0.2702 -1.8313  0.2347
 8517SOL    HW237014   3.930   4.388  15.884  0.8796  1.8875  0.3071
 8518SOL     OW37015   3.036   2.703   9.987 -0.1277 -0.2450  0.1900
 8518SOL    HW137016   3.046   2.748   9.903  0.0641 -0.5591  0.0440
 8518SOL    HW237017   3.114   2.723  10.038 -1.8293  0.9472  2.3128
 8519SOL     OW37018   4.595   1.404   7.502  0.1360 -0.2308  0.0965
 8519SOL    HW137019   4.568   1.472   7.563  1.5330  0.0364  0.4037
 8519SOL    HW237020   4.682   1.381   7.536 -0.4122  2.2707  3.1061
 8520SOL     OW37021   1.195   2.270   0.849 -0.4882  0.1315 -0.1513
 8520SOL    HW137022   1.289   2.252   0.856 -0.3465  1.1707  0.6691
 8520SOL    HW237023   1.183   2.306   0.761 -1.8642 -0.5805 -0.2536
 8521SOL     OW37024   3.914   3.493   2.052  0.0907  0.4756 -0.3643
 8521SOL    HW137025   3.870   3.449   1.980  2.1011  0.9887 -1.9152
 8521SOL    HW237026   3.990   3.529   2.005 -0.4393  0.4766 -1.2151
 8522SOL     OW37027   2.356   2.701   3.174  0.2775 -0.1588 -0.0123
 8522SOL    HW137028   2.362   2.759   3.098 -1.0595 -2.8383 -2.1821
 8522SOL    HW237029   2.287   2.642   3.143 -0.9403  1.1980  0.1301
 8523SOL     OW37030   3.534   0.866   6.177 -0.1762 -0.1156 -0.4889
 8523SOL    HW137031   3.483   0.947   6.168  1.1759  0.5756 -1.8734
 8523SOL    HW237032   3.517   0.852   6.270 -0.2949  3.0305 -0.0222
 8524SOL     OW37033   0.136   2.117  12.640 -0.1220 -0.4463  0.1854
 8524SOL    HW137034   0.164   2.112  12.732 -0.9942 -2.1042  0.3657
 8524SOL    HW237035   0.151   2.024  12.626 -0.2965 -0.5197  0.4945
 8525SOL     OW37036   0.097   2.267   0.458 -0.2251 -0.1992  0.7611
 8525SOL    HW137037   0.010   2.228   0.463  0.8546 -2.7498 -0.2788
 8525SOL    HW237038   0.147   2.210   0.399 -2.4892 -0.4811 -0.9144
 8526SOL     OW37039   0.148   3.706  17.167 -0.3315  0.0726 -1.0049
 8526SOL    HW137040   0.212   3.639  17.143 -1.6265 -2.4152  2.4509
 8526SOL    HW237041   0.206   3.783  17.170  1.5946 -1.3618 -1.2284
 8527SOL     OW37042   4.614   2.403   7.024  0.2503 -0.5328  0.2774
 8527SOL    HW137043   4.553   2.412   7.097 -1.7933 -0.3507 -1.4244
 8527SOL    HW237044   4.564   2.446   6.954 -2.8313 -0.0590  2.7880
 8528SOL     OW37045   1.391   0.979  14.265  0.0264  0.4017 -0.0881
 8528SOL    HW137046   1.456   1.047  14.250  2.3904 -1.8391  0.0752
 8528SOL    HW237047   1.419   0.944  14.350 -3.1691 -0.2742  0.7252
 8529SOL     OW37048   1.079   0.023   8.355 -0.7338  0.3880  0.4047
 8529SOL    HW137049   1.106   0.110   8.325 -3.6139  2.4043  3.5774
 8529SOL    HW237050   1.028   0.052   8.431 -1.7947 -1.6555  0.4544
 8530SOL     OW37051   3.256   4.017  16.184  0.1353  0.3393 -0.3222
 8530SOL    HW137052   3.330   3.971  16.222 -0.1244  0.0150 -0.2096
 8530SOL    HW237053   3.300   4.099  16.162 -2.0896  1.2254 -1.5333
 8531SOL     OW37054   0.858   1.712   7.732 -0.1313  0.3033  0.4297
 8531SOL    HW137055   0.832   1.667   7.812 -1.2668 -0.1185 -0.1874
 8531SOL    HW237056   0.810   1.652   7.675 -1.7821  1.3177  0.7568
 8532SOL     OW37057   3.667   3.045   1.819  0.7857  0.6311 -0.0890
 8532SOL    HW137058   3.631   3.128   1.850  0.5786  0.2854  0.5964
 8532SOL    HW237059   3.634   3.032   1.730 -1.0153 -0.3947  0.7231
 8533SOL     OW37060   2.300   2.695   3.947  0.0608  0.1665  0.3133
 8533SOL    HW137061   2.285   2.615   3.997 -1.7683  0.5876  0.4235
 8533SOL    HW237062   2.395   2.694   3.954  0.1802  0.7341 -1.3068
 8534SOL     OW37063   2.522   2.505   7.275 -0.0621 -0.3889  0.2252
 8534SOL    HW137064   2.602   2.535   7.318  1.6493 -1.8766 -1.9218
 8534SOL    HW237065   2.498   2.586   7.230 -0.0025  0.1557  1.1715
 8535SOL     OW37066   3.937   4.079  13.303  0.4975 -0.1120 -0.1296
 8535SOL    HW137067   3.955   4.087  13.209  1.6974 -0.6759  0.0517
 8535SOL    HW237068   3.842   4.075  13.305  0.4636  1.1483  1.0557
 8536SOL     OW37069   1.561   1.024   6.207  0.3212 -0.1988  0.1756
 8536SOL    HW137070   1.630   1.070   6.159 -0.4432  1.0845  0.2861
 8536SOL    HW237071   1.500   1.095   6.227  1.9091  0.5180  2.5379
 8537SOL     OW37072   2.322   2.592   4.199  0.0900  0.5418  0.1481
 8537SOL    HW137073   2.312   2.688   4.201 -0.7005  0.4496  0.8780
 8537SOL    HW237074   2.309   2.565   4.290  0.1247  2.8150  0.8335
 8538SOL     OW37075   0.884   2.628   5.993 -0.1603  0.0023  0.3116
 8538SOL    HW137076   0.828   2.638   6.071 -1.7745 -1.4072 -0.6741
 8538SOL    HW237077   0.892   2.533   5.984  1.3043  0.3177 -1.6511
 8539SOL     OW37078   2.691   4.003   6.880 -0.8762 -0.5760  0.5207
 8539SOL    HW137079   2.629   4.072   6.905  0.8115  0.8084  0.8303
 8539SOL    HW237080   2.743   4.040   6.809 -0.2942  0.0159  1.2645
 8540SOL     OW37081   2.035   3.134  17.573  0.0966  0.6092 -0.4732
 8540SOL    HW137082   2.000   3.183  17.498 -0.9447  0.3569 -0.1539
 8540SOL    HW237083   1.954   3.087  17.590 -0.7514  3.1260  2.3101
 8541SOL     OW37084   2.932   1.174  12.488  0.7015 -0.2291  0.3308
 8541SOL    HW137085   2.894   1.195  12.402  0.7293  2.0708  0.8856
 8541SOL    HW237086   2.971   1.257  12.514 -0.7763 -0.0442  1.9607
 8542SOL     OW37087   2.460   2.528  14.010  0.3465  0.5153  0.1241
 8542SOL    HW137088   2.523   2.456  14.015  1.1124  1.1469 -0.4551
 8542SOL    HW237089   2.443   2.534  13.916 -0.6605 -0.3559  0.2448
 8543SOL     OW37090   3.904   1.395  12.030 -0.6205  0.5517 -0.1863
 8543SOL    HW137091   3.827   1.354  12.069  0.3592 -2.3655 -1.3405
 8543SOL    HW237092   3.900   1.385  11.935  1.7641 -0.4080 -0.1936
 8544SOL     OW37093   2.977   0.412   1.762  0.3931  0.1381  0.1176
 8544SOL    HW137094   2.974   0.494   1.714  1.5662 -0.3886 -0.8471
 8544SOL    HW237095   2.913   0.357   1.716  3.4115 -2.7569 -0.5921
 8545SOL     OW37096   1.079   1.785   3.033  0.4072  0.2695 -0.4261
 8545SOL    HW137097   1.134   1.846   3.082 -0.2537  0.1322  0.4824
 8545SOL    HW237098   0.994   1.824   3.054 -0.4637 -0.8463 -1.8708
 8546SOL     OW37099   2.158   2.987   3.069  0.0208  0.2658  0.2639
 8546SOL    HW137100   2.148   2.981   2.974 -1.6445 -0.1722  0.4709
 8546SOL    HW237101   2.108   2.912   3.100  2.0776 -0.6471  1.3797
 8547SOL     OW37102   0.125   3.369   4.601 -0.1202  0.6142  0.2168
 8547SOL    HW137103   0.150   3.400   4.688 -0.5513  0.4319  0.4053
 8547SOL    HW237104   0.205   3.334   4.563 -1.6226 -0.6260 -1.8545
 8548SOL     OW37105   4.527   3.113   8.763  0.2995 -0.7751  0.1976
 8548SOL    HW137106   4.516   3.068   8.679 -1.1568 -0.1276  0.0445
 8548SOL    HW237107   4.622   3.118   8.770  0.4221 -1.5128 -0.7623
 8549SOL     OW37108   4.534   3.321  12.690 -0.1658 -0.2985 -0.2358
 8549SOL    HW137109   4.567   3.273  12.765 -0.7756 -3.5605 -2.0313
 8549SOL    HW237110   4.499   3.248  12.638 -1.8431  0.0563  0.4007
 8550SOL     OW37111   4.053   1.567   8.192  0.1564 -0.5412  0.0137
 8550SOL    HW137112   4.068   1.554   8.286  2.0319 -0.5480 -0.2895
 8550SOL    HW237113   4.026   1.658   8.201  0.8157 -0.2852 -0.6472
 8551SOL     OW37114   0.268   3.785   2.585 -0.0007 -0.2722 -0.2021
 8551SOL    HW137115   0.285   3.723   2.515 -0.0354 -0.6470  0.1194
 8551SOL    HW237116   0.213   3.853   2.547  0.3020 -0.3949 -0.8538
 8552SOL     OW37117   2.953   2.986  12.627  0.0231  0.1828 -1.1654
 8552SOL    HW137118   3.002   3.018  12.703 -0.2407 -2.5422  0.1609
 8552SOL    HW237119   3.029   2.973  12.570  0.6815  2.1085 -0.7193
 8553SOL     OW37120   3.510   2.222   5.190 -0.3534 -0.2118 -0.3406
 8553SOL    HW137121   3.576   2.283   5.222 -1.5938  0.2002  1.4259
 8553SOL    HW237122   3.426   2.268   5.184 -0.9264 -1.0252  1.4976
 8554SOL     OW37123   2.378   3.189   8.865 -0.7634  0.2542 -0.2005
 8554SOL    HW137124   2.284   3.207   8.853 -1.0421 -0.4582  0.8728
 8554SOL    HW237125   2.382   3.177   8.960  1.7714  1.2628 -0.1978
 8555SOL     OW37126   1.396   4.216   6.662  0.5754  0.6086 -0.4539
 8555SOL    HW137127   1.356   4.285   6.715 -3.3416 -1.3185 -0.8851
 8555SOL    HW237128   1.339   4.208   6.586 -0.1240  0.2668  0.1005
 8556SOL     OW37129   1.275   1.072   4.581  0.4683 -0.7183 -0.0378
 8556SOL    HW137130   1.304   1.031   4.662  1.8089  1.7701  0.7190
 8556SOL    HW237131   1.356   1.080   4.531  1.5269 -1.1662  1.6457
 8557SOL     OW37132   4.259   3.864   6.036  0.5462 -0.2725 -0.2207
 8557SOL    HW137133   4.268   3.904   6.123  0.5433  1.3341 -0.9771
 8557SOL    HW237134   4.315   3.788   6.051  0.0896 -0.3891  0.9723
 8558SOL     OW37135   3.122   3.417  13.489  0.9895  0.1787  0.1328
 8558SOL    HW137136   3.159   3.437  13.403 -1.3218 -0.6381 -1.0599
 8558SOL    HW237137   3.186   3.462  13.543  0.6608  2.7925 -1.6494
 8559SOL     OW37138   1.608   4.467  14.708 -0.0338  0.6943 -0.1143
 8559SOL    HW137139   1.538   4.532  14.699  1.0595  2.1013  1.7452
 8559SOL    HW237140   1.655   4.477  14.625  4.0330  0.6009  2.1767
 8560SOL     OW37141   1.140   0.816   4.824 -0.0100 -0.2836  0.4364
 8560SOL    HW137142   1.184   0.764   4.757  1.4746  2.9336 -1.0946
 8560SOL    HW237143   1.209   0.875   4.855 -1.0957  1.3972 -0.3654
 8561SOL     OW37144   1.871   0.993   3.540 -0.3085 -0.3598  0.4529
 8561SOL    HW137145   1.958   1.008   3.504 -0.5025  0.6866  0.4097
 8561SOL    HW237146   1.836   1.082   3.537  2.6320  0.7534 -1.0649
 8562SOL     OW37147   0.688   1.326   5.649  0.0501  0.0695  0.1647
 8562SOL    HW137148   0.745   1.344   5.724  1.0956 -0.0143 -0.6055
 8562SOL    HW237149   0.637   1.407   5.643  0.2368 -0.0977 -3.4016
 8563SOL     OW37150   3.728   0.850   1.360  0.0971 -0.0056  0.0112
 8563SOL    HW137151   3.792   0.874   1.426 -0.4447 -1.0563  0.9253
 8563SOL    HW237152   3.720   0.757   1.382  1.3896  0.1280  0.9965
 8564SOL     OW37153   3.122   0.586  14.115  0.7053  0.2144 -0.1707
 8564SOL    HW137154   3.093   0.619  14.200  0.0912  1.3460 -0.8145
 8564SOL    HW237155   3.084   0.499  14.099  0.7908 -0.0837  1.2720
 8565SOL     OW37156   1.884   3.531   9.509  0.2430 -0.2307 -0.5569
 8565SOL    HW137157   1.964   3.511   9.558 -0.3662 -0.9752  0.1161
 8565SOL    HW237158   1.863   3.610   9.557 -2.1128 -1.6390  0.7034
 8566SOL     OW37159   3.038   3.869   0.728 -0.1237  0.0565 -0.3080
 8566SOL    HW137160   3.040   3.964   0.734 -1.3881  0.0339  0.4504
 8566SOL    HW237161   3.098   3.853   0.802 -0.5781  2.7883  0.6480
 8567SOL     OW37162   3.091   3.290   7.952 -0.1823  0.5704 -0.0478
 8567SOL    HW137163   3.153   3.336   7.896 -1.0757  1.2675 -0.4832
 8567SOL    HW237164   3.139   3.283   8.035  1.5250  2.5522 -0.8711
 8568SOL     OW37165   0.808   0.671  11.994 -0.2851  0.4535  0.0216
 8568SOL    HW137166   0.760   0.754  11.986 -2.0765 -0.6567 -0.7267
 8568SOL    HW237167   0.844   0.680  12.082  1.3276 -0.2594 -0.5688
 8569SOL     OW37168   3.630   0.693   8.909  0.0325 -0.0992  0.7138
 8569SOL    HW137169   3.622   0.782   8.873 -1.0427 -0.7633 -0.7078
 8569SOL    HW237170   3.566   0.651   8.851  1.1818  1.8627 -2.0280
 8570SOL     OW37171   0.287   3.041  15.153  0.9490 -0.3712 -0.1015
 8570SOL    HW137172   0.324   3.059  15.066  0.8214 -0.4903 -0.1804
 8570SOL    HW237173   0.275   2.946  15.149 -0.4939 -0.1723 -0.4527
 8571SOL     OW37174   2.838   1.314   5.988 -0.6448 -0.4736  0.6062
 8571SOL    HW137175   2.797   1.236   5.952 -0.6763  0.9266 -2.4001
 8571SOL    HW237176   2.886   1.273   6.060 -1.8591 -0.8684  1.1894
 8572SOL     OW37177   4.564   2.043   8.464  0.4361 -0.3084  0.0738
 8572SOL    HW137178   4.627   1.978   8.494  1.0149  0.7276  1.1189
 8572SOL    HW237179   4.572   2.019   8.372 -2.0578  1.7132 -0.6592
 8573SOL     OW37180   0.169   0.107   4.383 -0.5258 -0.2764 -0.1387
 8573SOL    HW137181   0.234   0.075   4.444  0.9761 -0.7707 -1.9953
 8573SOL    HW237182   0.206   0.194   4.372 -1.0101  0.2793  2.6980
 8574SOL     OW37183   3.438   3.399   5.783  0.4299  0.0260  0.1022
 8574SOL    HW137184   3.404   3.486   5.804 -1.0050 -1.3420  3.5039
 8574SOL    HW237185   3.514   3.385   5.841  0.4507 -2.3883 -0.4913
 8575SOL     OW37186   1.670   1.243   5.189  0.6558 -0.4951  0.3927
 8575SOL    HW137187   1.577   1.235   5.213  0.8559 -2.0061  0.6445
 8575SOL    HW237188   1.702   1.199   5.268  2.8565 -2.6768 -1.7011
 8576SOL     OW37189   1.826   3.693  17.113 -0.7484  0.3676  0.0278
 8576SOL    HW137190   1.862   3.773  17.150 -2.7684  0.2302  2.2331
 8576SOL    HW237191   1.907   3.645  17.091 -1.0320 -0.8937  1.7499
 8577SOL     OW37192   3.365   2.018  10.999  0.0921 -0.5773  0.6693
 8577SOL    HW137193   3.458   1.995  11.008  0.0287 -1.4735 -0.9812
 8577SOL    HW237194   3.330   1.974  11.077 -1.1925  0.4513  0.6573
 8578SOL     OW37195   2.734   4.663   7.131 -0.0069  0.0609 -0.4010
 8578SOL    HW137196   2.691   4.584   7.163 -1.2394  0.8283 -0.1544
 8578SOL    HW237197   2.662   0.002   7.147 -0.5191 -0.6368 -0.0845
 8579SOL     OW37198   2.146   1.605  16.662  0.8184  0.0859  0.2371
 8579SOL    HW137199   2.191   1.521  16.671 -1.0416 -0.8833  0.5462
 8579SOL    HW237200   2.182   1.642  16.582 -2.3279 -1.5213 -1.9078
 8580SOL     OW37201   1.573   4.220   5.952 -0.1982  0.5474  0.7243
 8580SOL    HW137202   1.533   4.165   6.020  0.2652 -1.0635 -0.3172
 8580SOL    HW237203   1.533   4.179   5.875  2.0547  1.4906 -0.9415
 8581SOL     OW37204   0.685   3.373   4.342  0.5142 -0.1079 -0.2261
 8581SOL    HW137205   0.642   3.377   4.257 -0.0748 -0.9709  0.0316
 8581SOL    HW237206   0.616   3.342   4.401 -0.5976 -1.7298 -2.3830
 8582SOL     OW37207   1.254   2.310  12.196 -0.0363  0.5334  0.2533
 8582SOL    HW137208   1.160   2.304  12.216  0.0811 -1.0497  0.2594
 8582SOL    HW237209   1.251   2.294  12.102  1.7927  0.0184  0.2839
 8583SOL     OW37210   4.062   0.339   7.919 -0.3358 -0.2285 -0.4888
 8583SOL    HW137211   4.029   0.411   7.973 -0.2582  0.1886 -1.0034
 8583SOL    HW237212   4.107   0.293   7.990  0.4719 -2.1826 -2.2542
 8584SOL     OW37213   3.110   2.739  11.162  0.6939 -0.3670  0.0968
 8584SOL    HW137214   3.028   2.746  11.113  1.2085  1.1037 -0.5693
 8584SOL    HW237215   3.087   2.747  11.255  0.9391  2.0935 -0.0405
 8585SOL     OW37216   0.638   3.099   5.116  0.0604  0.1923 -0.6947
 8585SOL    HW137217   0.706   3.167   5.112  0.2363  0.0384 -0.2955
 8585SOL    HW237218   0.599   3.126   5.199  0.9608  0.1642 -0.2652
 8586SOL     OW37219   0.051   0.635   3.454  0.2310 -0.2888 -0.5668
 8586SOL    HW137220   4.716   0.629   3.377  0.1671 -0.1898 -0.5269
 8586SOL    HW237221   0.023   0.550   3.489  1.1969  0.2559  1.5098
 8587SOL     OW37222   0.870   0.039   8.186 -0.2917 -0.0553 -0.7044
 8587SOL    HW137223   0.820   0.081   8.256  2.0327  0.9198  0.3711
 8587SOL    HW237224   0.959   0.034   8.222 -0.9363 -1.7010  0.6584
 8588SOL     OW37225   2.751   1.613   2.980  0.7368  0.2052 -0.3499
 8588SOL    HW137226   2.781   1.570   2.900 -1.0358 -0.5122 -0.6273
 8588SOL    HW237227   2.708   1.538   3.022  0.5288  1.2948  1.3496
 8589SOL     OW37228   2.164   2.324   6.176  0.5558 -0.1562  0.0858
 8589SOL    HW137229   2.116   2.275   6.243 -2.0324  1.8403 -0.3316
 8589SOL    HW237230   2.248   2.314   6.221 -0.9714  1.4705  3.2744
 8590SOL     OW37231   2.708   2.974   5.413 -0.1481  0.3611  0.3676
 8590SOL    HW137232   2.625   3.004   5.375  0.4779 -0.2433 -1.4546
 8590SOL    HW237233   2.768   2.997   5.343 -0.5970  0.2898 -0.0382
 8591SOL     OW37234   0.209   4.694  14.829  0.5220 -0.1783  0.3738
 8591SOL    HW137235   0.258   0.013  14.901  0.6059 -1.7435  1.1887
 8591SOL    HW237236   0.142   0.040  14.824  1.0008  0.3291  0.6953
 8592SOL     OW37237   0.586   2.229   4.267  0.0746 -0.0787  0.2919
 8592SOL    HW137238   0.582   2.187   4.181 -0.8060  1.7870 -0.5947
 8592SOL    HW237239   0.680   2.249   4.267  0.1783 -0.5599  0.7070
 8593SOL     OW37240   3.022   3.997   9.609  0.0937 -0.4295  0.3838
 8593SOL    HW137241   3.098   3.940   9.623 -0.1290 -1.5354 -2.9817
 8593SOL    HW237242   3.073   4.077   9.600 -0.8126 -0.2276 -2.9052
 8594SOL     OW37243   3.538   1.176  10.725 -0.0458 -0.5418 -0.8388
 8594SOL    HW137244   3.463   1.234  10.742  0.5653  0.5347 -1.7571
 8594SOL    HW237245   3.586   1.203  10.803 -0.2625 -1.3412 -0.4304
 8595SOL     OW37246   1.966   1.790  10.841 -0.3116  0.1272 -0.4020
 8595SOL    HW137247   1.965   1.862  10.905  1.1766 -1.9630  1.9706
 8595SOL    HW237248   1.883   1.802  10.795  0.4316  3.0776 -0.9849
 8596SOL     OW37249   4.583   0.199   5.971  0.2871  0.0855 -0.0754
 8596SOL    HW137250   4.629   0.116   5.980 -0.9223 -0.4257  1.3684
 8596SOL    HW237251   4.591   0.223   5.878 -0.7775 -2.3435 -0.7907
 8597SOL     OW37252   0.964   3.921   0.358  0.0338 -0.0143 -0.2617
 8597SOL    HW137253   0.975   4.011   0.327  2.4329 -0.5009 -0.8566
 8597SOL    HW237254   1.049   3.893   0.322 -0.6081  1.2153 -2.7561
 8598SOL     OW37255   2.108   1.239   6.164 -0.1623 -0.2572 -0.0925
 8598SOL    HW137256   2.155   1.222   6.082 -1.4203  2.3501 -1.3615
 8598SOL    HW237257   2.130   1.331   6.173 -0.1919 -0.3098  0.5239
 8599SOL     OW37258   2.738   0.918   5.813  0.3569  0.0660 -0.3042
 8599SOL    HW137259   2.729   0.832   5.773  3.1572 -0.4534  0.1678
 8599SOL    HW237260   2.826   0.949   5.790  2.0331 -2.6300  2.5413
 8600SOL     OW37261   3.443   0.505   2.840  0.2168 -0.0014  0.2907
 8600SOL    HW137262   3.350   0.524   2.847 -0.4527 -2.5549 -1.7175
 8600SOL    HW237263   3.484   0.590   2.825  1.4981 -0.7170 -0.3026
 8601SOL     OW37264   2.908   0.118   9.697 -0.2248  0.7057 -0.1881
 8601SOL    HW137265   2.986   0.085   9.742 -0.6167 -2.7503 -2.0232
 8601SOL    HW237266   2.953   0.173   9.633  0.1365 -1.9814 -2.2617
 8602SOL     OW37267   4.336   3.223  16.362 -0.2669  0.0314  0.4970
 8602SOL    HW137268   4.400   3.294  16.364 -0.1321 -0.0998  0.8976
 8602SOL    HW237269   4.357   3.186  16.276  2.4556 -0.0329  1.1915
 8603SOL     OW37270   1.683   0.105   6.063  0.2112  0.1418 -0.1486
 8603SOL    HW137271   1.728   0.026   6.096  1.1424  1.5155  1.8765
 8603SOL    HW237272   1.614   0.104   6.129 -1.1753  2.0374 -1.5968
 8604SOL     OW37273   1.591   3.349   7.861  0.2994 -0.3383 -0.1788
 8604SOL    HW137274   1.527   3.412   7.895 -0.0228 -0.2095 -1.0319
 8604SOL    HW237275   1.606   3.388   7.775 -2.8263 -0.3397 -0.7162
 8605SOL     OW37276   1.158   0.074  16.329  0.5908  0.1088 -0.0349
 8605SOL    HW137277   1.125   0.112  16.248  0.9427 -0.3117 -0.3772
 8605SOL    HW237278   1.078   0.035  16.363  0.3316  1.0457  0.4288
 8606SOL     OW37279   4.259   3.400   2.126 -0.2117 -0.0530 -0.0709
 8606SOL    HW137280   4.209   3.337   2.074 -0.5112 -0.3982  0.6327
 8606SOL    HW237281   4.215   3.477   2.091 -3.1009 -1.3058  0.7277
 8607SOL     OW37282   4.027   3.108   5.703  0.0650 -0.0125 -0.2969
 8607SOL    HW137283   4.023   3.203   5.711  1.4438  0.1610 -1.5658
 8607SOL    HW237284   4.008   3.083   5.793  0.6246 -1.5511 -0.5922
 8608SOL     OW37285   1.262   0.028   7.067 -0.0196  0.6419 -0.6423
 8608SOL    HW137286   1.350   0.051   7.038 -0.5881  1.4865 -1.7299
 8608SOL    HW237287   1.280   4.683   7.134  0.2528 -0.2546 -1.6001
 8609SOL     OW37288   3.812   4.336   7.152 -0.1002  0.1004  0.4972
 8609SOL    HW137289   3.888   4.320   7.208 -0.1792  2.8172  1.3675
 8609SOL    HW237290   3.745   4.363   7.215  1.1013 -0.3934  2.0048
 8610SOL     OW37291   4.091   2.716   5.953 -0.0815  0.1070 -0.2352
 8610SOL    HW137292   4.051   2.733   5.868 -0.6587  0.9386  0.1985
 8610SOL    HW237293   4.156   2.782   5.981 -1.6121  0.8847  1.5125
 8611SOL     OW37294   2.704   0.059   2.830  0.2912  0.2830  0.0737
 8611SOL    HW137295   2.785   0.082   2.877 -0.4986  3.0737  0.0759
 8611SOL    HW237296   2.724   0.078   2.738  0.6822 -0.8755 -0.0836
 8612SOL     OW37297   3.640   2.346   3.212 -0.2096 -0.2932 -0.4108
 8612SOL    HW137298   3.604   2.423   3.255 -0.3326 -0.6284  0.0995
 8612SOL    HW237299   3.632   2.287   3.288 -0.8614  0.1378 -0.1452
 8613SOL     OW37300   0.747   0.372   6.918 -0.4101  0.0311 -0.2505
 8613SOL    HW137301   0.793   0.414   6.991  0.0095  0.9328 -1.0297
 8613SOL    HW237302   0.777   0.281   6.917  3.6473  1.3966 -1.7446
 8614SOL     OW37303   0.210   2.527  11.070  0.3383 -0.1816 -0.2532
 8614SOL    HW137304   0.243   2.616  11.059 -1.1059  0.2653 -0.9412
 8614SOL    HW237305   0.243   2.487  10.990  1.4441  0.7499 -0.2542
 8615SOL     OW37306   1.149   2.712   6.992 -1.0700 -0.3882 -0.0985
 8615SOL    HW137307   1.091   2.761   7.051 -0.0818 -0.7480  1.1727
 8615SOL    HW237308   1.097   2.702   6.913  0.5048  1.5184 -1.3919
 8616SOL     OW37309   4.182   1.822   6.885  0.1919 -0.0464 -0.2439
 8616SOL    HW137310   4.245   1.883   6.847 -2.5797  3.1829  0.3390
 8616SOL    HW237311   4.232   1.765   6.944 -0.6912 -1.4873 -0.8994
 8617SOL     OW37312   3.605   3.899   5.865  0.5272 -0.1108  0.6680
 8617SOL    HW137313   3.659   3.924   5.940  0.0371 -0.6263  1.1884
 8617SOL    HW237314   3.589   3.979   5.815 -1.3405  0.1668  1.6900
 8618SOL     OW37315   3.553   2.685   9.387  0.5974 -0.0896  0.3607
 8618SOL    HW137316   3.630   2.636   9.413  0.9968  0.1002 -0.4688
 8618SOL    HW237317   3.557   2.711   9.295 -0.8341 -1.6545 -0.1593
 8619SOL     OW37318   4.219   2.278   7.834  0.1192 -0.0342 -0.1802
 8619SOL    HW137319   4.269   2.210   7.879 -1.2750 -0.9140  0.0476
 8619SOL    HW237320   4.216   2.353   7.893  1.0346  0.3748 -0.6593
 8620SOL     OW37321   0.219   4.051  15.575  0.2330 -0.5916 -0.7042
 8620SOL    HW137322   0.269   4.112  15.629 -2.0163  1.0981 -0.5182
 8620SOL    HW237323   0.157   4.016  15.639  2.4181 -1.3641  0.9686
 8621SOL     OW37324   1.195   4.220   3.320 -0.0618  0.1366  0.3243
 8621SOL    HW137325   1.152   4.166   3.253  0.7655 -0.7282  0.4924
 8621SOL    HW237326   1.223   4.143   3.370 -0.4333 -0.4552 -0.3830
 8622SOL     OW37327   1.276   4.004  12.744 -0.2760 -0.2214  0.4679
 8622SOL    HW137328   1.266   3.995  12.649  3.3674  1.9046 -0.1391
 8622SOL    HW237329   1.213   4.075  12.752  0.5402  0.6599 -0.8898
 8623SOL     OW37330   3.997   2.698   7.623 -0.5480  0.5529 -0.1102
 8623SOL    HW137331   3.964   2.771   7.676  0.4780 -0.0288  1.3585
 8623SOL    HW237332   4.091   2.714   7.617 -0.3419 -0.0603  1.2621
 8624SOL     OW37333   3.285   1.827   2.697 -0.5028 -0.0461  0.4660
 8624SOL    HW137334   3.296   1.759   2.631  1.8291  1.4221 -0.6765
 8624SOL    HW237335   3.229   1.779   2.758 -0.9856 -0.3795 -0.2311
 8625SOL     OW37336   1.841   2.515   6.702 -0.0623  0.1249  0.6165
 8625SOL    HW137337   1.858   2.516   6.608  1.7373  0.2980  0.9417
 8625SOL    HW237338   1.921   2.465   6.719  0.1821 -0.5127 -2.3779
 8626SOL     OW37339   2.416   3.525   6.364  0.5166  0.1359  0.1805
 8626SOL    HW137340   2.382   3.452   6.414  0.3378  0.9309  1.2168
 8626SOL    HW237341   2.456   3.577   6.434 -0.1450 -1.1422  1.4955
 8627SOL     OW37342   1.357   0.491   9.616 -0.0390  0.3284  0.1883
 8627SOL    HW137343   1.355   0.512   9.709 -0.8264  1.6667 -0.1324
 8627SOL    HW237344   1.419   0.418   9.617 -0.1869  0.1604 -4.1995
 8628SOL     OW37345   4.477   4.557   6.592 -0.6551 -0.4011 -0.5917
 8628SOL    HW137346   4.495   4.636   6.541  1.2711 -0.0014  0.7292
 8628SOL    HW237347   4.400   4.520   6.549 -1.1334  0.5444 -0.5590
 8629SOL     OW37348   1.936   2.131  15.391 -0.1468 -0.0505 -0.2136
 8629SOL    HW137349   1.989   2.169  15.322  0.4615  0.1134  0.3381
 8629SOL    HW237350   1.855   2.150  15.345 -0.3810  1.5151  0.8269
 8630SOL     OW37351   0.540   1.527  11.184 -0.7729  0.5289  0.4614
 8630SOL    HW137352   0.476   1.458  11.203 -1.2544  0.0567 -2.8806
 8630SOL    HW237353   0.563   1.494  11.097 -0.5580  0.4117  0.5615
 8631SOL     OW37354   3.316   2.455  13.672 -0.3245 -0.4732  0.2643
 8631SOL    HW137355   3.322   2.387  13.606 -0.5177  0.9402 -1.2112
 8631SOL    HW237356   3.344   2.532  13.623  0.0921  0.8021  2.4871
 8632SOL     OW37357   2.300   2.309  16.260 -0.2924  0.2121  0.0371
 8632SOL    HW137358   2.208   2.332  16.269 -0.8826 -0.4907 -4.0670
 8632SOL    HW237359   2.310   2.267  16.174 -1.1450  0.9945 -0.4452
 8633SOL     OW37360   4.347   4.612   4.669  0.2973 -0.8455  0.0361
 8633SOL    HW137361   4.254   4.634   4.664  0.3255 -0.9244 -0.8372
 8633SOL    HW237362   4.379   4.616   4.579  0.1286  0.6677  0.0356
 8634SOL     OW37363   1.453   0.482   5.847  0.3886  1.0589 -0.1897
 8634SOL    HW137364   1.421   0.538   5.775 -0.7068  0.0489 -0.4874
 8634SOL    HW237365   1.445   0.395   5.809 -1.1782  0.2377  2.0855
 8635SOL     OW37366   1.228   2.176   8.172  0.0750 -0.1615  0.3465
 8635SOL    HW137367   1.194   2.158   8.084 -0.7876 -0.8473  0.8271
 8635SOL    HW237368   1.229   2.271   8.171  1.6644 -0.1784 -0.4482
 8636SOL     OW37369   0.899   2.979   7.878  0.2331 -0.3580 -0.2551
 8636SOL    HW137370   0.993   2.997   7.886  0.3396 -0.8248 -0.4485
 8636SOL    HW237371   0.884   2.889   7.847  2.8201 -1.3325  1.2917
 8637SOL     OW37372   4.408   4.489   2.612  0.0918  0.1527 -0.1167
 8637SOL    HW137373   4.430   4.396   2.612 -2.4902 -0.4807 -2.6975
 8637SOL    HW237374   4.437   4.537   2.535  1.3112  0.7289  0.7055
 8638SOL     OW37375   3.294   0.566   6.923  0.1914 -0.1014  0.1099
 8638SOL    HW137376   3.238   0.635   6.887 -0.2235 -1.0374 -1.0141
 8638SOL    HW237377   3.306   0.597   7.013 -1.1029  0.1278  0.2089
 8639SOL     OW37378   3.298   3.103   3.982  0.0224  0.5219 -0.0642
 8639SOL    HW137379   3.254   3.110   4.067  1.5270 -1.3460  0.8839
 8639SOL    HW237380   3.290   3.008   3.971 -0.4939  0.5351  0.1883
 8640SOL     OW37381   0.583   2.075  10.608 -0.1328  0.0292 -0.0714
 8640SOL    HW137382   0.495   2.113  10.610 -1.0237 -2.0832  1.2438
 8640SOL    HW237383   0.593   2.071  10.513  0.6248  0.9370 -0.0220
 8641SOL     OW37384   4.159   3.858   4.647  0.2002  0.4555 -1.2042
 8641SOL    HW137385   4.233   3.910   4.678 -0.2776  0.1755  0.3960
 8641SOL    HW237386   4.100   3.860   4.722  1.0704  3.4260 -0.6185
 8642SOL     OW37387   2.808   1.442   2.724  0.1028  0.2307 -0.5233
 8642SOL    HW137388   2.803   1.353   2.759 -2.0150  0.2557 -0.7547
 8642SOL    HW237389   2.787   1.438   2.631  0.8141  1.8070 -0.7305
 8643SOL     OW37390   3.636   0.558   8.545 -0.5998  0.0031  0.2211
 8643SOL    HW137391   3.574   0.590   8.610  1.5433  0.4255  2.0415
 8643SOL    HW237392   3.585   0.500   8.489  0.8987 -2.8897  1.8639
 8644SOL     OW37393   2.574   4.004  12.330 -0.5108 -0.4580  0.3565
 8644SOL    HW137394   2.640   4.013  12.399  0.0584  0.4167 -0.2961
 8644SOL    HW237395   2.590   3.915  12.300 -1.1258 -0.2456 -0.6236
 8645SOL     OW37396   3.323   2.567  13.002 -0.3130 -0.2102  0.2166
 8645SOL    HW137397   3.384   2.494  12.992 -0.0210  0.1838 -0.9036
 8645SOL    HW237398   3.302   2.562  13.095  1.5690 -0.4023  0.6423
 8646SOL     OW37399   2.432   4.190   4.060  0.0455  0.2697 -0.2774
 8646SOL    HW137400   2.441   4.150   3.974  0.3019 -0.5971  0.1599
 8646SOL    HW237401   2.346   4.231   4.047  0.3962 -0.1805 -3.9026
 8647SOL     OW37402   0.291   1.384   9.366  0.5450 -0.0421 -0.4316
 8647SOL    HW137403   0.305   1.359   9.274 -0.8798  1.5719 -1.0958
 8647SOL    HW237404   0.217   1.445   9.361  0.3814  0.0796  3.5154
 8648SOL     OW37405   0.630   2.018  11.346 -0.0759 -0.2772  0.7518
 8648SOL    HW137406   0.714   2.014  11.301 -0.0980  2.1718  0.5021
 8648SOL    HW237407   0.589   1.940  11.308 -3.4846  1.3944  0.9367
 8649SOL     OW37408   1.307   3.938   5.639 -0.3132  0.3498 -0.2427
 8649SOL    HW137409   1.278   3.847   5.641  2.9492 -0.7247 -1.1059
 8649SOL    HW237410   1.400   3.927   5.660 -0.2266  0.9803 -0.2916
 8650SOL     OW37411   3.498   0.014   3.011 -0.3977 -0.6614  0.3600
 8650SOL    HW137412   3.532   0.087   2.958 -0.8245 -0.7297 -0.0047
 8650SOL    HW237413   3.551   4.663   2.979 -0.7304 -0.9027  0.3574
 8651SOL     OW37414   0.079   3.920  11.251 -0.3569  0.2563  0.2710
 8651SOL    HW137415   0.013   3.947  11.315  2.4010 -0.0963  3.2481
 8651SOL    HW237416   0.028   3.860  11.196 -0.9029 -0.1334  1.2012
 8652SOL     OW37417   3.969   1.267   6.963  0.4223 -0.1682 -0.2303
 8652SOL    HW137418   3.992   1.265   7.056 -1.7246  1.3534  0.3422
 8652SOL    HW237419   3.900   1.201   6.961 -0.3121  0.6101 -0.6073
 8653SOL     OW37420   2.448   2.689   9.588 -0.6160 -0.0528  0.4651
 8653SOL    HW137421   2.396   2.615   9.556  1.2793 -1.2285  0.0737
 8653SOL    HW237422   2.493   2.645   9.661 -3.5389 -2.0644  1.0580
 8654SOL     OW37423   3.795   4.100   7.789 -0.1808 -0.0251 -0.2217
 8654SOL    HW137424   3.837   4.122   7.872 -0.5303  3.4817 -0.9623
 8654SOL    HW237425   3.851   4.158   7.737 -0.7333  1.6914  1.1216
 8655SOL     OW37426   0.814   1.013   2.457 -0.5296  0.2874 -1.3963
 8655SOL    HW137427   0.899   1.005   2.413  0.7540 -0.0315  1.1410
 8655SOL    HW237428   0.795   0.920   2.470 -0.7458  0.5764  0.3757
 8656SOL     OW37429   1.656   4.211   8.131  0.1113 -0.2371  0.1738
 8656SOL    HW137430   1.704   4.272   8.074  1.3854 -2.0139 -0.6593
 8656SOL    HW237431   1.637   4.264   8.208 -0.5186 -1.2460  0.7047
 8657SOL     OW37432   1.692   4.330   7.808  0.3541  0.0182 -0.7832
 8657SOL    HW137433   1.599   4.323   7.828  0.5084 -1.9643 -0.7555
 8657SOL    HW237434   1.686   4.282   7.725 -2.3047  1.1022 -1.2136
 8658SOL     OW37435   0.816   3.819   8.426 -0.2475 -0.3204 -0.0329
 8658SOL    HW137436   0.720   3.820   8.422 -0.2788  3.0514  0.7126
 8658SOL    HW237437   0.815   3.812   8.521  1.3041  1.9868  0.1720
 8659SOL     OW37438   1.747   1.122  11.841 -0.5884  0.6481  0.6384
 8659SOL    HW137439   1.733   1.028  11.846 -2.3135  0.9163  0.8329
 8659SOL    HW237440   1.729   1.144  11.750  1.5088 -1.2704 -0.2139
 8660SOL     OW37441   0.393   2.093   6.431  0.3802 -0.2514 -0.0635
 8660SOL    HW137442   0.459   2.162   6.437 -0.3757  0.2774  2.1779
 8660SOL    HW237443   0.451   2.020   6.453 -0.1963 -0.8083 -0.3608
 8661SOL     OW37444   0.391   4.670  14.618  0.2873 -0.6562 -0.3814
 8661SOL    HW137445   0.412   0.030  14.572 -1.4723  1.0941  1.9045
 8661SOL    HW237446   0.313   4.691  14.669  0.8534 -2.5743  1.2972
 8662SOL     OW37447   0.173   0.505   9.711 -0.0329 -0.0678  0.6918
 8662SOL    HW137448   0.153   0.527   9.620 -0.7540 -2.2521  0.3177
 8662SOL    HW237449   0.266   0.485   9.704 -0.2501 -0.0604 -2.2429
 8663SOL     OW37450   3.071   1.424  13.679  0.2291 -0.2495 -0.0515
 8663SOL    HW137451   3.091   1.449  13.589 -2.1774  0.9521 -0.2407
 8663SOL    HW237452   2.984   1.461  13.695 -0.5454 -0.5280 -3.7314
 8664SOL     OW37453   1.518   3.574   3.056 -0.2101 -0.1858 -0.3587
 8664SOL    HW137454   1.552   3.495   3.098  0.5653 -0.5135 -1.5888
 8664SOL    HW237455   1.560   3.555   2.972  0.5345 -0.6673  0.1154
 8665SOL     OW37456   2.493   3.028   6.412 -0.1924 -0.0560 -1.0350
 8665SOL    HW137457   2.442   2.985   6.481 -1.2926  0.4719 -1.5119
 8665SOL    HW237458   2.550   3.086   6.463 -1.0469 -1.2764  1.3263
 8666SOL     OW37459   0.904   2.439   3.186  0.3413  0.2637 -0.1346
 8666SOL    HW137460   0.998   2.457   3.178  0.1867  1.5920  1.0745
 8666SOL    HW237461   0.908   2.345   3.203 -1.1852  0.4272  1.1288
 8667SOL     OW37462   1.703   1.298  12.381  0.3661  0.2120 -0.2788
 8667SOL    HW137463   1.705   1.314  12.476 -0.1592 -0.3478 -0.1734
 8667SOL    HW237464   1.610   1.306  12.364  0.1960 -0.2673  0.3916
 8668SOL     OW37465   1.232   2.136   3.408 -0.1364 -0.1996 -0.2910
 8668SOL    HW137466   1.214   2.141   3.502 -0.8690 -0.5902 -0.4136
 8668SOL    HW237467   1.315   2.179   3.385  0.7462 -2.3536 -1.0625
 8669SOL     OW37468   3.784   0.191   6.753 -0.7102 -0.4383 -0.5859
 8669SOL    HW137469   3.717   0.131   6.785 -0.1973 -1.6788 -1.8231
 8669SOL    HW237470   3.862   0.137   6.739  1.2066  1.8105  1.3419
 8670SOL     OW37471   1.495   1.822  16.269  0.3882 -0.3391 -0.2595
 8670SOL    HW137472   1.404   1.793  16.261  0.5258 -0.4008 -1.5690
 8670SOL    HW237473   1.511   1.811  16.175  2.3460 -0.1138  0.0482
 8671SOL     OW37474   1.932   1.936   7.371 -0.3051  0.4273  0.0959
 8671SOL    HW137475   1.990   2.007   7.344 -1.4901  1.3472 -0.0024
 8671SOL    HW237476   1.933   1.949   7.466  2.5111 -0.3166  0.1874
 8672SOL     OW37477   0.880   1.706  13.671 -0.5456  0.2601 -0.1162
 8672SOL    HW137478   0.973   1.682  13.676 -0.6087  0.8326  3.9022
 8672SOL    HW237479   0.894   1.775  13.606 -2.0841  1.8725  1.2506
 8673SOL     OW37480   0.310   3.354  13.449  0.3421  0.4082 -0.2565
 8673SOL    HW137481   0.353   3.384  13.529  0.0030 -3.4461  1.3488
 8673SOL    HW237482   0.250   3.429  13.449  0.1832  0.2831 -0.0418
 8674SOL     OW37483   3.180   0.646  15.166 -0.4651 -0.7630  0.3061
 8674SOL    HW137484   3.248   0.641  15.099 -0.4844  2.2187  0.0525
 8674SOL    HW237485   3.236   0.688  15.231 -1.2771  0.6985  0.0670
 8675SOL     OW37486   3.146   4.565   9.629  0.9755 -0.8258  0.0934
 8675SOL    HW137487   3.099   4.537   9.707  2.6424  0.1020  1.4296
 8675SOL    HW237488   3.233   4.590   9.660  1.3685 -2.7749  0.5897
 8676SOL     OW37489   1.935   3.631  17.523  0.6127 -0.1385 -0.4047
 8676SOL    HW137490   1.908   3.722  17.514 -0.5005 -0.6873 -2.6208
 8676SOL    HW237491   1.981   3.623  17.439  0.9013 -1.6211 -0.1010
 8677SOL     OW37492   3.171   0.152   8.002  0.2183  0.8819 -0.5754
 8677SOL    HW137493   3.214   0.138   7.917 -0.0213 -0.0705 -0.5381
 8677SOL    HW237494   3.216   0.232   8.029  0.0966  1.3330 -1.6898
 8678SOL     OW37495   2.331   2.348   1.099  0.1545 -0.3459  0.8058
 8678SOL    HW137496   2.375   2.265   1.083 -0.4942 -0.5857  0.2376
 8678SOL    HW237497   2.367   2.412   1.037 -0.5244 -1.8708 -1.1666
 8679SOL     OW37498   0.618   3.389   8.638 -0.5714 -0.7072  0.4124
 8679SOL    HW137499   0.535   3.343   8.653 -0.8793 -0.2588  0.0766
 8679SOL    HW237500   0.633   3.366   8.547 -0.2822 -1.2087  0.5819
 8680SOL     OW37501   1.235   2.286   5.383 -0.3099 -0.7997  0.1208
 8680SOL    HW137502   1.312   2.235   5.408  0.7825  1.0431  0.5156
 8680SOL    HW237503   1.220   2.252   5.294  1.3847 -0.0115 -0.4656
 8681SOL     OW37504   2.881   2.438   3.485 -0.0221  0.2561  0.4261
 8681SOL    HW137505   2.798   2.400   3.459 -0.9086  2.2599  0.2896
 8681SOL    HW237506   2.900   2.395   3.569  1.8999  0.2510 -0.0112
 8682SOL     OW37507   3.782   2.499   7.327  0.1361  0.7408  0.0343
 8682SOL    HW137508   3.729   2.509   7.248  1.1946 -0.3652 -0.8175
 8682SOL    HW237509   3.723   2.459   7.391 -2.8828  1.4282 -2.3501
 8683SOL     OW37510   1.889   2.075   4.494  0.0459  0.1367 -0.2317
 8683SOL    HW137511   1.866   2.139   4.561  1.4980 -1.6626  1.9789
 8683SOL    HW237512   1.896   1.997   4.548  0.0987 -0.5732 -1.2583
 8684SOL     OW37513   4.252   3.740   6.983  0.0970 -0.2201 -0.6989
 8684SOL    HW137514   4.313   3.756   6.911  0.3225 -1.3300 -0.7584
 8684SOL    HW237515   4.183   3.695   6.934  0.5524 -0.4847 -1.1017
 8685SOL     OW37516   3.041   0.852   2.804 -0.0855  0.3206 -0.1260
 8685SOL    HW137517   2.963   0.833   2.856  1.7748  0.4560  2.7200
 8685SOL    HW237518   3.093   0.772   2.816 -2.6052 -1.2958 -0.0119
 8686SOL     OW37519   1.893   2.097  17.667 -0.1011 -0.0594  0.0990
 8686SOL    HW137520   1.912   2.003  17.664 -0.8709 -0.1893 -0.5890
 8686SOL    HW237521   1.920   2.130  17.581  1.1219  2.5098  1.4519
 8687SOL     OW37522   2.709   2.915   5.739  0.3800 -0.1718 -0.4326
 8687SOL    HW137523   2.756   2.991   5.775  1.4189 -1.1162  0.1826
 8687SOL    HW237524   2.685   2.941   5.650 -2.7093  1.2399  0.7845
 8688SOL     OW37525   0.717   1.890   0.195 -0.4203 -0.1173 -0.5572
 8688SOL    HW137526   0.789   1.893   0.132 -0.4441 -1.3521 -0.6351
 8688SOL    HW237527   0.651   1.941   0.149  1.6307  0.1035 -3.1920
 8689SOL     OW37528   3.597   3.831  11.949 -0.3215 -0.2788  0.6879
 8689SOL    HW137529   3.609   3.788  12.035 -0.6380 -0.0117  0.8629
 8689SOL    HW237530   3.690   3.831  11.926 -1.5003 -0.7780 -4.0153
 8690SOL     OW37531   1.040   1.804   4.660  0.1669 -0.1027  0.4383
 8690SOL    HW137532   1.109   1.822   4.725  0.0110 -0.5111  0.7143
 8690SOL    HW237533   0.969   1.779   4.719 -1.9212  1.3395 -1.5085
 8691SOL     OW37534   1.118   0.961   1.111 -0.3479 -0.7832 -0.1038
 8691SOL    HW137535   1.212   0.956   1.125  0.0096 -0.3754 -2.3426
 8691SOL    HW237536   1.116   0.964   1.016 -1.4828  2.0097  0.0004
 8692SOL     OW37537   4.450   0.742   5.842  0.3624  0.1019 -0.5547
 8692SOL    HW137538   4.486   0.653   5.846  0.1089  0.0615  0.6521
 8692SOL    HW237539   4.478   0.782   5.924  0.6866 -1.5719  0.1525
 8693SOL     OW37540   3.034   3.718   1.971 -0.7456  0.1608 -0.2971
 8693SOL    HW137541   3.049   3.810   1.994 -0.6924 -0.0985  0.6968
 8693SOL    HW237542   2.938   3.717   1.970 -0.7990  3.3933  0.1137
 8694SOL     OW37543   2.640   1.426   5.178  0.3547 -0.4464 -0.1646
 8694SOL    HW137544   2.598   1.342   5.161  0.7047 -0.6545  0.0106
 8694SOL    HW237545   2.729   1.393   5.191  1.2025  1.6425 -0.7492
 8695SOL     OW37546   1.851   1.996   3.585  0.3486 -0.9371  0.3664
 8695SOL    HW137547   1.908   2.068   3.611 -1.3286  1.2567 -2.0299
 8695SOL    HW237548   1.818   1.972   3.672 -1.4127 -0.0076 -0.0412
 8696SOL     OW37549   0.364   0.871   2.608  0.7487 -0.0032 -0.5036
 8696SOL    HW137550   0.279   0.828   2.613  0.4926  0.2269 -3.1522
 8696SOL    HW237551   0.393   0.856   2.518 -0.6368 -0.6328 -0.8468
 8697SOL     OW37552   1.642   4.235   4.366 -0.4333 -0.3977 -0.2592
 8697SOL    HW137553   1.689   4.288   4.431 -3.9564  1.7624  0.5071
 8697SOL    HW237554   1.619   4.151   4.407  1.3759  0.1469  1.8953
 8698SOL     OW37555   1.853   0.934   4.627 -0.3174  0.0678  0.7586
 8698SOL    HW137556   1.828   0.984   4.550  0.4834  0.2614  0.6218
 8698SOL    HW237557   1.880   1.008   4.682  0.4232  1.4829 -1.5282
 8699SOL     OW37558   0.036   1.210  12.789 -0.6519  0.0513  0.3034
 8699SOL    HW137559   0.071   1.182  12.874  2.0439 -0.7190 -1.0682
 8699SOL    HW237560   0.097   1.280  12.765 -2.2342  1.1413 -0.5040
 8700SOL     OW37561   0.714   2.375   0.546 -0.1128  0.2695 -0.0026
 8700SOL    HW137562   0.631   2.377   0.593  0.3325 -0.5564  0.8209
 8700SOL    HW237563   0.707   2.288   0.509 -1.7952 -0.2799  1.6133
 8701SOL     OW37564   3.069   4.693   3.033  0.0413  0.1404  0.0015
 8701SOL    HW137565   3.153   0.016   3.026 -1.1017  1.8379 -2.8250
 8701SOL    HW237566   3.018   0.050   3.013  0.4990  0.2042 -0.9267
 8702SOL     OW37567   1.366   2.178   6.423  0.1185  0.7419  0.5295
 8702SOL    HW137568   1.449   2.225   6.427  0.2018  0.6540 -0.2775
 8702SOL    HW237569   1.311   2.254   6.443 -1.2571  0.5834 -2.6195
 8703SOL     OW37570   0.376   3.016  10.402  0.3833  0.2682  0.1299
 8703SOL    HW137571   0.320   3.029  10.325 -1.3309  0.0373  1.3407
 8703SOL    HW237572   0.451   3.071  10.380  0.2214  0.1173 -0.7867
 8704SOL     OW37573   2.062   1.695  16.934 -0.2733 -0.0473  1.2532
 8704SOL    HW137574   2.100   1.763  16.989 -0.1738 -1.4773  2.9486
 8704SOL    HW237575   2.131   1.688  16.868 -0.2591  3.3790  0.8965
 8705SOL     OW37576   0.856   3.286   5.132  0.4830 -0.4357 -0.0056
 8705SOL    HW137577   0.925   3.265   5.195  0.9650 -0.5515 -0.5719
 8705SOL    HW237578   0.910   3.289   5.053  1.8075 -0.8996  0.8797
 8706SOL     OW37579   1.479   4.246   1.633 -0.4601  0.0832 -0.0904
 8706SOL    HW137580   1.431   4.325   1.607  1.0862  1.0179 -0.1366
 8706SOL    HW237581   1.442   4.176   1.579  1.0264 -0.5755 -0.2475
 8707SOL     OW37582   2.493   0.391   3.423  0.5133 -0.4962 -0.3334
 8707SOL    HW137583   2.505   0.317   3.482  0.1638 -0.8873 -0.7538
 8707SOL    HW237584   2.477   0.455   3.492  2.4284 -1.0649  0.6429
 8708SOL     OW37585   2.816   3.529  12.172  0.5229  0.1962  0.4090
 8708SOL    HW137586   2.834   3.452  12.226 -2.8641 -0.6573  0.3389
 8708SOL    HW237587   2.736   3.505  12.126 -0.4538  3.8294  0.1955
 8709SOL     OW37588   4.133   1.435  12.299 -0.4243 -0.2922  0.1125
 8709SOL    HW137589   4.218   1.475  12.320  0.4854 -1.2377 -1.6755
 8709SOL    HW237590   4.075   1.496  12.343  0.5588  0.2737  0.6298
 8710SOL     OW37591   3.640   2.166  11.152  0.2626  0.2692  0.0793
 8710SOL    HW137592   3.711   2.117  11.193 -0.7102 -2.1016 -1.0489
 8710SOL    HW237593   3.650   2.241  11.210  0.7911  0.4487 -0.2464
 8711SOL     OW37594   3.923   3.383   9.450  0.3033  0.0953  0.2062
 8711SOL    HW137595   3.925   3.406   9.543 -0.5037  0.0162  0.2435
 8711SOL    HW237596   4.016   3.363   9.438  0.4030 -1.4451  3.4039
 8712SOL     OW37597   2.350   4.114   0.057  0.0716  0.5276  0.0361
 8712SOL    HW137598   2.390   4.123   0.144  1.1074  3.5924 -0.7698
 8712SOL    HW237599   2.258   4.095   0.075 -0.5833  2.9991 -0.6382
 8713SOL     OW37600   2.833   1.233   3.206 -0.4041 -0.4298  0.0820
 8713SOL    HW137601   2.905   1.220   3.144 -0.9290 -1.6530 -0.2720
 8713SOL    HW237602   2.802   1.318   3.174  2.4709  0.6428  0.1353
 8714SOL     OW37603   2.981   1.864   4.359 -0.0842  0.0649 -0.5079
 8714SOL    HW137604   2.892   1.876   4.325  0.1576 -0.2599 -1.2649
 8714SOL    HW237605   3.030   1.851   4.277  1.2915  1.8961  0.0193
 8715SOL     OW37606   0.121   1.686   1.918 -0.0515 -0.2198 -0.1208
 8715SOL    HW137607   0.093   1.595   1.927  0.3765 -0.5468 -2.1376
 8715SOL    HW237608   0.093   1.708   1.829 -1.0496  2.6983  0.9045
 8716SOL     OW37609   1.139   3.749  15.180  0.1640 -0.4238  0.1736
 8716SOL    HW137610   1.211   3.693  15.210 -0.5248 -0.5917  1.5276
 8716SOL    HW237611   1.177   3.836  15.189  0.6993 -0.3801 -2.7692
 8717SOL     OW37612   4.272   0.776   8.017 -0.3736 -0.3057  0.0449
 8717SOL    HW137613   4.279   0.840   8.087  0.9295 -1.0010  0.5513
 8717SOL    HW237614   4.178   0.782   7.999 -0.5642  0.4013  1.2624
 8718SOL     OW37615   0.955   1.096   7.757  0.0349 -0.2242  0.0209
 8718SOL    HW137616   0.869   1.095   7.715 -1.3427 -0.0972  2.8504
 8718SOL    HW237617   1.010   1.113   7.681  0.3162  0.1992  0.3177
 8719SOL     OW37618   3.682   1.633   2.920  0.3631 -0.1003  0.0012
 8719SOL    HW137619   3.746   1.675   2.863  0.8288  0.3320  0.8325
 8719SOL    HW237620   3.663   1.554   2.870 -0.2886 -0.0152  0.1044
 8720SOL     OW37621   0.953   3.264   2.354  0.4706  0.1395  0.3106
 8720SOL    HW137622   0.978   3.356   2.355 -0.7141  0.4733 -0.2501
 8720SOL    HW237623   0.870   3.260   2.306  2.2873 -0.4576 -2.7873
 8721SOL     OW37624   4.100   3.244   3.371  0.9440 -0.1139 -0.7511
 8721SOL    HW137625   4.190   3.232   3.404  0.7986  1.8335  0.3469
 8721SOL    HW237626   4.073   3.153   3.381  0.3760  0.1615  0.2694
 8722SOL     OW37627   3.560   4.387   8.028 -0.4124  0.0545 -0.1080
 8722SOL    HW137628   3.579   4.304   7.983  1.2339  0.1144  0.4828
 8722SOL    HW237629   3.645   4.426   8.008 -0.4866 -0.0904 -0.6894
 8723SOL     OW37630   2.768   4.136   8.599 -0.6121 -0.4543  0.4107
 8723SOL    HW137631   2.675   4.140   8.578 -1.1472 -3.0920  2.3208
 8723SOL    HW237632   2.788   4.053   8.555  0.4629  0.2308 -0.4330
 8724SOL     OW37633   3.321   2.685   6.805 -0.0332  0.2277 -0.1857
 8724SOL    HW137634   3.243   2.636   6.830 -2.2621  1.9904 -3.6597
 8724SOL    HW237635   3.387   2.629   6.845 -0.8158 -0.6635 -0.1494
 8725SOL     OW37636   0.764   1.913   1.711  0.4208  0.0647  0.1362
 8725SOL    HW137637   0.818   1.890   1.636 -0.6087 -1.9412  0.0104
 8725SOL    HW237638   0.741   1.826   1.744  2.5403 -0.0065  1.4591
 8726SOL     OW37639   3.467   2.153   8.791 -0.5505 -0.1725  0.0070
 8726SOL    HW137640   3.432   2.065   8.778  3.5194 -1.8107  0.3759
 8726SOL    HW237641   3.555   2.138   8.759 -0.9050 -1.5380 -0.2956
 8727SOL     OW37642   4.283   2.793   4.640 -0.5465  0.2084 -0.4239
 8727SOL    HW137643   4.194   2.797   4.675  0.0937 -1.6778  1.3948
 8727SOL    HW237644   4.331   2.839   4.708 -1.0788  2.0497 -1.2889
 8728SOL     OW37645   0.871   3.401   8.737  0.5083 -0.2170 -0.9399
 8728SOL    HW137646   0.853   3.449   8.817 -1.2463 -2.3539 -0.0376
 8728SOL    HW237647   0.785   3.404   8.694  1.4044  0.4526 -2.6701
 8729SOL     OW37648   1.374   3.798   4.498 -0.4662 -0.0028  0.5300
 8729SOL    HW137649   1.467   3.818   4.494 -0.6987  0.9682  0.1877
 8729SOL    HW237650   1.352   3.757   4.582 -0.6125  1.5847  1.2614
 8730SOL     OW37651   1.061   0.846   7.877  0.1439  0.3884 -0.4675
 8730SOL    HW137652   1.107   0.849   7.794  1.6024  1.3549  0.3794
 8730SOL    HW237653   1.003   0.922   7.871  0.9965  1.0821  0.0460
 8731SOL     OW37654   2.033   2.865  14.986  0.0306 -0.2842  0.3158
 8731SOL    HW137655   1.955   2.871  15.040  0.2020  1.9506  0.2974
 8731SOL    HW237656   2.035   2.769  14.975  0.9286  0.0662 -2.6255
 8732SOL     OW37657   1.889   4.206   8.472  0.5840  0.2158 -0.1218
 8732SOL    HW137658   1.972   4.247   8.496  0.3622  0.3204  0.4667
 8732SOL    HW237659   1.860   4.164   8.553  1.3655 -0.3563 -0.1381
 8733SOL     OW37660   0.455   3.493  16.328 -0.6544 -0.5192 -0.9216
 8733SOL    HW137661   0.452   3.586  16.349 -0.4444 -0.8916  0.7352
 8733SOL    HW237662   0.530   3.454  16.374 -1.9814 -0.8848  0.9442
 8734SOL     OW37663   0.038   2.116  10.877  0.4077 -0.4467 -0.4626
 8734SOL    HW137664   0.019   2.143  10.967 -2.2208  0.3961 -1.2699
 8734SOL    HW237665   0.125   2.081  10.894  0.7244  0.0227 -1.0827
 8735SOL     OW37666   1.095   4.029   3.651  0.2360 -0.5470 -0.5668
 8735SOL    HW137667   1.188   4.041   3.671 -0.3304  1.2048  1.0133
 8735SOL    HW237668   1.076   3.946   3.694 -2.2587  0.5555  0.4692
 8736SOL     OW37669   1.864   4.378   8.000  0.0360 -0.3526 -0.2952
 8736SOL    HW137670   1.799   4.366   7.931 -0.5003 -0.2396  0.1864
 8736SOL    HW237671   1.931   4.310   7.992  1.1656  0.8169 -0.6869
 8737SOL     OW37672   2.080   2.688   1.676  1.2907  0.2667 -0.3339
 8737SOL    HW137673   2.125   2.613   1.638 -3.7596 -1.3227 -3.1404
 8737SOL    HW237674   2.079   2.667   1.770 -1.5549 -0.6165 -0.5575
 8738SOL     OW37675   2.147   4.303   3.096 -0.3601 -0.0133 -0.5623
 8738SOL    HW137676   2.076   4.239   3.090 -1.6096  1.2307  0.8074
 8738SOL    HW237677   2.107   4.371   3.151  0.1153  0.6920 -1.0826
 8739SOL     OW37678   0.477   4.358   3.449 -0.5152 -0.4088 -0.1674
 8739SOL    HW137679   0.555   4.318   3.488 -0.2642  0.2490  0.0099
 8739SOL    HW237680   0.414   4.353   3.520 -0.0796 -3.6765 -0.0403
 8740SOL     OW37681   2.310   0.524   7.274  0.5118  0.3192  0.7170
 8740SOL    HW137682   2.386   0.571   7.308 -0.2732  1.0963  1.4090
 8740SOL    HW237683   2.245   0.590   7.300 -0.6095  0.1936 -1.8682
 8741SOL     OW37684   4.009   2.216   4.009 -0.0824  0.7031 -0.0712
 8741SOL    HW137685   4.104   2.226   4.007 -0.0815  0.6047 -0.5298
 8741SOL    HW237686   3.994   2.179   4.096  1.8858  0.7037  0.2684
 8742SOL     OW37687   3.535   0.899  17.277 -0.5386 -0.1903 -0.0654
 8742SOL    HW137688   3.489   0.823  17.242 -0.2375  1.1103 -3.3380
 8742SOL    HW237689   3.581   0.937  17.201 -0.0091  2.9301  1.8304
 8743SOL     OW37690   2.480   0.212   8.660 -0.3075  0.4623  0.3403
 8743SOL    HW137691   2.573   0.195   8.670  0.0512  0.7378 -2.3296
 8743SOL    HW237692   2.473   0.306   8.677  1.0533  0.2713  1.9422
 8744SOL     OW37693   0.376   2.440   2.105 -0.0935 -0.2750  0.7021
 8744SOL    HW137694   0.436   2.371   2.134  1.2691  1.1379  1.2500
 8744SOL    HW237695   0.411   2.519   2.147  0.1609 -1.1068  2.0719
 8745SOL     OW37696   0.950   3.419   4.559  0.4184 -0.0033 -0.3855
 8745SOL    HW137697   1.039   3.449   4.546  1.1723 -2.8666 -1.8544
 8745SOL    HW237698   0.955   3.330   4.524  0.4684  0.3022 -1.1543
 8746SOL     OW37699   1.108   3.444   2.560 -0.0163  0.0608  0.2083
 8746SOL    HW137700   1.059   3.485   2.489  1.3101  2.0236  0.4387
 8746SOL    HW237701   1.198   3.478   2.554  0.5169 -1.2522  0.7111
 8747SOL     OW37702   1.714   2.764   5.050  0.2902  0.0761  0.0895
 8747SOL    HW137703   1.627   2.762   5.012  0.4561  0.0442 -0.2902
 8747SOL    HW237704   1.704   2.696   5.117  4.1911  0.0028  0.5994
 8748SOL     OW37705   0.216   3.303   3.630 -0.2344 -0.2888 -0.1514
 8748SOL    HW137706   0.282   3.247   3.671  0.6586  0.6965 -0.2494
 8748SOL    HW237707   0.269   3.382   3.618  1.7444 -1.7419 -1.1214
 8749SOL     OW37708   3.600   1.571  14.766 -0.0962 -0.1989  0.0201
 8749SOL    HW137709   3.586   1.515  14.843 -0.2480 -0.6564 -0.3413
 8749SOL    HW237710   3.547   1.648  14.785  0.0294 -0.4785  1.5178
 8750SOL     OW37711   1.382   0.197   5.783  0.5724  0.2444 -0.2496
 8750SOL    HW137712   1.375   0.201   5.878 -0.4405 -1.5023 -0.2411
 8750SOL    HW237713   1.325   0.125   5.755  3.6404 -2.0390 -0.6624
 8751SOL     OW37714   4.354   4.073   5.468 -0.2311  0.1382  0.6529
 8751SOL    HW137715   4.397   4.007   5.522  1.4629  0.7454  0.0480
 8751SOL    HW237716   4.297   4.124   5.526 -0.7914 -1.3494  1.4039
 8752SOL     OW37717   3.272   4.259   8.755  0.6515 -0.4884  0.9442
 8752SOL    HW137718   3.278   4.227   8.845 -0.3011 -0.0515  1.1615
 8752SOL    HW237719   3.244   4.351   8.761  0.5490 -0.4490 -0.2274
 8753SOL     OW37720   2.272   0.442   4.640  0.2477  0.4143 -0.7257
 8753SOL    HW137721   2.190   0.400   4.668  0.2986  0.9623  0.2442
 8753SOL    HW237722   2.318   0.439   4.724 -1.7946  0.9442  0.4216
 8754SOL     OW37723   0.839   1.413  12.832  0.0145  0.4069 -0.1096
 8754SOL    HW137724   0.919   1.374  12.797  0.1896 -1.9109  2.9828
 8754SOL    HW237725   0.877   1.490  12.874  2.3368 -1.6986  1.6179
 8755SOL     OW37726   2.585   3.488   4.124  0.0285  0.5200 -0.0410
 8755SOL    HW137727   2.547   3.562   4.171 -1.9056 -1.1759  1.0520
 8755SOL    HW237728   2.581   3.539   4.043 -0.0710 -0.4460 -0.6559
 8756SOL     OW37729   0.511   2.132  17.507 -0.1171  0.2492  0.7563
 8756SOL    HW137730   0.498   2.072  17.433  1.9489 -1.9085  2.1504
 8756SOL    HW237731   0.518   2.216  17.460  1.4896  0.1248  0.7677
 8757SOL     OW37732   2.984   0.377   4.400  0.2192 -0.9424  0.1288
 8757SOL    HW137733   2.929   0.357   4.477 -1.0712 -1.8288 -1.0153
 8757SOL    HW237734   3.071   0.359   4.435  0.1930  3.1122  2.2680
 8758SOL     OW37735   3.186   2.462   8.704  0.7628 -0.5161  0.9221
 8758SOL    HW137736   3.173   2.549   8.666  1.3362 -1.8892 -2.4423
 8758SOL    HW237737   3.193   2.418   8.619 -1.4303 -3.5048  2.2671
 8759SOL     OW37738   0.147   3.210   2.753 -0.0276 -0.8420 -0.1021
 8759SOL    HW137739   0.069   3.261   2.731  1.0939  1.5838  1.5383
 8759SOL    HW237740   0.206   3.256   2.694  0.2653 -0.5831  0.3953
 8760SOL     OW37741   0.797   0.141   5.007  0.1007 -0.1363  0.4854
 8760SOL    HW137742   0.742   0.158   5.084 -2.2083  0.7923 -1.3562
 8760SOL    HW237743   0.842   0.226   5.004 -0.0801  0.0171  1.8492
 8761SOL     OW37744   3.811   0.125  14.976 -0.0808 -0.5591  0.1363
 8761SOL    HW137745   3.858   0.078  14.907 -1.0861 -1.6611  0.1987
 8761SOL    HW237746   3.721   0.123  14.943 -0.0425  0.3434 -0.0228
 8762SOL     OW37747   3.076   0.419   2.606  0.3329  0.3106  0.0875
 8762SOL    HW137748   3.089   0.426   2.511  0.4011  1.8089  0.2074
 8762SOL    HW237749   3.101   0.329   2.626 -1.9387 -0.6983 -1.6322
 8763SOL     OW37750   4.575   1.619   1.859 -0.3973 -0.8105  0.0841
 8763SOL    HW137751   4.617   1.633   1.774  1.4355 -0.3295  1.0780
 8763SOL    HW237752   4.613   1.531   1.864  0.0065 -0.5973  0.7956
 8764SOL     OW37753   0.345   3.803   3.179 -0.1491 -0.2694  0.1147
 8764SOL    HW137754   0.303   3.887   3.192 -0.9817 -0.6412 -0.2081
 8764SOL    HW237755   0.352   3.765   3.267  0.4847  1.6219  0.8767
 8765SOL     OW37756   2.665   0.865  14.791 -0.8840  0.2449 -0.3288
 8765SOL    HW137757   2.720   0.797  14.829  1.3406  3.1353  1.6213
 8765SOL    HW237758   2.729   0.912  14.737  0.9929  0.8796  2.4702
 8766SOL     OW37759   1.339   4.013   4.899 -0.1266 -0.3662 -0.0189
 8766SOL    HW137760   1.375   3.975   4.979 -0.9053 -0.7935  0.1320
 8766SOL    HW237761   1.399   3.976   4.834  1.7927  3.3477 -0.3353
 8767SOL     OW37762   1.667   3.984   4.483 -0.1719 -0.4647  0.3676
 8767SOL    HW137763   1.721   3.932   4.424 -0.7162 -0.2115 -0.3578
 8767SOL    HW237764   1.699   3.950   4.566  0.7335  2.4286  1.2043
 8768SOL     OW37765   3.369   2.992   8.045  0.2861 -0.1305  0.1950
 8768SOL    HW137766   3.448   3.023   8.089  0.9226 -0.7737 -0.5042
 8768SOL    HW237767   3.302   3.037   8.097 -0.9574  0.3896 -1.8829
 8769SOL     OW37768   3.535   3.089   2.334 -0.8663  0.1569 -0.1529
 8769SOL    HW137769   3.528   3.131   2.420 -0.4709  2.0069 -1.0082
 8769SOL    HW237770   3.522   3.165   2.277 -3.1709  0.1773  0.3837
 8770SOL     OW37771   4.066   0.638   8.344  0.3221  0.2916  0.2816
 8770SOL    HW137772   4.066   0.586   8.425 -0.9074 -0.6172 -0.3033
 8770SOL    HW237773   3.996   0.699   8.366  1.6013  2.6533 -2.1309
 8771SOL     OW37774   3.105   0.652  13.064  0.4609  0.1384 -0.1739
 8771SOL    HW137775   3.070   0.739  13.081 -1.8695 -0.5196 -1.6543
 8771SOL    HW237776   3.111   0.648  12.968 -0.4042  0.8395 -0.2537
 8772SOL     OW37777   4.420   0.896   3.054  0.1943 -0.1625  0.5913
 8772SOL    HW137778   4.511   0.867   3.056  0.7896  1.6880  0.6395
 8772SOL    HW237779   4.379   0.826   3.104  0.2792 -0.4952  0.1947
 8773SOL     OW37780   2.933   0.340  14.083 -0.5149  0.0829 -0.0713
 8773SOL    HW137781   2.923   0.334  13.988  0.3341 -0.0003 -0.1538
 8773SOL    HW237782   2.841   0.351  14.110 -0.9876 -0.7813 -1.3700
 8774SOL     OW37783   4.334   1.623   6.655 -0.0864 -0.4860  0.1185
 8774SOL    HW137784   4.399   1.565   6.617 -0.7966  0.5851 -2.6792
 8774SOL    HW237785   4.273   1.555   6.685  0.6244 -1.5303 -0.8155
 8775SOL     OW37786   4.656   0.040  13.314 -0.3222 -0.0496  0.0566
 8775SOL    HW137787   0.022   0.056  13.278  0.7353 -1.1329  2.1679
 8775SOL    HW237788   4.609   0.115  13.277 -2.6322 -1.4668  0.0896
 8776SOL     OW37789   3.139   2.320   4.430 -0.4694 -0.4427  0.3738
 8776SOL    HW137790   3.119   2.249   4.369 -0.1607  1.1949 -1.6341
 8776SOL    HW237791   3.144   2.282   4.517  1.6574 -3.8013 -1.2354
 8777SOL     OW37792   3.846   0.694  15.763 -0.5484 -0.1416 -0.7146
 8777SOL    HW137793   3.750   0.699  15.756 -0.4692  1.0076 -1.0249
 8777SOL    HW237794   3.874   0.645  15.686 -2.0330  0.0113 -1.3529
 8778SOL     OW37795   4.377   2.930   8.906  0.0808 -0.1638 -0.4505
 8778SOL    HW137796   4.412   3.009   8.864 -2.0948  0.4772 -1.0652
 8778SOL    HW237797   4.285   2.952   8.918 -0.4336 -3.1799  1.0048
 8779SOL     OW37798   0.224   4.696   3.485 -0.5754 -0.1255  0.1259
 8779SOL    HW137799   0.190   4.673   3.399 -1.2492 -0.2350  0.4228
 8779SOL    HW237800   0.227   4.609   3.526 -1.3054  0.5569  1.6085
 8780SOL     OW37801   2.161   2.125   7.082  0.2285 -0.1550  0.0017
 8780SOL    HW137802   2.206   2.042   7.101 -0.1686 -0.3107  0.2616
 8780SOL    HW237803   2.236   2.176   7.052 -1.3401  1.7353 -0.6815
 8781SOL     OW37804   1.111   4.064  14.061  0.2290  0.2967  0.0279
 8781SOL    HW137805   1.085   3.986  14.109 -3.4847  0.2161 -2.1619
 8781SOL    HW237806   1.053   4.050  13.986 -0.6520  0.2097  0.7358
 8782SOL     OW37807   2.998   1.734   2.974 -0.0258  0.4929  0.4882
 8782SOL    HW137808   3.032   1.675   3.041 -1.0308 -2.5853 -1.7428
 8782SOL    HW237809   2.903   1.725   2.976 -0.0069  0.0238 -0.6265
 8783SOL     OW37810   0.687   1.473  16.619  0.1123  0.2135 -0.5199
 8783SOL    HW137811   0.712   1.502  16.532 -1.0301 -0.0179 -0.9311
 8783SOL    HW237812   0.631   1.405  16.581 -0.5291 -0.0158  0.8316
 8784SOL     OW37813   2.834   3.124   5.859  0.0877 -0.2270 -0.0738
 8784SOL    HW137814   2.840   3.203   5.805  0.7056  0.1558  0.5474
 8784SOL    HW237815   2.926   3.099   5.865  0.2336  0.3722  0.1879
 8785SOL     OW37816   2.329   2.924   3.550  0.1319  0.5210 -0.7934
 8785SOL    HW137817   2.285   2.875   3.619  1.6911 -1.2433 -1.0513
 8785SOL    HW237818   2.417   2.887   3.546 -0.5495 -1.2161  0.5283
 8786SOL     OW37819   1.115   3.801   2.633 -0.5139  0.3689 -0.6322
 8786SOL    HW137820   1.171   3.877   2.649 -0.0383  0.2822 -1.8605
 8786SOL    HW237821   1.171   3.724   2.644 -0.5580  0.3774 -0.3525
 8787SOL     OW37822   0.949   3.924   4.850  0.0848 -0.3540 -0.9589
 8787SOL    HW137823   1.015   3.874   4.802  1.6126 -0.3938  1.2024
 8787SOL    HW237824   0.982   3.912   4.939  0.2433 -2.5731 -1.3130
 8788SOL     OW37825   0.737   1.772  15.958  0.4343 -0.4873  0.4064
 8788SOL    HW137826   0.700   1.819  15.883 -0.4572  0.9621  1.7619
 8788SOL    HW237827   0.826   1.808  15.965  0.5652 -1.0067  1.4000
 8789SOL     OW37828   4.340   4.388   9.381 -0.0673  0.1572 -0.3351
 8789SOL    HW137829   4.334   4.303   9.423 -1.5055  0.3187 -0.2034
 8789SOL    HW237830   4.401   4.366   9.311  0.5793 -2.5253  1.0832
 8790SOL     OW37831   4.674   0.503   1.959 -0.1991 -0.4730 -0.1521
 8790SOL    HW137832   4.635   0.490   1.873 -0.5635 -0.5407  0.0235
 8790SOL    HW237833   4.684   0.414   1.992  1.9891 -0.3222 -0.3840
 8791SOL     OW37834   0.943   4.652   0.530  0.3574 -0.4092 -0.7492
 8791SOL    HW137835   1.031   4.615   0.530  1.8840  3.1454 -0.2430
 8791SOL    HW237836   0.894   4.570   0.527 -1.4115  0.6199 -0.3193
 8792SOL     OW37837   3.230   0.932  16.157 -0.3377 -0.0858 -0.3183
 8792SOL    HW137838   3.198   0.842  16.165 -1.1150  0.0706 -1.7740
 8792SOL    HW237839   3.260   0.945  16.247 -3.2028  2.2160  0.2889
 8793SOL     OW37840   1.990   2.373  13.792  0.3348 -0.3079 -0.5905
 8793SOL    HW137841   2.000   2.430  13.868 -1.3834  0.3800 -0.8734
 8793SOL    HW237842   1.909   2.329  13.820 -0.7916  2.4936  0.4755
 8794SOL     OW37843   3.752   4.057   2.428  0.4644  0.2270  0.3903
 8794SOL    HW137844   3.668   4.010   2.428 -0.1468  1.3109 -0.6580
 8794SOL    HW237845   3.732   4.128   2.489  0.2215  0.0371  0.5338
 8795SOL     OW37846   3.858   0.901  17.402 -0.2682  0.2260 -0.2171
 8795SOL    HW137847   3.783   0.845  17.419  0.9326 -1.5378 -0.6971
 8795SOL    HW237848   3.864   0.905  17.307  1.3200  1.3159 -0.0656
 8796SOL     OW37849   1.551   4.683   2.081 -0.0035  0.5772 -0.0525
 8796SOL    HW137850   1.531   0.024   2.011  0.8920  0.8582 -0.0581
 8796SOL    HW237851   1.487   4.615   2.060 -0.2989  1.1372 -0.9592
 8797SOL     OW37852   4.059   4.602   6.334  0.2748  0.2524 -0.7239
 8797SOL    HW137853   4.012   4.611   6.251 -0.5925 -1.7802 -0.4607
 8797SOL    HW237854   4.121   4.675   6.332 -0.7181  1.1452  0.9846
 8798SOL     OW37855   0.393   3.602   8.388 -0.4434 -0.0281 -0.7492
 8798SOL    HW137856   0.455   3.601   8.461  0.3140  3.2838 -1.3760
 8798SOL    HW237857   0.314   3.569   8.432 -0.9779  1.6363 -0.4731
 8799SOL     OW37858   2.570   2.865   7.627 -0.0078 -0.1338  0.7387
 8799SOL    HW137859   2.531   2.861   7.714  1.2696  0.4610  1.3474
 8799SOL    HW237860   2.662   2.889   7.641  0.8805 -3.3748  0.4596
 8800SOL     OW37861   1.221   1.510  17.045  0.0424  0.2543 -0.4134
 8800SOL    HW137862   1.282   1.442  17.016  0.2215  0.8188 -1.3907
 8800SOL    HW237863   1.277   1.563  17.101  0.4713 -1.9893  1.2740
 8801SOL     OW37864   2.377   4.272   1.099  0.2492 -0.0327  0.4940
 8801SOL    HW137865   2.338   4.248   1.015 -0.3601 -1.2903  1.1403
 8801SOL    HW237866   2.316   4.233   1.162  0.3563 -0.1570  0.5209
 8802SOL     OW37867   0.511   0.144  14.806  0.4428 -0.4490  0.1729
 8802SOL    HW137868   0.426   0.122  14.844 -0.5921  0.7250 -1.4489
 8802SOL    HW237869   0.559   0.187  14.877  0.6848  1.5852 -1.2300
 8803SOL     OW37870   0.562   4.575   7.202 -0.0035 -0.1941  0.1013
 8803SOL    HW137871   0.482   4.533   7.171  0.5271  0.0574 -1.5690
 8803SOL    HW237872   0.613   4.558   7.123  0.5157 -1.3003  0.6841
 8804SOL     OW37873   4.128   1.171   5.554 -0.4762  0.3950 -0.2315
 8804SOL    HW137874   4.106   1.078   5.553 -1.5608  0.6395  2.2741
 8804SOL    HW237875   4.216   1.173   5.515 -1.6847  2.3029 -2.8174
 8805SOL     OW37876   2.980   1.222   0.759 -0.1778 -0.3287 -0.2917
 8805SOL    HW137877   2.905   1.179   0.798  0.0802 -1.7740 -1.4080
 8805SOL    HW237878   3.028   1.230   0.842 -1.2701  1.3140  0.1921
 8806SOL     OW37879   1.941   3.287   0.440 -0.2780  0.3501 -1.2160
 8806SOL    HW137880   2.031   3.291   0.408 -0.0297 -0.6633 -0.6373
 8806SOL    HW237881   1.894   3.301   0.358 -0.4772  0.5004 -1.0748
 8807SOL     OW37882   2.957   3.809   3.295 -0.6787  0.2001  0.0699
 8807SOL    HW137883   3.011   3.868   3.242 -2.2958 -0.4654 -2.3197
 8807SOL    HW237884   2.868   3.831   3.265 -1.4995  0.8202  2.9764
 8808SOL     OW37885   3.199   3.378  11.420 -0.2696 -0.5653 -0.1259
 8808SOL    HW137886   3.255   3.313  11.377 -1.0832 -0.8876 -0.6988
 8808SOL    HW237887   3.128   3.385  11.357  0.0690 -2.4647 -0.7126
 8809SOL     OW37888   3.008   1.473  12.102  0.7969  0.0683 -0.3966
 8809SOL    HW137889   3.019   1.521  12.183  1.2448 -0.2154 -0.2934
 8809SOL    HW237890   2.915   1.448  12.102  1.1031 -1.1003 -2.4608
 8810SOL     OW37891   2.660   3.105   9.314 -1.0141  0.2832 -0.5066
 8810SOL    HW137892   2.737   3.072   9.268 -1.4333  0.2860 -1.2060
 8810SOL    HW237893   2.681   3.069   9.400 -0.6412  2.4205  0.2831
 8811SOL     OW37894   1.916   1.619   6.702  0.0745 -0.6163  0.8175
 8811SOL    HW137895   1.949   1.691   6.757  0.3066 -1.7361  2.1628
 8811SOL    HW237896   1.901   1.545   6.761  0.4087 -1.1042  0.2867
 8812SOL     OW37897   4.690   4.583   6.213 -0.2266 -0.5549  0.3655
 8812SOL    HW137898   0.006   4.597   6.300  1.0856  0.6323 -0.3808
 8812SOL    HW237899   4.652   4.499   6.239  2.8705 -1.6150  1.4820
 8813SOL     OW37900   0.383   3.533   8.092  0.0961  0.5993  0.4106
 8813SOL    HW137901   0.407   3.528   8.184 -0.0701  1.4064  0.4999
 8813SOL    HW237902   0.300   3.486   8.094  0.3997  0.0460  0.0150
 8814SOL     OW37903   2.390   2.398  12.045  0.8286  0.0227 -0.7586
 8814SOL    HW137904   2.338   2.465  12.090  1.7909  1.4867 -1.8340
 8814SOL    HW237905   2.441   2.375  12.122 -1.1250  1.6157  1.0182
 8815SOL     OW37906   2.346   3.619   8.737  0.0498 -0.3008 -0.2909
 8815SOL    HW137907   2.273   3.646   8.794  1.0337  1.1186  0.3063
 8815SOL    HW237908   2.331   3.681   8.666 -0.0910  0.6402  0.5480
 8816SOL     OW37909   3.470   3.541   1.603  1.1262  0.3280 -0.0493
 8816SOL    HW137910   3.535   3.484   1.561 -0.5687 -0.5056 -1.5675
 8816SOL    HW237911   3.421   3.477   1.654  0.2566  1.9197  1.0999
 8817SOL     OW37912   3.692   0.991  10.076  0.0324 -0.6231  1.1760
 8817SOL    HW137913   3.744   0.962  10.001 -1.9396  1.1658 -0.8804
 8817SOL    HW237914   3.607   0.991  10.030  0.8304  2.9513 -0.2775
 8818SOL     OW37915   0.409   1.156   7.063 -0.7026 -0.8857 -0.0198
 8818SOL    HW137916   0.418   1.135   7.156  1.1431  0.6588  0.1438
 8818SOL    HW237917   0.316   1.138   7.058 -0.8225 -0.1641 -0.4185
 8819SOL     OW37918   1.044   0.173   7.885  0.3049  0.1272  0.1298
 8819SOL    HW137919   1.020   0.083   7.861  0.2568 -0.1520  1.2271
 8819SOL    HW237920   0.956   0.205   7.904 -0.4533 -2.1134  0.3458
 8820SOL     OW37921   4.638   3.650   6.621  0.0295 -0.9999  0.4563
 8820SOL    HW137922   4.706   3.633   6.686  0.6005  2.2212  0.7369
 8820SOL    HW237923   4.647   3.571   6.569  1.6630  0.0818 -0.9207
 8821SOL     OW37924   2.523   1.998   7.618  0.2500  0.3880 -0.5118
 8821SOL    HW137925   2.466   1.931   7.580  0.6035 -0.7263  0.9182
 8821SOL    HW237926   2.466   2.038   7.684 -0.3971  0.4114 -1.0870
 8822SOL     OW37927   0.769   1.714  15.549 -0.2827  0.2811 -0.2149
 8822SOL    HW137928   0.780   1.788  15.489 -1.3921  2.6507  2.5170
 8822SOL    HW237929   0.692   1.736  15.602 -0.7168 -1.4374 -0.1308
 8823SOL     OW37930   1.860   3.991   9.051 -0.6397 -0.0367  0.1963
 8823SOL    HW137931   1.944   3.944   9.052 -0.3596  0.4999  1.5541
 8823SOL    HW237932   1.889   4.082   9.053  0.2959 -0.2983 -1.3478
 8824SOL     OW37933   0.289   1.333  13.986 -0.0647  0.8310  0.0313
 8824SOL    HW137934   0.203   1.366  13.961 -0.9941  0.2438  2.4290
 8824SOL    HW237935   0.277   1.241  13.961 -1.1873  0.7722  0.8323
 8825SOL     OW37936   0.506   0.013   8.044  0.3254  0.1801 -0.0914
 8825SOL    HW137937   0.434   0.006   7.981 -1.0244 -0.6219  1.5408
 8825SOL    HW237938   0.453   4.692   8.112 -0.8114  0.8279 -0.5799
 8826SOL     OW37939   4.112   4.531   4.071  0.1695 -0.0280  0.5601
 8826SOL    HW137940   4.044   4.580   4.024  0.8989  0.5361  0.0884
 8826SOL    HW237941   4.066   4.503   4.151 -0.7855 -0.5666 -0.1786
 8827SOL     OW37942   2.599   2.877   3.100 -0.0335  0.1043  0.6172
 8827SOL    HW137943   2.534   2.925   3.152  1.3327  1.8034  0.7481
 8827SOL    HW237944   2.541   2.846   3.030 -1.3364  1.1570  1.2098
 8828SOL     OW37945   2.998   4.675   7.003 -0.3163 -0.3377  0.7047
 8828SOL    HW137946   3.061   4.657   7.073  0.7599  2.1471  0.3576
 8828SOL    HW237947   2.918   4.681   7.054 -1.5610  1.8261 -1.5027
 8829SOL     OW37948   1.757   2.308  16.947 -0.3142 -0.6276  0.0306
 8829SOL    HW137949   1.781   2.389  16.902  0.4488 -0.5140  0.6486
 8829SOL    HW237950   1.700   2.264  16.883 -0.1873  0.8114 -1.0589
 8830SOL     OW37951   1.613   4.247  17.527 -0.0921  0.2506  0.5225
 8830SOL    HW137952   1.668   4.318  17.493  0.2248 -0.9108 -1.3652
 8830SOL    HW237953   1.667   4.208  17.596  1.4858  0.5109 -0.5627
 8831SOL     OW37954   3.157   0.761  13.404 -0.2337  0.3385 -0.3884
 8831SOL    HW137955   3.083   0.738  13.460  0.5980 -1.7424 -0.1702
 8831SOL    HW237956   3.160   0.857  13.401 -0.6879  0.3061 -1.8389
 8832SOL     OW37957   3.012   1.227   6.209  0.4165  0.2580  0.2054
 8832SOL    HW137958   3.100   1.263   6.211  1.0183 -1.3059  1.9276
 8832SOL    HW237959   3.016   1.170   6.285  1.5705  0.4552  0.2871
 8833SOL     OW37960   2.389   0.065   2.786 -0.6836  0.5564 -0.1007
 8833SOL    HW137961   2.382   0.074   2.691 -1.4484  0.0967 -0.0899
 8833SOL    HW237962   2.462   0.004   2.795 -1.3768  0.2948  3.9033
 8834SOL     OW37963   0.984   0.075   6.565 -0.7491 -0.3603  0.5700
 8834SOL    HW137964   1.005   4.714   6.520  1.8810  0.3037  0.5561
 8834SOL    HW237965   1.073   0.109   6.573 -0.6538 -0.1475 -1.4800
 8835SOL     OW37966   2.399   4.281   2.119  0.2806 -0.3281 -0.3489
 8835SOL    HW137967   2.363   4.310   2.035 -1.2166 -0.1175  0.3646
 8835SOL    HW237968   2.370   4.349   2.179 -1.5997 -1.8480  0.4688
 8836SOL     OW37969   4.281   2.787   3.310 -0.3823  0.0845  0.1688
 8836SOL    HW137970   4.234   2.869   3.293 -1.2041 -0.3446  0.3988
 8836SOL    HW237971   4.229   2.723   3.263 -0.7726 -0.0131  0.7379
 8837SOL     OW37972   1.585   2.010   4.907  0.0416  0.2714  0.9802
 8837SOL    HW137973   1.572   1.965   4.990 -1.2462 -0.6493  0.2795
 8837SOL    HW237974   1.591   1.938   4.844 -0.8576  1.0513  0.0048
 8838SOL     OW37975   2.447   3.352  12.814  0.4179 -0.1696  0.1702
 8838SOL    HW137976   2.502   3.329  12.888 -0.5831 -0.4956  0.8112
 8838SOL    HW237977   2.450   3.271  12.763  1.9948 -0.3493  0.5637
 8839SOL     OW37978   1.840   3.542   0.884  0.1089  0.4803  0.3616
 8839SOL    HW137979   1.893   3.614   0.919 -0.8274  1.4357 -0.2086
 8839SOL    HW237980   1.913   3.481   0.874  0.9868  1.6847 -0.5532
 8840SOL     OW37981   4.474   3.506   7.508  0.4973 -0.4089 -0.2439
 8840SOL    HW137982   4.478   3.591   7.463 -1.4660 -0.0900  0.1973
 8840SOL    HW237983   4.450   3.522   7.599 -0.1107  1.0831 -0.6689
 8841SOL     OW37984   1.263   2.970   8.601 -0.3699 -0.1762  0.0860
 8841SOL    HW137985   1.254   3.024   8.522 -0.4223 -2.4202 -1.4516
 8841SOL    HW237986   1.270   3.032   8.674 -2.5475  1.9536 -1.5121
 8842SOL     OW37987   0.953   0.740   2.261 -0.0427  0.5726  0.2005
 8842SOL    HW137988   0.925   0.770   2.174  0.6423  0.9324  0.1059
 8842SOL    HW237989   0.868   0.747   2.305 -1.0247 -1.7115 -1.2608
 8843SOL     OW37990   0.596   3.753   2.662 -0.0789  0.2904  0.4929
 8843SOL    HW137991   0.688   3.763   2.687  0.1188  1.9831 -0.9384
 8843SOL    HW237992   0.593   3.672   2.611 -0.4419  0.9955 -0.5844
 8844SOL     OW37993   0.741   0.415  12.014 -0.2609  0.4335 -0.6672
 8844SOL    HW137994   0.779   0.501  12.032 -0.7766  0.4407  0.3623
 8844SOL    HW237995   0.767   0.369  12.094 -0.6326 -0.6258 -1.1516
 8845SOL     OW37996   1.179   4.612   1.259 -0.8193 -0.2827 -0.3659
 8845SOL    HW137997   1.248   4.583   1.199  0.6060  0.6471  0.8084
 8845SOL    HW237998   1.100   4.568   1.228 -0.6774 -1.1077  0.4300
 8846SOL     OW37999   4.140   4.538   3.525 -0.5295 -0.0134 -0.0593
 8846SOL    HW138000   4.156   4.623   3.483  1.3205 -0.2811  0.0751
 8846SOL    HW238001   4.173   4.481   3.455  0.8083 -1.3595  1.6715
 8847SOL     OW38002   3.489   3.455   6.538 -0.1922  0.1298  0.2226
 8847SOL    HW138003   3.453   3.544   6.546  1.2641  0.8547 -1.2581
 8847SOL    HW238004   3.438   3.401   6.598 -2.6194  0.4844 -1.5510
 8848SOL     OW38005   1.038   1.269  17.002  0.2114  0.6175  0.2622
 8848SOL    HW138006   1.070   1.183  17.031 -0.8131 -0.3131 -1.4058
 8848SOL    HW238007   1.115   1.301  16.954  0.5217  1.6862  1.4674
 8849SOL     OW38008   3.127   1.731  14.813  0.1813  0.5120  0.3542
 8849SOL    HW138009   3.084   1.790  14.750 -2.2121 -0.9105  0.6647
 8849SOL    HW238010   3.199   1.789  14.839 -2.0140  2.6635  1.6790
 8850SOL     OW38011   2.388   1.773  12.579 -0.6548  0.1889 -0.0136
 8850SOL    HW138012   2.316   1.737  12.631 -1.0735  0.3874 -0.4584
 8850SOL    HW238013   2.362   1.864  12.595  0.3094  0.0980  2.1261
 8851SOL     OW38014   0.592   3.937  17.263 -0.0605  0.2700 -0.1754
 8851SOL    HW138015   0.570   3.848  17.234  1.0597  0.8831 -2.8938
 8851SOL    HW238016   0.680   3.955  17.230  1.1615 -1.4187  2.1219
 8852SOL     OW38017   1.083   4.014  13.707 -0.0175 -0.0953  0.2517
 8852SOL    HW138018   1.106   3.940  13.652  1.7451  0.1766  0.6160
 8852SOL    HW238019   1.111   4.086  13.652  0.9326 -1.9219 -1.6169
 8853SOL     OW38020   3.513   2.143  14.635  0.3077  0.4450  0.3029
 8853SOL    HW138021   3.434   2.146  14.582 -0.1418  1.7252  1.0557
 8853SOL    HW238022   3.471   2.181  14.712 -0.5952  0.8579 -0.4011
 8854SOL     OW38023   1.738   2.867   1.024 -0.1299 -1.0719 -0.0176
 8854SOL    HW138024   1.734   2.788   1.078 -0.5558 -0.0250  1.4712
 8854SOL    HW238025   1.833   2.877   1.032 -0.1821 -0.1670 -0.5907
 8855SOL     OW38026   2.353   2.019   6.283 -0.2550 -0.5615  0.0101
 8855SOL    HW138027   2.303   1.984   6.209  0.2563  1.3438 -1.2213
 8855SOL    HW238028   2.291   2.085   6.313 -1.0421 -0.6862 -1.3259
 8856SOL     OW38029   2.635   2.565   9.123  0.1388 -0.1745  0.8047
 8856SOL    HW138030   2.695   2.638   9.135 -0.2679  0.4462 -1.0052
 8856SOL    HW238031   2.640   2.523   9.209  3.1930 -2.4684 -0.4773
 8857SOL     OW38032   0.927   2.981   6.245 -0.0449 -0.0045  0.6728
 8857SOL    HW138033   0.951   3.047   6.180  0.7452  0.7135  1.6776
 8857SOL    HW238034   0.996   2.917   6.229  0.0849  0.6229 -1.1783
 8858SOL     OW38035   2.881   0.278   6.253 -0.8180 -0.6823 -0.9437
 8858SOL    HW138036   2.893   0.287   6.347 -2.2615 -0.8765 -0.7370
 8858SOL    HW238037   2.895   0.184   6.235 -1.0290 -0.4693 -2.2544
 8859SOL     OW38038   3.477   3.284   8.668 -0.5024 -0.1523 -0.0092
 8859SOL    HW138039   3.430   3.201   8.665 -1.0011  0.1247  0.3090
 8859SOL    HW238040   3.548   3.257   8.727  0.6321 -1.8860 -2.1493
 8860SOL     OW38041   2.082   3.325  13.987 -0.2096 -0.6001  0.1032
 8860SOL    HW138042   2.151   3.271  13.949  1.2851  0.4042  1.3576
 8860SOL    HW238043   2.089   3.402  13.930 -2.1153  0.5190  1.3943
 8861SOL     OW38044   3.604   3.305   7.554 -0.6218  0.3286  0.2366
 8861SOL    HW138045   3.621   3.399   7.558  1.1247 -0.0774  2.8039
 8861SOL    HW238046   3.634   3.284   7.643 -0.0171  0.3605  0.0455
 8862SOL     OW38047   1.924   0.903   8.128  0.1239 -0.1832  0.5035
 8862SOL    HW138048   1.927   0.939   8.216 -1.4488  1.6872 -0.2116
 8862SOL    HW238049   1.843   0.854   8.145  1.0229 -2.0038 -0.4108
 8863SOL     OW38050   4.079   4.522   2.303 -0.4485  0.7571 -0.7243
 8863SOL    HW138051   4.159   4.562   2.267 -0.7368  0.3793 -1.7805
 8863SOL    HW238052   4.030   4.504   2.223 -2.6059  1.3792  0.4657
 8864SOL     OW38053   0.148   1.723   5.809 -0.3363 -0.2687 -0.0589
 8864SOL    HW138054   0.058   1.705   5.780 -0.3117 -1.2459  0.4681
 8864SOL    HW238055   0.196   1.642   5.793 -0.8441 -0.4809 -0.5014
 8865SOL     OW38056   3.026   0.208  15.868 -0.1239 -0.0617  0.3159
 8865SOL    HW138057   2.967   0.231  15.796  1.8474 -1.1728 -1.6673
 8865SOL    HW238058   3.041   0.115  15.853  0.3837  0.1129 -0.2543
 8866SOL     OW38059   0.676   1.382   3.632  0.5842  0.2904 -0.1143
 8866SOL    HW138060   0.740   1.418   3.570 -0.1164 -0.8065 -1.4619
 8866SOL    HW238061   0.593   1.407   3.593  0.8629 -0.6720 -1.3213
 8867SOL     OW38062   4.552   4.577  10.537  0.2202  0.0196 -0.1688
 8867SOL    HW138063   4.488   4.618  10.595  1.0606 -1.2603  1.6399
 8867SOL    HW238064   4.632   4.624  10.560 -0.5128 -0.3624  3.1032
 8868SOL     OW38065   4.177   3.584  17.464  0.3329 -0.4156  0.4119
 8868SOL    HW138066   4.265   3.606  17.494  0.0079  1.3362  0.0345
 8868SOL    HW238067   4.176   3.488  17.458  0.1074 -0.3290 -0.9513
 8869SOL     OW38068   4.451   4.717   8.365 -0.4370 -0.0821 -0.6330
 8869SOL    HW138069   4.491   4.631   8.379  0.8060  0.3270 -1.6773
 8869SOL    HW238070   4.480   0.034   8.448  0.3100  0.4757 -1.1510
 8870SOL     OW38071   2.833   0.688   8.579 -0.5829 -0.0906  0.5146
 8870SOL    HW138072   2.846   0.652   8.491 -1.0281 -2.1293  1.2851
 8870SOL    HW238073   2.752   0.640   8.593  0.3702 -2.2219 -1.2983
 8871SOL     OW38074   4.060   2.593   3.980 -0.1694  0.0676  0.5837
 8871SOL    HW138075   4.015   2.568   4.061  1.3062 -1.9864  0.7859
 8871SOL    HW238076   3.988   2.604   3.918  0.7181  1.1765 -0.2339
 8872SOL     OW38077   3.699   3.709  12.179  0.3829 -0.5267 -0.1850
 8872SOL    HW138078   3.749   3.773  12.230  0.5304  0.8643 -2.0533
 8872SOL    HW238079   3.705   3.629  12.232  1.7705 -0.5208 -0.3093
 8873SOL     OW38080   1.424   3.721   8.391 -0.5027  0.1846 -0.5655
 8873SOL    HW138081   1.331   3.745   8.395 -0.7703 -0.4743 -2.7756
 8873SOL    HW238082   1.461   3.787   8.334 -3.4911  1.2311 -1.3009
 8874SOL     OW38083   1.534   3.326  14.713 -0.2706  0.4013 -0.4483
 8874SOL    HW138084   1.456   3.379  14.693 -0.8650  0.2977  1.5536
 8874SOL    HW238085   1.508   3.235  14.704 -1.4439  0.7260 -0.3554
 8875SOL     OW38086   0.186   3.689   5.902  0.2736  0.4760  0.2468
 8875SOL    HW138087   0.186   3.779   5.934  0.3815  0.5014  0.1766
 8875SOL    HW238088   0.279   3.670   5.887  0.1359  2.2272 -2.8295
 8876SOL     OW38089   0.470   3.519   9.086 -0.1687 -0.3170  0.0614
 8876SOL    HW138090   0.523   3.563   9.152  1.1135 -0.2601 -1.0096
 8876SOL    HW238091   0.525   3.446   9.058  0.0724 -0.3095  0.5209
 8877SOL     OW38092   3.616   1.019   0.932 -0.7659 -0.0872  0.0955
 8877SOL    HW138093   3.613   0.926   0.906 -1.2861 -1.1469  3.9074
 8877SOL    HW238094   3.710   1.016   0.948 -0.7026  0.6082 -0.1726
 8878SOL     OW38095   2.379   1.123   3.343  0.1783  0.0305 -0.1589
 8878SOL    HW138096   2.350   1.214   3.332 -0.6416 -0.2468 -0.3080
 8878SOL    HW238097   2.428   1.123   3.261 -1.2652  1.7050 -1.0398
 8879SOL     OW38098   1.919   1.648   9.819 -0.2908 -0.0824 -0.5525
 8879SOL    HW138099   1.858   1.576   9.836 -1.7472  1.1859 -0.4562
 8879SOL    HW238100   1.873   1.712   9.765 -1.9868 -1.7000 -1.0017
 8880SOL     OW38101   1.298   1.812   5.044 -0.9914  0.1302 -0.5193
 8880SOL    HW138102   1.231   1.860   5.094  1.7986  1.2410  2.1608
 8880SOL    HW238103   1.272   1.836   4.955  0.1992 -0.9118 -1.1557
 8881SOL     OW38104   4.251   2.687  17.660 -0.0726  0.2559 -0.0716
 8881SOL    HW138105   4.268   2.775  17.628 -0.5103  1.0883  1.9935
 8881SOL    HW238106   4.173   2.686   0.028 -0.9475  1.9877 -1.2720
 8882SOL     OW38107   0.988   3.513   1.018  0.0498  0.0975 -0.0813
 8882SOL    HW138108   0.915   3.542   1.073  0.2994 -1.1630  0.9282
 8882SOL    HW238109   0.944   3.530   0.935  0.2116 -0.1501 -0.2189
 8883SOL     OW38110   2.345   3.775   7.643 -0.0414  0.2872  0.5251
 8883SOL    HW138111   2.282   3.726   7.695  1.4339 -1.0324  1.0391
 8883SOL    HW238112   2.405   3.790   7.716 -1.3324 -0.5201  1.7513
 8884SOL     OW38113   1.188   0.851   3.537  0.6075 -0.8373 -0.1145
 8884SOL    HW138114   1.151   0.814   3.617  0.7847  0.6024  0.6250
 8884SOL    HW238115   1.279   0.859   3.565  1.2713 -2.5337 -1.7759
 8885SOL     OW38116   3.360   1.396   2.050  0.2430  0.0394 -0.0177
 8885SOL    HW138117   3.340   1.389   1.957  2.5103  0.8877 -0.5857
 8885SOL    HW238118   3.446   1.354   2.051  0.5895  0.7361  0.1129
 8886SOL     OW38119   0.959   2.582   4.290 -0.7279  0.3247  0.3714
 8886SOL    HW138120   0.910   2.634   4.353 -0.5436 -0.4230  1.1316
 8886SOL    HW238121   1.046   2.574   4.329 -0.8121  1.5865  0.8414
 8887SOL     OW38122   1.410   2.944  16.319 -0.1550 -0.0902 -0.4571
 8887SOL    HW138123   1.403   3.025  16.368  1.1138 -0.5025  0.4088
 8887SOL    HW238124   1.464   2.901  16.386  0.4072  1.6203  0.1997
 8888SOL     OW38125   2.966   4.630   2.759 -0.0787  0.1264 -0.5976
 8888SOL    HW138126   3.044   4.578   2.738 -0.0949 -0.4212  0.7086
 8888SOL    HW238127   3.012   4.714   2.760 -1.0202  0.6673 -1.9194
 8889SOL     OW38128   0.637   2.699   8.652  0.5783  0.3727 -0.3456
 8889SOL    HW138129   0.601   2.782   8.622  0.7972  0.5720 -0.0572
 8889SOL    HW238130   0.731   2.715   8.640  0.2915  1.5164 -1.1186
 8890SOL     OW38131   4.516   1.216   4.758 -0.0255  0.2184  0.2362
 8890SOL    HW138132   4.600   1.261   4.746  0.7723 -1.1817  0.6206
 8890SOL    HW238133   4.470   1.281   4.811  2.5083  4.5437 -2.8523
 8891SOL     OW38134   1.506   0.640   3.625  0.7103 -0.0062  0.5014
 8891SOL    HW138135   1.592   0.614   3.659  1.9057  2.9235 -0.2950
 8891SOL    HW238136   1.446   0.577   3.664 -0.1206 -0.2942 -1.2209
 8892SOL     OW38137   2.368   1.895   7.936 -0.1983 -0.5961  0.4363
 8892SOL    HW138138   2.354   1.811   7.980 -1.7543 -2.4549 -3.5938
 8892SOL    HW238139   2.299   1.886   7.870 -0.4053  2.8305  0.1487
 8893SOL     OW38140   3.208   0.787   2.255  0.3181  0.3261 -0.2140
 8893SOL    HW138141   3.303   0.778   2.260  0.4503  2.0846  0.4991
 8893SOL    HW238142   3.204   0.838   2.175 -1.2631  0.0521 -0.3137
 8894SOL     OW38143   2.424   3.745   5.714 -0.4771 -0.4154 -0.0135
 8894SOL    HW138144   2.370   3.805   5.663  1.2533  1.8757  0.8323
 8894SOL    HW238145   2.353   3.687   5.740 -1.3015  0.7385  0.3349
 8895SOL     OW38146   0.961   0.538   8.050 -0.2719  0.1514 -0.1128
 8895SOL    HW138147   0.954   0.524   7.955 -1.7148  1.6672 -0.2256
 8895SOL    HW238148   0.908   0.464   8.081  0.8301 -0.4651  0.3230
 8896SOL     OW38149   2.171   0.540   7.009 -0.1453 -0.3724  0.1576
 8896SOL    HW138150   2.146   0.631   6.995 -3.9763 -1.0559  2.6734
 8896SOL    HW238151   2.185   0.535   7.104  1.0753 -1.4451 -0.0838
 8897SOL     OW38152   4.238   0.423   6.046 -0.5543 -0.5759 -0.3689
 8897SOL    HW138153   4.188   0.351   6.008  0.7676 -0.4154 -2.3581
 8897SOL    HW238154   4.199   0.500   6.004  1.4326  1.7459  2.0263
 8898SOL     OW38155   3.538   2.712   7.543  0.2687  0.4100  0.2945
 8898SOL    HW138156   3.513   2.797   7.507  0.0526 -0.2544 -1.1071
 8898SOL    HW238157   3.535   2.729   7.638 -0.7827  1.2770  0.1020
 8899SOL     OW38158   4.615   4.673  15.089  0.1755  0.3912 -0.5123
 8899SOL    HW138159   4.543   4.620  15.124  0.2838  0.6680  0.1210
 8899SOL    HW238160   4.666   4.616  15.032 -2.2777  0.2801 -2.6323
 8900SOL     OW38161   2.392   3.759   5.991  0.2541  0.1891 -0.0676
 8900SOL    HW138162   2.338   3.837   6.003 -3.7675 -2.9330  2.3127
 8900SOL    HW238163   2.425   3.757   5.901  1.9760  0.8795  0.5537
 8901SOL     OW38164   1.000   2.442   1.568 -1.0199 -0.8242 -0.2468
 8901SOL    HW138165   0.985   2.365   1.513 -0.5695 -0.0834 -1.4147
 8901SOL    HW238166   0.963   2.517   1.520  1.2682 -0.1995 -1.0415
 8902SOL     OW38167   2.731   0.753   8.173  0.1299 -0.1129  0.2643
 8902SOL    HW138168   2.702   0.665   8.198 -1.3669 -0.1493 -1.5464
 8902SOL    HW238169   2.819   0.757   8.210 -0.9521  2.6851  2.4785
 8903SOL     OW38170   1.012   3.843   1.004  0.3221 -0.2965  0.1303
 8903SOL    HW138171   1.097   3.801   1.015  0.1964 -0.3719  0.8084
 8903SOL    HW238172   0.954   3.814   1.074  1.2870 -0.5647  0.8083
 8904SOL     OW38173   4.027   3.568  16.714  0.1752 -0.4197 -0.2223
 8904SOL    HW138174   3.954   3.613  16.671 -0.0276  0.2527  0.8286
 8904SOL    HW238175   4.100   3.628  16.703 -0.8224  0.6988 -0.7146
 8905SOL     OW38176   1.508   0.233   4.101  0.1053  0.3740  0.0046
 8905SOL    HW138177   1.528   0.184   4.181  0.6918 -2.4412 -1.8413
 8905SOL    HW238178   1.414   0.247   4.110  0.4393  2.9163 -0.5201
 8906SOL     OW38179   4.442   4.032  12.763  0.3026 -0.2594  0.1148
 8906SOL    HW138180   4.441   3.937  12.756  3.1481 -0.1755 -1.1834
 8906SOL    HW238181   4.470   4.041  12.854  0.5806 -0.7891  0.0830
 8907SOL     OW38182   4.273   3.677   8.024 -0.0824 -0.4273  0.2091
 8907SOL    HW138183   4.208   3.743   8.050 -0.6542 -1.3373  1.0579
 8907SOL    HW238184   4.334   3.691   8.097  1.0898 -0.4303 -0.7566
 8908SOL     OW38185   3.217   0.929   2.617 -0.2085 -0.3597  0.5026
 8908SOL    HW138186   3.278   0.857   2.599 -0.6699 -0.3994 -0.8514
 8908SOL    HW238187   3.153   0.896   2.681  1.2649 -2.5617  0.8280
 8909SOL     OW38188   3.558   1.993   6.375 -0.4965 -0.1823  0.3201
 8909SOL    HW138189   3.476   1.944   6.384  0.2733 -1.7226 -0.9104
 8909SOL    HW238190   3.531   2.081   6.350  1.3768  1.0212  2.5933
 8910SOL     OW38191   3.214   2.784   7.963 -0.8437  0.2720  0.3792
 8910SOL    HW138192   3.175   2.754   8.045 -1.2672  2.8228  1.1113
 8910SOL    HW238193   3.264   2.858   7.997 -0.2147 -1.2983  2.8396
 8911SOL     OW38194   1.118   1.273   4.201 -0.4269  0.6558  0.3293
 8911SOL    HW138195   1.178   1.278   4.275 -1.5490 -0.0253  1.2722
 8911SOL    HW238196   1.097   1.365   4.182 -1.6932 -0.1966 -2.4723
 8912SOL     OW38197   2.768   3.041   4.023  0.4335  0.0179  0.0390
 8912SOL    HW138198   2.713   3.058   3.947  0.3491  2.1792  0.5817
 8912SOL    HW238199   2.823   3.120   4.021  0.7772 -0.2317 -0.3527
 8913SOL     OW38200   1.238   1.931   3.209  0.0760 -0.3423  0.3038
 8913SOL    HW138201   1.210   1.992   3.278  2.5241  1.1625 -0.0235
 8913SOL    HW238202   1.312   1.883   3.247 -0.8120 -0.7517  1.5248
 8914SOL     OW38203   0.305   3.921  15.351 -0.3681  0.5148 -0.5854
 8914SOL    HW138204   0.254   3.974  15.291 -1.2729 -2.5357 -2.4950
 8914SOL    HW238205   0.289   3.966  15.434 -0.7517 -1.1452  0.2564
 8915SOL     OW38206   2.270   2.010   8.506 -0.1991  0.0330  0.1375
 8915SOL    HW138207   2.184   1.978   8.533 -0.5119  0.8867  0.1647
 8915SOL    HW238208   2.305   1.937   8.455 -1.4181 -0.2881 -0.2546
 8916SOL     OW38209   3.290   2.654   0.458  0.5935  0.3863 -0.1660
 8916SOL    HW138210   3.272   2.746   0.438  0.8485  0.4576 -0.0710
 8916SOL    HW238211   3.295   2.615   0.371  2.4989  0.4089 -0.0742
 8917SOL     OW38212   1.308   4.098   6.998 -0.0179 -0.1851  0.0867
 8917SOL    HW138213   1.268   4.021   6.957 -1.6366  1.8359 -2.1715
 8917SOL    HW238214   1.388   4.106   6.946 -0.0500  0.8276  0.1796
 8918SOL     OW38215   4.620   0.541   4.562  0.0061 -0.5341 -0.5104
 8918SOL    HW138216   4.556   0.469   4.558  0.5192 -0.9718 -1.0115
 8918SOL    HW238217   4.694   0.515   4.507  0.0841  1.8888 -1.5263
 8919SOL     OW38218   0.056   4.200   6.026 -0.1671 -0.0116  0.1036
 8919SOL    HW138219   0.108   4.280   6.018  0.6501 -0.4511  1.0037
 8919SOL    HW238220   4.699   4.233   6.070 -0.7772 -0.0646 -0.9318
 8920SOL     OW38221   2.647   2.398  11.952 -0.3019 -0.6215  0.0799
 8920SOL    HW138222   2.678   2.394  12.042  0.7231  2.2560 -0.1671
 8920SOL    HW238223   2.553   2.406  11.968 -0.1749  2.2623 -0.7103
 8921SOL     OW38224   4.062   2.869   3.581 -0.8105 -0.4607  0.2065
 8921SOL    HW138225   4.094   2.953   3.614  1.4737 -1.4250  0.4663
 8921SOL    HW238226   4.144   2.821   3.574 -1.1437 -1.3584  2.4639
 8922SOL     OW38227   3.330   2.963   4.326 -0.1784  0.5281 -0.2870
 8922SOL    HW138228   3.404   2.934   4.272  0.4918 -0.7558  1.3094
 8922SOL    HW238229   3.259   2.906   4.296  1.7416 -2.5905  1.1123
 8923SOL     OW38230   0.409   1.391   6.497 -0.5596 -0.0511  0.6611
 8923SOL    HW138231   0.368   1.361   6.578 -0.3933  0.3516  0.8937
 8923SOL    HW238232   0.367   1.344   6.425  2.5794 -1.9335  0.0529
 8924SOL     OW38233   3.475   0.929   6.458 -0.4532 -0.8641 -0.5028
 8924SOL    HW138234   3.392   0.963   6.492  0.1898 -0.0422  0.2517
 8924SOL    HW238235   3.526   1.007   6.480  0.6997 -1.9800  0.8125
 8925SOL     OW38236   1.604   0.838  11.578  0.1568  0.6522 -0.2219
 8925SOL    HW138237   1.669   0.851  11.646 -1.2041 -2.8009  1.7011
 8925SOL    HW238238   1.524   0.875  11.616 -0.4348 -0.4903 -0.3707
 8926SOL     OW38239   4.594   3.761  15.554 -0.0297  0.6352 -0.6783
 8926SOL    HW138240   4.529   3.738  15.487  0.2932  0.5211 -0.9488
 8926SOL    HW238241   4.548   3.833  15.598  0.0330  1.3182 -1.7335
 8927SOL     OW38242   0.123   0.918   4.040  0.0839  0.2065 -0.0843
 8927SOL    HW138243   0.066   0.917   4.117 -2.7659  0.1188 -2.2045
 8927SOL    HW238244   0.175   0.997   4.055 -0.3094  0.1118  1.7562
 8928SOL     OW38245   0.095   3.628   3.799  0.2050  1.0830 -0.1174
 8928SOL    HW138246   0.057   3.544   3.776  0.4957  1.7686 -3.0803
 8928SOL    HW238247   0.188   3.614   3.781 -0.4805 -3.2773 -0.3151
 8929SOL     OW38248   4.482   1.803   6.784  0.3346 -0.2928  0.1869
 8929SOL    HW138249   4.435   1.765   6.710  1.3831 -0.2851 -0.4958
 8929SOL    HW238250   4.537   1.866   6.736  0.0603 -0.8613 -0.8890
 8930SOL     OW38251   2.623   2.378   7.854 -0.0932 -0.4930 -0.7115
 8930SOL    HW138252   2.642   2.469   7.829  1.6183 -0.1514  1.8590
 8930SOL    HW238253   2.700   2.338   7.815 -0.2128 -1.6073  0.2056
 8931SOL     OW38254   1.934   4.503   3.507  0.1650  0.8270  0.2652
 8931SOL    HW138255   1.856   4.557   3.509 -1.8050 -1.9606 -0.6897
 8931SOL    HW238256   1.925   4.439   3.577 -1.3736  1.8516  0.9824
 8932SOL     OW38257   2.086   1.058   5.884  0.0608  0.3141 -0.2897
 8932SOL    HW138258   2.138   0.978   5.879  0.4953  0.5357  0.7295
 8932SOL    HW238259   2.155   1.122   5.897  0.0045  0.1196  0.9669
 8933SOL     OW38260   1.630   1.496   2.929  0.3943 -0.4925  0.0054
 8933SOL    HW138261   1.629   1.580   2.974 -1.2529  0.4048 -1.6873
 8933SOL    HW238262   1.643   1.428   2.994 -1.2360 -0.4254  0.4094
 8934SOL     OW38263   0.843   1.474   8.206  0.6564 -0.5243 -0.2078
 8934SOL    HW138264   0.819   1.527   8.282 -0.6005 -0.2945 -0.7606
 8934SOL    HW238265   0.880   1.394   8.243 -0.1107 -0.8806 -0.2096
 8935SOL     OW38266   4.081   3.962  12.208 -0.0224 -0.2376 -0.0806
 8935SOL    HW138267   4.136   3.943  12.283  1.2808  1.7665 -0.5216
 8935SOL    HW238268   4.143   4.016  12.159 -0.5987  2.4636  2.1566
 8936SOL     OW38269   3.914   0.379  14.966 -0.1534 -0.1248 -0.3038
 8936SOL    HW138270   3.887   0.287  14.975 -1.7952  0.2550 -1.4447
 8936SOL    HW238271   3.888   0.416  15.050  0.0915  1.3780 -0.8924
 8937SOL     OW38272   1.105   0.837   0.117  0.4228 -0.0933  0.5831
 8937SOL    HW138273   1.032   0.790   0.078  0.6282 -0.2653  0.4006
 8937SOL    HW238274   1.070   0.846   0.205 -1.0691 -0.8257  0.0659
 8938SOL     OW38275   0.951   3.780   6.482 -0.6905  0.1629 -0.4532
 8938SOL    HW138276   0.925   3.855   6.536 -0.1073  0.0676 -0.0338
 8938SOL    HW238277   0.904   3.704   6.517 -0.4805 -0.0772 -0.6948
 8939SOL     OW38278   3.202   3.466   7.776  0.0862 -0.1190 -0.3609
 8939SOL    HW138279   3.256   3.471   7.697 -0.4911 -0.2196 -0.7586
 8939SOL    HW238280   3.119   3.471   7.729  0.6675  0.2881 -1.3574
 8940SOL     OW38281   2.797   0.591   3.964  0.1695 -0.0723  0.3119
 8940SOL    HW138282   2.749   0.508   3.966 -0.5743  0.3688  0.7358
 8940SOL    HW238283   2.814   0.618   4.054  0.2115  2.6405 -0.4847
 8941SOL     OW38284   0.490   3.579   0.747 -0.2073 -0.8185  0.8326
 8941SOL    HW138285   0.495   3.633   0.668  1.6692 -1.4851  0.4888
 8941SOL    HW238286   0.548   3.507   0.720  2.5477  0.7731  2.5021
 8942SOL     OW38287   3.936   3.943   7.057  0.1563 -0.0913  0.4868
 8942SOL    HW138288   3.984   4.006   7.111 -1.8684  0.4746  1.6188
 8942SOL    HW238289   3.847   3.976   7.057  1.2253  2.7384 -1.1693
 8943SOL     OW38290   3.500   0.305  14.598  0.1036  0.3260 -0.1137
 8943SOL    HW138291   3.515   0.248  14.522  1.5314 -0.6642  0.9239
 8943SOL    HW238292   3.563   0.371  14.572  0.8911 -0.4844 -0.2583
 8944SOL     OW38293   0.065   3.228  11.777 -0.0897 -0.0175 -0.1339
 8944SOL    HW138294   4.693   3.245  11.788 -0.1141 -0.4657  0.3261
 8944SOL    HW238295   0.068   3.133  11.786  0.5091  0.1426  1.2645
 8945SOL     OW38296   2.224   4.170   1.307  0.7113 -0.3473  0.3375
 8945SOL    HW138297   2.209   4.116   1.385 -0.2397  1.5056  1.4619
 8945SOL    HW238298   2.175   4.249   1.332 -2.3576 -2.9230  2.4833
 8946SOL     OW38299   0.871   4.571  14.676  0.0124  0.6777 -0.5607
 8946SOL    HW138300   0.793   4.519  14.656 -0.4243  1.2484 -0.3291
 8946SOL    HW238301   0.826   4.647  14.713 -0.1828  0.2714  0.0378
 8947SOL     OW38302   2.975   3.666   4.063  0.2593 -0.4094  0.2751
 8947SOL    HW138303   2.891   3.680   4.105  0.3639  1.6191 -0.2127
 8947SOL    HW238304   2.938   3.656   3.975  0.6704 -0.5632  0.1169
 8948SOL     OW38305   0.734   3.754  14.260 -0.1905 -0.0151 -0.2919
 8948SOL    HW138306   0.800   3.804  14.212 -0.1144  1.5037  1.3805
 8948SOL    HW238307   0.745   3.797  14.345 -1.3449 -1.5875  0.6623
 8949SOL     OW38308   4.664   4.654  16.406 -0.4196 -0.1920  0.0338
 8949SOL    HW138309   4.658   0.013  16.354 -1.0644  0.5688  1.2709
 8949SOL    HW238310   0.022   4.614  16.370  0.3254  1.8070 -0.5353
 8950SOL     OW38311   3.364   3.517  14.684  0.0526 -0.0328  0.0282
 8950SOL    HW138312   3.274   3.548  14.673 -0.8599 -1.8887  2.0964
 8950SOL    HW238313   3.409   3.594  14.717  2.4327 -0.3895 -2.3570
 8951SOL     OW38314   1.839   2.184  13.985 -0.5329  0.1402  0.2618
 8951SOL    HW138315   1.850   2.218  14.074  1.0608  1.6040 -0.4939
 8951SOL    HW238316   1.743   2.185  13.981 -0.3621 -0.0166 -3.1115
 8952SOL     OW38317   3.868   2.932   2.682 -0.5777 -0.2695  0.1585
 8952SOL    HW138318   3.820   2.935   2.599 -1.9164 -1.2150  0.8944
 8952SOL    HW238319   3.797   2.965   2.738  0.3452  3.2121 -0.7556
 8953SOL     OW38320   0.909   2.066   8.542 -0.3664 -0.1748 -0.2856
 8953SOL    HW138321   0.876   2.092   8.627  0.6300 -0.9144  0.3274
 8953SOL    HW238322   0.848   1.998   8.514 -0.4955 -0.5434  0.8863
 8954SOL     OW38323   1.573   3.405   2.532 -0.0577 -0.5851 -0.2811
 8954SOL    HW138324   1.588   3.397   2.438  0.4264 -2.6239 -0.0329
 8954SOL    HW238325   1.626   3.335   2.570 -0.6488 -0.5143  0.6673
 8955SOL     OW38326   2.879   1.890  13.712  0.0237 -0.4138 -0.6020
 8955SOL    HW138327   2.817   1.825  13.745  0.8779 -1.1997 -0.5344
 8955SOL    HW238328   2.946   1.888  13.781 -1.4556 -1.4637  0.7865
 8956SOL     OW38329   4.068   4.416   8.582 -0.1770  0.0091  0.0438
 8956SOL    HW138330   4.027   4.484   8.528 -0.0064  1.1860  1.4214
 8956SOL    HW238331   3.994   4.354   8.587  0.5467 -1.0307 -2.0687
 8957SOL     OW38332   4.544   2.821   9.160 -0.5259 -0.0980  0.5387
 8957SOL    HW138333   4.580   2.893   9.107 -0.6135  1.7371  2.9622
 8957SOL    HW238334   4.530   2.859   9.247  1.8830 -1.9894  1.7436
 8958SOL     OW38335   1.933   4.493   6.556  0.4368 -0.2765  0.2353
 8958SOL    HW138336   2.026   4.489   6.536  0.5268  0.6704  0.4653
 8958SOL    HW238337   1.906   4.408   6.522  2.9776 -1.1818  0.5308
 8959SOL     OW38338   0.737   3.589   5.595 -0.5457  0.3006  0.0976
 8959SOL    HW138339   0.696   3.674   5.578 -0.8571  0.2227  0.4471
 8959SOL    HW238340   0.775   3.567   5.510 -0.9931  1.0070 -0.2873
 8960SOL     OW38341   2.867   3.246   8.175  0.3135  0.3462 -0.2760
 8960SOL    HW138342   2.839   3.337   8.167 -0.0574  0.5585  3.2950
 8960SOL    HW238343   2.928   3.251   8.102 -1.3551  0.7100 -1.6434
 8961SOL     OW38344   1.380   0.029  13.414  0.1775 -0.3088  0.0126
 8961SOL    HW138345   1.434   0.034  13.492  1.9492  1.9489 -1.3647
 8961SOL    HW238346   1.352   0.120  13.414 -0.6698 -0.5643  0.0725
 8962SOL     OW38347   0.772   3.317  12.917 -0.1666  0.4357 -0.3751
 8962SOL    HW138348   0.692   3.356  12.882  1.2819  0.7008 -3.4475
 8962SOL    HW238349   0.822   3.312  12.835 -3.1280 -1.7542 -2.0606
 8963SOL     OW38350   1.563   3.952   2.878 -0.1786 -0.0505  0.1661
 8963SOL    HW138351   1.486   3.896   2.881  0.5241 -1.0445 -0.2297
 8963SOL    HW238352   1.526   4.040   2.872  0.2963  0.1236 -0.2622
 8964SOL     OW38353   0.208   2.581   2.711 -0.3961  0.1542 -0.9760
 8964SOL    HW138354   0.172   2.647   2.770  1.2233  1.1655 -1.1222
 8964SOL    HW238355   0.255   2.642   2.655 -0.0768  0.6191 -0.1996
 8965SOL     OW38356   0.244   1.358  10.167  0.3289 -0.1507  0.5486
 8965SOL    HW138357   0.217   1.439  10.123 -1.3860 -1.0257 -0.0305
 8965SOL    HW238358   0.232   1.299  10.092 -0.3504  0.2822  0.3081
 8966SOL     OW38359   3.082   0.642  12.784  0.7517 -0.1744 -0.7757
 8966SOL    HW138360   3.006   0.588  12.760 -2.2460  2.9148  1.8975
 8966SOL    HW238361   3.153   0.597  12.737  1.7392  1.2199 -0.6042
 8967SOL     OW38362   3.219   2.215   7.797  0.3337 -0.1930  0.4766
 8967SOL    HW138363   3.271   2.175   7.727 -0.1774 -0.2647  0.1432
 8967SOL    HW238364   3.286   2.208   7.866 -1.6941  2.4566  2.6881
 8968SOL     OW38365   4.316   4.502   5.682 -0.1507 -1.2492 -0.2747
 8968SOL    HW138366   4.254   4.540   5.619 -0.0328  0.2229  0.5059
 8968SOL    HW238367   4.389   4.491   5.621 -1.5541  1.1069 -2.3806
 8969SOL     OW38368   0.549   2.473   7.041 -0.4942  0.0816 -0.4752
 8969SOL    HW138369   0.516   2.468   6.952 -0.6458  3.0021 -0.5917
 8969SOL    HW238370   0.511   2.393   7.078  2.3649 -0.0415  2.1858
 8970SOL     OW38371   4.061   1.831   9.469 -0.9059 -0.4094 -0.7042
 8970SOL    HW138372   4.028   1.762   9.526 -0.7999 -0.3654 -0.5881
 8970SOL    HW238373   4.133   1.868   9.520 -2.8627  0.1534  1.6432
 8971SOL     OW38374   3.685   0.302   4.814 -1.0079  0.1486 -0.5840
 8971SOL    HW138375   3.643   0.353   4.883  0.4225 -0.9089  1.0535
 8971SOL    HW238376   3.655   0.346   4.734 -0.2422 -1.5181 -1.7956
 8972SOL     OW38377   3.964   2.455  10.201 -0.0916 -0.2846  0.5933
 8972SOL    HW138378   4.048   2.438  10.159 -0.3385  1.2895 -0.5628
 8972SOL    HW238379   3.980   2.401  10.278 -1.4603  0.9632  1.7372
 8973SOL     OW38380   1.718   1.639  10.467 -0.4545  0.1762 -0.4093
 8973SOL    HW138381   1.813   1.654  10.470 -0.0709 -2.0776 -1.8776
 8973SOL    HW238382   1.683   1.723  10.498  1.1333  0.0066  1.8428
 8974SOL     OW38383   4.465   3.303   9.631  0.2603  0.2335 -0.1056
 8974SOL    HW138384   4.421   3.244   9.692 -0.0052 -1.1960 -1.6921
 8974SOL    HW238385   4.452   3.261   9.546  0.2438 -1.3948  0.6965
 8975SOL     OW38386   2.362   3.998   1.873  0.5365  0.1306 -1.0123
 8975SOL    HW138387   2.409   4.081   1.864  0.6797  0.4566  2.9178
 8975SOL    HW238388   2.386   3.956   1.790 -2.2420 -1.1210 -1.1837
 8976SOL     OW38389   3.071   1.343   5.453 -0.4839 -0.5829  0.1680
 8976SOL    HW138390   3.049   1.275   5.389 -0.0125 -0.1781 -0.4249
 8976SOL    HW238391   3.133   1.394   5.401  0.0279  0.3747  1.7085
 8977SOL     OW38392   1.716   3.968   0.835 -0.5040 -0.3202 -0.3798
 8977SOL    HW138393   1.658   3.974   0.759  2.2456 -0.3550 -2.4957
 8977SOL    HW238394   1.798   3.935   0.798  0.1857  0.3859  0.5127
 8978SOL     OW38395   4.075   2.242   2.898 -0.1287 -0.0606 -0.4966
 8978SOL    HW138396   4.020   2.305   2.850 -0.4589 -0.2814 -0.4104
 8978SOL    HW238397   4.027   2.162   2.878 -4.0177  1.3995  3.0081
 8979SOL     OW38398   2.557   3.335   0.717 -0.4500  0.2473  0.1122
 8979SOL    HW138399   2.649   3.364   0.719 -0.1264 -0.9490  2.3928
 8979SOL    HW238400   2.556   3.276   0.792  1.4040  1.8428  1.3980
 8980SOL     OW38401   1.394   3.233   5.178  0.3690  0.3755 -0.4486
 8980SOL    HW138402   1.387   3.173   5.104  0.0824 -0.8932  0.5934
 8980SOL    HW238403   1.336   3.199   5.246  0.6683 -1.2251 -0.9954
 8981SOL     OW38404   3.971   2.159   7.430  0.1873 -0.5164 -0.2325
 8981SOL    HW138405   3.959   2.239   7.481 -2.1243  0.2897 -2.0345
 8981SOL    HW238406   3.950   2.092   7.495 -0.1575 -0.5222 -0.3508
 8982SOL     OW38407   3.886   2.727   5.082  0.0489  0.3252  0.3118
 8982SOL    HW138408   3.834   2.755   5.158 -0.9117 -2.5045  0.7165
 8982SOL    HW238409   3.930   2.810   5.065 -1.5672  1.9972  4.0801
 8983SOL     OW38410   0.691   0.180  14.622 -0.2928  0.0504  0.0914
 8983SOL    HW138411   0.627   0.191  14.692 -1.2471  1.9717 -1.0729
 8983SOL    HW238412   0.658   0.099  14.585  0.3415 -0.1222 -0.1092
 8984SOL     OW38413   0.080   3.370   8.861 -0.1354 -0.2506  0.6279
 8984SOL    HW138414   0.097   3.295   8.918 -2.1266 -0.1513  1.3440
 8984SOL    HW238415   0.163   3.415   8.849 -0.6850  0.4435 -0.6148
 8985SOL     OW38416   2.211   2.509   7.515 -0.5090  0.3451  0.9940
 8985SOL    HW138417   2.302   2.526   7.542 -0.8939  1.8426  1.3904
 8985SOL    HW238418   2.201   2.423   7.556 -0.4676 -0.3757 -0.5253
 8986SOL     OW38419   4.229   1.259   5.829 -0.2464  0.1112 -0.3664
 8986SOL    HW138420   4.232   1.261   5.733 -1.8054  1.0770 -0.3773
 8986SOL    HW238421   4.321   1.269   5.856 -0.2551 -0.5634 -0.0674
 8987SOL     OW38422   2.694   2.697   4.751 -0.0630 -0.2852 -0.0722
 8987SOL    HW138423   2.630   2.628   4.734 -0.2342  0.1401 -1.1237
 8987SOL    HW238424   2.658   2.763   4.692 -0.2581 -2.0093 -1.8628
 8988SOL     OW38425   3.859   0.900   1.904  0.1230 -0.5595  0.9585
 8988SOL    HW138426   3.831   0.932   1.818 -1.1969  3.0037  2.6976
 8988SOL    HW238427   3.797   0.947   1.959 -1.5380  0.5874 -1.9256
 8989SOL     OW38428   0.697   3.122   6.333 -0.0197  0.3561  0.3027
 8989SOL    HW138429   0.785   3.084   6.334 -0.4514 -0.5505  3.7917
 8989SOL    HW238430   0.647   3.062   6.278 -0.7859  0.9946  0.3020
 8990SOL     OW38431   4.235   4.450   0.944 -1.1530  0.0828 -0.3873
 8990SOL    HW138432   4.295   4.446   1.018 -0.1671  1.1087 -1.1357
 8990SOL    HW238433   4.238   4.543   0.919  0.5004  0.6007  1.7760
 8991SOL     OW38434   2.877   2.154   8.791 -0.1990  0.1273  0.1061
 8991SOL    HW138435   2.853   2.241   8.824  0.3134 -0.4308  1.9875
 8991SOL    HW238436   2.958   2.127   8.835  1.3377  0.0700 -2.8213
 8992SOL     OW38437   1.924   2.734   0.786 -0.2293  0.0983 -0.1095
 8992SOL    HW138438   1.906   2.709   0.695 -1.5164 -0.9688  0.4308
 8992SOL    HW238439   1.870   2.813   0.794  0.8266  0.5068  3.0655
 8993SOL     OW38440   0.876   0.810   5.327 -0.1846 -0.5038  0.5594
 8993SOL    HW138441   0.805   0.767   5.375 -1.1762  0.3304 -0.1558
 8993SOL    HW238442   0.825   0.857   5.260  0.9486  0.0655  0.1041
 8994SOL     OW38443   3.418   1.087   2.755 -0.4277  0.0652 -0.2261
 8994SOL    HW138444   3.441   1.033   2.830 -1.2838  0.3163  0.2197
 8994SOL    HW238445   3.354   1.037   2.705  0.6020  1.0112 -2.5061
 8995SOL     OW38446   0.808   4.057   4.407  0.6176 -0.1359 -0.1734
 8995SOL    HW138447   0.864   4.042   4.331  1.8214  1.6054  0.3544
 8995SOL    HW238448   0.867   4.114   4.457 -0.5657 -0.7431  1.9228
 8996SOL     OW38449   2.123   0.981  15.287  0.4159  0.9410 -0.3925
 8996SOL    HW138450   2.183   0.938  15.348 -0.3409  1.5802  0.7987
 8996SOL    HW238451   2.142   0.929  15.208 -0.0543 -0.0150  0.1184
 8997SOL     OW38452   2.620   1.247  10.669 -0.1060 -0.2699  0.0743
 8997SOL    HW138453   2.703   1.249  10.717  0.5581 -0.4185 -1.0600
 8997SOL    HW238454   2.613   1.342  10.659  0.0314 -0.4828 -2.0652
 8998SOL     OW38455   4.481   0.960  15.577  0.2348 -0.6780  0.1129
 8998SOL    HW138456   4.396   0.993  15.547  1.7688  2.1295 -1.1605
 8998SOL    HW238457   4.540   1.023  15.536  1.1432 -0.4479  1.7847
 8999SOL     OW38458   2.374   3.570   2.297 -0.2585 -0.5368 -0.1235
 8999SOL    HW138459   2.320   3.565   2.376 -0.8228 -1.0514 -0.5421
 8999SOL    HW238460   2.294   3.584   2.247 -0.4090 -1.7181 -0.1971
 9000SOL     OW38461   0.484   3.293   6.966 -0.0082 -0.0563 -0.1396
 9000SOL    HW138462   0.399   3.297   6.922 -0.0523 -1.5938 -0.2078
 9000SOL    HW238463   0.468   3.219   7.024  0.1243  0.8447  1.0333
 9001SOL     OW38464   2.842   3.538   2.355 -0.3215 -0.0009 -0.2911
 9001SOL    HW138465   2.751   3.553   2.380  0.9089  3.0203  2.3924
 9001SOL    HW238466   2.863   3.631   2.365  0.8415 -0.3153  0.2317
 9002SOL     OW38467   0.580   4.162   7.336 -0.4335  0.3737 -0.4887
 9002SOL    HW138468   0.526   4.116   7.271  0.4358 -1.6072  0.1994
 9002SOL    HW238469   0.658   4.178   7.283 -1.0609 -0.6562 -1.7170
 9003SOL     OW38470   4.708   3.748   5.452 -0.1486  0.1337 -0.0447
 9003SOL    HW138471   4.698   3.670   5.397  0.3486 -0.4151  0.6428
 9003SOL    HW238472   4.622   3.749   5.493 -0.4735  3.6081 -0.8090
 9004SOL     OW38473   3.536   2.252   6.233 -0.5757 -0.2338  0.4087
 9004SOL    HW138474   3.490   2.330   6.265  2.3328  1.3447  0.7244
 9004SOL    HW238475   3.623   2.276   6.264 -1.3243  1.8436  0.8728
 9005SOL     OW38476   3.544   0.257   2.892 -0.0669  0.4257  0.3182
 9005SOL    HW138477   3.608   0.272   2.822 -0.0672 -1.8396 -0.1821
 9005SOL    HW238478   3.508   0.345   2.891  0.5099  0.6576  0.4438
 9006SOL     OW38479   4.056   1.761   3.489  0.0370  0.1979  0.1712
 9006SOL    HW138480   4.125   1.807   3.442 -1.8823  3.1357  0.2205
 9006SOL    HW238481   3.988   1.741   3.425  1.8937 -0.6683 -1.5319
 9007SOL     OW38482   4.011   3.930   5.494  0.0367 -0.5904 -0.3216
 9007SOL    HW138483   3.944   3.861   5.491  0.0422 -0.6204  0.3632
 9007SOL    HW238484   4.068   3.899   5.423 -0.3860 -2.0752 -0.0188
 9008SOL     OW38485   2.550   2.296  16.694 -0.2751 -0.8384 -0.1735
 9008SOL    HW138486   2.464   2.253  16.693 -0.6251 -0.1476  0.4172
 9008SOL    HW238487   2.540   2.386  16.723  0.4519 -0.4927 -0.9972
 9009SOL     OW38488   2.700   3.941   0.137  0.4366  0.2013 -0.0298
 9009SOL    HW138489   2.730   3.941   0.046  2.7421  1.4153  0.7327
 9009SOL    HW238490   2.642   3.866   0.149 -0.8714  1.2871  0.4641
 9010SOL     OW38491   3.823   0.527   5.160  0.4249  0.2349 -0.5397
 9010SOL    HW138492   3.861   0.461   5.218 -1.0426 -0.3544 -0.2547
 9010SOL    HW238493   3.893   0.592   5.147  0.3360  0.4837  0.1968
 9011SOL     OW38494   4.001   0.181   9.218  0.1762 -0.3658  0.1722
 9011SOL    HW138495   3.965   0.112   9.274 -2.3912  0.8720  0.0774
 9011SOL    HW238496   4.075   0.218   9.266  0.9533 -0.6658 -0.7998
 9012SOL     OW38497   2.399   2.794   2.920  0.6475 -0.2583  0.3727
 9012SOL    HW138498   2.338   2.822   2.852  1.8622  0.9376 -0.2356
 9012SOL    HW238499   2.411   2.701   2.901  0.8558 -0.4570  1.4807
 9013SOL     OW38500   3.012   0.659   7.616  0.0358  0.1449  0.1067
 9013SOL    HW138501   3.006   0.687   7.707  0.2766 -2.6674  0.9862
 9013SOL    HW238502   2.983   0.567   7.617 -0.8422  0.4268  0.3714
 9014SOL     OW38503   2.876   1.674   8.530  0.0725 -0.3578  0.3777
 9014SOL    HW138504   2.804   1.736   8.523  0.6210  0.2259 -0.1012
 9014SOL    HW238505   2.862   1.623   8.451 -0.4940 -0.6072  0.6435
 9015SOL     OW38506   1.812   2.947   6.881  0.2469  0.5558  0.2864
 9015SOL    HW138507   1.780   2.880   6.821  0.4700 -0.9951  1.9171
 9015SOL    HW238508   1.745   3.014   6.869 -1.6018 -1.1833  1.0028
 9016SOL     OW38509   0.576   1.761  16.595 -0.2544 -0.5038 -0.7346
 9016SOL    HW138510   0.599   1.688  16.538  0.5352 -0.1336 -0.8777
 9016SOL    HW238511   0.661   1.782  16.633 -0.8585  0.0416  0.3121
 9017SOL     OW38512   1.870   1.171   4.828 -0.2512 -0.0773 -0.3125
 9017SOL    HW138513   1.777   1.151   4.835  0.2880 -3.2801 -2.6391
 9017SOL    HW238514   1.877   1.263   4.855 -1.5782 -0.0471 -0.0715
 9018SOL     OW38515   1.241   3.164  17.260  0.0357 -0.1351 -0.0911
 9018SOL    HW138516   1.292   3.176  17.180  1.1549 -0.5438  0.5519
 9018SOL    HW238517   1.288   3.222  17.319  1.0864 -0.3272 -0.7359
 9019SOL     OW38518   4.653   1.922   3.558 -0.0100  0.1706  0.0334
 9019SOL    HW138519   4.625   1.843   3.510  2.2677 -1.4372  1.3252
 9019SOL    HW238520   0.006   1.881   3.603 -0.7893  0.2089  1.3326
 9020SOL     OW38521   1.384   4.364   3.994  0.8923 -0.3852  0.2871
 9020SOL    HW138522   1.367   4.295   4.058 -1.4886  0.0119  0.1169
 9020SOL    HW238523   1.304   4.417   3.994 -0.0599 -1.7606 -2.4465
 9021SOL     OW38524   3.485   3.053   0.062  0.8438  0.3491  0.3648
 9021SOL    HW138525   3.566   3.055   0.113  1.4897  0.8216 -0.6786
 9021SOL    HW238526   3.428   3.044   0.138  0.7812 -3.1091 -0.0919
 9022SOL     OW38527   0.533   1.068   0.085  0.3931  0.4345 -0.1433
 9022SOL    HW138528   0.461   1.008   0.102  3.3533 -2.8114  0.8101
 9022SOL    HW238529   0.592   1.025   0.023 -0.8846 -0.8110 -0.4800
 9023SOL     OW38530   0.935   0.837   8.136  0.0199  0.2769  0.0023
 9023SOL    HW138531   0.958   0.767   8.197  0.0173 -1.8904 -2.4636
 9023SOL    HW238532   0.984   0.805   8.061 -0.0267  0.8781 -0.2905
 9024SOL     OW38533   0.869   2.952   8.877  0.4417  0.1524  0.2888
 9024SOL    HW138534   0.879   2.922   8.967  3.3311  1.1096  0.3038
 9024SOL    HW238535   0.913   3.037   8.887  0.0722 -0.0214  3.3981
 9025SOL     OW38536   1.680   2.170   5.196 -0.2072  0.1358 -0.3938
 9025SOL    HW138537   1.633   2.086   5.197 -0.6235  0.3772 -0.0353
 9025SOL    HW238538   1.679   2.194   5.288  2.6280  1.9088 -0.8235
 9026SOL     OW38539   2.469   0.203   3.638  0.3508  0.5818 -0.0364
 9026SOL    HW138540   2.393   0.212   3.695 -1.3895 -0.0048 -2.2798
 9026SOL    HW238541   2.547   0.179   3.688  0.0939  1.4610  0.7770
 9027SOL     OW38542   2.618   3.201   2.438 -0.0580  0.1342  0.3836
 9027SOL    HW138543   2.532   3.236   2.416 -0.0649  0.2061  0.5248
 9027SOL    HW238544   2.591   3.137   2.503  1.1586 -0.8108 -0.0401
 9028SOL     OW38545   1.529   0.729   6.486 -0.6696  0.4081  0.3409
 9028SOL    HW138546   1.566   0.664   6.427 -0.6778  3.7058 -3.2411
 9028SOL    HW238547   1.435   0.730   6.468 -0.9440  0.3242  1.7405
 9029SOL     OW38548   2.169   0.504   0.577  0.4059 -0.1671  0.5280
 9029SOL    HW138549   2.089   0.475   0.621  0.0545  1.5126  1.0313
 9029SOL    HW238550   2.175   0.431   0.516  1.7726  0.8596 -0.5698
 9030SOL     OW38551   1.876   0.408   7.310  0.0595  0.1577 -0.1363
 9030SOL    HW138552   1.968   0.393   7.289  0.1930 -0.9507  1.2600
 9030SOL    HW238553   1.851   0.429   7.220  0.5107  2.5888  0.3177
 9031SOL     OW38554   0.141   4.522   4.017  0.8036  0.1005 -0.0085
 9031SOL    HW138555   0.087   4.593   4.052  1.1951 -1.1361  3.1000
 9031SOL    HW238556   0.227   4.536   4.058  1.8739 -3.2344 -1.0893
 9032SOL     OW38557   3.935   0.448   0.561 -0.6705 -0.0571  0.2867
 9032SOL    HW138558   3.995   0.521   0.570 -0.3061 -0.3575  0.2951
 9032SOL    HW238559   3.912   0.441   0.468 -1.5824  1.1427  0.4250
 9033SOL     OW38560   2.986   0.252  16.900 -0.2742  0.4151 -0.2133
 9033SOL    HW138561   2.985   0.291  16.987 -0.9996  1.2022 -0.5772
 9033SOL    HW238562   3.079   0.244  16.878 -0.7151 -0.4519 -1.8163
 9034SOL     OW38563   1.353   1.718   3.658 -0.3254  0.7421  0.2945
 9034SOL    HW138564   1.343   1.703   3.752  0.6210 -3.4128 -0.2676
 9034SOL    HW238565   1.260   1.721   3.638 -0.9401  0.0138  3.0847
 9035SOL     OW38566   2.883   3.644   7.604  0.7141 -0.6070 -0.3689
 9035SOL    HW138567   2.847   3.572   7.551 -0.2128  0.4674 -1.2144
 9035SOL    HW238568   2.963   3.658   7.553  1.3316 -1.9421  0.2423
 9036SOL     OW38569   1.797   0.811  16.002 -0.3460 -0.2475  0.0543
 9036SOL    HW138570   1.762   0.899  15.988 -0.7299 -0.2587  0.9702
 9036SOL    HW238571   1.778   0.801  16.095 -0.7430 -1.4497 -0.1602
 9037SOL     OW38572   1.076   3.775   3.430  0.0056  0.0474 -0.0295
 9037SOL    HW138573   1.080   3.727   3.513  1.9263 -0.6924 -0.5559
 9037SOL    HW238574   1.030   3.714   3.372  0.0446  1.8155 -1.8857
 9038SOL     OW38575   0.641   3.242   0.071 -0.4983 -0.2683  0.2361
 9038SOL    HW138576   0.596   3.325   0.089  0.3603  0.7473 -2.2057
 9038SOL    HW238577   0.642   3.205   0.159 -0.3460 -1.0010 -0.0779
 9039SOL     OW38578   0.417   2.191   3.701 -0.1151 -0.0141  0.2994
 9039SOL    HW138579   0.409   2.113   3.646  0.8202 -1.2539  1.8967
 9039SOL    HW238580   0.505   2.182   3.739  0.4358  1.8665 -0.5414
 9040SOL     OW38581   0.325   1.718   7.481 -0.0410 -0.5556  0.1371
 9040SOL    HW138582   0.339   1.720   7.575 -0.0225 -0.5184  0.1334
 9040SOL    HW238583   0.250   1.658   7.480 -0.5573  0.0907  1.9437
 9041SOL     OW38584   0.944   0.870   0.325  0.3251 -0.6063  0.2879
 9041SOL    HW138585   0.855   0.892   0.353  0.3337 -2.3342  1.7071
 9041SOL    HW238586   0.978   0.827   0.404  2.1607  1.0308  0.4020
 9042SOL     OW38587   3.878   1.187   7.228  0.2380  0.8332 -0.1115
 9042SOL    HW138588   3.828   1.152   7.154 -1.3616  1.0146  0.8846
 9042SOL    HW238589   3.816   1.254   7.254 -3.8638 -1.9356 -2.7987
 9043SOL     OW38590   3.284   1.996   7.613 -0.5683  0.0637 -0.2148
 9043SOL    HW138591   3.277   1.950   7.529  0.0454 -0.0417 -0.2124
 9043SOL    HW238592   3.224   1.942   7.664  0.3624  0.5429  1.3798
 9044SOL     OW38593   4.470   4.251   2.339  0.1083 -0.2203  0.2607
 9044SOL    HW138594   4.465   4.250   2.243  0.1663 -1.5120  0.2605
 9044SOL    HW238595   4.377   4.256   2.364  0.4787 -1.0524  1.8170
 9045SOL     OW38596   0.887   0.450   6.260  0.3969 -0.6486 -0.2929
 9045SOL    HW138597   0.968   0.473   6.215  1.0305 -4.9958 -1.3003
 9045SOL    HW238598   0.847   0.381   6.207  1.6366 -0.0328 -2.0158
 9046SOL     OW38599   1.743   0.497  13.308  0.4149  0.0563  0.5135
 9046SOL    HW138600   1.691   0.547  13.245  1.4943 -0.1063 -0.5175
 9046SOL    HW238601   1.686   0.484  13.384 -1.0711  0.0447 -0.6164
 9047SOL     OW38602   3.328   1.962   9.372 -0.4853 -0.4071  0.2880
 9047SOL    HW138603   3.346   2.050   9.339 -2.2343  0.4070  1.5190
 9047SOL    HW238604   3.282   1.978   9.454 -2.0021 -2.3463 -0.1906
 9048SOL     OW38605   2.807   3.659   0.964  0.3133  0.3014 -0.5209
 9048SOL    HW138606   2.823   3.674   1.057 -0.8877 -0.1635 -0.2375
 9048SOL    HW238607   2.855   3.733   0.927  2.3390  0.8069  3.0640
 9049SOL     OW38608   3.614   2.203   4.786  0.1003 -0.2980 -0.1690
 9049SOL    HW138609   3.527   2.206   4.825 -0.0521  3.5174 -0.8540
 9049SOL    HW238610   3.588   2.151   4.709 -1.9498 -0.2895  0.5090
 9050SOL     OW38611   1.857   2.129  10.733 -0.1370  0.1202  0.0348
 9050SOL    HW138612   1.902   2.113  10.815 -2.9090 -4.5221  0.6366
 9050SOL    HW238613   1.895   2.065  10.673  1.7916  1.8655 -0.6217
 9051SOL     OW38614   4.221   1.471   1.620  0.0886  0.3797 -0.2599
 9051SOL    HW138615   4.298   1.521   1.646 -1.5992  1.1696  3.1174
 9051SOL    HW238616   4.259   1.389   1.586 -2.4108 -0.9290  0.0658
 9052SOL     OW38617   3.095   1.028   7.255 -0.0973 -0.0403  0.0588
 9052SOL    HW138618   3.188   1.017   7.276  0.2140  1.9400 -0.2445
 9052SOL    HW238619   3.067   0.948   7.212 -2.5098  0.5727  0.5129
 9053SOL     OW38620   4.322   2.908   6.834 -0.3031 -0.4197 -0.0416
 9053SOL    HW138621   4.288   2.983   6.882 -0.1234 -0.3662  0.0021
 9053SOL    HW238622   4.272   2.841   6.880  0.4068  0.5054  2.0866
 9054SOL     OW38623   1.117   0.534   3.158 -0.2680  0.0634  0.0305
 9054SOL    HW138624   1.039   0.504   3.113 -0.7891  2.3527 -0.6111
 9054SOL    HW238625   1.175   0.523   3.083  1.5606  0.2691  1.4076
 9055SOL     OW38626   1.255   1.016  11.356  0.3782 -0.4165 -0.1758
 9055SOL    HW138627   1.252   0.944  11.419 -1.1848  0.7134  1.0504
 9055SOL    HW238628   1.244   0.961  11.278  1.5498 -0.5900 -0.2151
 9056SOL     OW38629   1.372   4.608   8.033  0.0390  0.4651  0.1200
 9056SOL    HW138630   1.346   4.700   8.028  0.2895  0.4407 -1.6476
 9056SOL    HW238631   1.297   4.576   8.083  1.0722 -1.7403  0.2648
 9057SOL     OW38632   4.453   3.639  17.480 -0.1918  0.4022 -0.7812
 9057SOL    HW138633   4.501   3.575  17.427  0.1906 -0.7793  1.0099
 9057SOL    HW238634   4.446   3.589  17.561  0.0315 -0.5658 -1.3483
 9058SOL     OW38635   2.570   3.782   7.819 -0.0113  0.0666 -0.0469
 9058SOL    HW138636   2.640   3.718   7.831 -1.8571 -1.8244  0.7006
 9058SOL    HW238637   2.554   3.821   7.905 -2.2621 -2.5651  0.7444
 9059SOL     OW38638   2.660   3.485  13.040 -0.2554  0.2927  0.1241
 9059SOL    HW138639   2.743   3.461  13.081 -1.5604 -2.1050  1.3530
 9059SOL    HW238640   2.625   3.565  13.080 -0.3122  0.6939 -0.7351
 9060SOL     OW38641   1.193   3.178   8.078 -0.6735  0.3386  0.3820
 9060SOL    HW138642   1.274   3.189   8.029  0.1633 -2.2923  1.1900
 9060SOL    HW238643   1.147   3.257   8.047  0.8941  1.6302  1.3726
 9061SOL     OW38644   4.403   2.194  17.650  0.5686 -0.6113 -0.1595
 9061SOL    HW138645   4.407   2.274   0.014  0.0834 -0.9183  0.3553
 9061SOL    HW238646   4.379   2.220  17.561 -0.3040 -2.0749 -0.3600
 9062SOL     OW38647   3.362   3.850   9.276 -0.6821  0.7480  0.0101
 9062SOL    HW138648   3.373   3.758   9.252 -1.8293  0.3574  0.9621
 9062SOL    HW238649   3.278   3.874   9.236 -0.0435  2.8272 -0.0839
 9063SOL     OW38650   1.189   3.299   1.502 -0.6591  0.3193 -0.1301
 9063SOL    HW138651   1.275   3.329   1.530 -0.6363 -0.9833  1.2361
 9063SOL    HW238652   1.185   3.204   1.516 -0.5449  0.1604 -1.2329
 9064SOL     OW38653   3.666   4.604   4.500 -0.2977 -0.1892  0.5443
 9064SOL    HW138654   3.714   4.678   4.463  0.2282 -1.4952 -1.3973
 9064SOL    HW238655   3.636   4.563   4.419 -2.5358  1.9137  0.3087
 9065SOL     OW38656   3.121   1.158  15.763 -0.5064 -0.2099 -0.3261
 9065SOL    HW138657   3.095   1.206  15.685 -2.8264  1.0111  1.1834
 9065SOL    HW238658   3.053   1.191  15.822 -0.7534 -2.8267  0.8622
 9066SOL     OW38659   3.605   1.379   5.994 -0.5620 -0.2214 -0.1138
 9066SOL    HW138660   3.534   1.393   5.932 -0.4332  1.2969  0.0905
 9066SOL    HW238661   3.601   1.456   6.051 -0.4654 -1.4932  1.6256
 9067SOL     OW38662   1.555   2.247   0.667  0.2403 -0.1976 -0.3140
 9067SOL    HW138663   1.573   2.319   0.728 -0.5501 -0.6167  0.4107
 9067SOL    HW238664   1.504   2.190   0.724  1.2917  0.9185  1.7606
 9068SOL     OW38665   3.045   4.594   1.163  0.2052 -0.8816 -0.4301
 9068SOL    HW138666   3.030   4.523   1.101  0.2485  0.9173 -2.4582
 9068SOL    HW238667   2.955   4.616   1.185  0.4202 -0.3581 -0.0659
 9069SOL     OW38668   2.247   3.123   4.171  0.1485  0.1328  0.3517
 9069SOL    HW138669   2.164   3.170   4.178 -0.2480  0.1187 -4.1729
 9069SOL    HW238670   2.304   3.196   4.148  0.3521 -0.8633 -2.3380
 9070SOL     OW38671   3.531   0.311   2.051  0.4137  0.2885 -0.2769
 9070SOL    HW138672   3.566   0.399   2.040 -0.0023  0.9120  3.3363
 9070SOL    HW238673   3.584   0.272   2.121 -1.1784 -1.6524 -0.1883
 9071SOL     OW38674   3.688   2.682  14.694 -0.2808 -0.6071  0.1298
 9071SOL    HW138675   3.756   2.678  14.627 -1.0730 -1.6665 -0.6144
 9071SOL    HW238676   3.731   2.641  14.769 -0.2843  0.8381  0.9163
 9072SOL     OW38677   2.810   0.831   3.847 -0.9574 -0.0894  0.7702
 9072SOL    HW138678   2.805   0.741   3.878 -0.1788 -0.8781 -1.4374
 9072SOL    HW238679   2.812   0.884   3.927 -0.7305 -0.7441  1.2000
 9073SOL     OW38680   3.921   3.504   9.699  0.2298  0.0404 -0.0121
 9073SOL    HW138681   3.903   3.568   9.767  1.6350  0.4894 -0.0623
 9073SOL    HW238682   3.881   3.422   9.728  0.9640 -0.2933  0.0690
 9074SOL     OW38683   2.342   2.384  15.542  0.0942 -0.3331 -0.1291
 9074SOL    HW138684   2.265   2.401  15.596  0.5446 -1.2558  0.7965
 9074SOL    HW238685   2.387   2.336  15.611 -0.3215 -0.9016 -0.2517
 9075SOL     OW38686   2.945   4.241   2.017 -0.2243  0.0066 -0.4948
 9075SOL    HW138687   2.872   4.303   2.024  0.6650  0.7223  2.5691
 9075SOL    HW238688   3.010   4.290   1.967  0.2782  1.8602  1.9726
 9076SOL     OW38689   1.359   1.464   2.500  0.3608 -0.1262  0.1464
 9076SOL    HW138690   1.438   1.470   2.447  1.0943  5.2208  1.8388
 9076SOL    HW238691   1.323   1.376   2.486 -0.4955  0.3787 -0.8485
 9077SOL     OW38692   2.109   0.341  13.152  0.1028  0.5872 -0.2251
 9077SOL    HW138693   2.083   0.381  13.070 -2.3517 -0.3517  0.0865
 9077SOL    HW238694   2.134   0.252  13.124  0.4406  0.7624 -0.4839
 9078SOL     OW38695   2.774   1.169   2.103  0.2838  0.6910 -0.5975
 9078SOL    HW138696   2.854   1.117   2.107 -0.9134 -1.1658 -0.4667
 9078SOL    HW238697   2.780   1.217   2.185  0.2535 -1.0813  0.4361
 9079SOL     OW38698   3.440   3.943   6.382 -0.3136  0.2893 -0.2371
 9079SOL    HW138699   3.461   4.021   6.433 -1.9419 -1.0249  2.4219
 9079SOL    HW238700   3.435   3.979   6.294  1.0077 -0.5660 -0.6731
 9080SOL     OW38701   2.522   0.196   6.103 -0.1973  0.0556  0.1083
 9080SOL    HW138702   2.452   0.262   6.101  0.4180  0.6765 -0.6687
 9080SOL    HW238703   2.552   0.200   6.193 -2.2890  2.3382  0.6906
 9081SOL     OW38704   3.741   4.598   5.788 -0.2985  0.4721 -0.2051
 9081SOL    HW138705   3.704   4.593   5.876 -1.4335  1.1151 -0.6327
 9081SOL    HW238706   3.758   4.692   5.782  0.5483  0.1160 -3.5697
 9082SOL     OW38707   3.724   0.462   3.177  0.0022 -0.3436  0.6745
 9082SOL    HW138708   3.734   0.423   3.091  2.7315  1.2302  0.2539
 9082SOL    HW238709   3.818   0.455   3.197 -0.2197  1.0870  2.3208
 9083SOL     OW38710   0.691   2.008  14.684 -0.4235  0.1054  0.0466
 9083SOL    HW138711   0.704   2.096  14.719 -0.7099  0.1922 -0.0698
 9083SOL    HW238712   0.597   1.999  14.671 -0.6406  0.4371  1.3533
 9084SOL     OW38713   3.538   3.088  10.673 -0.1580  0.0322  0.1106
 9084SOL    HW138714   3.490   3.156  10.721 -0.0051  0.2374 -0.0289
 9084SOL    HW238715   3.624   3.118  10.699 -0.8903  1.4938  0.8491
 9085SOL     OW38716   0.361   2.071   0.621  0.6211 -0.2191  0.2393
 9085SOL    HW138717   0.421   2.052   0.549 -0.3850  2.4137 -1.2889
 9085SOL    HW238718   0.420   2.090   0.694  2.2258 -0.1496 -1.0618
 9086SOL     OW38719   4.099   0.336  11.484 -0.1632 -0.1195 -0.0783
 9086SOL    HW138720   4.072   0.300  11.568  0.3691  1.1371  0.6225
 9086SOL    HW238721   4.117   0.428  11.498  1.1449 -0.1045 -1.8177
 9087SOL     OW38722   1.241   0.137   6.693 -0.2620  0.2140 -0.1764
 9087SOL    HW138723   1.199   0.053   6.709  1.9718 -0.9375 -0.3075
 9087SOL    HW238724   1.171   0.199   6.711 -1.2602 -0.9210 -0.2047
 9088SOL     OW38725   3.980   1.957   1.986  0.0041 -0.5474 -0.2734
 9088SOL    HW138726   4.024   1.929   1.905  0.0925 -0.7721 -0.1474
 9088SOL    HW238727   4.056   1.999   2.025  1.0578 -1.9663 -0.8077
 9089SOL     OW38728   4.323   2.042   4.492  0.4773 -0.4899  0.4007
 9089SOL    HW138729   4.406   2.077   4.526  0.0353 -0.4335  1.4285
 9089SOL    HW238730   4.330   2.076   4.403  0.4758 -0.5763  0.3675
 9090SOL     OW38731   3.694   1.334   5.103  0.0284 -0.4519 -0.1875
 9090SOL    HW138732   3.664   1.365   5.189  0.2293 -0.4681 -0.1128
 9090SOL    HW238733   3.635   1.383   5.046 -1.0210  0.2832  1.5090
 9091SOL     OW38734   4.218   3.481   7.156 -0.5300 -0.2938 -0.3024
 9091SOL    HW138735   4.186   3.540   7.224  1.1222  0.4030 -0.1382
 9091SOL    HW238736   4.245   3.540   7.085 -0.5547  0.0750 -0.0074
 9092SOL     OW38737   3.981   0.457   1.911  0.6414  0.5063  0.4031
 9092SOL    HW138738   4.066   0.431   1.948  1.3080  0.3708 -1.2107
 9092SOL    HW238739   3.984   0.416   1.825  0.9281 -1.0033  1.1330
 9093SOL     OW38740   2.922   1.940  16.231  0.1566 -0.4302 -0.0003
 9093SOL    HW138741   2.888   1.949  16.320 -1.5597  0.4131 -0.7312
 9093SOL    HW238742   3.014   1.965  16.241 -0.1000  0.5629 -0.1369
 9094SOL     OW38743   0.824   0.666  13.491 -0.1547  0.6182  0.0551
 9094SOL    HW138744   0.887   0.731  13.523  1.9360 -1.3494 -0.0771
 9094SOL    HW238745   0.808   0.617  13.572  1.3807  0.7105  0.4193
 9095SOL     OW38746   0.969   3.026  16.161 -0.2442  0.5108 -0.1094
 9095SOL    HW138747   1.023   2.952  16.189 -0.9236 -0.2226 -0.7272
 9095SOL    HW238748   0.944   2.994  16.074 -1.1721  2.4401 -0.5516
 9096SOL     OW38749   2.475   4.717   6.759  0.2549  0.2046 -0.1288
 9096SOL    HW138750   2.477   4.690   6.668  0.3521 -0.6135  0.1147
 9096SOL    HW238751   2.555   4.681   6.797  0.9067  1.8829  0.1016
 9097SOL     OW38752   3.296   0.515  11.904 -0.3346 -0.2449  0.5188
 9097SOL    HW138753   3.357   0.569  11.954  2.7242 -1.1253 -2.2670
 9097SOL    HW238754   3.356   0.495  11.831 -0.9352  0.8316 -0.2854
 9098SOL     OW38755   0.979   4.398   3.079 -0.7703  0.1271  0.7152
 9098SOL    HW138756   0.903   4.441   3.118  0.1268  1.7016  0.7041
 9098SOL    HW238757   0.974   4.308   3.112 -1.3920  0.7740  2.3645
 9099SOL     OW38758   4.320   2.327   2.823  0.2116  0.3985  0.1733
 9099SOL    HW138759   4.336   2.278   2.742  1.0009 -0.3410  0.7692
 9099SOL    HW238760   4.237   2.291   2.854 -1.2898  4.3228  0.6147
 9100SOL     OW38761   3.596   3.743  16.689 -0.1654  0.2420  0.1641
 9100SOL    HW138762   3.521   3.683  16.692  1.3468 -1.7146 -0.8275
 9100SOL    HW238763   3.606   3.760  16.595 -1.2146 -0.8652 -0.1420
 9101SOL     OW38764   2.621   4.239   1.020 -0.3303 -0.2445 -0.0722
 9101SOL    HW138765   2.611   4.162   0.964  0.8427 -0.0969 -0.4871
 9101SOL    HW238766   2.529   4.247   1.043 -0.4080  0.3496 -0.5649
 9102SOL     OW38767   4.573   0.725   2.051 -0.3967  0.1877  0.3740
 9102SOL    HW138768   4.514   0.753   1.982 -1.6476 -1.8541  0.6379
 9102SOL    HW238769   4.605   0.641   2.017 -2.3049 -0.6832  0.7439
 9103SOL     OW38770   1.362   1.908   6.318  0.3640 -0.1393 -0.7020
 9103SOL    HW138771   1.369   2.002   6.340 -0.8321 -0.0456 -0.7097
 9103SOL    HW238772   1.447   1.896   6.277  0.4375  3.0377 -1.4951
 9104SOL     OW38773   0.531   0.547   7.903 -0.2483  0.4769 -0.1623
 9104SOL    HW138774   0.617   0.540   7.863 -0.9044  0.5395 -1.6037
 9104SOL    HW238775   0.540   0.594   7.986 -4.0241  0.7809  0.0919
 9105SOL     OW38776   0.918   4.321   8.504 -0.0730 -0.1340  0.4896
 9105SOL    HW138777   0.886   4.410   8.488 -0.1185 -0.5355 -1.7539
 9105SOL    HW238778   1.013   4.331   8.510 -0.3763  2.2852  1.0024
 9106SOL     OW38779   1.363   1.762   5.611  0.1607  1.1559  0.4130
 9106SOL    HW138780   1.426   1.714   5.557  0.7975  2.8181 -0.3293
 9106SOL    HW238781   1.366   1.714   5.694 -0.2203 -0.9659 -0.7934
 9107SOL     OW38782   4.588   3.217  15.679 -0.5312  0.0402  0.1191
 9107SOL    HW138783   4.558   3.197  15.767  0.0297 -0.8099  0.1088
 9107SOL    HW238784   4.606   3.310  15.695 -0.2845 -0.3070  1.7554
 9108SOL     OW38785   2.179   0.853  16.195  0.6247 -0.3983  0.0116
 9108SOL    HW138786   2.262   0.825  16.232  0.3728 -0.4377  0.5575
 9108SOL    HW238787   2.169   0.942  16.229 -0.2598 -0.8760  1.0414
 9109SOL     OW38788   2.700   4.446   8.641 -0.3221 -0.0066 -0.0440
 9109SOL    HW138789   2.789   4.416   8.658 -0.3312 -1.3236 -2.3482
 9109SOL    HW238790   2.701   4.537   8.671  1.5077 -0.2396  0.6091
 9110SOL     OW38791   2.647   3.487   0.460 -0.0489  0.0306 -0.2313
 9110SOL    HW138792   2.645   3.440   0.377  2.3465  1.5836 -1.1733
 9110SOL    HW238793   2.742   3.476   0.474  0.1126  2.3342  0.5476
 9111SOL     OW38794   3.030   2.994  17.539  0.2144  0.0710 -0.5004
 9111SOL    HW138795   3.100   3.015  17.601  0.9101 -0.0436 -1.2432
 9111SOL    HW238796   2.949   3.027  17.578 -0.1080 -0.7030 -0.5284
 9112SOL     OW38797   4.418   0.733   4.770  0.0195  0.1719  0.1780
 9112SOL    HW138798   4.446   0.646   4.797 -0.7832  0.0394  0.5689
 9112SOL    HW238799   4.499   0.779   4.793  0.1649 -0.5404  1.0630
 9113SOL     OW38800   1.872   4.715  17.311  0.2067  0.2207  0.1958
 9113SOL    HW138801   1.896   0.018  17.222  0.2676 -2.2671 -0.4439
 9113SOL    HW238802   1.801   0.055  17.331  1.0419  1.2433  0.0848
 9114SOL     OW38803   0.521   2.475   8.248 -0.2627  0.7358  0.0205
 9114SOL    HW138804   0.436   2.505   8.280  1.2226  1.6155  3.0974
 9114SOL    HW238805   0.499   2.466   8.155 -1.0709  1.6185  0.1322
 9115SOL     OW38806   4.077   4.553   3.782  0.0810 -0.2540 -0.0460
 9115SOL    HW138807   3.998   4.605   3.765 -0.4204 -0.4327  1.7640
 9115SOL    HW238808   4.102   4.542   3.690 -3.0208  2.0276 -1.1418
 9116SOL     OW38809   3.309   1.304  10.775  0.0373  0.2542  0.0640
 9116SOL    HW138810   3.259   1.288  10.855 -0.2274  1.7255  0.2063
 9116SOL    HW238811   3.267   1.385  10.746  1.2174  0.8621  0.0756
 9117SOL     OW38812   4.093   1.731   4.852  0.0456 -0.1377  0.4790
 9117SOL    HW138813   4.115   1.638   4.858 -0.3745 -0.3492 -1.2841
 9117SOL    HW238814   3.997   1.727   4.853  0.0760 -0.5988  1.4297
 9118SOL     OW38815   3.175   1.387   8.029  0.3093  0.5285  0.2973
 9118SOL    HW138816   3.169   1.453   8.098  2.2933 -0.2827  1.2412
 9118SOL    HW238817   3.122   1.416   7.955  0.9571 -1.6373 -1.0143
 9119SOL     OW38818   3.030   3.846   5.887  0.0804  0.5058  0.3988
 9119SOL    HW138819   2.963   3.827   5.952  1.2259  0.4497  1.5701
 9119SOL    HW238820   3.061   3.934   5.909 -0.5993  1.1004 -1.0061
 9120SOL     OW38821   0.469   1.800  13.244 -0.1450  0.0559  0.6062
 9120SOL    HW138822   0.410   1.767  13.312  0.9310 -1.3379  0.8654
 9120SOL    HW238823   0.546   1.748  13.265  0.9171  1.1519 -0.5731
 9121SOL     OW38824   4.297   3.831  13.294  0.5633  0.2180 -0.0165
 9121SOL    HW138825   4.350   3.837  13.214  1.3510 -1.5628  0.3647
 9121SOL    HW238826   4.285   3.919  13.328  3.5701  1.3567 -1.8538
 9122SOL     OW38827   1.265   2.096   8.982 -0.1830 -0.5109  0.4492
 9122SOL    HW138828   1.224   2.156   8.919 -1.3392 -0.2871  1.4050
 9122SOL    HW238829   1.360   2.101   8.972  0.0760 -0.9638  2.7180
 9123SOL     OW38830   0.783   4.553   4.420  0.0845 -0.0463 -0.3854
 9123SOL    HW138831   0.816   4.566   4.509  2.4966  0.2107 -1.3272
 9123SOL    HW238832   0.775   4.458   4.421  2.8892 -0.2543  1.8557
 9124SOL     OW38833   4.355   4.347  10.563  0.1408 -0.3489  0.2476
 9124SOL    HW138834   4.446   4.324  10.541  0.1712  1.5011 -1.5632
 9124SOL    HW238835   4.369   4.435  10.527  0.8493 -0.8547 -0.7325
 9125SOL     OW38836   3.129   4.435  10.776 -0.9720 -0.2924 -0.0037
 9125SOL    HW138837   3.200   4.425  10.839 -1.3068 -0.3068  0.3744
 9125SOL    HW238838   3.145   4.521  10.737  0.2518  0.4960  2.2565
 9126SOL     OW38839   2.201   1.176  15.510 -0.8009  0.9146  0.4111
 9126SOL    HW138840   2.193   1.247  15.447 -0.2383 -1.2641 -2.0923
 9126SOL    HW238841   2.178   1.101  15.455  0.2225 -1.0306  2.6153
 9127SOL     OW38842   1.930   2.946   6.057 -0.2017  0.5884  0.2658
 9127SOL    HW138843   1.979   2.871   6.024 -1.4547 -0.2588  0.2977
 9127SOL    HW238844   1.951   3.007   5.987 -0.8213  0.0146 -0.4288
 9128SOL     OW38845   2.926   0.389  13.821  0.0195  0.2370 -0.0863
 9128SOL    HW138846   2.846   0.428  13.785 -0.5300 -0.8724 -0.0806
 9128SOL    HW238847   2.987   0.462  13.819  1.0374 -0.6052  0.5361
 9129SOL     OW38848   2.434   2.014  15.423 -0.5386 -0.1558  0.5375
 9129SOL    HW138849   2.411   2.081  15.358  2.2581  0.5212  0.2300
 9129SOL    HW238850   2.401   1.931  15.387 -1.2113 -0.1494  1.1419
 9130SOL     OW38851   0.137   3.523   6.129 -0.0973 -0.0035  0.6166
 9130SOL    HW138852   0.097   3.438   6.109 -1.0953  0.7884 -0.6774
 9130SOL    HW238853   0.169   3.555   6.045  0.7708 -0.8833  0.6109
 9131SOL     OW38854   4.279   4.036   3.777  0.2596  0.4373  0.0961
 9131SOL    HW138855   4.225   3.957   3.777  0.9135 -0.0190 -0.4611
 9131SOL    HW238856   4.336   4.010   3.704  2.2942  2.6966  0.8906
 9132SOL     OW38857   2.936   4.039   6.663  0.0856 -0.1980 -0.0020
 9132SOL    HW138858   2.958   3.969   6.602 -0.2672  0.5530 -0.9960
 9132SOL    HW238859   2.934   4.121   6.613 -0.2573  0.1470  0.5692
 9133SOL     OW38860   3.786   0.067   8.553 -0.2317 -0.1401  0.3188
 9133SOL    HW138861   3.804   0.158   8.577  1.0222 -0.3617  0.2576
 9133SOL    HW238862   3.781   0.023   8.638  1.9549 -3.6680 -1.3624
 9134SOL     OW38863   3.971   3.783   3.917  0.0125  0.4308  0.6577
 9134SOL    HW138864   3.945   3.733   3.994 -2.0356  2.2187  1.1139
 9134SOL    HW238865   4.066   3.797   3.927 -0.3778  3.0457  0.8884
 9135SOL     OW38866   2.039   0.152  17.525  0.6038  0.1366  0.0149
 9135SOL    HW138867   1.994   0.200  17.594  1.3914  1.3720 -0.3241
 9135SOL    HW238868   1.996   0.068  17.512  0.0523  0.7901 -2.3873
 9136SOL     OW38869   1.009   3.084   4.188  0.0327 -0.1562  0.4703
 9136SOL    HW138870   1.103   3.086   4.209  0.6268  0.9094 -2.3371
 9136SOL    HW238871   0.995   3.012   4.127  0.3863 -2.0320  2.5896
 9137SOL     OW38872   2.108   3.077   8.079  0.5455 -0.1171  0.1425
 9137SOL    HW138873   2.091   3.118   7.994 -1.9052 -0.7363  0.3189
 9137SOL    HW238874   2.035   3.117   8.127  0.1403 -1.1401  0.3829
 9138SOL     OW38875   4.087   4.020   7.376 -0.7050  0.0261  0.3165
 9138SOL    HW138876   4.140   3.986   7.449 -0.9431 -2.4615 -0.6735
 9138SOL    HW238877   4.134   3.977   7.304  0.2852  0.6092  0.6106
 9139SOL     OW38878   3.194   0.076   6.668  0.2615  0.0233 -0.4354
 9139SOL    HW138879   3.186   0.140   6.739  0.2237  0.1309 -0.5368
 9139SOL    HW238880   3.106   0.039   6.672 -0.4163  1.4708 -1.9406
 9140SOL     OW38881   4.406   2.931   7.677  0.1061  0.3292  0.1671
 9140SOL    HW138882   4.387   2.957   7.587  0.2977  0.7731  0.2527
 9140SOL    HW238883   4.361   2.847   7.675  1.5038 -0.3674 -1.6927
 9141SOL     OW38884   0.791   2.066   1.392  0.1632  0.5328 -0.6017
 9141SOL    HW138885   0.752   2.108   1.469  1.6236 -1.6659  1.3182
 9141SOL    HW238886   0.863   2.020   1.433 -2.0946 -0.5143  2.1929
 9142SOL     OW38887   3.560   1.397   5.323 -0.2947 -0.0605 -0.3378
 9142SOL    HW138888   3.550   1.407   5.417  0.5647  0.5536 -0.3098
 9142SOL    HW238889   3.477   1.354   5.302  1.3222 -2.0869 -2.6251
 9143SOL     OW38890   1.586   2.857  11.309  0.6264 -0.2410  0.0666
 9143SOL    HW138891   1.514   2.824  11.254  2.6863 -0.8656 -2.2709
 9143SOL    HW238892   1.605   2.785  11.369 -2.1215 -0.8748  0.1996
 9144SOL     OW38893   2.952   2.075   4.986 -0.0100 -0.3225 -0.5155
 9144SOL    HW138894   2.879   2.093   5.044  0.6010  1.7454 -0.3816
 9144SOL    HW238895   2.931   2.140   4.919  0.5226 -1.0154 -1.3468
 9145SOL     OW38896   2.827   0.852   7.815 -0.0558  0.4917 -0.3655
 9145SOL    HW138897   2.900   0.819   7.867 -0.3002  3.1315  1.6358
 9145SOL    HW238898   2.769   0.775   7.818  0.6747 -0.1124 -1.6335
 9146SOL     OW38899   3.878   0.146   5.182  0.1657 -0.0011 -0.2792
 9146SOL    HW138900   3.869   0.163   5.276 -0.4103 -2.0515  0.0205
 9146SOL    HW238901   3.814   0.075   5.175  1.0013 -0.5519 -2.2002
 9147SOL     OW38902   3.103   2.123   3.974  0.5497  0.6334  0.2635
 9147SOL    HW138903   3.008   2.140   3.976  0.1348 -1.3843 -2.8681
 9147SOL    HW238904   3.119   2.148   3.883  3.1616  2.2042  1.1581
 9148SOL     OW38905   0.463   4.268  14.587 -0.6011 -0.6040  0.5178
 9148SOL    HW138906   0.557   4.281  14.570 -1.2349  1.7615 -1.2285
 9148SOL    HW238907   0.449   4.175  14.598 -0.0897 -0.7875 -0.3601
 9149SOL     OW38908   0.284   1.047   0.655  0.0170  0.2256  0.4218
 9149SOL    HW138909   0.251   1.118   0.710 -0.8964 -0.0686  0.2589
 9149SOL    HW238910   0.307   1.091   0.573 -1.6527 -1.4661 -0.9635
 9150SOL     OW38911   0.817   1.170  11.418  0.1722  0.3427 -0.2969
 9150SOL    HW138912   0.724   1.182  11.401  0.4078  0.9086 -1.1662
 9150SOL    HW238913   0.827   1.075  11.413  0.3094  0.2982  0.9166
 9151SOL     OW38914   2.575   2.608   8.853  0.0631  0.3643  0.8774
 9151SOL    HW138915   2.556   2.599   8.946 -1.8433 -0.3096  0.4335
 9151SOL    HW238916   2.508   2.668   8.820 -0.1461 -0.3362  0.0038
 9152SOL     OW38917   3.957   0.698   8.931 -0.2686 -0.0239 -0.4196
 9152SOL    HW138918   3.926   0.614   8.895 -0.1753 -0.2974  0.1306
 9152SOL    HW238919   4.027   0.664   8.987  1.9742 -2.5786 -4.7175
 9153SOL     OW38920   3.209   3.735   0.888  0.2740  0.4315  0.3206
 9153SOL    HW138921   3.200   3.768   0.978 -1.1272 -2.7466  1.3487
 9153SOL    HW238922   3.159   3.653   0.892 -0.7322  1.0474  0.5009
 9154SOL     OW38923   4.222   2.065  13.995 -0.0134  0.2045 -0.2131
 9154SOL    HW138924   4.177   2.051  13.912  1.2058  0.3637 -0.9042
 9154SOL    HW238925   4.313   2.065  13.965  0.5233  1.0420  1.4054
 9155SOL     OW38926   1.278   2.405  17.230  0.3270  0.3589 -0.0792
 9155SOL    HW138927   1.329   2.401  17.149  0.4154 -1.2503  0.0394
 9155SOL    HW238928   1.349   2.393  17.294  0.7304 -2.5062 -1.0263
 9156SOL     OW38929   0.458   2.179   7.421 -0.2796 -0.2422  0.2409
 9156SOL    HW138930   0.464   2.119   7.495 -0.3985 -0.2128  0.2742
 9156SOL    HW238931   0.538   2.226   7.444  0.2705 -1.1766  0.2006
 9157SOL     OW38932   0.586   2.282  12.050 -0.6007 -0.6085 -0.0117
 9157SOL    HW138933   0.521   2.330  11.998  0.7154 -0.5209 -1.5534
 9157SOL    HW238934   0.571   2.198  12.008 -0.2072 -0.0465 -1.2780
 9158SOL     OW38935   0.676   3.589   2.932  0.0884 -0.1563 -0.4893
 9158SOL    HW138936   0.652   3.535   2.857  3.3568 -2.1076 -0.1610
 9158SOL    HW238937   0.586   3.614   2.951  0.5366  1.1515 -0.0856
 9159SOL     OW38938   4.629   1.118  12.589  0.0283 -0.5448  0.2137
 9159SOL    HW138939   4.574   1.196  12.594 -0.8352 -1.2388  1.4887
 9159SOL    HW238940   4.684   1.137  12.666 -1.2953  2.0561  0.5132
 9160SOL     OW38941   2.826   1.762   5.296 -0.2710 -0.5145  0.6508
 9160SOL    HW138942   2.839   1.850   5.334 -1.2438  0.6910 -1.8408
 9160SOL    HW238943   2.918   1.751   5.270 -0.2615  1.6793 -0.3079
 9161SOL     OW38944   2.046   2.746   7.489 -0.6282  0.1886 -0.5098
 9161SOL    HW138945   2.108   2.675   7.508 -2.0782 -0.7824  0.5496
 9161SOL    HW238946   2.053   2.762   7.395 -0.6344 -1.7060 -0.8372
 9162SOL     OW38947   2.589   0.331  16.985 -1.3709 -0.4477 -0.1598
 9162SOL    HW138948   2.645   0.293  17.053 -1.3745  0.9805  0.6342
 9162SOL    HW238949   2.534   0.393  17.031  1.8779  1.8809  0.5816
 9163SOL     OW38950   2.385   1.571   9.734  0.4497 -0.3852  0.4386
 9163SOL    HW138951   2.362   1.626   9.809  0.3232 -0.0707  0.1702
 9163SOL    HW238952   2.462   1.526   9.768  0.0421 -0.8788  0.7030
 9164SOL     OW38953   3.967   0.765   7.788  0.0209 -0.0367  0.2038
 9164SOL    HW138954   3.955   0.763   7.883 -1.0799  0.8299  0.0853
 9164SOL    HW238955   4.007   0.851   7.779 -0.0058 -0.1587 -1.0341
 9165SOL     OW38956   3.571   0.636  11.296  0.7631  0.7857 -0.0748
 9165SOL    HW138957   3.650   0.649  11.348  0.6454  1.0276  0.0443
 9165SOL    HW238958   3.520   0.569  11.342 -0.6109  2.0490  0.2817
 9166SOL     OW38959   1.923   4.572  12.534 -0.0968 -0.1191  0.1020
 9166SOL    HW138960   1.992   4.527  12.583  1.3711  0.1822 -1.7206
 9166SOL    HW238961   1.947   4.536  12.449 -0.9525  2.1084 -1.0773
 9167SOL     OW38962   1.623   3.312   1.377  0.2175  0.1611 -0.8391
 9167SOL    HW138963   1.687   3.241   1.372 -0.0765 -0.2046  0.7668
 9167SOL    HW238964   1.669   3.379   1.325  0.8443  0.2236 -0.1983
 9168SOL     OW38965   2.043   2.232   7.576  0.1287  0.1884  0.2001
 9168SOL    HW138966   2.126   2.211   7.533 -0.9369  1.3855 -2.4561
 9168SOL    HW238967   1.983   2.231   7.501 -0.0615  0.0531  0.3545
 9169SOL     OW38968   2.607   3.174   0.507 -1.1968 -0.4801  0.7637
 9169SOL    HW138969   2.578   3.230   0.578 -2.0220 -0.5265  0.4658
 9169SOL    HW238970   2.581   3.233   0.436  1.3156 -1.9851 -1.4117
 9170SOL     OW38971   2.837   2.200   6.084 -0.2227  0.5579  0.5645
 9170SOL    HW138972   2.897   2.149   6.030 -2.2063 -2.4941  1.2423
 9170SOL    HW238973   2.809   2.131   6.145 -0.7246  0.9684  0.7953
 9171SOL     OW38974   2.795   4.036   7.324 -0.4977 -0.5420  0.3683
 9171SOL    HW138975   2.772   3.984   7.402 -0.8700 -1.0780 -0.1026
 9171SOL    HW238976   2.790   4.127   7.353 -0.7602  0.0987 -1.7273
 9172SOL     OW38977   3.598   3.329   6.278 -0.4419 -0.3007  0.6410
 9172SOL    HW138978   3.561   3.344   6.365  0.2045 -0.3458  0.9184
 9172SOL    HW238979   3.623   3.237   6.287 -0.9737 -0.3100  1.9953
 9173SOL     OW38980   4.246   3.523   9.380 -0.4560 -0.0511 -0.4641
 9173SOL    HW138981   4.200   3.583   9.438  0.7182  1.3414 -0.9531
 9173SOL    HW238982   4.232   3.432   9.408 -0.6316 -0.4457 -1.8202
 9174SOL     OW38983   3.714   0.080  12.931  0.0793  0.3779 -0.1202
 9174SOL    HW138984   3.706   0.174  12.914  1.9915  0.9118  1.9307
 9174SOL    HW238985   3.625   0.064  12.963  0.8063 -0.9980  1.1521
 9175SOL     OW38986   2.133   1.311   3.617  0.4386 -0.1088  0.9207
 9175SOL    HW138987   2.146   1.352   3.532 -2.3831 -0.3730  0.3588
 9175SOL    HW238988   2.167   1.227   3.585  0.4228  0.0664  0.4447
 9176SOL     OW38989   4.606   4.064  11.361  0.2245  0.7690  0.0373
 9176SOL    HW138990   4.607   4.080  11.455  2.0465 -1.5780  0.4485
 9176SOL    HW238991   4.666   4.130  11.328  0.9428 -0.7079 -1.6580
 9177SOL     OW38992   0.848   0.294   2.767  0.8555  0.6365 -0.9763
 9177SOL    HW138993   0.781   0.248   2.716 -0.9246 -0.0238  1.9673
 9177SOL    HW238994   0.925   0.283   2.711  2.6256 -0.9112  1.8227
 9178SOL     OW38995   4.305   3.692   8.602 -0.0329 -0.5620 -0.1927
 9178SOL    HW138996   4.226   3.747   8.597  0.8666  0.5285 -2.4952
 9178SOL    HW238997   4.258   3.609   8.598  1.3706 -1.3720  0.5487
 9179SOL     OW38998   0.713   0.778  15.126  0.1818 -0.1871  0.8739
 9179SOL    HW138999   0.728   0.735  15.210  0.2591 -0.4524  0.7224
 9179SOL    HW239000   0.747   0.866  15.144 -1.0161  0.3045  0.7437
 9180SOL     OW39001   3.247   0.533   4.105 -0.2982 -0.5699 -0.3857
 9180SOL    HW139002   3.171   0.474   4.099 -1.3914  0.9438 -1.3299
 9180SOL    HW239003   3.200   0.616   4.101 -0.1233 -0.5242 -1.4117
 9181SOL     OW39004   0.076   4.477  14.976 -0.2738  0.6853  0.1641
 9181SOL    HW139005   0.138   4.499  14.906  0.1230  0.2177  0.3723
 9181SOL    HW239006   0.138   4.485  15.048 -0.5950  1.1234  0.3906
 9182SOL     OW39007   2.238   3.483   2.528 -0.1866 -0.1227 -0.2013
 9182SOL    HW139008   2.184   3.544   2.578 -0.8764 -0.0514 -1.0311
 9182SOL    HW239009   2.312   3.481   2.589 -1.7316 -1.0950  1.6383
 9183SOL     OW39010   2.130   4.455  12.688  0.5182 -0.2813 -0.4216
 9183SOL    HW139011   2.143   4.492  12.776  0.4742 -0.8525 -0.1780
 9183SOL    HW239012   2.200   4.395  12.663  2.5058  1.4483  1.0176
 9184SOL     OW39013   0.764   3.728   6.825 -0.2262  0.1896  1.2767
 9184SOL    HW139014   0.711   3.648   6.831  0.0915 -0.1327 -0.2353
 9184SOL    HW239015   0.712   3.772   6.758  0.8094  0.8595  0.9268
 9185SOL     OW39016   2.020   3.234  12.152 -0.0493  0.0189  0.2444
 9185SOL    HW139017   2.079   3.174  12.107  0.3237  1.6016 -1.3356
 9185SOL    HW239018   1.966   3.177  12.207  0.0500 -1.5836 -1.3021
 9186SOL     OW39019   2.401   1.766   5.936  0.7013 -0.4050 -0.9464
 9186SOL    HW139020   2.323   1.710   5.933  0.8669 -0.6407 -0.8855
 9186SOL    HW239021   2.354   1.835   5.984  1.2030 -0.7896  0.0880
 9187SOL     OW39022   1.080   1.022   6.657 -0.1686 -0.0947 -0.2293
 9187SOL    HW139023   1.112   1.091   6.600  0.6382 -1.9573 -2.0237
 9187SOL    HW239024   0.999   1.058   6.693  0.2046  0.4406  0.0718
 9188SOL     OW39025   2.192   4.720   1.934 -0.5039 -0.3697  0.6499
 9188SOL    HW139026   2.215   0.089   1.957 -3.8863  1.4889 -3.3039
 9188SOL    HW239027   2.100   0.017   1.913 -0.1181  1.2164  0.3002
 9189SOL     OW39028   4.191   0.917  12.447 -0.5117  0.4547 -0.0745
 9189SOL    HW139029   4.214   0.892  12.537 -0.6585  0.2001 -0.1064
 9189SOL    HW239030   4.275   0.912  12.402  0.6147 -2.8407  2.3987
 9190SOL     OW39031   0.655   0.471   8.623  0.0906 -0.0702 -0.1833
 9190SOL    HW139032   0.659   0.512   8.709 -2.2187 -1.3788  0.5657
 9190SOL    HW239033   0.738   0.424   8.623 -2.2481 -4.2499 -1.9173
 9191SOL     OW39034   3.603   0.247   5.695 -0.0024 -0.7095 -0.2280
 9191SOL    HW139035   3.685   0.247   5.744  0.4006  1.2152 -0.8913
 9191SOL    HW239036   3.549   0.293   5.760  1.1469 -1.9882  1.6244
 9192SOL     OW39037   1.828   4.166   7.193 -0.4964  0.0321 -0.5861
 9192SOL    HW139038   1.887   4.230   7.234 -1.3539  0.8398 -0.6090
 9192SOL    HW239039   1.869   4.081   7.210  0.9659  0.9787  0.6390
 9193SOL     OW39040   2.720   3.659  15.812 -0.4748  0.3326 -0.2757
 9193SOL    HW139041   2.809   3.694  15.802 -0.1740  0.5326  3.2618
 9193SOL    HW239042   2.726   3.568  15.784 -1.6391  0.3638 -0.6400
 9194SOL     OW39043   3.572   3.145   9.209 -0.7706 -0.5805 -0.5826
 9194SOL    HW139044   3.609   3.224   9.249 -0.9667 -0.0360 -1.4737
 9194SOL    HW239045   3.481   3.174   9.208 -0.0251  1.7932 -1.3230
 9195SOL     OW39046   3.459   2.871   5.286  0.0362  0.3384 -0.2040
 9195SOL    HW139047   3.412   2.841   5.363  0.3830  1.7448  0.5477
 9195SOL    HW239048   3.397   2.870   5.213 -1.0909 -0.1385  0.7699
 9196SOL     OW39049   0.774   4.309   3.488  0.2246 -0.2998  0.5345
 9196SOL    HW139050   0.721   4.242   3.531 -2.0111  2.1040  1.5237
 9196SOL    HW239051   0.843   4.318   3.554  2.1262  0.6424 -1.5802
 9197SOL     OW39052   0.573   2.093  11.840  0.2360  0.2080  0.5586
 9197SOL    HW139053   0.647   2.033  11.848 -0.4140 -0.3234  2.4880
 9197SOL    HW239054   0.598   2.140  11.760  1.6675 -2.1633 -0.3772
 9198SOL     OW39055   1.470   1.446   7.079  0.2174 -0.6752 -0.0416
 9198SOL    HW139056   1.432   1.508   7.142 -1.0979 -1.5531  0.0318
 9198SOL    HW239057   1.411   1.371   7.089  1.3405 -1.2488  2.2697
 9199SOL     OW39058   0.762   4.459   6.741 -0.0812 -0.1743 -0.2036
 9199SOL    HW139059   0.709   4.485   6.667 -0.1722 -0.2201 -0.1541
 9199SOL    HW239060   0.837   4.508   6.706 -1.3460  2.2975  0.5486
 9200SOL     OW39061   4.302   0.751   2.520  0.5968 -0.1446 -0.5860
 9200SOL    HW139062   4.218   0.750   2.565 -0.5492 -1.0021 -2.7628
 9200SOL    HW239063   4.274   0.715   2.436  0.9818 -0.4675 -0.5768
 9201SOL     OW39064   1.180   2.625   3.878  0.9124 -0.3759  0.7876
 9201SOL    HW139065   1.095   2.582   3.882  2.2246 -2.7872  2.8359
 9201SOL    HW239066   1.165   2.648   3.786  1.7093  0.7644  0.9322
 9202SOL     OW39067   0.752   1.319   6.103 -0.0714  0.2165  0.2282
 9202SOL    HW139068   0.666   1.278   6.118 -0.5729  0.9054 -0.8315
 9202SOL    HW239069   0.792   1.281   6.182 -1.0243 -1.2995  0.0027
 9203SOL     OW39070   4.532   3.572   2.787  0.2884  0.2775  0.0409
 9203SOL    HW139071   4.443   3.535   2.792  0.2181  0.5536  0.7753
 9203SOL    HW239072   4.590   3.497   2.772 -0.0046  0.5809 -2.6877
 9204SOL     OW39073   1.657   1.142  11.221 -0.5878 -0.0250  0.0203
 9204SOL    HW139074   1.622   1.103  11.141 -0.8563 -2.0338  1.1031
 9204SOL    HW239075   1.716   1.205  11.180  1.5112 -2.1908 -0.3330
 9205SOL     OW39076   2.089   3.915   6.591  0.1411 -0.1496 -0.3547
 9205SOL    HW139077   2.113   3.997   6.549  4.3000 -0.5525  1.2669
 9205SOL    HW239078   2.155   3.911   6.660 -0.5791  0.1044  0.3538
 9206SOL     OW39079   2.994   4.161   9.369 -0.0276  0.1878  0.2511
 9206SOL    HW139080   2.942   4.242   9.376  1.3544  1.0557  0.5123
 9206SOL    HW239081   3.048   4.176   9.446  0.5168  1.9459 -0.4665
 9207SOL     OW39082   0.841   3.996   6.580  0.1990 -0.0085  0.3382
 9207SOL    HW139083   0.760   3.954   6.608  0.8324 -0.8267  0.9402
 9207SOL    HW239084   0.838   4.065   6.646  1.6987  2.3198 -1.9914
 9208SOL     OW39085   4.410   1.300  10.101 -0.2687  0.1017  0.4504
 9208SOL    HW139086   4.496   1.330  10.071 -0.0515 -0.2002  0.7672
 9208SOL    HW239087   4.421   1.286  10.195  2.5887 -2.7686 -0.2969
 9209SOL     OW39088   0.109   0.643  13.728 -0.0374 -0.4116  0.4110
 9209SOL    HW139089   0.198   0.609  13.714  0.8137  2.3749 -0.9396
 9209SOL    HW239090   0.074   0.562  13.692 -1.8294  1.6973 -2.5851
 9210SOL     OW39091   0.597   0.231   4.412  0.4105  0.1199 -0.4810
 9210SOL    HW139092   0.654   0.276   4.350  1.4387  1.4476  1.4432
 9210SOL    HW239093   0.571   0.293   4.480  0.6485  2.2132 -2.2947
 9211SOL     OW39094   1.418   2.438  16.969 -0.0596 -0.0650 -0.4498
 9211SOL    HW139095   1.352   2.410  16.905 -1.1719  0.6771  0.3789
 9211SOL    HW239096   1.478   2.364  16.960 -0.1376 -0.0437 -1.1149
 9212SOL     OW39097   1.289   0.679   4.654  0.1082 -0.3915  0.0059
 9212SOL    HW139098   1.320   0.590   4.673  3.3379  1.0606  1.3270
 9212SOL    HW239099   1.349   0.708   4.585  0.4203 -1.2923 -0.1008
 9213SOL     OW39100   1.437   3.901   6.691  0.0301 -0.0012  0.1474
 9213SOL    HW139101   1.374   3.908   6.762  0.8168  1.1646  0.7157
 9213SOL    HW239102   1.503   3.839   6.722 -0.6172 -1.9893 -2.3860
 9214SOL     OW39103   2.996   2.723  17.417  0.7041 -0.3010  0.6215
 9214SOL    HW139104   2.932   2.693  17.482 -2.9252  0.3695 -2.6641
 9214SOL    HW239105   3.025   2.808  17.450 -1.7212  0.5833  0.4812
 9215SOL     OW39106   1.279   1.905   4.770 -0.2035  0.2949 -0.0547
 9215SOL    HW139107   1.249   1.993   4.748  0.5985  0.8504  1.0933
 9215SOL    HW239108   1.365   1.888   4.731 -0.4963  1.3236 -1.1519
 9216SOL     OW39109   2.415   4.528   5.025  0.3347 -0.0752  0.0535
 9216SOL    HW139110   2.454   4.469   4.960 -0.5166 -1.6874  0.9851
 9216SOL    HW239111   2.457   4.613   5.026  0.5770 -0.2076  1.1110
 9217SOL     OW39112   4.102   4.369   1.434  0.2048  0.5475  0.0952
 9217SOL    HW139113   4.014   4.405   1.447  0.1830  0.7236 -0.5383
 9217SOL    HW239114   4.096   4.308   1.361  1.7333  0.2100  0.2455
 9218SOL     OW39115   0.717   0.951   4.460 -0.6423 -0.3432  0.4104
 9218SOL    HW139116   0.740   1.035   4.422 -2.0247  0.5154  1.4721
 9218SOL    HW239117   0.718   0.978   4.552  1.5332  4.4368 -1.0003
 9219SOL     OW39118   3.771   0.721  11.807 -0.9326 -0.1579  0.9504
 9219SOL    HW139119   3.775   0.668  11.727 -0.5906 -1.8857  2.1048
 9219SOL    HW239120   3.688   0.766  11.793 -0.3821  0.9164  1.1056
 9220SOL     OW39121   4.240   0.040   9.905  0.1521  0.4383 -0.2140
 9220SOL    HW139122   4.299   0.005   9.838  1.2938 -0.3753  1.1923
 9220SOL    HW239123   4.301   0.104   9.943 -1.1291  0.8443  1.1345
 9221SOL     OW39124   2.673   3.038   1.204 -0.4574 -0.6000 -0.0401
 9221SOL    HW139125   2.713   2.969   1.151  1.5126  0.3328  0.2740
 9221SOL    HW239126   2.722   3.111   1.168 -3.7510  0.5892 -2.1523
 9222SOL     OW39127   3.171   2.447   4.047  0.3209 -0.6868 -0.1388
 9222SOL    HW139128   3.234   2.430   4.116  1.4127 -0.7002 -1.1361
 9222SOL    HW239129   3.089   2.437   4.095  1.4429 -2.1413  1.4694
 9223SOL     OW39130   4.577   2.528   5.662 -0.3061  0.0467 -0.0361
 9223SOL    HW139131   4.637   2.496   5.594 -2.2288 -2.1474 -0.7052
 9223SOL    HW239132   4.644   2.529   5.731 -1.8817  1.1018  1.4629
 9224SOL     OW39133   1.970   1.034   5.073 -0.9098 -0.0907 -0.4559
 9224SOL    HW139134   1.895   0.975   5.067 -0.4256 -0.7324 -0.1937
 9224SOL    HW239135   1.966   1.091   4.996 -2.3741  1.8756  1.0827
 9225SOL     OW39136   2.246   2.212  16.719  0.3382  0.1208  0.0532
 9225SOL    HW139137   2.198   2.155  16.659 -2.1511  0.5046  1.7026
 9225SOL    HW239138   2.177   2.253  16.771  1.6734  0.4697  1.5624
 9226SOL     OW39139   1.413   3.611  15.274 -0.0307 -0.6993 -0.3733
 9226SOL    HW139140   1.428   3.552  15.200  1.6779 -1.4452  0.5877
 9226SOL    HW239141   1.476   3.681  15.258 -0.4194 -0.6533 -1.7303
 9227SOL     OW39142   0.468   1.307   4.462 -0.3787  0.3740 -0.3143
 9227SOL    HW139143   0.407   1.294   4.389 -0.0656  1.7845 -0.8269
 9227SOL    HW239144   0.487   1.399   4.442 -0.2305 -0.2739 -3.1911
 9228SOL     OW39145   0.871   0.504   4.641  0.1813  0.3954  0.1220
 9228SOL    HW139146   0.915   0.562   4.579  2.4890 -0.8214  0.6124
 9228SOL    HW239147   0.871   0.426   4.585  2.3665 -0.4713  1.3352
 9229SOL     OW39148   1.120   1.520   4.127 -0.0861  0.2430 -0.3501
 9229SOL    HW139149   1.133   1.586   4.195  0.1109  0.8990 -1.0210
 9229SOL    HW239150   1.181   1.551   4.060  2.4114  0.6935  2.1012
 9230SOL     OW39151   1.790   2.405   1.099  1.1529  0.2533  0.4287
 9230SOL    HW139152   1.695   2.411   1.108  1.3049  0.1451  2.2082
 9230SOL    HW239153   1.817   2.494   1.122  0.9698  0.0464  1.4285
 9231SOL     OW39154   4.670   1.827   8.009 -0.4704 -0.2254  0.2250
 9231SOL    HW139155   4.577   1.824   7.987  0.4910  0.8256 -3.9325
 9231SOL    HW239156   4.661   1.868   8.095 -1.7823 -2.4042  1.1582
 9232SOL     OW39157   3.102   1.876   7.762  0.1468 -0.2234 -0.1140
 9232SOL    HW139158   3.127   1.899   7.852 -1.2110 -0.1524  0.2511
 9232SOL    HW239159   3.044   1.801   7.776  0.1793 -0.4961 -1.4253
 9233SOL     OW39160   3.946   2.451   7.530  0.4908 -0.3218 -0.4426
 9233SOL    HW139161   3.890   2.451   7.452  1.1499 -0.2830 -0.9165
 9233SOL    HW239162   3.953   2.547   7.535  1.3460 -0.3599 -0.8945
 9234SOL     OW39163   0.462   1.369   2.416 -0.4824  0.1395  0.2146
 9234SOL    HW139164   0.393   1.349   2.353  2.4261 -0.6591 -2.6815
 9234SOL    HW239165   0.512   1.435   2.367 -0.0124 -1.2004 -1.0988
 9235SOL     OW39166   4.108   2.367   9.529 -0.1804  0.1233  0.1990
 9235SOL    HW139167   4.028   2.319   9.509  1.6185 -2.0934 -1.7005
 9235SOL    HW239168   4.078   2.410   9.609  2.4063  2.1084  0.1001
 9236SOL     OW39169   1.228   4.258   2.389  0.0772 -0.2674 -0.6413
 9236SOL    HW139170   1.298   4.228   2.331 -0.8606 -0.8751 -1.4521
 9236SOL    HW239171   1.152   4.227   2.340 -1.0008  0.4881  0.5474
 9237SOL     OW39172   1.267   2.054   1.480 -0.0249 -0.4223 -0.2990
 9237SOL    HW139173   1.184   2.036   1.523  0.3834  2.1267  1.5635
 9237SOL    HW239174   1.284   2.135   1.527  0.0786  0.1188 -1.2549
 9238SOL     OW39175   0.503   1.150   7.363 -0.3384  0.4576 -0.4807
 9238SOL    HW139176   0.456   1.234   7.359  0.6727  1.0237 -0.4504
 9238SOL    HW239177   0.580   1.184   7.409 -3.4355  1.0742  4.1699
 9239SOL     OW39178   1.452   0.570   7.643  0.4442 -0.1983 -0.0477
 9239SOL    HW139179   1.377   0.578   7.702  0.0845  2.3122 -0.8500
 9239SOL    HW239180   1.435   0.495   7.585  1.9984 -1.5967  1.3186
 9240SOL     OW39181   2.737   4.643   1.214  0.0643 -0.7650 -0.2025
 9240SOL    HW139182   2.767   4.628   1.303 -0.5611 -1.1041 -0.0496
 9240SOL    HW239183   2.749   4.557   1.173  0.0457  0.1458 -2.1123
 9241SOL     OW39184   2.306   0.560  11.289  0.7391 -0.1193 -0.4968
 9241SOL    HW139185   2.211   0.563  11.273  0.8647  1.1112 -0.9618
 9241SOL    HW239186   2.310   0.589  11.380 -1.3444 -0.4236 -0.2969
 9242SOL     OW39187   1.338   3.157   6.099  0.5408  0.2798  0.0885
 9242SOL    HW139188   1.249   3.161   6.135  0.8148  0.9784  0.6923
 9242SOL    HW239189   1.325   3.102   6.022  1.1118 -0.7966  0.7595
 9243SOL     OW39190   2.288   4.208   0.859 -0.3916 -0.9030  0.3387
 9243SOL    HW139191   2.197   4.212   0.829 -0.0967  2.5040 -0.1073
 9243SOL    HW239192   2.329   4.175   0.779 -3.9279  1.4866 -2.4152
 9244SOL     OW39193   3.883   3.908  10.892 -0.3266  0.2545  0.0167
 9244SOL    HW139194   3.947   3.970  10.926  0.2912 -0.2498 -0.2224
 9244SOL    HW239195   3.910   3.909  10.801  0.8427  1.8492  0.3972
 9245SOL     OW39196   2.145   1.370   6.988 -0.2208  0.3908  0.5089
 9245SOL    HW139197   2.212   1.435   7.007  0.0041 -0.1906  1.6875
 9245SOL    HW239198   2.188   1.284   6.997 -2.1210 -0.4877  1.2026
 9246SOL     OW39199   1.881   1.408   5.939  0.1093 -0.4449 -0.6960
 9246SOL    HW139200   1.925   1.405   6.024 -1.1230 -0.9814 -0.0651
 9246SOL    HW239201   1.794   1.437   5.968  0.0439 -2.5060  1.2226
 9247SOL     OW39202   2.268   3.596   0.991 -0.6327 -1.1113 -0.0341
 9247SOL    HW139203   2.343   3.620   0.937 -0.8149 -0.0392  0.2038
 9247SOL    HW239204   2.308   3.579   1.076 -1.8521 -1.5078  0.4630
 9248SOL     OW39205   0.955   1.375   4.518  0.3159 -0.4379 -0.5058
 9248SOL    HW139206   0.876   1.394   4.568 -0.7626  1.4217 -2.9497
 9248SOL    HW239207   1.004   1.319   4.578 -1.0145  1.0571  1.9839
 9249SOL     OW39208   4.464   3.175  10.167 -0.0390 -0.2180  0.2921
 9249SOL    HW139209   4.451   3.104  10.103 -0.0948  0.0835 -0.0290
 9249SOL    HW239210   4.440   3.141  10.253  0.4058  0.4947  0.6955
 9250SOL     OW39211   4.159   4.239   3.982  0.3310 -0.1082 -0.6504
 9250SOL    HW139212   4.112   4.202   4.058  1.3013 -0.7302 -0.3536
 9250SOL    HW239213   4.191   4.161   3.937  0.1439 -0.5120 -0.0920
 9251SOL     OW39214   3.728   3.442   9.024  0.2572 -0.0958  0.1639
 9251SOL    HW139215   3.805   3.404   9.067 -0.3305  0.3979  1.6454
 9251SOL    HW239216   3.698   3.506   9.089  0.9709 -1.4356  1.8174
 9252SOL     OW39217   4.058   3.242   8.186 -0.7666  0.3251 -0.2462
 9252SOL    HW139218   4.035   3.210   8.273  2.6989 -1.9918 -0.2023
 9252SOL    HW239219   3.971   3.271   8.158 -1.7034 -1.2640  1.0294
 9253SOL     OW39220   4.162   1.318   5.095 -0.3328 -0.3273 -1.0318
 9253SOL    HW139221   4.109   1.243   5.124  0.6331  0.1197  1.8080
 9253SOL    HW239222   4.112   1.390   5.134 -0.5040 -1.0344  0.0444
 9254SOL     OW39223   4.127   2.805   0.376  0.2318  0.2666  0.2406
 9254SOL    HW139224   4.052   2.746   0.384 -0.3082  0.7052 -1.5974
 9254SOL    HW239225   4.114   2.875   0.441 -0.1138  1.4167 -1.0636
 9255SOL     OW39226   0.709   2.972  17.466  0.4103  0.2028  0.5213
 9255SOL    HW139227   0.795   2.942  17.496  0.3595 -1.0658 -0.5897
 9255SOL    HW239228   0.651   2.899  17.488  0.3909 -0.1957 -0.8475
 9256SOL     OW39229   1.688   1.165   8.979  0.6290  0.3970 -0.1767
 9256SOL    HW139230   1.595   1.169   9.002  0.6726  1.1368 -0.1443
 9256SOL    HW239231   1.716   1.256   8.984 -0.4137  0.6599  0.8599
 9257SOL     OW39232   3.101   0.759   6.874  0.1555 -0.1577  0.1685
 9257SOL    HW139233   3.142   0.844   6.861  1.8821 -0.4969  3.3326
 9257SOL    HW239234   3.053   0.738   6.795 -1.4933 -1.6080  1.5564
 9258SOL     OW39235   0.870   1.329   0.030  0.0955  0.1585 -0.1599
 9258SOL    HW139236   0.775   1.326   0.028  0.0793 -2.2301  2.8988
 9258SOL    HW239237   0.890   1.238   0.055  0.6579 -0.2321 -2.0204
 9259SOL     OW39238   1.421   1.591   3.238 -0.0760  0.5027  0.5750
 9259SOL    HW139239   1.376   1.645   3.304  0.1023  1.0026  0.2858
 9259SOL    HW239240   1.360   1.525   3.204 -0.0822  1.5170 -1.3955
 9260SOL     OW39241   4.492   1.215  10.330  0.1463  0.3997 -0.4369
 9260SOL    HW139242   4.587   1.220  10.316  0.4645 -1.9161  0.8941
 9260SOL    HW239243   4.496   1.239  10.423 -0.8534  0.8303 -0.5086
 9261SOL     OW39244   0.517   0.432  12.906 -0.2121 -0.0795  0.1262
 9261SOL    HW139245   0.608   0.433  12.934 -0.5131 -2.3124  1.1928
 9261SOL    HW239246   0.523   0.473  12.820  0.7065  1.2642  0.8479
 9262SOL     OW39247   0.740   0.600   9.992  0.3412  0.0123 -0.1529
 9262SOL    HW139248   0.789   0.647  10.060  1.1063 -1.9490  0.6558
 9262SOL    HW239249   0.707   0.674   9.941  0.3337 -0.0898 -0.2965
 9263SOL     OW39250   1.616   0.811  10.483  0.3232 -0.0421  0.1889
 9263SOL    HW139251   1.554   0.856  10.426  0.0351 -1.1357 -0.3673
 9263SOL    HW239252   1.703   0.834  10.449  0.2293  0.7797  0.5173
 9264SOL     OW39253   0.350   0.627  11.668 -0.5514 -0.2267  0.5765
 9264SOL    HW139254   0.372   0.551  11.616 -0.3536 -0.8959  1.6333
 9264SOL    HW239255   0.271   0.598  11.714 -0.6583 -1.1331 -0.1947
 9265SOL     OW39256   3.427   3.671   5.882 -0.1871  0.3498 -0.0766
 9265SOL    HW139257   3.443   3.654   5.975 -4.1560  0.9782  0.7549
 9265SOL    HW239258   3.493   3.739   5.868 -0.7215  1.1700  1.3428
 9266SOL     OW39259   2.802   3.358   5.684  0.1362  0.2044 -0.4045
 9266SOL    HW139260   2.716   3.387   5.653  0.5839  1.1338 -0.7586
 9266SOL    HW239261   2.857   3.386   5.612  2.2744 -0.3316  1.0143
 9267SOL     OW39262   0.950   3.564   2.383  0.0340 -0.0804 -0.6620
 9267SOL    HW139263   0.864   3.604   2.374  0.0207  0.0350 -0.0276
 9267SOL    HW239264   1.005   3.642   2.372  0.4303 -0.3089 -0.3189
 9268SOL     OW39265   2.204   2.687  13.390  0.2194 -0.0944 -0.1875
 9268SOL    HW139266   2.179   2.626  13.459  1.0927 -3.4405 -2.8283
 9268SOL    HW239267   2.133   2.752  13.394 -1.0686 -1.6809  2.4637
 9269SOL     OW39268   0.138   0.514  10.200 -0.5672  0.1973  0.1982
 9269SOL    HW139269   0.116   0.588  10.144 -2.3490  1.5520  2.6734
 9269SOL    HW239270   0.072   0.527  10.268  1.1420 -0.6053  2.0312
 9270SOL     OW39271   3.690   0.206   3.721 -0.0288  0.0533 -0.5511
 9270SOL    HW139272   3.710   0.294   3.753 -0.8413  0.2280 -0.5081
 9270SOL    HW239273   3.629   0.175   3.788  0.7737 -0.9761 -0.3071
 9271SOL     OW39274   2.900   1.237   1.323  0.5990 -0.4920 -0.1989
 9271SOL    HW139275   2.975   1.224   1.381 -0.8081 -0.7477  1.5632
 9271SOL    HW239276   2.910   1.174   1.252 -0.8705 -1.0797  0.1243
 9272SOL     OW39277   0.763   2.978   8.124  0.0937  0.2186  0.6032
 9272SOL    HW139278   0.841   2.944   8.079 -1.2276  1.0734 -2.2801
 9272SOL    HW239279   0.807   3.054   8.161 -0.3053  0.5337  0.4316
 9273SOL     OW39280   2.533   0.935  14.563 -0.7977  0.0953  0.1688
 9273SOL    HW139281   2.576   1.021  14.562 -0.7781  0.0908  0.8838
 9273SOL    HW239282   2.560   0.908  14.650  0.2181 -1.2209 -0.5555
 9274SOL     OW39283   3.217   0.007   0.787 -0.2429 -0.6609  0.2853
 9274SOL    HW139284   3.181   4.670   0.721  0.6049  1.3540 -1.9440
 9274SOL    HW239285   3.299   4.682   0.806  0.2073  0.9370  2.2663
 9275SOL     OW39286   4.363   3.031   7.949 -0.1645 -0.3658 -0.2705
 9275SOL    HW139287   4.407   3.114   7.965 -0.2453 -0.2846 -0.4600
 9275SOL    HW239288   4.413   2.989   7.879 -2.1010 -0.0962 -1.8278
 9276SOL     OW39289   2.471   0.448   2.336  0.6338 -0.2197  0.4375
 9276SOL    HW139290   2.510   0.507   2.272 -1.8179 -0.5846 -1.4090
 9276SOL    HW239291   2.382   0.484   2.341  0.1538 -1.2054 -1.2606
 9277SOL     OW39292   1.396   1.587   4.249 -0.1591  0.2216 -0.0955
 9277SOL    HW139293   1.385   1.509   4.304  0.9392 -1.2542 -1.9510
 9277SOL    HW239294   1.455   1.558   4.179  0.6874  1.5751  0.0615
 9278SOL     OW39295   3.105   1.479   1.537 -1.0306  0.2373 -0.1649
 9278SOL    HW139296   3.091   1.500   1.444 -1.4264 -0.9777 -0.3865
 9278SOL    HW239297   3.121   1.566   1.574 -0.6750 -0.4542  1.2776
 9279SOL     OW39298   0.186   2.312   2.779  0.3801  0.7045  0.1353
 9279SOL    HW139299   0.195   2.397   2.738 -0.7912  0.8094  0.1059
 9279SOL    HW239300   0.148   2.339   2.863 -0.5126  1.3512 -0.4858
 9280SOL     OW39301   1.202   0.345  12.186  0.0626  0.1128  0.7894
 9280SOL    HW139302   1.150   0.340  12.267 -2.3919 -3.8957 -1.0277
 9280SOL    HW239303   1.290   0.330  12.221 -0.1095 -0.6171  0.9023
 9281SOL     OW39304   3.145   0.394  15.052  0.7993 -0.1628  0.0841
 9281SOL    HW139305   3.178   0.475  15.089 -0.8563 -0.6508  2.6542
 9281SOL    HW239306   3.165   0.422  14.963 -1.4580  0.4291 -0.2416
 9282SOL     OW39307   1.824   2.349  14.221 -0.1308  0.0117  0.3616
 9282SOL    HW139308   1.867   2.279  14.270 -0.9308 -1.8587 -1.6194
 9282SOL    HW239309   1.894   2.414  14.217 -1.1592  1.0158 -1.3417
 9283SOL     OW39310   0.683   2.200   6.913  0.3643  0.3357 -0.1356
 9283SOL    HW139311   0.607   2.256   6.898  1.9994  2.2481 -1.3757
 9283SOL    HW239312   0.648   2.128   6.965 -0.1995 -2.5210 -4.4719
 9284SOL     OW39313   3.839   3.847  16.735  0.5545  1.1174  0.2882
 9284SOL    HW139314   3.840   3.886  16.647 -0.2866 -2.4087 -1.3010
 9284SOL    HW239315   3.756   3.800  16.732  0.2886  1.5783  0.3665
 9285SOL     OW39316   2.004   2.460   0.859  0.0094  0.6047 -0.4685
 9285SOL    HW139317   1.961   2.535   0.819 -2.1799 -0.8188 -0.7154
 9285SOL    HW239318   2.005   2.488   0.951  1.8999  0.4395 -0.4398
 9286SOL     OW39319   0.149   4.323   2.321 -0.1933 -0.1201 -0.0418
 9286SOL    HW139320   0.230   4.310   2.272 -0.7666  2.4988 -1.6671
 9286SOL    HW239321   0.149   4.414   2.349  0.3314 -0.3055  0.5668
 9287SOL     OW39322   0.417   1.739   3.710 -0.0519  0.5802 -0.2418
 9287SOL    HW139323   0.386   1.716   3.798 -2.0205  3.2231 -0.2284
 9287SOL    HW239324   0.420   1.652   3.670  2.8571 -0.1284  1.5356
 9288SOL     OW39325   4.055   4.450   2.007 -0.3026  0.0058  0.6043
 9288SOL    HW139326   4.071   4.361   2.039 -3.1256  0.4037  3.0624
 9288SOL    HW239327   4.123   4.456   1.939  1.1831 -1.4697  1.9700
 9289SOL     OW39328   0.198   3.530   0.552  0.1597  0.0413 -0.2858
 9289SOL    HW139329   0.200   3.449   0.502  1.1927  0.1898 -0.4750
 9289SOL    HW239330   0.242   3.588   0.490  2.6299 -3.1592 -1.5091
 9290SOL     OW39331   3.621   2.256   6.637 -0.1989  0.5516 -0.1272
 9290SOL    HW139332   3.534   2.281   6.605  0.1804  1.2110 -0.6536
 9290SOL    HW239333   3.600   2.198   6.710  1.1576  0.9556  0.5770
 9291SOL     OW39334   0.256   2.572   5.650 -0.8407  0.4088  0.2124
 9291SOL    HW139335   0.298   2.656   5.671 -1.6921  1.0048 -0.4570
 9291SOL    HW239336   0.327   2.509   5.644  1.0461  2.5003  0.2946
 9292SOL     OW39337   4.381   0.161   5.439  0.3630  0.0835  0.0938
 9292SOL    HW139338   4.466   0.118   5.440  1.7602  2.7855 -1.5302
 9292SOL    HW239339   4.324   0.088   5.415 -0.4046  0.7434 -0.1109
 9293SOL     OW39340   3.940   4.692   6.094  0.5288 -0.1959 -0.0985
 9293SOL    HW139341   3.846   4.706   6.101  0.1407 -0.8051 -3.8075
 9293SOL    HW239342   3.961   0.064   6.091 -0.5917  0.0787  0.7034
 9294SOL     OW39343   4.442   2.816  12.931 -0.2198 -0.2130 -0.0772
 9294SOL    HW139344   4.402   2.732  12.952 -0.3804  0.1023  0.8537
 9294SOL    HW239345   4.381   2.858  12.870  0.5013  1.9602  0.6794
 9295SOL     OW39346   4.346   1.843  14.569  0.2468  0.5367 -0.1271
 9295SOL    HW139347   4.399   1.862  14.647 -2.2089 -1.4174  2.0122
 9295SOL    HW239348   4.365   1.751  14.553 -1.0545 -0.3957  3.5582
 9296SOL     OW39349   1.456   2.209   0.945 -0.3558  0.0217  0.7455
 9296SOL    HW139350   1.454   2.121   0.983 -1.5390 -1.5428 -2.9779
 9296SOL    HW239351   1.498   2.262   1.014 -2.8726  2.8479  0.1192
 9297SOL     OW39352   0.906   1.096   3.146  0.2442  0.0083 -0.3358
 9297SOL    HW139353   0.874   1.186   3.138  1.0414  0.5223  2.2462
 9297SOL    HW239354   0.965   1.097   3.071  0.3195  0.0368 -0.2771
 9298SOL     OW39355   3.137   4.516  17.004  0.0284 -0.6767  0.4999
 9298SOL    HW139356   3.073   4.576  17.043  1.7108  1.5016 -0.0559
 9298SOL    HW239357   3.133   4.536  16.910  0.9967  1.4241  0.8971
 9299SOL     OW39358   2.888   0.258   4.647  0.0320 -0.0003  0.2737
 9299SOL    HW139359   2.839   0.224   4.721  1.4092 -0.3230  1.0259
 9299SOL    HW239360   2.959   0.195   4.640  1.1370  1.4816 -2.1540
 9300SOL     OW39361   2.247   3.803   2.847 -0.2298  0.2637 -0.4358
 9300SOL    HW139362   2.274   3.883   2.892 -1.7575  1.1806 -1.1550
 9300SOL    HW239363   2.264   3.729   2.906 -1.4036  0.0552 -0.3596
 9301SOL     OW39364   4.042   2.008  16.363 -0.0574  0.1282  0.4562
 9301SOL    HW139365   4.019   2.077  16.302 -0.2669 -1.9517 -1.8206
 9301SOL    HW239366   4.006   2.046  16.443 -0.4729  1.2046 -0.2457
 9302SOL     OW39367   1.057   2.183   4.026  0.5873 -0.0810 -0.2185
 9302SOL    HW139368   1.023   2.158   4.112  1.8849  0.7086  0.5237
 9302SOL    HW239369   1.076   2.093   4.000  2.2945  0.4515 -0.7967
 9303SOL     OW39370   0.222   2.505   7.068 -0.5757 -0.1434 -0.2827
 9303SOL    HW139371   0.238   2.451   6.990 -0.0935 -0.7852  0.2519
 9303SOL    HW239372   0.227   2.442   7.140 -0.3037  0.1471 -0.0486
 9304SOL     OW39373   3.515   3.153  13.907  0.2050  0.4900 -0.0306
 9304SOL    HW139374   3.582   3.152  13.838 -0.8870 -0.1766 -1.0757
 9304SOL    HW239375   3.519   3.243  13.940  0.4681 -0.2802  2.0348
 9305SOL     OW39376   2.601   4.367   2.306 -0.5561 -0.3407  1.0470
 9305SOL    HW139377   2.692   4.365   2.336 -0.5838 -0.3753  1.1299
 9305SOL    HW239378   2.596   4.290   2.249 -0.2002 -0.1883  0.8121
 9306SOL     OW39379   2.141   1.833   3.519  0.7674  0.3567 -0.0744
 9306SOL    HW139380   2.050   1.830   3.488  0.3574  2.9809  0.9468
 9306SOL    HW239381   2.145   1.759   3.580  0.0398  1.7075  1.5852
 9307SOL     OW39382   2.237   2.023   8.948 -0.0245  0.2093  0.0646
 9307SOL    HW139383   2.327   1.994   8.966 -0.6499 -0.2133  2.5776
 9307SOL    HW239384   2.206   1.940   8.913 -0.2741 -0.6923  2.4019
 9308SOL     OW39385   3.221   2.815   2.715  0.1736  0.2539 -0.1850
 9308SOL    HW139386   3.210   2.819   2.620  1.4120 -6.0057 -0.6227
 9308SOL    HW239387   3.210   2.723   2.739  0.5731  0.7069  1.7377
 9309SOL     OW39388   0.862   2.685   2.435 -0.2044  0.0455 -0.1405
 9309SOL    HW139389   0.920   2.712   2.364 -0.4852  0.8588 -0.0628
 9309SOL    HW239390   0.798   2.754   2.420  1.1142  1.2965 -0.0571
 9310SOL     OW39391   3.603   2.703   5.010 -0.0915 -0.4311 -0.1391
 9310SOL    HW139392   3.664   2.650   5.061  2.1524 -0.7433 -3.1423
 9310SOL    HW239393   3.591   2.784   5.060  0.1265 -1.2591  1.2190
 9311SOL     OW39394   3.996   2.461   0.010 -0.6560  1.1801 -0.4986
 9311SOL    HW139395   4.059   2.480  17.629  1.1038  1.0862  1.0829
 9311SOL    HW239396   3.964   2.550   0.023  1.7112  1.8665  0.5849
 9312SOL     OW39397   1.329   0.667  15.917  0.0606  0.3010  0.2809
 9312SOL    HW139398   1.397   0.613  15.958  0.9045  0.4661 -0.9228
 9312SOL    HW239399   1.337   0.649  15.823  0.6001 -0.0533  0.3940
 9313SOL     OW39400   0.022   0.623   1.443 -0.1277  0.0598  0.1863
 9313SOL    HW139401   0.104   0.657   1.407 -0.7950 -0.0801 -1.4544
 9313SOL    HW239402   0.031   0.534   1.410 -0.7623 -0.5990  1.7905
 9314SOL     OW39403   1.786   0.238   1.630 -0.4888 -0.0743 -0.0798
 9314SOL    HW139404   1.794   0.277   1.543 -2.1339 -0.3339 -0.3559
 9314SOL    HW239405   1.723   0.167   1.616 -0.1294 -0.3478 -0.2899
 9315SOL     OW39406   4.123   0.262   5.161 -0.1618  0.3754 -0.2095
 9315SOL    HW139407   4.041   0.217   5.180  0.1446  0.4068  1.1878
 9315SOL    HW239408   4.178   0.184   5.170  0.3549  0.8608  0.7924
 9316SOL     OW39409   0.599   2.332  11.086 -0.3819 -0.7225 -0.0018
 9316SOL    HW139410   0.684   2.343  11.043 -0.7043  0.0250 -0.4472
 9316SOL    HW239411   0.615   2.367  11.174  2.4091 -0.0068 -0.7705
 9317SOL     OW39412   0.305   4.482  15.100  0.6208 -0.6033  0.6820
 9317SOL    HW139413   0.359   4.430  15.041  1.3193  0.3045  0.5342
 9317SOL    HW239414   0.309   4.421  15.174  3.0456  0.0301  1.0549
 9318SOL     OW39415   2.700   3.380   9.306 -0.0413  0.0196 -0.0211
 9318SOL    HW139416   2.674   3.382   9.214  2.5543 -1.1180 -0.7540
 9318SOL    HW239417   2.681   3.288   9.321  0.0537  0.1319  0.8378
 9319SOL     OW39418   0.283   1.972   8.484 -0.4443  0.0825  0.4088
 9319SOL    HW139419   0.203   1.961   8.535 -0.8455 -1.3565 -0.5108
 9319SOL    HW239420   0.321   1.884   8.479 -0.7731  0.0022 -0.6775
 9320SOL     OW39421   4.615   2.565   0.931  0.0918  0.3623 -0.4180
 9320SOL    HW139422   4.531   2.520   0.929  0.7443 -0.7425 -3.3806
 9320SOL    HW239423   4.631   2.597   0.842 -0.9896 -0.0826 -0.7721
 9321SOL     OW39424   3.221   4.105  10.382  0.5011 -0.6650  0.3663
 9321SOL    HW139425   3.196   4.013  10.377  1.4966 -0.8257 -1.5724
 9321SOL    HW239426   3.197   4.115  10.474  1.4387 -1.9480  0.7363
 9322SOL     OW39427   1.866   2.277  17.435 -0.4782  0.2618 -0.4503
 9322SOL    HW139428   1.793   2.277  17.373 -2.2226  0.6786  1.6075
 9322SOL    HW239429   1.915   2.347  17.393 -1.6832  1.0673 -0.5021
 9323SOL     OW39430   4.272   2.763  13.894 -0.5034  0.0452  0.1088
 9323SOL    HW139431   4.332   2.837  13.892 -1.1167  0.5816  1.6974
 9323SOL    HW239432   4.240   2.765  13.984  0.3176 -2.3680  0.4694
 9324SOL     OW39433   4.628   4.338   8.742  0.0449  0.0622  0.1504
 9324SOL    HW139434   4.600   4.247   8.734 -0.7215  0.1585  1.7649
 9324SOL    HW239435   4.600   4.364   8.830 -2.9278  0.7313 -0.9764
 9325SOL     OW39436   2.928   4.698   0.394 -0.1110  0.0487 -0.7045
 9325SOL    HW139437   2.907   4.662   0.480  0.0302  1.2854 -0.1593
 9325SOL    HW239438   2.952   0.065   0.421  1.0766  0.2759 -2.4389
 9326SOL     OW39439   1.731   4.629   7.344  0.2520 -0.7016  0.5188
 9326SOL    HW139440   1.734   4.622   7.248  0.5357 -1.1610  0.5576
 9326SOL    HW239441   1.812   4.678   7.358  0.2977 -0.6250 -0.0035
 9327SOL     OW39442   3.843   3.362  10.141 -0.5728 -0.4008 -0.3717
 9327SOL    HW139443   3.911   3.315  10.190 -0.5396 -0.3329 -0.3532
 9327SOL    HW239444   3.897   3.440  10.133 -0.8083 -0.2940 -0.8921
 9328SOL     OW39445   1.938   4.122   3.103 -0.0481  0.6766  0.4577
 9328SOL    HW139446   1.872   4.076   3.154 -0.8716  2.7247  1.2472
 9328SOL    HW239447   1.897   4.112   3.017  1.0356 -2.1122  0.2651
 9329SOL     OW39448   4.038   4.582   9.003 -0.7629  0.6058 -0.2232
 9329SOL    HW139449   4.081   4.499   8.982 -0.6865  0.6447 -0.2186
 9329SOL    HW239450   4.044   4.580   9.098  0.5263 -0.3222 -0.3213
 9330SOL     OW39451   2.853   3.466  11.463 -0.2332 -0.5144 -0.3920
 9330SOL    HW139452   2.769   3.485  11.420 -0.8847 -1.8083  0.2818
 9330SOL    HW239453   2.901   3.446  11.383 -1.3086  1.7260 -1.6044
 9331SOL     OW39454   1.979   4.005   6.060 -0.7045 -0.3558 -0.1134
 9331SOL    HW139455   2.007   4.065   6.129 -2.2649  2.5319 -1.9949
 9331SOL    HW239456   1.918   4.065   6.018  0.5114  0.7001 -0.4028
 9332SOL     OW39457   3.654   0.991  10.350  0.0484 -0.6655  0.0906
 9332SOL    HW139458   3.645   1.086  10.341 -1.8299 -0.8948 -0.4762
 9332SOL    HW239459   3.643   0.961  10.259 -0.3928 -0.0608 -0.0585
 9333SOL     OW39460   0.066   2.192   7.118  0.2052 -0.2225  0.2132
 9333SOL    HW139461   0.062   2.198   7.213  3.2742  1.7443  0.2194
 9333SOL    HW239462   0.025   2.273   7.089  1.2317  0.4503  0.6541
 9334SOL     OW39463   4.521   1.503  14.152  0.1621  0.0197  0.2171
 9334SOL    HW139464   4.504   1.432  14.090 -1.1203 -0.3677  1.0023
 9334SOL    HW239465   4.455   1.570  14.131  1.1203  1.2500  1.1143
 9335SOL     OW39466   3.200   3.010   6.164  0.0369 -1.1778 -0.4881
 9335SOL    HW139467   3.136   3.079   6.179  0.6956 -0.8059  0.5965
 9335SOL    HW239468   3.227   3.032   6.075 -0.7074  2.3997  0.1864
 9336SOL     OW39469   0.438   4.372   4.325 -0.0003 -0.4523 -0.1213
 9336SOL    HW139470   0.497   4.304   4.292  1.3442  0.4678  0.4398
 9336SOL    HW239471   0.452   4.440   4.259  1.5890 -0.5199  0.1610
 9337SOL     OW39472   1.932   2.826   5.757 -0.2341 -0.6251  0.7552
 9337SOL    HW139473   1.864   2.829   5.690 -2.0163 -0.6591  2.5645
 9337SOL    HW239474   1.955   2.918   5.742 -2.4528  0.0936  1.6329
 9338SOL     OW39475   1.533   2.832   3.216 -0.0097 -0.2087 -0.4671
 9338SOL    HW139476   1.626   2.853   3.228 -0.2286  0.6795 -0.3241
 9338SOL    HW239477   1.497   2.857   3.301  0.7556 -0.7255  0.0012
 9339SOL     OW39478   1.363   2.481   5.100 -0.1423  0.0072  0.1519
 9339SOL    HW139479   1.376   2.390   5.074  0.1590 -0.2397  1.1749
 9339SOL    HW239480   1.268   2.483   5.086  0.1830  2.3806 -1.6656
 9340SOL     OW39481   0.155   4.593  15.336 -0.4669  0.2810 -0.3368
 9340SOL    HW139482   0.221   4.581  15.268  1.5978  1.8413  1.3899
 9340SOL    HW239483   0.133   4.503  15.360 -3.2467  1.0386 -0.0140
 9341SOL     OW39484   2.340   0.926   1.292  0.1700 -0.1170 -0.0764
 9341SOL    HW139485   2.324   1.018   1.272 -0.5261  0.0151  1.0781
 9341SOL    HW239486   2.251   0.909   1.323  0.0625 -0.4468 -0.5779
 9342SOL     OW39487   1.093   2.444   5.114  0.0647 -0.5696  0.4123
 9342SOL    HW139488   1.007   2.426   5.077  1.1868 -1.0890 -1.9803
 9342SOL    HW239489   1.133   2.362   5.143  1.3973 -0.8212 -2.1433
 9343SOL     OW39490   2.490   1.184   3.707  0.1769  1.0822 -1.3760
 9343SOL    HW139491   2.563   1.131   3.673 -0.3077 -1.1721  1.1230
 9343SOL    HW239492   2.462   1.241   3.636 -3.6237  0.7611 -0.1047
 9344SOL     OW39493   1.918   2.738  10.198  0.0523  0.8374  0.2933
 9344SOL    HW139494   1.885   2.785  10.121  2.4627  0.1239 -1.1699
 9344SOL    HW239495   1.933   2.648  10.170  0.4850  1.4335 -1.3892
 9345SOL     OW39496   1.959   4.557   8.275 -0.2121  0.3735 -0.0297
 9345SOL    HW139497   2.028   4.506   8.318 -1.4849 -2.0444 -0.8718
 9345SOL    HW239498   1.984   4.636   8.324  1.5064  0.6718 -1.3940
 9346SOL     OW39499   4.593   0.431   9.869 -0.0717  0.7288 -0.3451
 9346SOL    HW139500   4.585   0.336   9.862  1.0488  0.4679  1.9845
 9346SOL    HW239501   4.588   0.430   9.964  0.7072 -1.1331 -0.3461
 9347SOL     OW39502   1.894   0.232   3.738  0.1976  0.9050  0.0962
 9347SOL    HW139503   1.870   0.268   3.652 -0.4528  1.2671  0.4274
 9347SOL    HW239504   1.807   0.212   3.772  0.0965  0.6541 -0.3122
 9348SOL     OW39505   1.373   1.226   1.100  1.1144 -0.2339  0.1003
 9348SOL    HW139506   1.368   1.130   1.097 -0.9298 -0.0675 -2.3782
 9348SOL    HW239507   1.405   1.238   1.189  1.8839  0.4784 -0.2741
 9349SOL     OW39508   4.606   2.002   7.574 -0.0053 -0.0564 -0.1382
 9349SOL    HW139509   4.540   2.070   7.584  0.2720  0.5176 -2.2167
 9349SOL    HW239510   4.610   1.989   7.479  1.6475  0.2853 -0.1231
 9350SOL     OW39511   4.186   4.428   5.424 -0.0634  0.0455  0.4835
 9350SOL    HW139512   4.100   4.401   5.456 -1.4553  2.9310 -0.8084
 9350SOL    HW239513   4.242   4.382   5.487 -1.7164  1.2851  2.8548
 9351SOL     OW39514   4.661   4.015  10.452  0.2842 -0.1473 -0.3926
 9351SOL    HW139515   0.033   3.995  10.449  0.8246  2.4428 -0.5965
 9351SOL    HW239516   4.619   3.938  10.413  0.3921  0.0599 -0.9153
 9352SOL     OW39517   3.299   0.143   6.194  0.2531  0.5174  0.2426
 9352SOL    HW139518   3.280   0.182   6.108 -0.0605  1.3020  0.6762
 9352SOL    HW239519   3.382   0.184   6.217  0.1948  0.1979  1.0176
 9353SOL     OW39520   4.494   2.854   8.179 -0.0930 -0.2477  0.3918
 9353SOL    HW139521   4.456   2.902   8.105  1.2938 -0.1453 -0.2529
 9353SOL    HW239522   4.540   2.930   8.214  0.8500 -0.6931  0.1004
 9354SOL     OW39523   0.117   0.799   3.799  0.2237  0.1736  0.5939
 9354SOL    HW139524   0.154   0.827   3.883 -0.7849 -1.2805  1.5111
 9354SOL    HW239525   0.199   0.765   3.764  2.4290  2.6477  3.3204
 9355SOL     OW39526   3.466   2.452   6.900  0.3595 -0.5092 -0.2864
 9355SOL    HW139527   3.449   2.358   6.901  1.9011 -0.8003 -0.9522
 9355SOL    HW239528   3.431   2.469   6.988  0.5662 -1.1603 -0.0792
 9356SOL     OW39529   4.642   0.071   4.506  0.5428 -0.0249  0.0221
 9356SOL    HW139530   4.696   0.107   4.577  1.2190 -1.8246  0.4228
 9356SOL    HW239531   4.705   0.060   4.434  0.5741 -0.0776  0.0579
 9357SOL     OW39532   4.682   0.361   2.269  0.3968 -0.4767 -0.5683
 9357SOL    HW139533   4.628   0.303   2.215  0.0931  1.0666 -1.9224
 9357SOL    HW239534   4.618   0.422   2.305 -0.9675 -1.0758 -1.9398
 9358SOL     OW39535   2.622   4.518   9.443 -0.3615 -0.1620 -0.5961
 9358SOL    HW139536   2.565   4.441   9.452 -0.5876  0.0985  0.1841
 9358SOL    HW239537   2.572   4.585   9.490  0.9717 -0.9998  1.9834
 9359SOL     OW39538   2.981   4.715   7.693 -0.2681 -0.7687 -0.6032
 9359SOL    HW139539   2.934   0.016   7.613 -0.3823  2.8359  0.4626
 9359SOL    HW239540   2.950   0.059   7.755 -1.7960 -1.7256 -0.3578
 9360SOL     OW39541   4.507   0.554   7.337  0.6076 -0.1103  0.0853
 9360SOL    HW139542   4.599   0.529   7.340  0.0788 -2.4882 -3.1647
 9360SOL    HW239543   4.525   0.634   7.288  3.5960 -1.1047 -0.4340
 9361SOL     OW39544   0.503   1.193   6.083  0.3875 -0.3575  0.0468
 9361SOL    HW139545   0.414   1.227   6.080  0.8255  0.7576 -0.5219
 9361SOL    HW239546   0.500   1.107   6.041  0.0514 -0.5969  0.5655
 9362SOL     OW39547   3.232   4.042   5.244  0.0642 -0.2423  0.1588
 9362SOL    HW139548   3.144   4.059   5.276 -0.1737 -1.8779  0.3681
 9362SOL    HW239549   3.266   3.993   5.320 -1.1746  0.8124  1.3962
 9363SOL     OW39550   0.451   1.281   3.868 -0.3323 -0.7013  0.1757
 9363SOL    HW139551   0.393   1.318   3.935  0.6647 -0.4636  0.9157
 9363SOL    HW239552   0.426   1.334   3.792 -0.7178 -0.1495  0.6855
 9364SOL     OW39553   3.301   0.995  10.191 -0.1394 -0.3863 -0.4161
 9364SOL    HW139554   3.361   0.986  10.265 -1.1784 -1.5230  0.2849
 9364SOL    HW239555   3.233   1.049  10.232 -0.3197 -0.2791 -0.8558
 9365SOL     OW39556   1.110   0.333   4.390 -0.7700 -0.4544 -0.5477
 9365SOL    HW139557   1.052   0.277   4.338 -1.3063 -0.9452  0.5652
 9365SOL    HW239558   1.193   0.303   4.354 -0.8368  1.5856 -2.3641
 9366SOL     OW39559   1.936   0.627   9.072  0.0935 -0.2030 -0.2042
 9366SOL    HW139560   1.980   0.608   9.155 -1.6933 -0.8654  0.5996
 9366SOL    HW239561   1.952   0.552   9.015  1.2816  0.7371 -1.1051
 9367SOL     OW39562   4.286   0.063   5.110  0.7059 -0.3193  0.4803
 9367SOL    HW139563   4.241   0.006   5.047  1.5339 -0.2134 -0.2064
 9367SOL    HW239564   4.352   0.009   5.154  0.6350 -2.3315 -1.8946
 9368SOL     OW39565   4.096   0.732   9.706  0.7333 -0.0359  0.1152
 9368SOL    HW139566   4.084   0.689   9.621 -2.1388  0.9708  0.0150
 9368SOL    HW239567   4.112   0.823   9.679  1.2079 -0.5374 -1.3375
 9369SOL     OW39568   0.719   0.230   3.671 -0.4577  0.2686  0.4670
 9369SOL    HW139569   0.698   0.317   3.704 -1.3389 -0.7421  2.5623
 9369SOL    HW239570   0.785   0.256   3.607 -0.2284  0.7726  0.9130
 9370SOL     OW39571   0.648   2.797  11.125  0.5168 -0.1045  0.2994
 9370SOL    HW139572   0.702   2.874  11.144 -0.0399  0.1697  0.7695
 9370SOL    HW239573   0.684   2.780  11.038  0.2169 -1.0130  0.3596
 9371SOL     OW39574   4.018   1.870   8.178  0.1334 -0.1953  0.6375
 9371SOL    HW139575   4.082   1.934   8.208  1.9706 -1.9949  0.4840
 9371SOL    HW239576   3.995   1.905   8.092  0.6484 -1.9818 -0.2295
 9372SOL     OW39577   3.342   2.279  13.463 -0.2460  0.0320 -0.2897
 9372SOL    HW139578   3.424   2.231  13.455 -0.6110 -0.7497  0.6550
 9372SOL    HW239579   3.273   2.228  13.420  0.0426  0.3156 -1.1020
 9373SOL     OW39580   1.872   2.532   1.493  0.3287  0.2015  0.3095
 9373SOL    HW139581   1.909   2.620   1.499  0.9317  0.0979 -1.7389
 9373SOL    HW239582   1.790   2.547   1.539  0.5857 -0.4672  0.9826
 9374SOL     OW39583   3.062   2.700   9.269 -0.1995 -0.1207 -0.5851
 9374SOL    HW139584   2.975   2.736   9.254 -0.6803  0.2366  3.0252
 9374SOL    HW239585   3.042   2.607   9.260 -1.9522 -0.3545  5.5080
 9375SOL     OW39586   4.138   1.084  13.961 -0.2671 -0.4654 -0.3275
 9375SOL    HW139587   4.154   0.993  13.989  1.1708 -0.1257 -0.0308
 9375SOL    HW239588   4.189   1.086  13.881 -1.3830 -0.9178 -1.0469
 9376SOL     OW39589   1.128   1.358  12.769 -0.2437 -0.3845  0.3272
 9376SOL    HW139590   1.172   1.280  12.802  0.9469  0.7083  1.3163
 9376SOL    HW239591   1.180   1.378  12.690 -2.4437 -0.4257 -1.1326
 9377SOL     OW39592   3.334   1.668   3.865 -0.1126  0.3497 -0.3687
 9377SOL    HW139593   3.313   1.753   3.826  2.4494 -0.1377 -2.8059
 9377SOL    HW239594   3.307   1.608   3.795  0.2646  0.7841 -0.8836
 9378SOL     OW39595   0.707   3.579   2.245  0.3707 -0.0661 -0.3218
 9378SOL    HW139596   0.722   3.674   2.249 -0.0698  0.0355 -1.0762
 9378SOL    HW239597   0.648   3.568   2.170 -0.5512 -0.2801  0.4248
 9379SOL     OW39598   0.802   3.004  11.190  0.2570 -0.0796 -1.2560
 9379SOL    HW139599   0.840   3.086  11.221 -0.7331  0.3187 -1.0990
 9379SOL    HW239600   0.882   2.968  11.151  2.3176  0.3518  2.4838
 9380SOL     OW39601   3.103   4.435   1.890 -0.2608  0.1929 -0.1674
 9380SOL    HW139602   3.111   4.488   1.810  0.7771 -2.9014 -2.1050
 9380SOL    HW239603   3.065   4.500   1.950  0.3024  2.3692 -2.1398
 9381SOL     OW39604   0.731   1.744   2.168 -0.8283 -0.3394  0.3161
 9381SOL    HW139605   0.749   1.711   2.080 -0.2289  1.9766 -0.4416
 9381SOL    HW239606   0.698   1.664   2.207 -0.6103 -0.6902 -0.2071
 9382SOL     OW39607   3.433   1.015   3.686 -0.1472  0.5613 -0.1529
 9382SOL    HW139608   3.358   1.013   3.746 -0.6343  0.3747 -0.7688
 9382SOL    HW239609   3.414   1.072   3.611  2.6389  2.0236  0.2569
 9383SOL     OW39610   0.843   2.274  15.372  1.1058 -0.0436 -0.0157
 9383SOL    HW139611   0.879   2.213  15.308 -0.6577  1.5188 -2.4688
 9383SOL    HW239612   0.879   2.235  15.452  1.6658 -0.7641 -0.6160
 9384SOL     OW39613   0.894   0.547   7.152 -0.1180 -0.6175  0.4266
 9384SOL    HW139614   0.876   0.624   7.206 -3.6483 -2.8709  2.4460
 9384SOL    HW239615   0.983   0.529   7.185 -1.3232 -0.6832  3.6516
 9385SOL     OW39616   0.639   4.304   2.910  0.3167 -0.2017 -0.2026
 9385SOL    HW139617   0.608   4.270   2.994 -3.1604  0.2980 -1.2843
 9385SOL    HW239618   0.685   4.225   2.884  0.2604  0.1136 -1.2376
 9386SOL     OW39619   0.214   3.003  11.971 -0.5028  0.5363 -0.0892
 9386SOL    HW139620   0.245   2.949  12.044 -1.3555 -0.2981 -0.3389
 9386SOL    HW239621   0.254   2.967  11.892  0.5159  0.0771  0.6513
 9387SOL     OW39622   0.956   2.728  11.787  0.6633 -0.0373  0.1357
 9387SOL    HW139623   1.033   2.673  11.801  1.2257  0.7865  0.2659
 9387SOL    HW239624   0.998   2.812  11.805 -2.1585  1.4552 -0.0846
 9388SOL     OW39625   2.848   2.569  11.898  0.7011 -0.7138 -0.1914
 9388SOL    HW139626   2.779   2.503  11.899  0.5675 -0.5569  0.6841
 9388SOL    HW239627   2.894   2.537  11.976 -1.7177 -2.8988  0.3315
 9389SOL     OW39628   0.924   2.269   7.985  0.2932  0.6262 -0.8359
 9389SOL    HW139629   0.844   2.219   7.968 -0.0504  0.4502  1.2510
 9389SOL    HW239630   0.910   2.322   8.063  0.6572  1.2925 -1.2263
 9390SOL     OW39631   3.039   1.621   2.141 -0.3495 -0.3642 -0.1789
 9390SOL    HW139632   3.117   1.641   2.090  0.5893 -2.3598  0.4842
 9390SOL    HW239633   3.007   1.558   2.077  0.1224  0.0174 -0.7827
 9391SOL     OW39634   1.220   0.468   4.048 -0.2135 -0.3294 -0.7112
 9391SOL    HW139635   1.221   0.384   4.094 -0.2588 -1.2388 -2.3385
 9391SOL    HW239636   1.194   0.532   4.113 -1.4822 -1.1623 -0.4026
 9392SOL     OW39637   2.927   2.112   8.120  0.0401 -0.1496  0.5757
 9392SOL    HW139638   2.847   2.154   8.090  1.0598 -0.5386 -2.6185
 9392SOL    HW239639   2.990   2.175   8.085 -0.0200 -1.1581 -1.3219
 9393SOL     OW39640   0.292   3.326   6.696  0.4861 -0.0347 -0.0876
 9393SOL    HW139641   0.316   3.419   6.691 -3.2256  0.8967  0.0177
 9393SOL    HW239642   0.355   3.295   6.631  1.7228  1.9929  0.1194
 9394SOL     OW39643   3.391   0.101   2.127  0.1678 -0.0270  0.0048
 9394SOL    HW139644   3.303   0.136   2.115 -0.2196 -1.0466 -0.1394
 9394SOL    HW239645   3.448   0.169   2.090 -0.5648  0.9190  0.6255
 9395SOL     OW39646   3.084   4.166  13.091  0.0476 -0.3953 -0.1563
 9395SOL    HW139647   3.007   4.157  13.035  0.5519  0.2025 -0.9456
 9395SOL    HW239648   3.149   4.163  13.021 -1.2931 -1.1174 -1.3528
 9396SOL     OW39649   3.541   4.530  15.746 -0.3676  0.6375  0.2954
 9396SOL    HW139650   3.599   4.586  15.695 -1.2762 -0.2552 -1.7270
 9396SOL    HW239651   3.531   4.456  15.687 -1.7000  0.6955  0.4357
 9397SOL     OW39652   0.721   3.978  14.513 -0.1930 -0.0129 -0.5463
 9397SOL    HW139653   0.750   4.067  14.493 -0.8657  0.0762 -1.1366
 9397SOL    HW239654   0.790   3.948  14.572  0.6769 -0.5557 -1.8344
 9398SOL     OW39655   2.380   0.050   2.492  0.8029  0.3580 -0.1810
 9398SOL    HW139656   2.463   0.087   2.462  0.0853  0.6672 -1.7937
 9398SOL    HW239657   2.319   0.049   2.419 -0.0271  0.6640  0.5118
 9399SOL     OW39658   3.695   1.514   3.483  0.2263  0.1119 -0.2681
 9399SOL    HW139659   3.780   1.471   3.472 -0.3306 -1.7800  2.7942
 9399SOL    HW239660   3.689   1.523   3.578  0.8788 -0.0796 -0.2094
 9400SOL     OW39661   4.268   3.899   3.145  0.2664 -0.4668 -0.6045
 9400SOL    HW139662   4.331   3.926   3.078  0.0082  0.9097 -0.3039
 9400SOL    HW239663   4.271   3.974   3.205  0.0345  0.7661 -2.1451
 9401SOL     OW39664   0.956   3.874  13.901 -0.1245  0.6187 -0.1196
 9401SOL    HW139665   0.894   3.810  13.866 -0.0795  0.8219 -0.5742
 9401SOL    HW239666   0.978   3.932  13.828  1.7819  2.0253  1.5773
 9402SOL     OW39667   4.647   3.996   2.696  0.2298  0.4903 -0.2229
 9402SOL    HW139668   4.616   3.917   2.651  2.2348 -0.6617  0.4116
 9402SOL    HW239669   4.663   4.050   2.619 -2.4340  1.6257  0.0257
 9403SOL     OW39670   3.845   1.160   0.657  0.9602 -0.0056 -0.4550
 9403SOL    HW139671   3.919   1.164   0.717  0.5158  1.3643  0.0022
 9403SOL    HW239672   3.781   1.186   0.724  2.1401  2.2858 -0.2266
 9404SOL     OW39673   1.566   3.754   5.557  1.0560  0.4663 -0.4310
 9404SOL    HW139674   1.564   3.686   5.624  0.9080 -1.1533 -2.0825
 9404SOL    HW239675   1.582   3.702   5.478  1.7830  0.1144 -0.0467
 9405SOL     OW39676   0.119   0.639   8.654  0.1778  0.3196  0.5085
 9405SOL    HW139677   0.174   0.717   8.655 -0.2064  0.6480 -3.7113
 9405SOL    HW239678   0.044   0.665   8.709 -0.2147  2.3201 -0.9692
 9406SOL     OW39679   2.899   3.204   2.787 -0.9627  0.3916  0.2503
 9406SOL    HW139680   2.828   3.246   2.739 -2.3634  0.2581  2.1676
 9406SOL    HW239681   2.940   3.277   2.833  0.1839 -0.7580  1.0482
 9407SOL     OW39682   3.706   2.011   2.429  0.2421 -0.3621 -0.5649
 9407SOL    HW139683   3.643   1.953   2.385  0.1467 -2.1012  1.8575
 9407SOL    HW239684   3.656   2.030   2.508  0.9147 -0.3883 -0.1342
 9408SOL     OW39685   0.775   1.133   6.594  0.1667 -0.0687  0.2001
 9408SOL    HW139686   0.685   1.102   6.598  0.3694 -1.1160 -3.3630
 9408SOL    HW239687   0.776   1.188   6.672  1.1192  0.3294 -0.0861
 9409SOL     OW39688   4.634   0.141  16.264  0.4855 -0.0349  0.7897
 9409SOL    HW139689   4.585   0.200  16.321  1.8017  0.8490  0.9906
 9409SOL    HW239690   4.617   0.179  16.178 -1.7645  1.3640  1.8494
 9410SOL     OW39691   1.618   2.175   0.027 -0.4559  0.1200  0.1514
 9410SOL    HW139692   1.602   2.129  17.633  0.2661  0.9412 -0.4526
 9410SOL    HW239693   1.713   2.162   0.030 -0.4462 -0.2003 -1.5604
 9411SOL     OW39694   0.849   1.960   6.326  0.5620 -0.4971 -0.4498
 9411SOL    HW139695   0.873   1.885   6.382  2.4557  1.3247  1.1921
 9411SOL    HW239696   0.906   2.031   6.356 -2.2118  1.9945 -1.0888
 9412SOL     OW39697   0.606   3.989  12.146  0.1846  0.6096  0.3337
 9412SOL    HW139698   0.683   3.933  12.159  1.1072  1.4227 -1.6972
 9412SOL    HW239699   0.612   3.988  12.051 -0.2541  1.5388  0.2942
 9413SOL     OW39700   3.063   1.161   3.878  0.1648 -0.1879 -0.2642
 9413SOL    HW139701   3.053   1.088   3.817  0.5704 -0.2872 -0.2105
 9413SOL    HW239702   3.148   1.128   3.906  0.6399  0.5542 -0.8207
 9414SOL     OW39703   3.870   2.354   3.446  0.1017 -0.6597  0.2890
 9414SOL    HW139704   3.961   2.358   3.477  0.3894 -0.9261 -0.5300
 9414SOL    HW239705   3.888   2.378   3.355 -1.4787 -1.9616 -0.3528
 9415SOL     OW39706   4.657   3.304   7.507  0.1833 -0.5019  0.0916
 9415SOL    HW139707   4.609   3.221   7.501 -1.7959  0.7256 -1.4277
 9415SOL    HW239708   4.589   3.368   7.529 -0.4412 -1.1907  0.1712
 9416SOL     OW39709   4.512   0.686   9.125 -0.6814  0.4956 -0.6205
 9416SOL    HW139710   4.453   0.731   9.065 -0.7845  0.4814 -0.5294
 9416SOL    HW239711   4.585   0.667   9.066 -1.5395  0.3142 -1.6256
 9417SOL     OW39712   0.053   0.765  12.061 -0.4161  0.1279 -0.5426
 9417SOL    HW139713   4.716   0.706  12.016  0.0858 -1.0728  0.3813
 9417SOL    HW239714   4.721   0.782  12.139  0.7376 -0.7447  0.4400
 9418SOL     OW39715   1.476   2.104   7.212  0.2047  0.0804 -0.0942
 9418SOL    HW139716   1.463   2.136   7.122  0.8249 -0.9309 -0.5350
 9418SOL    HW239717   1.570   2.088   7.211  0.2108  0.1844 -3.3832
 9419SOL     OW39718   2.630   3.858   8.834 -0.3860 -0.5188 -0.3047
 9419SOL    HW139719   2.680   3.781   8.860 -0.2482  0.2359  1.6463
 9419SOL    HW239720   2.691   3.926   8.861 -0.5095  0.2485 -1.9632
 9420SOL     OW39721   4.556   0.274  15.776  0.0073 -0.3327  0.3024
 9420SOL    HW139722   4.477   0.230  15.745 -0.3349  1.5664 -1.5181
 9420SOL    HW239723   4.521   0.304  15.860 -1.7397  1.7331 -1.1674
 9421SOL     OW39724   1.255   1.882   3.959  0.1561 -0.0478 -0.6295
 9421SOL    HW139725   1.171   1.837   3.954 -0.2671  0.5161  1.4613
 9421SOL    HW239726   1.262   1.883   4.054 -3.9792  0.2011 -0.3359
 9422SOL     OW39727   4.637   0.425   5.739  0.6209  0.4723  0.1473
 9422SOL    HW139728   4.675   0.503   5.698  0.3839  0.4027 -0.2088
 9422SOL    HW239729   4.550   0.429   5.699  1.1308  0.9508 -0.8978
 9423SOL     OW39730   3.333   4.718  14.753 -0.2680  0.4397  0.2538
 9423SOL    HW139731   3.344   4.652  14.684 -1.6417  3.7621 -3.1785
 9423SOL    HW239732   3.310   4.662  14.827  3.1522 -0.7537  0.4076
 9424SOL     OW39733   1.028   1.465   9.077  0.4019 -0.2686  0.3874
 9424SOL    HW139734   0.935   1.482   9.065  0.8100  1.2609 -0.6406
 9424SOL    HW239735   1.062   1.469   8.987  0.3887  0.7294  0.4237
 9425SOL     OW39736   1.599   1.843   0.885  0.6229 -0.0874  0.0346
 9425SOL    HW139737   1.504   1.852   0.897  0.4628  0.9958 -1.9827
 9425SOL    HW239738   1.630   1.862   0.973  0.6963  2.9470 -0.6587
 9426SOL     OW39739   1.977   1.493   0.273  0.5835 -0.3511 -0.4496
 9426SOL    HW139740   1.914   1.563   0.291  0.8676  0.7290 -3.7031
 9426SOL    HW239741   1.942   1.421   0.326 -1.1762  0.8977  0.0728
 9427SOL     OW39742   1.020   1.492  17.244  0.2746 -0.0162 -0.4245
 9427SOL    HW139743   1.081   1.479  17.171 -0.3578 -0.1316 -0.9283
 9427SOL    HW239744   0.971   1.568  17.212 -0.5609 -0.8024 -1.0179
 9428SOL     OW39745   2.779   3.294  14.175 -0.3160  0.2535  0.2066
 9428SOL    HW139746   2.856   3.295  14.233 -0.8764 -1.8641  0.9941
 9428SOL    HW239747   2.799   3.342  14.094  0.7156  1.0256  0.9239
 9429SOL     OW39748   4.355   2.055   5.061 -0.1507  0.3665 -0.1777
 9429SOL    HW139749   4.389   2.052   5.151 -1.3556 -1.8559  0.2098
 9429SOL    HW239750   4.413   1.992   5.018 -2.1199 -1.4898 -0.1492
 9430SOL     OW39751   3.721   2.275   2.686  0.2644  0.6458  0.0875
 9430SOL    HW139752   3.684   2.264   2.773  1.2670 -0.5073  0.3712
 9430SOL    HW239753   3.804   2.313   2.715  0.4191  0.8095 -0.5641
 9431SOL     OW39754   3.416   1.206   9.189 -0.5941 -0.2709 -0.4605
 9431SOL    HW139755   3.469   1.172   9.118  0.9969 -0.8833  1.0283
 9431SOL    HW239756   3.374   1.285   9.154  1.1450  0.8152 -0.0639
 9432SOL     OW39757   2.656   4.616  11.251  0.2370 -0.2000  0.0834
 9432SOL    HW139758   2.703   4.577  11.326  0.1014  1.6144  1.1060
 9432SOL    HW239759   2.711   4.583  11.179 -0.5810 -1.2094 -0.0784
 9433SOL     OW39760   1.155   1.518   5.525  0.2142  0.3973 -0.4076
 9433SOL    HW139761   1.206   1.526   5.444 -0.1662  0.2904 -0.6621
 9433SOL    HW239762   1.231   1.505   5.582  0.5204  1.6776 -0.5230
 9434SOL     OW39763   0.220   1.340  17.068 -0.3365 -0.2106  0.2565
 9434SOL    HW139764   0.272   1.418  17.087 -1.1175  0.3442  0.1094
 9434SOL    HW239765   0.265   1.320  16.985  0.3219  1.7593  0.1416
 9435SOL     OW39766   2.607   4.006  12.925  0.0638  0.0020  0.3640
 9435SOL    HW139767   2.669   4.051  12.867 -0.7986  0.0689 -0.5064
 9435SOL    HW239768   2.516   4.026  12.903  0.4486  1.4485  0.0690
 9436SOL     OW39769   2.088   0.210   4.284  0.1609  0.1798  0.6251
 9436SOL    HW139770   2.171   0.240   4.247  1.2308 -1.9324  1.3275
 9436SOL    HW239771   2.030   0.245   4.215 -0.2719 -0.1620  0.8152
 9437SOL     OW39772   3.143   3.665   2.219 -0.2848  0.0761  0.0840
 9437SOL    HW139773   3.163   3.653   2.126  1.1979 -0.5549  0.4906
 9437SOL    HW239774   3.052   3.635   2.218 -0.6030  1.0300 -0.1406
 9438SOL     OW39775   0.090   0.651  14.232  0.0818 -0.1850 -0.2955
 9438SOL    HW139776   0.117   0.727  14.181  0.7232 -0.4930 -0.4081
 9438SOL    HW239777   0.170   0.599  14.233 -0.6677 -1.3881 -2.5151
 9439SOL     OW39778   2.688   1.678   2.571  0.3119  0.5278 -0.1512
 9439SOL    HW139779   2.771   1.629   2.572  0.2300  0.3815 -1.4091
 9439SOL    HW239780   2.706   1.768   2.546  0.4880  0.4818 -0.1899
 9440SOL     OW39781   3.112   0.216   3.416 -0.0048  0.2960 -0.7609
 9440SOL    HW139782   3.151   0.255   3.338  1.4828 -1.4578 -0.8914
 9440SOL    HW239783   3.172   0.236   3.488 -1.0971  1.0978 -0.0650
 9441SOL     OW39784   0.981   2.857   2.225 -0.2216  0.0896 -0.1801
 9441SOL    HW139785   1.060   2.821   2.185  1.5370 -0.1961  3.4670
 9441SOL    HW239786   0.960   2.930   2.168  0.4551  0.1725 -0.3211
 9442SOL     OW39787   2.473   2.281   7.375  0.1089  0.0683  0.1663
 9442SOL    HW139788   2.493   2.366   7.335 -0.3627  0.5457  0.9415
 9442SOL    HW239789   2.504   2.223   7.305 -0.5019 -0.3934  0.2756
 9443SOL     OW39790   3.362   0.369   5.903 -0.1143 -0.3702  0.4618
 9443SOL    HW139791   3.360   0.448   5.956  3.2508  1.1564 -1.7012
 9443SOL    HW239792   3.289   0.321   5.941  0.1446  0.3344  1.8387
 9444SOL     OW39793   1.386   0.929   4.844 -0.3902 -0.4497  0.1486
 9444SOL    HW139794   1.430   1.008   4.876 -2.0271  0.4904  0.0391
 9444SOL    HW239795   1.464   0.883   4.813  0.0019  2.1951 -2.7679
 9445SOL     OW39796   4.203   3.953  16.601 -0.4867 -0.7731 -0.6569
 9445SOL    HW139797   4.203   4.002  16.518  0.5485  2.7177  1.4356
 9445SOL    HW239798   4.235   3.871  16.563  1.4777 -0.7491  0.9935
 9446SOL     OW39799   0.748   1.790  11.796  0.8726 -0.1497  0.0019
 9446SOL    HW139800   0.774   1.759  11.883 -1.6170 -1.9484  0.1028
 9446SOL    HW239801   0.658   1.759  11.797  0.3646  1.3358  0.1829
 9447SOL     OW39802   2.604   0.115   3.327  0.3706 -0.2462  0.2498
 9447SOL    HW139803   2.662   0.090   3.255 -2.3485 -0.5186 -1.8668
 9447SOL    HW239804   2.668   0.174   3.368 -0.4616 -0.4654  1.8269
 9448SOL     OW39805   0.608   4.693  11.892  0.0769  0.8162  0.2248
 9448SOL    HW139806   0.665   0.044  11.867  0.7845 -0.7730 -2.7263
 9448SOL    HW239807   0.539   4.714  11.830 -0.9575  1.4998  1.5984
 9449SOL     OW39808   4.497   1.358   7.230  0.0510 -0.2072  0.0729
 9449SOL    HW139809   4.568   1.395   7.178 -2.0500  1.8990 -1.3310
 9449SOL    HW239810   4.539   1.362   7.315  1.4407  0.7472 -0.6589
 9450SOL     OW39811   0.041   2.318   7.951 -0.1733 -0.6803 -0.7364
 9450SOL    HW139812   0.081   2.367   7.880 -0.2517  3.1165  1.8541
 9450SOL    HW239813   0.058   2.226   7.931  0.6536 -0.6331 -0.2434
 9451SOL     OW39814   3.553   0.864   2.096 -0.1557 -0.4333 -0.2993
 9451SOL    HW139815   3.601   0.927   2.042  0.2434 -1.0010 -0.6093
 9451SOL    HW239816   3.541   0.921   2.172  1.9280  2.2705 -1.9989
 9452SOL     OW39817   2.290   3.805  12.555 -0.3471 -0.4693  0.5751
 9452SOL    HW139818   2.366   3.747  12.556  1.9008  2.4546 -1.7448
 9452SOL    HW239819   2.302   3.859  12.633  0.7110  0.8569 -0.5154
 9453SOL     OW39820   3.690   4.273   3.877  0.1650  0.2859 -0.5234
 9453SOL    HW139821   3.660   4.358   3.909 -0.0734  0.5827 -1.5311
 9453SOL    HW239822   3.622   4.224   3.923 -0.1658  0.2388 -1.0669
 9454SOL     OW39823   3.738   2.520   4.580  0.0850 -0.2276 -0.0475
 9454SOL    HW139824   3.744   2.435   4.536 -1.4722 -0.1704 -0.3725
 9454SOL    HW239825   3.830   2.539   4.599  0.8815 -2.9476 -1.0582
 9455SOL     OW39826   2.206   0.093   0.108  0.2713  0.2314  0.3616
 9455SOL    HW139827   2.247   0.145   0.176  0.3157  1.3273 -0.5035
 9455SOL    HW239828   2.119   0.133   0.103  0.0363 -0.1658  1.1899
 9456SOL     OW39829   1.144   4.354  17.391 -0.8698 -0.0705  0.1282
 9456SOL    HW139830   1.211   4.385  17.330  0.6877 -0.5595  1.5850
 9456SOL    HW239831   1.077   4.320  17.331 -0.1284 -0.6883 -0.3517
 9457SOL     OW39832   2.600   1.934   5.798  0.1190 -0.3675  0.5780
 9457SOL    HW139833   2.589   1.977   5.883  1.5983  1.7906 -0.3197
 9457SOL    HW239834   2.554   1.851   5.813 -0.5819 -0.1623 -0.4252
 9458SOL     OW39835   3.400   3.728   8.947  0.2291  0.0529  0.9720
 9458SOL    HW139836   3.479   3.782   8.960  1.0002 -0.6351 -0.8645
 9458SOL    HW239837   3.394   3.673   9.025  1.5790 -0.7262  0.5205
 9459SOL     OW39838   3.867   3.293  15.829  0.3229 -0.2266 -0.1122
 9459SOL    HW139839   3.917   3.362  15.873  2.9710 -0.3326 -2.9576
 9459SOL    HW239840   3.835   3.255  15.910  2.6977 -0.9016  0.5114
 9460SOL     OW39841   2.528   0.136   4.440  0.2500 -0.1783 -0.6757
 9460SOL    HW139842   2.437   0.112   4.455  0.3969 -1.9586 -2.6240
 9460SOL    HW239843   2.570   0.051   4.425  0.0167 -0.0842 -1.8764
 9461SOL     OW39844   1.664   2.010   7.555  0.0239  0.2735  0.3485
 9461SOL    HW139845   1.758   2.011   7.573 -0.1614 -2.2841  1.4070
 9461SOL    HW239846   1.638   1.982   7.642 -0.4359 -1.0889 -0.2352
 9462SOL     OW39847   2.239   1.708  16.422  0.2037 -0.4256 -0.0824
 9462SOL    HW139848   2.154   1.720  16.379 -0.6167 -1.0027  1.3746
 9462SOL    HW239849   2.288   1.759  16.358 -1.6647  0.6717 -0.6539
 9463SOL     OW39850   2.727   4.688   1.845 -0.2022  0.2826  0.2966
 9463SOL    HW139851   2.701   4.706   1.754 -2.1932  1.4832  1.1058
 9463SOL    HW239852   2.653   4.717   1.898 -0.0229  0.3464  0.5098
 9464SOL     OW39853   4.632   2.882   1.064  0.1076  0.1746 -0.0747
 9464SOL    HW139854   4.576   2.804   1.068  0.7043 -0.2036  0.9734
 9464SOL    HW239855   4.637   2.922   1.151 -2.1449 -0.7217  0.4580
 9465SOL     OW39856   4.022   3.577   2.572 -0.3031  0.0267 -0.1996
 9465SOL    HW139857   4.050   3.611   2.487 -0.0615 -0.3716 -0.2781
 9465SOL    HW239858   3.965   3.649   2.602  0.5867  0.4124  0.5643
 9466SOL     OW39859   0.299   2.517  12.551  0.0356  0.3678  0.1578
 9466SOL    HW139860   0.323   2.559  12.468  2.6389  2.2108  1.8166
 9466SOL    HW239861   0.208   2.491  12.543 -0.2891  0.9433  2.0909
 9467SOL     OW39862   3.559   3.361  17.290 -0.3913  0.7445  0.2431
 9467SOL    HW139863   3.523   3.362  17.379 -0.1173 -1.6219  0.3772
 9467SOL    HW239864   3.650   3.387  17.303  0.5184 -2.2117 -0.1390
 9468SOL     OW39865   1.330   2.809   5.630  0.0807 -0.3417  0.1952
 9468SOL    HW139866   1.422   2.787   5.618  0.9162  3.2853  0.1613
 9468SOL    HW239867   1.298   2.719   5.623  2.0452 -1.0168 -0.1427
 9469SOL     OW39868   2.882   1.681   7.802  0.1558  0.5829  0.3972
 9469SOL    HW139869   2.836   1.666   7.719 -1.3871  2.6227  0.8789
 9469SOL    HW239870   2.810   1.667   7.863 -0.3527 -0.2188 -0.3884
 9470SOL     OW39871   1.588   3.566   5.765  0.1831 -0.6739 -0.0697
 9470SOL    HW139872   1.561   3.480   5.735 -1.7002  0.5037 -1.7566
 9470SOL    HW239873   1.632   3.544   5.847  1.2412 -0.7047 -0.6439
 9471SOL     OW39874   3.373   3.673  16.951 -0.0791  0.5772 -0.3978
 9471SOL    HW139875   3.374   3.698  16.858  1.6650 -1.6956 -0.9661
 9471SOL    HW239876   3.287   3.632  16.961 -0.4153  1.5550  0.6553
 9472SOL     OW39877   3.065   4.422   7.182  0.4434 -0.4593 -0.6390
 9472SOL    HW139878   3.029   4.385   7.101  1.5847 -1.0308 -0.8920
 9472SOL    HW239879   2.986   4.444   7.230  1.3179  2.9392 -0.7386
 9473SOL     OW39880   1.403   0.423  15.181 -0.6688 -0.2168  0.0707
 9473SOL    HW139881   1.480   0.477  15.201  0.1260 -0.6490 -1.8357
 9473SOL    HW239882   1.379   0.440  15.091 -1.7973  0.0469  0.4250
 9474SOL     OW39883   3.758   0.120   6.402 -0.1062  0.5799 -0.7875
 9474SOL    HW139884   3.701   0.175   6.455  0.7355  1.1698 -0.4972
 9474SOL    HW239885   3.835   0.174   6.388  0.2206  0.0860 -0.8801
 9475SOL     OW39886   2.631   4.524  16.032  0.0604  0.1177  0.0593
 9475SOL    HW139887   2.552   4.566  16.000 -0.2281 -0.0852  0.5184
 9475SOL    HW239888   2.616   4.529  16.126  0.3662 -0.4567  0.1429
 9476SOL     OW39889   3.696   2.611   8.929  0.4017 -0.5088 -0.3662
 9476SOL    HW139890   3.675   2.638   9.019  1.9631 -1.6309  0.3396
 9476SOL    HW239891   3.752   2.536   8.949  2.5640  0.9192 -1.0704
 9477SOL     OW39892   4.487   4.449   5.491  0.1755  0.4453  0.1137
 9477SOL    HW139893   4.513   4.373   5.439  0.5135  1.3267 -0.9840
 9477SOL    HW239894   4.499   4.512   5.421 -3.0148  3.3440  2.1887
 9478SOL     OW39895   4.001   2.092   7.172 -0.0290  0.5447 -0.7709
 9478SOL    HW139896   3.997   2.130   7.260  3.1072 -0.4384 -0.2042
 9478SOL    HW239897   3.973   2.004   7.198 -1.4836  1.1555 -0.2417
 9479SOL     OW39898   1.425   0.400   6.921 -0.2315  0.2901  0.4344
 9479SOL    HW139899   1.477   0.448   6.984 -0.0863  0.8538 -0.1225
 9479SOL    HW239900   1.381   0.476   6.884 -0.7069 -0.1765  0.0379
 9480SOL     OW39901   1.807   2.985   6.297 -0.3165 -0.2168 -0.3377
 9480SOL    HW139902   1.846   2.968   6.211 -0.7915 -2.3495 -0.1276
 9480SOL    HW239903   1.720   2.989   6.257  0.2950 -1.5276 -1.7910
 9481SOL     OW39904   1.728   3.708  12.495 -0.1218  0.1678 -0.1321
 9481SOL    HW139905   1.821   3.727  12.486 -0.1727  0.2257 -0.5043
 9481SOL    HW239906   1.709   3.776  12.559  0.6886  0.0772  0.2078
 9482SOL     OW39907   0.032   1.907   5.962 -0.5067  0.0842 -0.3425
 9482SOL    HW139908   4.684   1.926   5.899  0.2482  1.5430 -0.7410
 9482SOL    HW239909   0.080   1.840   5.914  0.9956  1.0099 -0.1453
 9483SOL     OW39910   3.395   4.590   9.128  0.5318  0.0284  0.1580
 9483SOL    HW139911   3.383   4.672   9.176  1.2949  0.1511  0.1447
 9483SOL    HW239912   3.470   4.605   9.071 -1.4709  2.5346 -1.8534
 9484SOL     OW39913   1.153   1.040   7.019 -0.2686  0.1175  0.4794
 9484SOL    HW139914   1.124   0.985   7.092  1.8537 -1.5794  0.0406
 9484SOL    HW239915   1.090   1.013   6.952 -0.6146  0.8627  0.5051
 9485SOL     OW39916   3.446   2.367  15.107  0.1724 -0.0304 -0.2523
 9485SOL    HW139917   3.415   2.295  15.051  0.3861 -0.0884 -0.2987
 9485SOL    HW239918   3.395   2.339  15.182 -0.4184  0.4436 -0.4828
 9486SOL     OW39919   2.391   0.807   2.558  0.8163 -0.1105  0.2575
 9486SOL    HW139920   2.345   0.885   2.590 -0.1927 -0.4130 -0.4472
 9486SOL    HW239921   2.459   0.852   2.508 -1.0332  0.7337 -1.4939
 9487SOL     OW39922   2.309   4.380   0.271  0.4903  0.6585  0.6817
 9487SOL    HW139923   2.401   4.356   0.269  0.4064  0.4671 -0.9380
 9487SOL    HW239924   2.316   4.475   0.260  1.0959  0.2267 -2.6967
 9488SOL     OW39925   0.151   3.602  14.774  0.4381  0.8570 -0.2773
 9488SOL    HW139926   0.122   3.514  14.797  0.2554  1.2041  0.8386
 9488SOL    HW239927   0.147   3.598  14.678 -0.1584  0.4473 -0.2333
 9489SOL     OW39928   3.063   4.654   8.079  0.0340 -0.0921  0.1755
 9489SOL    HW139929   3.104   0.018   8.065  1.9643 -1.0255  0.1293
 9489SOL    HW239930   3.138   4.600   8.104 -0.3040  0.0535  1.4954
 9490SOL     OW39931   1.806   4.506   8.784  0.1484  0.0517  0.0313
 9490SOL    HW139932   1.729   4.502   8.841 -0.5539  1.9069 -0.7734
 9490SOL    HW239933   1.847   4.585   8.819  0.1684  0.3927 -0.7511
 9491SOL     OW39934   4.154   0.099   7.063 -1.1577 -0.4278  0.0064
 9491SOL    HW139935   4.071   0.053   7.051 -0.5465 -1.6608  0.5729
 9491SOL    HW239936   4.174   0.137   6.978  1.3460  2.4529  1.8521
 9492SOL     OW39937   2.711   0.825  10.644  0.5136  0.4106 -0.0315
 9492SOL    HW139938   2.675   0.775  10.718  1.4683 -0.5426 -0.2112
 9492SOL    HW239939   2.800   0.793  10.629  1.0981  1.9905  0.1106
 9493SOL     OW39940   2.193   3.150  14.951  0.7005  0.1871  0.8490
 9493SOL    HW139941   2.160   3.064  14.925  1.7737 -0.0523  0.2577
 9493SOL    HW239942   2.238   3.124  15.032  1.2055  0.1531  0.5566
 9494SOL     OW39943   4.689   4.446  13.267 -0.1534 -0.0810 -0.3779
 9494SOL    HW139944   4.695   4.541  13.270 -0.0927 -0.0875 -0.2969
 9494SOL    HW239945   4.672   4.438  13.361  1.5909 -0.6692 -0.1193
 9495SOL     OW39946   1.954   3.957   7.534  0.2881  0.1156 -0.4517
 9495SOL    HW139947   1.981   3.874   7.495  2.9833  0.6061  0.3645
 9495SOL    HW239948   1.920   3.923   7.617  0.3404  2.2251  0.4225
 9496SOL     OW39949   3.869   3.718   5.402  0.1459 -0.4738  0.2927
 9496SOL    HW139950   3.951   3.668   5.410  0.0212 -0.5191  1.2859
 9496SOL    HW239951   3.813   3.642   5.416 -1.0636  0.4184  0.3019
 9497SOL     OW39952   3.266   1.902  10.785  0.6638 -0.1598  0.5168
 9497SOL    HW139953   3.256   1.983  10.735  1.5288 -0.3172  0.0898
 9497SOL    HW239954   3.312   1.935  10.862  0.9352 -2.1211  1.2123
 9498SOL     OW39955   0.896   1.580   5.434  0.3361 -0.2767 -0.4199
 9498SOL    HW139956   0.910   1.653   5.374 -0.1689  1.1186  1.1894
 9498SOL    HW239957   0.985   1.572   5.470  0.0030  1.0235  0.6715
 9499SOL     OW39958   0.673   3.380   6.471  0.2165 -0.0871 -0.0419
 9499SOL    HW139959   0.689   3.434   6.394 -0.4139 -2.9291 -2.1683
 9499SOL    HW239960   0.703   3.296   6.438  1.1817  0.6240 -0.9675
 9500SOL     OW39961   1.315   1.677   4.546 -0.5115  0.4685  0.0125
 9500SOL    HW139962   1.393   1.728   4.525 -0.0323 -0.0280  0.5663
 9500SOL    HW239963   1.257   1.690   4.472 -0.4294  2.0460  0.2309
 9501SOL     OW39964   4.379   1.661  17.472 -0.0373 -0.1112  0.4884
 9501SOL    HW139965   4.447   1.595  17.486 -0.7348 -0.9914 -0.2380
 9501SOL    HW239966   4.355   1.651  17.380  0.7836 -1.2552  0.3980
 9502SOL     OW39967   1.348   4.474   6.467 -0.1000  0.5300  0.2592
 9502SOL    HW139968   1.376   4.475   6.558 -2.9127  0.2989  1.1441
 9502SOL    HW239969   1.402   4.538   6.420 -1.1447 -0.2053 -1.9535
 9503SOL     OW39970   0.615   3.438  13.391  0.2140  0.7302 -0.0645
 9503SOL    HW139971   0.596   3.386  13.470  0.9903  0.8955  0.2376
 9503SOL    HW239972   0.551   3.508  13.392  0.4898  0.9825  0.1388
 9504SOL     OW39973   1.614   4.136   5.340  0.5000 -0.6479 -0.0291
 9504SOL    HW139974   1.543   4.085   5.301 -2.0501  1.0406  2.4317
 9504SOL    HW239975   1.679   4.137   5.270  0.5925  1.5336  0.1035
 9505SOL     OW39976   3.478   2.824  13.361  0.2737 -0.0974 -0.7244
 9505SOL    HW139977   3.546   2.831  13.427 -1.3649 -0.2805  0.9866
 9505SOL    HW239978   3.506   2.751  13.305 -2.6650 -1.4806 -0.4233
 9506SOL     OW39979   3.874   0.633   3.522 -0.0052 -0.0134 -0.0226
 9506SOL    HW139980   3.851   0.656   3.612  1.8368 -1.3245  0.7788
 9506SOL    HW239981   3.969   0.645   3.522 -0.1965  1.6239  2.1793
 9507SOL     OW39982   0.584   0.697   5.028  0.2929 -0.1676 -0.3005
 9507SOL    HW139983   0.497   0.723   4.998 -1.0077 -0.7428  2.9457
 9507SOL    HW239984   0.613   0.650   4.949 -0.8223 -1.8296  0.2861
 9508SOL     OW39985   1.022   2.073   5.601  0.1274  0.0094  0.1071
 9508SOL    HW139986   1.085   2.026   5.547 -0.9455  0.3871 -1.4868
 9508SOL    HW239987   1.019   2.009   5.673 -0.3571  0.1337  0.2016
 9509SOL     OW39988   4.571   2.188   5.302 -0.1039 -0.8783  0.0918
 9509SOL    HW139989   4.580   2.263   5.360  1.4500 -0.8105 -0.2212
 9509SOL    HW239990   4.491   2.212   5.255 -0.0334  1.8233  1.4051
 9510SOL     OW39991   2.707   0.331   6.623  0.4682 -0.3210  0.1041
 9510SOL    HW139992   2.729   0.344   6.715 -1.3347 -0.4645  0.5675
 9510SOL    HW239993   2.632   0.390   6.616  1.8144  1.1894 -1.8902
 9511SOL     OW39994   2.928   1.013   7.597  0.3244 -0.3995 -0.4375
 9511SOL    HW139995   2.897   0.954   7.666  0.3938 -0.6005 -0.5785
 9511SOL    HW239996   3.005   1.048   7.644 -0.9716 -0.7464  1.9692
 9512SOL     OW39997   1.455   3.769   2.376 -0.6739 -0.3813 -0.1403
 9512SOL    HW139998   1.453   3.862   2.353  0.6778  0.0725  1.5918
 9512SOL    HW239999   1.413   3.733   2.298 -0.4128 -3.0306  0.9229
 9513SOL     OW40000   0.185   3.965   5.978 -0.5368 -0.0105  0.5066
 9513SOL    HW140001   0.127   4.039   5.998  1.9722  2.2032 -0.3777
 9513SOL    HW240002   0.257   4.010   5.933  0.0624 -1.9480 -0.4610
 9514SOL     OW40003   4.618   0.658  11.768  0.5259  0.2533 -0.2849
 9514SOL    HW140004   4.642   0.599  11.696 -0.6825 -1.9304  1.0867
 9514SOL    HW240005   4.608   0.602  11.846  1.0873 -0.1471 -0.4984
 9515SOL     OW40006   2.260   3.450   9.077 -0.4175 -0.3325 -0.6121
 9515SOL    HW140007   2.215   3.410   9.002  0.0079 -0.1043 -0.9900
 9515SOL    HW240008   2.182   3.497   9.108  0.6375  1.2202 -0.3131
 9516SOL     OW40009   2.711   1.303   8.007  0.3215  0.0131  0.0472
 9516SOL    HW140010   2.796   1.261   8.025  1.9655  2.7778 -1.2843
 9516SOL    HW240011   2.697   1.333   8.097 -3.1605  0.4535 -0.6502
 9517SOL     OW40012   3.199   3.256   5.762  0.0432  0.2873  0.8348
 9517SOL    HW140013   3.167   3.333   5.715 -0.8082  0.6608  2.0223
 9517SOL    HW240014   3.278   3.282   5.809  0.0431  1.9254 -0.0787
 9518SOL     OW40015   2.204   4.001   6.268  0.0693 -0.2807  0.1039
 9518SOL    HW140016   2.239   3.925   6.316  1.1377 -0.9987 -1.7881
 9518SOL    HW240017   2.196   4.061   6.342 -1.6256  0.5379 -0.7559
 9519SOL     OW40018   2.850   2.001   5.396 -0.8320  0.1091 -0.0734
 9519SOL    HW140019   2.780   2.062   5.372 -1.0223 -0.9870 -2.2689
 9519SOL    HW240020   2.833   2.002   5.490 -1.4556 -2.2470 -0.1669
 9520SOL     OW40021   2.304   1.394   4.739 -0.0929  0.4794 -0.6117
 9520SOL    HW140022   2.306   1.385   4.643 -1.5770  2.0130 -0.7921
 9520SOL    HW240023   2.393   1.416   4.766  0.6030  0.9075 -3.2172
 9521SOL     OW40024   0.739   0.548   5.685 -0.4991 -0.2955 -0.3107
 9521SOL    HW140025   0.770   0.464   5.719  0.0592 -0.2025 -0.5892
 9521SOL    HW240026   0.644   0.538   5.690 -0.4312  0.7081  2.6487
 9522SOL     OW40027   2.878   1.116   6.441  0.6304  0.0483 -0.3293
 9522SOL    HW140028   2.855   1.208   6.422 -0.3829 -0.2232 -0.4532
 9522SOL    HW240029   2.931   1.121   6.520  0.5471 -2.0254 -0.1500
 9523SOL     OW40030   0.512   0.378  12.442  0.2124 -0.1898  0.7262
 9523SOL    HW140031   0.518   0.352  12.350 -0.7335 -0.2799  0.6861
 9523SOL    HW240032   0.596   0.421  12.458 -0.8264  2.1501 -0.1280
 9524SOL     OW40033   1.678   0.638   6.755 -0.3404  0.4685  0.2197
 9524SOL    HW140034   1.697   0.547   6.733  0.4469  0.7607 -0.2798
 9524SOL    HW240035   1.636   0.666   6.674 -0.5685  1.5403  0.6975
 9525SOL     OW40036   1.138   1.019  12.725 -0.1586 -0.0570  0.2522
 9525SOL    HW140037   1.158   0.928  12.704  2.2610 -0.1546  3.0576
 9525SOL    HW240038   1.114   1.018  12.817 -0.0428  2.0177  0.2969
 9526SOL     OW40039   0.110   4.437   5.253  0.0216  0.5612 -0.2781
 9526SOL    HW140040   0.183   4.388   5.215  1.3913  0.6197  2.2656
 9526SOL    HW240041   0.147   4.522   5.276 -1.3458  0.5790  1.8863
 9527SOL     OW40042   3.363   3.509   7.537  0.1483  0.3170  0.0335
 9527SOL    HW140043   3.455   3.490   7.554 -0.3683 -1.1205  1.2852
 9527SOL    HW240044   3.363   3.605   7.528  1.0449  0.4789  1.6919
 9528SOL     OW40045   1.678   3.739  16.869 -0.1531  0.7070  0.0562
 9528SOL    HW140046   1.718   3.728  16.955 -0.8612 -2.0865  0.0322
 9528SOL    HW240047   1.677   3.832  16.847  4.2801  1.0326  1.2326
 9529SOL     OW40048   0.665   1.995   2.405  0.1323  0.2471  0.0898
 9529SOL    HW140049   0.660   2.042   2.322 -0.1023 -0.4882 -0.3178
 9529SOL    HW240050   0.597   1.929   2.394  0.9459 -0.5223 -0.3285
 9530SOL     OW40051   4.434   1.601   0.169  0.6485  0.4837  0.0809
 9530SOL    HW140052   4.397   1.516   0.145  2.3882 -0.7795  1.8582
 9530SOL    HW240053   4.525   1.586   0.196  0.7875  0.4266 -0.4098
 9531SOL     OW40054   3.854   4.051   4.650  0.4301  0.1295  0.1814
 9531SOL    HW140055   3.810   4.026   4.732  3.3001 -0.3109  1.6044
 9531SOL    HW240056   3.846   4.145   4.638 -0.9156  0.2546  1.9673
 9532SOL     OW40057   0.563   1.146   5.075 -0.2265 -0.4389  0.0463
 9532SOL    HW140058   0.498   1.095   5.122 -0.5758 -0.1247 -0.0914
 9532SOL    HW240059   0.507   1.197   5.016 -0.1811  0.4464  0.7637
 9533SOL     OW40060   0.629   0.890  14.412 -0.1588  0.0836  0.7925
 9533SOL    HW140061   0.722   0.892  14.388 -0.8512  1.5771 -1.8367
 9533SOL    HW240062   0.592   0.975  14.389 -0.0827  0.0241  0.4494
 9534SOL     OW40063   1.647   4.391  14.985  0.5832  0.2413 -0.2699
 9534SOL    HW140064   1.633   4.396  14.891  2.0734  1.4485 -0.4301
 9534SOL    HW240065   1.735   4.428  14.996  1.4862 -2.3104  1.1296
 9535SOL     OW40066   4.438   1.254   1.191 -0.3324 -0.1585 -0.3052
 9535SOL    HW140067   4.488   1.270   1.111  1.5754 -0.4455  0.8484
 9535SOL    HW240068   4.416   1.161   1.183 -2.4716  0.2357  1.0595
 9536SOL     OW40069   2.582   3.146   7.200 -0.3330  0.0325  0.0045
 9536SOL    HW140070   2.536   3.120   7.280 -0.4159 -0.3598 -0.1739
 9536SOL    HW240071   2.673   3.151   7.231  0.1513  1.7188 -1.7021
 9537SOL     OW40072   3.740   4.688   4.864 -0.0654  1.0269 -0.0433
 9537SOL    HW140073   3.725   4.667   4.956 -0.1919  0.7809 -0.1212
 9537SOL    HW240074   3.800   0.041   4.871  2.5499 -0.9895 -1.2872
 9538SOL     OW40075   4.056   2.064   0.396  0.0280  0.3098 -0.7349
 9538SOL    HW140076   4.017   1.983   0.362  0.1997 -0.3244  0.5715
 9538SOL    HW240077   3.989   2.102   0.454  0.3521  1.9398 -1.4506
 9539SOL     OW40078   0.191   0.547  11.880 -0.0752 -0.3124 -0.1995
 9539SOL    HW140079   0.139   0.467  11.864 -0.2782 -0.1172 -0.5207
 9539SOL    HW240080   0.125   0.588  11.936 -0.2732 -0.2490 -0.4789
 9540SOL     OW40081   3.302   3.778  12.331  0.4020  0.3768 -0.4124
 9540SOL    HW140082   3.294   3.818  12.244 -2.1063  1.5916  0.3739
 9540SOL    HW240083   3.346   3.853  12.372 -2.8734  1.5532  0.9463
 9541SOL     OW40084   0.927   1.967   2.169  0.1749  0.2592 -0.1615
 9541SOL    HW140085   0.857   1.902   2.163  1.9129 -1.4916 -1.4798
 9541SOL    HW240086   0.971   1.933   2.247 -2.2002 -1.1653  0.5620
 9542SOL     OW40087   3.760   3.168   3.330 -0.4532 -0.2664 -0.2342
 9542SOL    HW140088   3.674   3.203   3.310 -0.2924  0.7555  0.7955
 9542SOL    HW240089   3.796   3.235   3.390  0.6560 -0.8050 -0.2947
 9543SOL     OW40090   0.835   1.349   6.757  0.1377  0.5172  0.0657
 9543SOL    HW140091   0.910   1.373   6.702 -0.2558 -0.3721 -0.8755
 9543SOL    HW240092   0.874   1.314   6.836  1.4736  0.6253 -0.5514
 9544SOL     OW40093   1.589   2.263   6.139  0.2164  0.3201 -0.5090
 9544SOL    HW140094   1.593   2.285   6.232  3.3345 -0.1031 -0.5268
 9544SOL    HW240095   1.615   2.341   6.089 -0.5051  0.1593 -1.1509
 9545SOL     OW40096   0.368   2.816  16.061 -0.6614  0.8040 -0.2861
 9545SOL    HW140097   0.288   2.815  16.008 -0.0844  0.4983 -1.1503
 9545SOL    HW240098   0.327   2.882  16.117 -0.9298 -0.0244  0.4834
 9546SOL     OW40099   4.491   2.082   6.500 -0.6245  0.1996 -0.1434
 9546SOL    HW140100   4.436   2.068   6.578 -1.1061 -2.1130 -0.8943
 9546SOL    HW240101   4.558   2.018   6.523 -0.2074  0.0937 -1.6777
 9547SOL     OW40102   1.662   0.372   8.647  0.2458 -0.4917 -0.8848
 9547SOL    HW140103   1.635   0.290   8.687  1.8143 -1.7790 -2.4533
 9547SOL    HW240104   1.575   0.412   8.639  0.7124  0.6150 -0.4623
 9548SOL     OW40105   3.548   0.099   4.681 -0.6681 -0.8694 -0.0186
 9548SOL    HW140106   3.598   0.017   4.682  0.2072 -0.3370 -0.0530
 9548SOL    HW240107   3.608   0.150   4.735  0.0373 -2.0547  0.3225
 9549SOL     OW40108   4.261   0.127   3.678  0.0656 -0.0636  0.4072
 9549SOL    HW140109   4.327   0.184   3.639 -0.7453  1.9598  2.0271
 9549SOL    HW240110   4.201   0.116   3.605  1.1768  1.7321 -0.7676
 9550SOL     OW40111   2.712   0.169  16.269  0.0572  0.3387 -0.6878
 9550SOL    HW140112   2.620   0.170  16.296  0.3535  0.5862  0.3089
 9550SOL    HW240113   2.722   0.259  16.237 -0.9446  0.3268 -1.0244
 9551SOL     OW40114   4.444   2.623  14.458  0.1435 -0.1415 -0.2687
 9551SOL    HW140115   4.387   2.699  14.447  0.4830  0.1967  0.3652
 9551SOL    HW240116   4.468   2.621  14.365  0.7006 -2.5973 -0.0644
 9552SOL     OW40117   3.933   4.122  11.813  0.5405  0.0577  0.0690
 9552SOL    HW140118   3.999   4.088  11.752 -1.8941 -1.2631 -1.8520
 9552SOL    HW240119   3.885   4.042  11.836 -1.0483  1.1674  0.5766
 9553SOL     OW40120   3.536   3.656   3.450  0.0901 -0.0534  0.3093
 9553SOL    HW140121   3.593   3.719   3.406  0.6223 -0.2629  0.6984
 9553SOL    HW240122   3.589   3.620   3.521  2.1796 -2.7329 -2.6115
 9554SOL     OW40123   2.908   1.392   6.430  0.1811  0.3347  0.2903
 9554SOL    HW140124   2.993   1.371   6.391 -0.7432 -2.3908 -0.2171
 9554SOL    HW240125   2.911   1.488   6.436  0.7989  0.2968  0.6237
 9555SOL     OW40126   1.648   1.907   5.240  0.3084  0.3301  0.3651
 9555SOL    HW140127   1.737   1.915   5.206 -0.2700  1.8367 -0.7691
 9555SOL    HW240128   1.625   1.818   5.212  0.9658  0.6555 -1.2234
 9556SOL     OW40129   2.134   3.606  16.971 -0.1303  0.8185  0.5492
 9556SOL    HW140130   2.106   3.662  16.899 -1.2127  1.7291  1.6888
 9556SOL    HW240131   2.060   3.546  16.981  1.6116 -1.2458  1.2246
 9557SOL     OW40132   4.531   2.452  10.438  0.2598  0.2491  0.0238
 9557SOL    HW140133   4.504   2.508  10.366  0.9201 -1.6761 -1.7099
 9557SOL    HW240134   4.517   2.510  10.513 -1.2412 -0.5135  0.3421
 9558SOL     OW40135   2.503   2.062  12.732  0.1110 -0.3669 -0.2934
 9558SOL    HW140136   2.557   2.076  12.655  0.1616 -0.1140 -0.2108
 9558SOL    HW240137   2.518   2.150  12.767 -0.0112 -0.4659  0.0063
 9559SOL     OW40138   1.676   1.503  14.080 -0.1164  0.3718  0.0917
 9559SOL    HW140139   1.731   1.441  14.129  0.0594  1.0763  0.7878
 9559SOL    HW240140   1.707   1.591  14.101  0.5134  0.4446 -1.1681
 9560SOL     OW40141   1.147   3.223   3.804 -0.3012 -0.1095 -0.0772
 9560SOL    HW140142   1.152   3.130   3.828  1.9163 -0.0815 -0.4009
 9560SOL    HW240143   1.212   3.242   3.737  1.3425 -0.4256  1.3972
 9561SOL     OW40144   2.177   0.492  13.774 -0.1978 -0.6191  0.2955
 9561SOL    HW140145   2.184   0.488  13.679 -2.0245  2.5935  0.0349
 9561SOL    HW240146   2.102   0.440  13.800 -0.3295 -0.5608  0.0300
 9562SOL     OW40147   3.734   4.473   1.793  0.8115 -0.7026  0.3384
 9562SOL    HW140148   3.688   4.445   1.714  0.4702  0.0807  0.2648
 9562SOL    HW240149   3.738   4.398   1.852 -2.5453 -1.1416 -0.0090
 9563SOL     OW40150   3.912   2.761   6.793  0.1429 -0.3185  0.0546
 9563SOL    HW140151   3.859   2.760   6.713  0.1878  1.6149 -0.0015
 9563SOL    HW240152   3.904   2.851   6.824  0.4423 -1.0883  2.3539
 9564SOL     OW40153   3.919   0.613   6.303 -0.4903  0.1207 -0.2574
 9564SOL    HW140154   3.962   0.558   6.367 -0.7336  0.8388  0.5220
 9564SOL    HW240155   3.851   0.663   6.348  0.3585  0.6429  0.4457
 9565SOL     OW40156   2.168   1.881  10.209  0.0592 -0.0279 -0.1736
 9565SOL    HW140157   2.161   1.804  10.266 -0.0574 -0.1308 -0.3272
 9565SOL    HW240158   2.257   1.861  10.181  0.1149  0.5970 -0.4329
 9566SOL     OW40159   3.080   0.004  11.270  0.0650 -0.3238  0.3433
 9566SOL    HW140160   3.084   4.704  11.177  0.3821  1.8053 -0.1240
 9566SOL    HW240161   3.069   0.098  11.277  2.0190 -0.1566  1.2597
 9567SOL     OW40162   3.837   1.513   5.324 -0.6106  0.5826  0.0098
 9567SOL    HW140163   3.749   1.509   5.363 -0.8396 -0.2086 -0.5954
 9567SOL    HW240164   3.866   1.423   5.341  0.4698  0.4586 -2.5236
 9568SOL     OW40165   1.240   3.680   5.713 -0.8494  0.2611  0.6863
 9568SOL    HW140166   1.159   3.657   5.758 -1.9499  0.5412 -1.1480
 9568SOL    HW240167   1.291   3.603   5.736  1.0300  0.8108 -1.5988
   4.72135   4.72135  17.68774
