Membrane in water
40167
    1TCq1    O1    1   3.911   2.172  11.288 -0.1365 -0.5731  0.2277
    1TCq1    C1    2   3.887   2.041  11.278  0.4596 -0.3682  0.4561
    1TCq1    O2    3   3.914   1.968  11.186  0.2261  0.3063  0.5488
    1TCq1    C2    4   3.854   1.999  11.410  0.2545 -0.2156 -0.1321
    1TCq1    C3    5   3.871   2.078  11.525  0.2321 -0.0048 -0.1888
    1TCq1    C4    6   3.801   2.042  11.637 -0.4886 -0.3710 -0.3621
    1TCq1    C5    7   3.722   1.927  11.636  0.5317 -0.4493  0.1439
    1TCq1    C6    8   3.725   1.841  11.532 -0.1722 -0.3423 -0.5012
    1TCq1    C7    9   3.780   1.879  11.411  0.0982 -0.1218  0.0908
    1TCq1    C8   10   3.654   1.718  11.550  0.8127  0.4196 -0.6098
    1TCq1    O4   11   3.579   1.711  11.646  0.6164 -0.4421 -0.3091
    1TCq1    C9   12   3.836   2.099  11.760  0.2991  0.2876  0.1095
    1TCq1    O5   13   3.880   2.214  11.768  0.1391 -0.8176  0.0385
    1TCq1    O6   14   3.798   2.031  11.858  0.7886  0.2451  0.1841
    1TCq1    H1   15   3.878   2.211  11.372  0.7952 -2.9589  1.7189
    1TCq1    H2   16   3.936   2.165  11.533 -3.1833  2.5616 -0.2196
    1TCq1    H3   17   3.679   1.895  11.730  4.4144  1.8915  2.7197
    1TCq1    H4   18   3.764   1.817  11.323 -2.4074  0.2171  0.2905
    2MPD2     C   19   3.576   1.209  11.544 -0.2250  0.4007 -0.1988
    2MPD2    C1   20   3.496   1.321  11.576  0.1261  0.6580 -0.5291
    2MPD2    C2   21   3.541   1.449  11.555 -0.4056  0.3227  0.1234
    2MPD2    C3   22   3.657   1.478  11.487 -0.5521 -0.5849  0.1693
    2MPD2    C4   23   3.738   1.369  11.456  0.2164  0.6011  0.2700
    2MPD2    C5   24   3.700   1.237  11.478  0.1165 -0.1478  0.5373
    2MPD2     H   25   3.481   1.532  11.590  0.2524  0.6832  0.3800
    2MPD2    H1   26   3.837   1.380  11.414 -0.6287  0.0210 -1.8827
    2MPD2    H2   27   3.546   1.106  11.559  2.6601 -0.1991  1.5482
    2MPD2    H3   28   3.759   1.151  11.449 -0.4880  0.2172 -1.7154
    2MPD2     N   29   3.703   1.613  11.476  0.4409  0.1645 -0.5029
    2MPD2    H5   30   3.793   1.623  11.428  1.0387  0.0378  0.5904
    2MPD2    N1   31   3.375   1.305  11.656  0.6088 -0.1478 -0.4580
    2MPD2    H7   32   3.325   1.393  11.664 -2.0259 -1.6195 -0.7023
    3TCq1    O1   33   3.521   2.289  10.574  0.1587 -0.3447 -0.1918
    3TCq1    C1   34   3.563   2.393  10.652 -0.0796  0.6400  0.3646
    3TCq1    O2   35   3.665   2.396  10.722 -0.4574  0.2155 -0.5041
    3TCq1    C2   36   3.461   2.496  10.642  0.2022  0.1029 -0.8721
    3TCq1    C3   37   3.506   2.633  10.648 -0.2903  0.0827  0.1366
    3TCq1    C4   38   3.409   2.725  10.614 -0.6341  0.3809  0.6592
    3TCq1    C5   39   3.275   2.693  10.598  0.4066  0.5380  0.6358
    3TCq1    C6   40   3.241   2.563  10.587 -0.0805 -0.9204  0.2926
    3TCq1    C7   41   3.331   2.458  10.602  0.1117  0.5103  0.0392
    3TCq1    C8   42   3.098   2.524  10.597 -0.1266  0.3371  0.1323
    3TCq1    O4   43   3.072   2.404  10.590 -0.2915 -0.2671 -0.1728
    3TCq1    C9   44   3.457   2.864  10.593 -0.3472 -0.5940  0.0247
    3TCq1    O5   45   3.539   2.910  10.678 -0.3776 -0.4309 -0.4547
    3TCq1    O6   46   3.402   2.938  10.509  0.1831  0.3552 -0.1561
    3TCq1    H1   47   3.432   2.300  10.534  0.2575  2.2168  0.2654
    3TCq1    H2   48   3.612   2.654  10.652 -0.4949  1.3498 -1.1694
    3TCq1    H3   49   3.211   2.773  10.565 -0.2628 -0.4887 -0.5455
    3TCq1    H4   50   3.296   2.356  10.601  3.7732 -0.7534  0.3873
    4MPD2     C   51   2.595   2.604  10.717  0.0874 -0.0961  0.1192
    4MPD2    C1   52   2.660   2.727  10.707  0.0847  0.2740  0.4864
    4MPD2    C2   53   2.796   2.736  10.692 -0.7410  0.3254  0.4630
    4MPD2    C3   54   2.876   2.618  10.672 -0.3041 -0.5471 -0.1945
    4MPD2    C4   55   2.809   2.501  10.709 -0.0551  0.0273  0.0582
    4MPD2    C5   56   2.672   2.490  10.722 -0.3320  0.3641 -1.1069
    4MPD2     H   57   2.842   2.834  10.680 -0.1670  0.2241  1.8408
    4MPD2    H1   58   2.859   2.405  10.700 -1.2614 -0.4814 -1.3126
    4MPD2    H2   59   2.489   2.586  10.726  0.3562  0.3387  3.9454
    4MPD2    H3   60   2.642   2.386  10.730 -0.3435  0.4179 -0.5154
    4MPD2     N   61   3.011   2.628  10.632  0.1344 -0.2176 -0.0198
    4MPD2    H5   62   3.043   2.724  10.638 -4.4660  1.2458  1.2928
    4MPD2    N1   63   2.594   2.850  10.720 -0.1319  0.0282  0.6396
    4MPD2    H7   64   2.658   2.929  10.721  0.6667 -0.6304  1.2120
    5TCq1    O1   65   3.716   4.695  10.756  0.6202 -1.0684 -0.3077
    5TCq1    C1   66   3.842   4.666  10.740 -0.2512  0.1650 -0.0813
    5TCq1    O2   67   3.921   0.003  10.662  0.6600 -0.3944 -0.0806
    5TCq1    C2   68   3.863   4.526  10.785 -0.3179  0.2431 -0.2238
    5TCq1    C3   69   3.989   4.507  10.830  0.4620  0.3173  0.9780
    5TCq1    C4   70   4.006   4.401  10.915 -0.1604 -0.2177 -0.1905
    5TCq1    C5   71   3.903   4.318  10.941  0.4749 -0.8629  0.1560
    5TCq1    C6   72   3.781   4.344  10.893  0.3349  0.9346 -0.5609
    5TCq1    C7   73   3.753   4.447  10.810 -0.0407  0.1917  0.3990
    5TCq1    C8   74   3.674   4.256  10.946 -0.2112  0.0135  0.5293
    5TCq1    O4   75   3.709   4.147  11.003 -0.0382  0.0590 -0.0164
    5TCq1    C9   76   4.134   4.379  10.976  0.4004 -0.1812  0.4008
    5TCq1    O5   77   4.138   4.287  11.066 -0.3713 -0.8674  0.0771
    5TCq1    O6   78   4.224   4.469  10.957 -0.5708 -0.7010 -0.0767
    5TCq1    H1   79   3.667   4.637  10.817 -1.9854  1.1207 -0.3333
    5TCq1    H2   80   4.072   4.575  10.811  0.6543  0.3320  1.8253
    5TCq1    H3   81   3.914   4.239  11.015  1.5634 -1.7854 -0.9764
    5TCq1    H4   82   3.657   4.457  10.761  0.3948 -1.2260 -0.7179
    6MPD2     C   83   3.305   4.345  10.937  0.5056 -0.2944 -0.9911
    6MPD2    C1   84   3.422   4.266  10.964  0.0138 -0.1322  0.2366
    6MPD2    C2   85   3.404   4.137  11.002  0.6835 -0.3702  0.2346
    6MPD2    C3   86   3.279   4.078  11.026 -0.0559  0.3206 -0.3608
    6MPD2    C4   87   3.168   4.157  11.018  0.1205 -0.1950 -0.2004
    6MPD2    C5   88   3.186   4.285  10.972 -0.3456 -0.2228 -0.2056
    6MPD2     H   89   3.492   4.076  11.017  1.3923  0.0251 -2.3783
    6MPD2    H1   90   3.070   4.121  11.049 -0.4734 -2.6064 -4.8723
    6MPD2    H2   91   3.308   4.445  10.895 -0.6676  0.5142  0.8395
    6MPD2    H3   92   3.099   4.348  10.956 -0.5007 -0.3014  0.3380
    6MPD2     N   93   3.267   3.937  11.051 -0.1564  0.2559  0.5218
    6MPD2    H5   94   3.352   3.884  11.065 -0.4926 -0.6787 -1.0198
    6MPD2    N1   95   3.550   4.318  10.936  0.0666  0.3413  0.9239
    6MPD2    H7   96   3.541   4.413  10.899  0.8628 -0.6635 -1.8620
    7TCq1    O1   97   0.727   4.504  13.658  0.8775 -0.3763 -0.1615
    7TCq1    C1   98   0.794   4.393  13.693  0.6198 -0.1748  0.3028
    7TCq1    O2   99   0.795   4.341  13.805 -0.7026 -0.0287  0.0959
    7TCq1    C2  100   0.837   4.329  13.573 -0.1114 -0.0807 -0.3215
    7TCq1    C3  101   0.900   4.410  13.481 -0.1904  0.6592  0.5246
    7TCq1    C4  102   0.937   4.355  13.364 -0.4136  0.7000  0.5438
    7TCq1    C5  103   0.934   4.219  13.340 -0.5818 -0.4937  0.6691
    7TCq1    C6  104   0.876   4.139  13.439 -0.2154 -0.0406  0.0593
    7TCq1    C7  105   0.831   4.191  13.560  0.0393  0.5079 -0.0181
    7TCq1    C8  106   0.832   4.001  13.410  0.1887 -0.3199 -1.0818
    7TCq1    O4  107   0.832   3.933  13.512  0.4877 -0.3035  0.3937
    7TCq1    C9  108   0.990   4.442  13.266 -0.7532 -0.2588 -0.1498
    7TCq1    O5  109   0.985   4.568  13.286  0.0573  0.0914  0.8534
    7TCq1    O6  110   1.059   4.386  13.184  0.2640 -0.5409  0.6762
    7TCq1    H1  111   0.691   4.494  13.567  2.6644  1.5357 -1.0644
    7TCq1    H2  112   0.925   4.515  13.492  0.5356  0.5982 -0.5138
    7TCq1    H3  113   0.967   4.174  13.247 -0.2846  1.0956  0.0025
    7TCq1    H4  114   0.767   4.143  13.633 -2.0447  0.2637 -1.9765
    8MPD2     C  115   0.555   3.665  13.145 -0.1769 -0.3457  0.5377
    8MPD2    C1  116   0.597   3.670  13.271  1.4323 -0.7289 -0.1226
    8MPD2    C2  117   0.675   3.776  13.317  0.0400  0.0856 -0.1064
    8MPD2    C3  118   0.712   3.872  13.228 -0.5376  0.4900 -1.2566
    8MPD2    C4  119   0.673   3.870  13.097  0.8202  0.2413 -0.0241
    8MPD2    C5  120   0.591   3.765  13.057  0.3292  0.6053  0.2675
    8MPD2     H  121   0.714   3.767  13.417 -1.1919  3.3264  0.6673
    8MPD2    H1  122   0.690   3.954  13.031  0.1377  1.7067  1.6525
    8MPD2    H2  123   0.485   3.586  13.120 -0.0926 -0.3745  0.3934
    8MPD2    H3  124   0.553   3.776  12.956 -0.3086 -0.8496  0.3427
    8MPD2     N  125   0.783   3.982  13.280  0.0253 -0.1741  0.4017
    8MPD2    H5  126   0.796   4.044  13.201 -1.9233 -2.2746 -1.5492
    8MPD2    N1  127   0.559   3.565  13.359  0.3493 -0.0490 -0.7670
    8MPD2    H7  128   0.484   3.505  13.328 -0.1970  0.8242 -1.1524
    9TCq1    O1  129   2.807   1.983  10.839 -0.3692 -0.8424 -0.0381
    9TCq1    C1  130   2.861   1.933  10.954 -0.4584  0.0652 -0.2033
    9TCq1    O2  131   2.795   1.883  11.042  0.3906 -0.0081 -0.5194
    9TCq1    C2  132   3.008   1.937  10.949 -0.0897 -0.3006  0.9830
    9TCq1    C3  133   3.064   1.894  10.828 -0.9066 -0.7557 -0.3837
    9TCq1    C4  134   3.202   1.898  10.817 -0.0149  0.3807 -0.2335
    9TCq1    C5  135   3.274   1.936  10.925  0.1657 -0.0918 -0.4043
    9TCq1    C6  136   3.224   1.979  11.042 -0.7196  0.5396 -0.1477
    9TCq1    C7  137   3.084   1.975  11.058 -0.0907 -0.2109  0.2078
    9TCq1    C8  138   3.315   2.002  11.154  0.3928  0.4497  0.5703
    9TCq1    O4  139   3.432   1.978  11.138 -0.2498  0.6599  0.3712
    9TCq1    C9  140   3.265   1.873  10.693 -0.1380 -0.2763  0.1996
    9TCq1    O5  141   3.384   1.835  10.692 -0.0684 -0.0715 -0.0432
    9TCq1    O6  142   3.194   1.856  10.591 -0.0516  0.0064 -0.8335
    9TCq1    H1  143   2.870   2.038  10.787 -0.3367 -0.3861  0.4769
    9TCq1    H2  144   3.001   1.878  10.741  1.4941 -1.6686 -1.9268
    9TCq1    H3  145   3.378   1.953  10.899  0.4336 -2.2576 -0.7297
    9TCq1    H4  146   3.034   2.013  11.146 -0.5231  2.8473 -1.3611
   10MPD2     C  147   3.455   2.126  11.399  0.4278  0.2914  0.9191
   10MPD2    C1  148   3.320   2.091  11.391 -0.8604  0.2320 -0.0771
   10MPD2    C2  149   3.241   2.114  11.499  0.7118 -0.0588  0.6236
   10MPD2    C3  150   3.296   2.153  11.617  0.3271  0.0528 -0.0267
   10MPD2    C4  151   3.423   2.188  11.617 -0.0804  0.3919 -0.1036
   10MPD2    C5  152   3.508   2.168  11.515  0.6438  0.0987 -0.0345
   10MPD2     H  153   3.138   2.078  11.501  1.1074 -1.0383  3.6374
   10MPD2    H1  154   3.467   2.229  11.707 -0.9175 -1.9477  1.3801
   10MPD2    H2  155   3.521   2.111  11.314 -0.2706 -1.5157  0.6976
   10MPD2    H3  156   3.614   2.192  11.520  0.8450 -0.4079 -1.9316
   10MPD2     N  157   3.213   2.192  11.726  0.1231  0.0864 -0.1258
   10MPD2    H5  158   3.258   2.237  11.806  1.0732 -1.2773  0.1026
   10MPD2    N1  159   3.256   2.036  11.273 -0.3658  0.0583 -0.0721
   10MPD2    H7  160   3.155   2.036  11.286 -0.4188 -0.6204 -0.5059
   11TCq1    O1  161   4.084   2.816  13.756  0.4327 -0.6140  0.2889
   11TCq1    C1  162   4.069   2.687  13.795 -0.4645 -0.2748 -0.4856
   11TCq1    O2  163   4.021   2.602  13.724 -0.1882  0.1587 -0.0867
   11TCq1    C2  164   4.102   2.666  13.934 -0.8549 -0.3716 -0.2582
   11TCq1    C3  165   4.187   2.747  14.002  0.1772 -0.4376  0.0535
   11TCq1    C4  166   4.186   2.749  14.140  0.7864 -0.3675 -0.5227
   11TCq1    C5  167   4.112   2.652  14.208  0.6174 -0.3714 -0.2523
   11TCq1    C6  168   4.041   2.562  14.140  0.2120 -0.1150 -0.2944
   11TCq1    C7  169   4.033   2.564  14.001 -0.4282  0.3513  0.1690
   11TCq1    C8  170   3.962   2.473  14.222 -0.0465  0.5844  0.3103
   11TCq1    O4  171   3.985   2.478  14.344  0.0314  0.2720  0.1436
   11TCq1    C9  172   4.274   2.844  14.205 -0.2208 -0.9240  0.3075
   11TCq1    O5  173   4.347   2.914  14.127  0.0153 -0.1556  0.3920
   11TCq1    O6  174   4.290   2.842  14.329  0.2356 -0.2742  0.4068
   11TCq1    H1  175   4.097   2.874  13.834 -0.3466 -0.6673  0.4653
   11TCq1    H2  176   4.253   2.819  13.955  1.3895  1.2684  4.3639
   11TCq1    H3  177   4.119   2.663  14.316  0.7862 -0.9340 -0.2032
   11TCq1    H4  178   3.974   2.493  13.943  0.1570  1.0933 -1.3340
   12MPD2     C  179   3.694   2.387  14.332 -0.5259 -0.0914 -0.5640
   12MPD2    C1  180   3.740   2.364  14.202 -0.6828  0.3324  0.0565
   12MPD2    C2  181   3.663   2.286  14.121  0.4967  0.4005 -0.4777
   12MPD2    C3  182   3.540   2.239  14.168 -0.1781  0.0635 -0.2940
   12MPD2    C4  183   3.489   2.275  14.289  0.0232  0.0550 -0.3169
   12MPD2    C5  184   3.567   2.352  14.371 -0.5159  0.0606  0.2283
   12MPD2     H  185   3.692   2.271  14.017  0.7061  0.6830 -0.4576
   12MPD2    H1  186   3.395   2.252  14.337  0.4460  3.1523  2.0069
   12MPD2    H2  187   3.748   2.450  14.402  0.3465 -0.2947 -1.0408
   12MPD2    H3  188   3.533   2.371  14.472 -0.9261 -1.9925  0.4772
   12MPD2     N  189   3.457   2.181  14.073 -0.0074 -0.0756 -0.6193
   12MPD2    H5  190   3.494   2.161  13.980 -0.4358 -2.5981 -0.2595
   12MPD2    N1  191   3.862   2.414  14.145 -0.2821 -0.5124 -0.8456
   12MPD2    H7  192   3.868   2.420  14.044 -2.4115 -0.7989 -0.9880
   13TCq1    O1  193   3.594   1.772  10.844  0.2489  0.2230 -0.2538
   13TCq1    C1  194   3.570   1.692  10.949  0.2722  0.4419  0.2993
   13TCq1    O2  195   3.592   1.724  11.068 -0.1156 -0.7478 -0.2258
   13TCq1    C2  196   3.464   1.601  10.917 -0.3550 -0.3639  0.1821
   13TCq1    C3  197   3.455   1.554  10.787  0.1213 -0.1885  0.4101
   13TCq1    C4  198   3.342   1.492  10.743  0.2807  0.0677 -0.1679
   13TCq1    C5  199   3.234   1.480  10.821 -0.0945 -0.6833  0.1581
   13TCq1    C6  200   3.235   1.543  10.944  0.4402  0.0153 -0.0305
   13TCq1    C7  201   3.350   1.602  10.995  0.6423  0.0685  0.2343
   13TCq1    C8  202   3.114   1.549  11.027  0.6199 -0.2179 -0.3350
   13TCq1    O4  203   3.111   1.626  11.122  0.3480  0.1738 -0.1713
   13TCq1    C9  204   3.341   1.463  10.600  0.4407 -0.4356 -0.0834
   13TCq1    O5  205   3.412   1.534  10.528 -0.2044 -0.0471 -0.0920
   13TCq1    O6  206   3.238   1.398  10.556  0.1850 -0.4496 -1.2242
   13TCq1    H1  207   3.521   1.757  10.782 -0.9844  0.5478  1.1117
   13TCq1    H2  208   3.533   1.570  10.714 -0.7010 -1.0257 -0.6407
   13TCq1    H3  209   3.139   1.442  10.785 -0.2829 -0.0486 -0.0202
   13TCq1    H4  210   3.357   1.638  11.097 -0.3590 -0.3870  0.4648
   14MPD2     C  211   2.838   1.302  11.044 -0.2931  0.2701  0.2581
   14MPD2    C1  212   2.904   1.423  11.064  0.0387  0.4318  0.2838
   14MPD2    C2  213   2.832   1.530  11.120  0.0178  0.3830 -0.4806
   14MPD2    C3  214   2.707   1.497  11.177 -0.1604 -0.3275  0.1967
   14MPD2    C4  215   2.651   1.375  11.166 -0.0384  0.1797 -0.3465
   14MPD2    C5  216   2.713   1.273  11.094 -0.2508 -0.1678 -0.0512
   14MPD2     H  217   2.865   1.632  11.105  0.6799  0.4974  1.8029
   14MPD2    H1  218   2.556   1.344  11.207 -0.4363 -0.5566 -1.8281
   14MPD2    H2  219   2.887   1.223  10.988  1.1553  1.6831 -0.4614
   14MPD2    H3  220   2.663   1.178  11.088  0.0369 -0.2232 -1.6376
   14MPD2     N  221   2.644   1.602  11.249  0.2198  0.3642  0.5352
   14MPD2    H5  222   2.696   1.686  11.273 -1.1259  1.2212  0.4436
   14MPD2    N1  223   3.030   1.447  11.008 -0.1373 -0.1297  0.4264
   14MPD2    H7  224   3.062   1.378  10.940 -0.7697 -1.1584  1.1622
   15TCq1    O1  225   0.079   1.910   1.950 -0.1343 -0.0443  0.6792
   15TCq1    C1  226   0.096   1.891   1.818  0.1790  0.6625 -0.0956
   15TCq1    O2  227   0.007   1.882   1.731  0.0190  0.6141  0.1210
   15TCq1    C2  228   0.230   1.838   1.794  0.1335 -0.3804  0.1681
   15TCq1    C3  229   0.337   1.905   1.837  0.5949  0.1128  0.0384
   15TCq1    C4  230   0.461   1.839   1.837 -0.0722 -0.6114 -0.6801
   15TCq1    C5  231   0.477   1.711   1.793  0.2953  0.1858 -0.4189
   15TCq1    C6  232   0.362   1.646   1.746 -0.3815 -0.2584  0.2124
   15TCq1    C7  233   0.239   1.705   1.752  0.1474 -0.1539 -0.9485
   15TCq1    C8  234   0.381   1.522   1.668  0.6968  0.4155  0.2526
   15TCq1    O4  235   0.486   1.463   1.680 -0.4748 -0.2356 -0.0614
   15TCq1    C9  236   0.574   1.906   1.889 -0.6780  0.3336  0.1002
   15TCq1    O5  237   0.561   2.033   1.908 -0.2393  0.1801  0.2922
   15TCq1    O6  238   0.678   1.840   1.915  0.4362 -0.6390 -0.3206
   15TCq1    H1  239   0.163   1.907   2.001  0.2734 -2.1307 -0.1231
   15TCq1    H2  240   0.332   2.010   1.861  0.0713 -0.3901  2.0844
   15TCq1    H3  241   0.573   1.662   1.798  0.4672  0.5812  0.1416
   15TCq1    H4  242   0.146   1.661   1.719  0.9507 -1.3681 -1.5807
   16MPD2     C  243   0.135   1.317   1.472 -0.1548 -0.7066 -0.1695
   16MPD2    C1  244   0.250   1.344   1.554  0.0607  0.3599 -0.2427
   16MPD2    C2  245   0.321   1.236   1.599 -0.6814  0.0119  0.5162
   16MPD2    C3  246   0.306   1.107   1.547 -0.3032  0.1926  0.0380
   16MPD2    C4  247   0.195   1.080   1.472  0.0432 -0.4211 -0.2228
   16MPD2    C5  248   0.104   1.187   1.443  0.1704  0.9241  0.2768
   16MPD2     H  249   0.393   1.252   1.678  2.0735 -0.4021 -1.9029
   16MPD2    H1  250   0.175   0.984   1.425  1.2850 -2.4850  3.4312
   16MPD2    H2  251   0.070   1.396   1.439 -0.3762 -0.8660 -0.1156
   16MPD2    H3  252   0.020   1.180   1.375  0.4862 -0.2883 -0.0001
   16MPD2     N  253   0.401   1.004   1.571  0.0033  0.6007  0.2338
   16MPD2    H5  254   0.490   1.023   1.616 -0.5738 -0.7482  1.9682
   16MPD2    N1  255   0.266   1.481   1.605 -0.4183  0.8955  0.1484
   16MPD2    H7  256   0.184   1.540   1.598 -0.4348  0.8448 -0.0760
   17TCq1    O1  257   2.837   1.383  11.533  0.4639 -0.1553 -0.3210
   17TCq1    C1  258   2.783   1.302  11.443 -0.5462  0.3109  0.1589
   17TCq1    O2  259   2.683   1.232  11.457  0.1712  0.0513  0.2565
   17TCq1    C2  260   2.892   1.247  11.362 -0.2207 -0.8696 -0.6184
   17TCq1    C3  261   2.868   1.120  11.321  0.9624  0.5842  0.5500
   17TCq1    C4  262   2.971   1.051  11.275  0.8576  0.0623  0.2099
   17TCq1    C5  263   3.091   1.112  11.256 -0.5182 -0.3971  0.3897
   17TCq1    C6  264   3.116   1.236  11.307 -0.3678 -0.0202 -0.5221
   17TCq1    C7  265   3.013   1.312  11.349  0.4882 -0.1475 -0.7542
   17TCq1    C8  266   3.243   1.297  11.278 -0.1755  0.1964 -0.0275
   17TCq1    O4  267   3.278   1.393  11.347  0.1913  0.0852 -0.0011
   17TCq1    C9  268   2.956   0.912  11.239 -0.4598  0.6348 -0.2038
   17TCq1    O5  269   3.043   0.863  11.160  0.4041 -0.0637  0.0642
   17TCq1    O6  270   2.843   0.863  11.261  0.1715 -0.0461 -0.0251
   17TCq1    H1  271   2.922   1.428  11.511 -0.3607  1.3562 -0.3706
   17TCq1    H2  272   2.769   1.078  11.324  1.6854 -1.1742 -0.1499
   17TCq1    H3  273   3.172   1.053  11.215  2.6881  2.0101  3.2297
   17TCq1    H4  274   3.039   1.415  11.372 -0.7822 -0.5373  2.4394
   18MPD2     C  275   3.528   1.354  11.181  0.5581 -1.0216 -0.1908
   18MPD2    C1  276   3.431   1.277  11.118 -0.0308  0.1659  0.1456
   18MPD2    C2  277   3.461   1.221  10.990  0.5250 -0.0030  0.3213
   18MPD2    C3  278   3.578   1.257  10.927  0.7513 -0.4744  0.1437
   18MPD2    C4  279   3.676   1.330  10.994  0.3318 -0.6634  0.2101
   18MPD2    C5  280   3.652   1.370  11.122 -0.4869 -0.4323  0.3118
   18MPD2     H  281   3.384   1.158  10.947  1.1746 -0.7448  0.2449
   18MPD2    H1  282   3.773   1.347  10.948 -1.0723  0.9818 -2.0954
   18MPD2    H2  283   3.507   1.400  11.277  0.5433 -0.0977 -0.6398
   18MPD2    H3  284   3.730   1.416  11.181  1.0902 -0.7731 -1.5157
   18MPD2     N  285   3.615   1.213  10.796 -0.0980 -0.0744  0.0963
   18MPD2    H5  286   3.699   1.259  10.762 -0.0702 -0.3770 -0.2538
   18MPD2    N1  287   3.307   1.247  11.174 -0.0789  0.0700 -0.6740
   18MPD2    H7  288   3.256   1.187  11.111 -0.1286  1.2379 -1.7411
   19TMC2    C1  289   4.106   2.201  14.016  0.3278  0.0173  0.0415
   19TMC2    C2  290   4.065   2.212  13.887 -0.5567 -0.1618  0.3595
   19TMC2    C3  291   3.973   2.121  13.841  0.6250 -0.4145  0.7139
   19TMC2    C4  292   4.061   2.101  14.101  0.3360 -0.3813 -0.2019
   19TMC2    C5  293   3.962   2.020  14.056 -0.0234  0.1370  0.6126
   19TMC2    C6  294   3.918   2.030  13.926 -0.5700  0.4085 -0.0437
   19TMC2     C  295   4.221   2.285  14.054  0.8798 -0.5449 -0.5935
   19TMC2     O  296   4.247   2.383  13.986 -0.7974 -0.4312 -0.7642
   19TMC2     H  297   4.088   2.298  13.825 -3.1653  0.6803  0.5727
   19TMC2    H1  298   4.089   2.113  14.205 -0.0955  2.4931 -0.4129
   19TMC2    H2  299   3.840   1.964  13.891 -1.0453 -0.3056  2.3458
   19TMC2    C7  300   3.909   1.920  14.137 -0.1708 -0.7327 -0.2298
   19TMC2    C8  301   3.911   2.147  13.717  0.1576 -0.1599  0.0040
   19TMC2    O1  302   3.799   1.870  14.110 -0.7095 -0.4116  0.4180
   19TMC2    O2  303   3.900   2.267  13.683 -0.2131 -0.3718  0.5153
   19TMC2    O5  304   3.891   2.044  13.635 -0.0418  0.5129 -0.3439
   19TMC2    H5  305   3.915   1.955  13.669 -2.5724  0.5405  1.4893
   20MPD2     C  306   4.448   2.434  14.204  0.1247 -0.1073  0.3005
   20MPD2    C1  307   4.399   2.311  14.234  0.8343  0.3867 -0.3033
   20MPD2    C2  308   4.455   2.235  14.332 -0.2012  0.1918 -0.4152
   20MPD2    C3  309   4.573   2.274  14.395  0.1624 -0.3228 -0.2039
   20MPD2    C4  310   4.627   2.400  14.363  0.3892 -0.3701  0.5475
   20MPD2    C5  311   4.562   2.477  14.265 -0.1136 -0.2880 -0.0905
   20MPD2     H  312   4.419   2.141  14.374 -0.2595  1.0269  1.4306
   20MPD2    H1  313   4.718   2.438  14.408  1.6221 -0.2279 -2.0872
   20MPD2    H2  314   4.410   2.503  14.129  0.3889 -1.3396 -0.9612
   20MPD2    H3  315   4.618   2.562  14.228 -0.3149  0.1218  0.5519
   20MPD2     N  316   4.639   2.199  14.487 -0.1616  0.0051  0.5239
   20MPD2    H5  317   4.716   2.251  14.527 -2.3572  3.2089  0.5501
   20MPD2    N1  318   4.286   2.245  14.171 -0.5615 -0.8066 -0.2709
   20MPD2    H7  319   4.275   2.153  14.215  0.3248 -0.6755  0.2199
   21MPD2     C  320   2.971   2.861  15.096  0.5217 -0.2423  0.4458
   21MPD2    C1  321   3.006   2.762  15.005 -0.0731 -0.0566 -0.0492
   21MPD2    C2  322   2.906   2.693  14.944 -0.3013  0.2265  0.4032
   21MPD2    C3  323   2.770   2.717  14.975 -0.5403 -0.0152 -0.8098
   21MPD2    C4  324   2.743   2.818  15.066 -0.0839 -0.6022  0.2147
   21MPD2    C5  325   2.840   2.877  15.137 -0.3057 -0.7283 -0.0973
   21MPD2     H  326   2.936   2.615  14.875  0.5386  2.0688 -1.2800
   21MPD2    H1  327   2.642   2.843  15.097  0.0099 -1.6670  1.3864
   21MPD2    H2  328   3.048   2.920  15.145  2.6461 -2.3138 -0.3900
   21MPD2    H3  329   2.809   2.951  15.210  2.1229 -0.2137  0.3887
   21MPD2     N  330   2.659   2.646  14.910 -0.1256  0.0545  0.2920
   21MPD2    H5  331   2.567   2.656  14.951 -0.3102  0.8003 -0.3038
   21MPD2    N1  332   3.132   2.721  14.970  0.1261  1.3066 -0.4807
   21MPD2    H7  333   3.129   2.648  14.900 -0.4884  1.3515 -0.5018
   22TCq2    C1  334   2.676   2.549  14.818  0.1108  0.1028  0.5042
   22TCq2    O2  335   2.780   2.512  14.762 -0.4081  0.1196 -0.4590
   22TCq2    C2  336   2.558   2.474  14.782  0.3642 -0.3128 -0.4648
   22TCq2    C3  337   2.585   2.351  14.718  0.0971 -0.1324  0.1541
   22TCq2    C4  338   2.477   2.289  14.657 -0.8694 -1.0140  0.5122
   22TCq2    C5  339   2.353   2.340  14.668  0.5124 -0.1158  0.0315
   22TCq2    C6  340   2.337   2.450  14.736  0.8618  0.2083  0.1326
   22TCq2    C7  341   2.429   2.522  14.805 -0.0856 -0.0059  0.6720
   22TCq2    C8  342   2.201   2.483  14.773  0.3033 -0.6200 -0.1223
   22TCq2    O4  343   2.131   2.389  14.798  0.0645 -0.3359 -0.0075
   22TCq2    C9  344   2.494   2.175  14.568 -0.6494 -0.3144 -0.1569
   22TCq2    O5  345   2.608   2.142  14.541  0.3886 -0.0382  0.1288
   22TCq2    O6  346   2.391   2.123  14.513 -0.4687  0.3811  0.5842
   22TCq2    H2  347   2.681   2.301  14.710  0.5372  0.7173  0.1115
   22TCq2    H3  348   2.276   2.293  14.608  0.7673 -0.8434  0.2850
   22TCq2    H4  349   2.408   2.616  14.855  0.6630  1.1850 -1.2662
   23MPD2     C  350   4.196   3.315  14.606  0.0097 -0.4961 -0.0260
   23MPD2    C1  351   4.148   3.375  14.721  0.1056  0.0853  0.2332
   23MPD2    C2  352   4.113   3.510  14.705 -0.0483 -0.2148 -0.3422
   23MPD2    C3  353   4.116   3.577  14.588  0.6926  0.0801 -0.1404
   23MPD2    C4  354   4.183   3.520  14.483 -0.4603 -0.0093 -0.2981
   23MPD2    C5  355   4.211   3.386  14.490  0.7582 -0.2151  0.5061
   23MPD2     H  356   4.079   3.557  14.797 -1.6423 -0.6379 -0.7199
   23MPD2    H1  357   4.208   3.577  14.394 -0.9246  1.6496  0.6394
   23MPD2    H2  358   4.229   3.212  14.605 -0.1282 -0.5571  1.2078
   23MPD2    H3  359   4.257   3.342  14.402  1.2902  0.1857  0.5860
   23MPD2     N  360   4.061   3.708  14.570  0.2063  0.3524  0.4743
   23MPD2    H5  361   4.075   3.746  14.477  0.1106 -1.9722 -0.4832
   23MPD2    N1  362   4.140   3.309  14.842 -0.0066  0.0630  0.0089
   23MPD2    H7  363   4.080   3.352  14.911  2.2565  2.4790  0.4509
   24TCq2    C1  364   3.997   3.795  14.655  0.3697  0.3433  0.4132
   24TCq2    O2  365   3.972   3.775  14.773 -0.0692 -0.0074  0.1482
   24TCq2    C2  366   3.935   3.910  14.586  0.0254  0.3056 -0.9457
   24TCq2    C3  367   3.942   3.904  14.447  0.1085 -0.4341 -0.0683
   24TCq2    C4  368   3.833   3.957  14.377 -0.0373  0.9317 -0.1415
   24TCq2    C5  369   3.731   4.012  14.445 -0.1943 -0.1368  0.0098
   24TCq2    C6  370   3.726   4.004  14.581 -0.1538  0.2992 -0.6550
   24TCq2    C7  371   3.824   3.955  14.655  0.1565 -0.2699  0.4192
   24TCq2    C8  372   3.603   4.019  14.653  0.3938 -0.0347  0.1971
   24TCq2    O4  373   3.609   4.044  14.772 -0.3198 -0.1831 -0.2260
   24TCq2    C9  374   3.847   3.983  14.236 -0.4460  0.7986 -0.6920
   24TCq2    O5  375   3.960   3.969  14.186  0.2763 -0.5891 -0.6227
   24TCq2    O6  376   3.742   4.014  14.176  0.7426 -0.1656 -0.1787
   24TCq2    H2  377   4.033   3.875  14.396  0.8615  2.3066 -0.2488
   24TCq2    H3  378   3.651   4.053  14.385  0.8449 -0.4929 -1.6481
   24TCq2    H4  379   3.812   3.932  14.760  0.6103  0.2479  0.5818
   25TMC2    C1  380   2.594   0.436  11.180  0.1926 -0.0289  0.1101
   25TMC2    C2  381   2.592   0.523  11.080 -0.1202 -0.1152  0.2792
   25TMC2    C3  382   2.618   0.654  11.116  0.5122  0.1776  0.0519
   25TMC2    C4  383   2.595   0.477  11.317 -0.1217 -0.2711  0.7716
   25TMC2    C5  384   2.603   0.611  11.340  0.4614  0.0437  0.2163
   25TMC2    C6  385   2.617   0.704  11.241 -0.3668  1.2296 -1.2169
   25TMC2     C  386   2.588   0.286  11.149  0.6029 -0.1194 -0.2076
   25TMC2     O  387   2.672   0.213  11.196  0.7095  0.3774  0.4999
   25TMC2     H  388   2.610   0.489  10.979 -1.9288  2.0171 -0.7465
   25TMC2    H1  389   2.565   0.407  11.394  1.1154 -1.1423  0.4468
   25TMC2    H2  390   2.615   0.812  11.253 -2.0864  1.3852 -2.7941
   25TMC2    C7  391   2.606   0.673  11.473  0.1202 -0.3487  0.1858
   25TMC2    C8  392   2.637   0.737  11.000  0.1165  0.0713 -0.1299
   25TMC2    O1  393   2.539   0.615  11.556  0.0037  0.0665 -0.5266
   25TMC2    O2  394   2.632   0.699  10.881  0.1579  0.0214  0.5459
   25TMC2    O5  395   2.700   0.852  11.040 -0.7508 -0.7067 -0.0961
   25TMC2    H5  396   2.738   0.844  11.130 -3.0329  1.4687  1.0500
   26MPD2     C  397   2.403   4.653  10.832  0.2028 -0.2747 -0.2812
   26MPD2    C1  398   2.313   0.034  10.838  0.0861 -0.0997  0.6795
   26MPD2    C2  399   2.341   0.147  10.916  0.3504 -0.0137  0.7795
   26MPD2    C3  400   2.461   0.151  10.981  0.0940 -0.0365  0.0041
   26MPD2    C4  401   2.554   0.046  10.976  1.0772 -0.0845 -0.0777
   26MPD2    C5  402   2.525   4.666  10.892  0.2981  0.6102  1.0549
   26MPD2     H  403   2.266   0.225  10.917 -1.6755 -1.9708 -0.8551
   26MPD2    H1  404   2.654   0.058  11.014  0.9618 -0.7544  0.4373
   26MPD2    H2  405   2.381   4.564  10.775  2.3906 -0.8790 -0.1883
   26MPD2    H3  406   2.598   4.589  10.869 -0.4423  0.5210 -1.0050
   26MPD2     N  407   2.489   0.271  11.048 -0.2703 -0.1207 -0.4903
   26MPD2    H5  408   2.432   0.355  11.040 -0.6745 -0.4442 -1.0023
   26MPD2    N1  409   2.187   0.017  10.767  0.0825  0.3494 -0.3001
   26MPD2    H7  410   2.108   0.073  10.798 -0.3407 -1.7954  2.5280
   27TMC2    C1  411   1.628   2.773  12.034 -0.0383  0.6270  0.5278
   27TMC2    C2  412   1.636   2.735  11.905  0.2301  0.1438  0.1488
   27TMC2    C3  413   1.648   2.833  11.810 -0.2292 -0.1457 -0.0638
   27TMC2    C4  414   1.639   2.905  12.073  0.7063  0.6246 -0.4730
   27TMC2    C5  415   1.649   2.996  11.976 -0.5311  0.1310  0.6718
   27TMC2    C6  416   1.656   2.964  11.846 -0.1981  0.1345 -0.7266
   27TMC2     C  417   1.611   2.672  12.143  0.3554  0.0270  0.3136
   27TMC2     O  418   1.669   2.564  12.123  0.0364 -0.2929 -0.1211
   27TMC2     H  419   1.642   2.628  11.886 -0.0872  0.2849 -0.7417
   27TMC2    H1  420   1.646   2.921  12.180  0.4390  2.4058 -0.7168
   27TMC2    H2  421   1.672   3.042  11.772 -0.1482  1.8119  1.0434
   27TMC2    C7  422   1.606   3.136  11.995  0.0687  0.7129  0.5502
   27TMC2    C8  423   1.684   2.793  11.677  0.5882 -0.4623  0.6887
   27TMC2    O1  424   1.658   3.226  11.931 -0.0383 -0.6343  0.2698
   27TMC2    O2  425   1.639   2.692  11.624  0.6188 -0.1860  0.6737
   27TMC2    O5  426   1.764   2.886  11.618  0.1789 -0.2076 -0.4641
   27TMC2    H5  427   1.781   2.967  11.672  0.7752 -0.9774  0.4915
   28MPD2     C  428   1.407   2.548  12.598 -0.0646 -0.2315  0.3033
   28MPD2    C1  429   1.372   2.676  12.569 -0.0365 -0.2083  0.1508
   28MPD2    C2  430   1.422   2.738  12.450 -0.8523  0.3817 -0.0738
   28MPD2    C3  431   1.506   2.663  12.369  0.2873  0.6741  0.0628
   28MPD2    C4  432   1.543   2.538  12.404  1.0022  0.4830 -0.1441
   28MPD2    C5  433   1.496   2.483  12.515  0.2457 -0.2339  0.2142
   28MPD2     H  434   1.387   2.835  12.417  0.2726  0.3026 -1.5160
   28MPD2    H1  435   1.605   2.480  12.336  0.5460  1.4013 -1.3465
   28MPD2    H2  436   1.377   2.502  12.691  1.6320 -0.4592  0.7405
   28MPD2    H3  437   1.525   2.383  12.543  0.5442  0.0746  1.0226
   28MPD2     N  438   1.535   2.722  12.243 -0.0372 -0.4758  0.0284
   28MPD2    H5  439   1.476   2.802  12.222  1.2190  0.8368  1.4368
   28MPD2    N1  440   1.291   2.751  12.671 -0.5913 -0.2777 -0.5997
   28MPD2    H7  441   1.250   2.694  12.745  1.6092  1.6579  2.0839
   29MPD2     C  442   1.248   0.516  14.099 -0.2049  0.6821 -0.4561
   29MPD2    C1  443   1.329   0.481  14.197 -0.2070  0.0749 -0.4596
   29MPD2    C2  444   1.364   0.575  14.292  0.3112 -1.0081 -0.8430
   29MPD2    C3  445   1.308   0.701  14.283 -1.1281 -0.3422 -0.1588
   29MPD2    C4  446   1.220   0.731  14.183 -0.0648  0.3900 -0.3607
   29MPD2    C5  447   1.188   0.642  14.096 -0.0088 -0.1404 -0.8222
   29MPD2     H  448   1.439   0.558  14.369 -2.1101  1.7460  2.1504
   29MPD2    H1  449   1.184   0.834  14.186 -1.2658 -0.0905  1.8452
   29MPD2    H2  450   1.212   0.451  14.020  0.9692  0.9070 -1.1618
   29MPD2    H3  451   1.117   0.665  14.017 -0.7721 -1.7326 -0.5843
   29MPD2     N  452   1.325   0.805  14.374  0.2604  0.2046  0.0072
   29MPD2    H5  453   1.299   0.901  14.356  1.5083  0.7209  0.9478
   29MPD2    N1  454   1.401   0.363  14.199 -0.2560 -0.2671  0.2408
   29MPD2    H7  455   1.477   0.359  14.266 -0.0096 -0.5545 -0.0547
   30TCq2    C1  456   1.369   0.783  14.498 -0.2875 -0.1820 -0.7539
   30TCq2    O2  457   1.392   0.676  14.554  0.4263 -0.1559  0.3664
   30TCq2    C2  458   1.373   0.907  14.569 -0.5706 -0.0479  1.0064
   30TCq2    C3  459   1.361   0.904  14.709 -0.4259 -0.0952 -0.0677
   30TCq2    C4  460   1.395   1.011  14.774  0.2037 -0.3072  0.8329
   30TCq2    C5  461   1.440   1.129  14.715 -0.2457  0.1071  0.0154
   30TCq2    C6  462   1.455   1.124  14.575 -0.1893  0.4635 -0.2646
   30TCq2    C7  463   1.423   1.014  14.500 -0.1962 -0.0612  0.2244
   30TCq2    C8  464   1.475   1.248  14.504  0.1985  0.3484 -0.5777
   30TCq2    O4  465   1.448   1.261  14.386 -0.2331  0.4982 -0.1297
   30TCq2    C9  466   1.394   1.019  14.919  0.1443  0.1786 -0.2689
   30TCq2    O5  467   1.318   0.935  14.982  0.6077  0.4101  0.0774
   30TCq2    O6  468   1.505   1.059  14.960 -0.5654 -0.4025  0.4722
   30TCq2    H2  469   1.328   0.818  14.766  1.3036  2.7858  5.3077
   30TCq2    H3  470   1.464   1.213  14.779  3.0984 -0.3371 -0.6138
   30TCq2    H4  471   1.452   1.013  14.395  0.1366  0.8431  0.3145
   31MPD2     C  472   3.998   4.283  14.683 -0.5199 -0.1666  0.4935
   31MPD2    C1  473   3.876   4.345  14.656 -0.1650 -0.3091 -0.0864
   31MPD2    C2  474   3.776   4.361  14.764  0.1587 -0.3482  0.3349
   31MPD2    C3  475   3.798   4.303  14.892  0.5345 -0.0274 -0.3525
   31MPD2    C4  476   3.921   4.237  14.908 -0.6814 -0.2357  0.1341
   31MPD2    C5  477   4.013   4.221  14.805 -0.3258 -0.7956  0.5015
   31MPD2     H  478   3.681   4.409  14.744 -0.5635 -1.6947  0.4763
   31MPD2    H1  479   3.956   4.197  15.003 -1.2394 -0.7493  0.1228
   31MPD2    H2  480   4.065   4.274  14.599 -1.2831 -1.0707 -0.0155
   31MPD2    H3  481   4.108   4.169  14.817  0.1175  0.0929  0.7859
   31MPD2     N  482   3.722   4.329  15.010 -0.0532  0.6196  0.1454
   31MPD2    H5  483   3.761   4.298  15.098 -1.5736 -2.8458 -0.4344
   31MPD2    N1  484   3.867   4.410  14.539  0.2923  0.2239  0.1364
   31MPD2    H7  485   3.952   4.421  14.485 -0.8802 -0.4699 -1.8540
   32TCq2    C1  486   3.624   4.418  15.013  0.5696  0.5563 -0.7046
   32TCq2    O2  487   3.586   4.493  14.923 -0.0644 -0.2139 -0.2155
   32TCq2    C2  488   3.555   4.417  15.144 -0.1295 -0.2781  0.7236
   32TCq2    C3  489   3.429   4.475  15.143 -0.2491  0.9255 -0.7668
   32TCq2    C4  490   3.336   4.438  15.237  0.5361  0.5961  0.0505
   32TCq2    C5  491   3.380   4.355  15.338 -0.7855  0.9603 -0.0356
   32TCq2    C6  492   3.505   4.300  15.339  0.2006 -0.2223  0.1618
   32TCq2    C7  493   3.596   4.326  15.241 -0.0023 -0.4773  0.2002
   32TCq2    C8  494   3.541   4.205  15.449  0.0852  0.4085  0.4403
   32TCq2    O4  495   3.651   4.154  15.441 -0.0784  0.0547  0.1014
   32TCq2    C9  496   3.199   4.485  15.246  0.6270 -0.2021  0.5773
   32TCq2    O5  497   3.113   4.420  15.307  0.3255 -0.3773  0.3779
   32TCq2    O6  498   3.175   4.579  15.163  0.0275 -0.0674  0.5612
   32TCq2    H2  499   3.396   4.548  15.070 -2.6614  1.6827  1.0791
   32TCq2    H3  500   3.306   4.337  15.414 -1.1469 -1.3562 -0.9412
   32TCq2    H4  501   3.693   4.279  15.249 -0.9018 -2.0766  1.8548
   33MPD2     C  502   3.174   0.858  10.222 -0.5049 -0.1452 -0.6438
   33MPD2    C1  503   3.313   0.865  10.205  0.3356  0.6800  0.9848
   33MPD2    C2  504   3.377   0.796  10.103 -1.0929  0.1176  0.3809
   33MPD2    C3  505   3.306   0.707  10.023 -0.2243  0.0922  0.1914
   33MPD2    C4  506   3.172   0.703  10.036  0.4598  0.1482  0.2623
   33MPD2    C5  507   3.106   0.774  10.140 -0.0170  0.7200 -0.0670
   33MPD2     H  508   3.483   0.809  10.090 -1.3844  0.9279 -1.1927
   33MPD2    H1  509   3.106   0.639   9.979 -0.0274  1.1282 -0.2706
   33MPD2    H2  510   3.117   0.906  10.301  1.6267 -1.4982  1.7221
   33MPD2    H3  511   2.998   0.766  10.151  0.4069 -2.0486  2.0638
   33MPD2     N  512   3.360   0.636   9.911 -0.7347 -0.5457  0.3977
   33MPD2    H5  513   3.299   0.601   9.838  0.9640  0.6047 -1.5947
   33MPD2    N1  514   3.393   0.952  10.281 -0.1361  0.7794  0.0029
   33MPD2    H7  515   3.336   1.010  10.342  1.8676  2.3765  0.3282
   34TCq2    C1  516   3.493   0.645   9.874  0.2036  0.1959 -0.4411
   34TCq2    O2  517   3.584   0.718   9.921  0.6329 -0.4317  0.5971
   34TCq2    C2  518   3.503   0.585   9.740  0.6378 -0.3863  0.6106
   34TCq2    C3  519   3.393   0.534   9.680  0.0125 -0.6339  0.2956
   34TCq2    C4  520   3.389   0.535   9.545 -0.0203 -0.4655  0.1757
   34TCq2    C5  521   3.482   0.598   9.460  1.0738 -0.6602  0.3457
   34TCq2    C6  522   3.591   0.649   9.524  0.4973  0.3281  0.2126
   34TCq2    C7  523   3.607   0.634   9.663  1.0865 -0.2157  0.0146
   34TCq2    C8  524   3.639   0.776   9.470 -0.0814  0.0631 -0.1971
   34TCq2    O4  525   3.737   0.821   9.517  0.1051 -0.1480 -0.0645
   34TCq2    C9  526   3.284   0.466   9.469 -0.6347 -0.4305 -0.0397
   34TCq2    O5  527   3.178   0.430   9.526 -0.1956  0.1757  0.4506
   34TCq2    O6  528   3.310   0.444   9.348  0.1825 -0.1495 -0.4708
   34TCq2    H2  529   3.316   0.472   9.725 -2.3157  2.4009  0.4278
   34TCq2    H3  530   3.478   0.576   9.354 -4.9506  1.0254  0.2358
   34TCq2    H4  531   3.700   0.678   9.697 -0.5967  2.7723  0.7436
   35MPD2     C  532   0.879   3.422  11.793  0.5621  0.0726  0.4631
   35MPD2    C1  533   0.857   3.289  11.835  0.1161 -0.4757  0.6712
   35MPD2    C2  534   0.745   3.221  11.797  0.9794 -0.0002 -0.3067
   35MPD2    C3  535   0.666   3.276  11.703 -0.5962  0.4265  0.3740
   35MPD2    C4  536   0.683   3.402  11.653 -0.4330  0.8033 -0.0145
   35MPD2    C5  537   0.787   3.476  11.701 -0.5285 -0.5332  0.6268
   35MPD2     H  538   0.714   3.127  11.842 -2.7099  1.0830 -0.5349
   35MPD2    H1  539   0.618   3.446  11.579 -0.8329  0.4212  0.1084
   35MPD2    H2  540   0.967   3.482  11.815  0.8784 -1.1953  2.6861
   35MPD2    H3  541   0.805   3.578  11.669 -0.5766 -0.7604 -0.1221
   35MPD2     N  542   0.558   3.189  11.663 -0.4290 -0.9775 -0.1015
   35MPD2    H5  543   0.534   3.109  11.721  0.3764 -1.8242 -0.9570
   35MPD2    N1  544   0.930   3.246  11.946  0.2257 -0.3261  0.0960
   35MPD2    H7  545   0.974   3.320  12.000 -0.3870  0.8930 -1.0770
   36TCq2    C1  546   0.464   3.217  11.568 -0.1313  0.0931 -0.3785
   36TCq2    O2  547   0.451   3.306  11.485  0.5764  0.6788  0.6314
   36TCq2    C2  548   0.362   3.115  11.560 -0.3944  0.7338  0.0017
   36TCq2    C3  549   0.237   3.157  11.524 -0.1826 -0.9275  0.6348
   36TCq2    C4  550   0.134   3.066  11.552  0.2961 -0.9625  0.1187
   36TCq2    C5  551   0.159   2.949  11.624  0.2388  0.3070 -0.2787
   36TCq2    C6  552   0.291   2.912  11.646 -0.2140  0.5336  0.6378
   36TCq2    C7  553   0.395   2.989  11.607  0.1948  0.3515 -0.6353
   36TCq2    C8  554   0.306   2.770  11.631  0.5987  0.4878 -0.3972
   36TCq2    O4  555   0.205   2.704  11.616 -0.5002  0.0904  0.1217
   36TCq2    C9  556   0.000   3.115  11.519  0.8516  0.0125 -0.4291
   36TCq2    O5  557   4.632   3.036  11.556  0.2253  0.5580 -0.3248
   36TCq2    O6  558   4.718   3.212  11.440 -0.2579 -0.4458  0.1399
   36TCq2    H2  559   0.210   3.255  11.488  0.2631 -0.8272  0.5636
   36TCq2    H3  560   0.075   2.884  11.642  1.1862 -0.9752 -0.5256
   36TCq2    H4  561   0.496   2.951  11.612  0.7967  1.9081 -0.9800
   37TMC2    C1  562   2.504   2.436  11.516  0.4966 -0.3004  0.3167
   37TMC2    C2  563   2.518   2.302  11.546  0.3369 -0.2570  0.3717
   37TMC2    C3  564   2.640   2.250  11.547 -0.0571  0.1078  0.0012
   37TMC2    C4  565   2.611   2.517  11.493 -0.2911  0.3284  0.0535
   37TMC2    C5  566   2.737   2.464  11.503  0.3368  0.2078 -0.8060
   37TMC2    C6  567   2.755   2.329  11.531 -0.4414  0.3537 -0.2324
   37TMC2     C  568   2.372   2.488  11.561 -0.5825 -0.3230 -0.3627
   37TMC2     O  569   2.288   2.404  11.575  0.3035  0.2703 -0.1213
   37TMC2     H  570   2.428   2.242  11.541 -1.3412  2.2735  0.3945
   37TMC2    H1  571   2.600   2.624  11.480  0.2330  0.5903  1.7355
   37TMC2    H2  572   2.853   2.283  11.531 -0.2925  0.6704  0.1001
   37TMC2    C7  573   2.846   2.537  11.448 -0.1612  0.0373 -0.6736
   37TMC2    C8  574   2.662   2.108  11.548  0.4371  0.7125  0.2469
   37TMC2    O1  575   2.828   2.652  11.414  0.8839 -0.0859  0.2025
   37TMC2    O2  576   2.759   2.050  11.497  0.7855 -0.1704 -0.1034
   37TMC2    O5  577   2.597   2.062  11.659  0.4671  0.3695 -0.1855
   37TMC2    H5  578   2.519   2.115  11.687  0.2837 -0.2154  0.3974
   38MPD2     C  579   2.056   2.796  11.810 -0.1397  0.1840 -0.1347
   38MPD2    C1  580   2.185   2.849  11.816 -0.7101  0.9513 -0.2509
   38MPD2    C2  581   2.286   2.790  11.753  0.1414 -0.7613  0.4757
   38MPD2    C3  582   2.262   2.675  11.678  0.0323  0.2615 -0.2181
   38MPD2    C4  583   2.135   2.639  11.655 -0.1468 -0.2234 -0.3620
   38MPD2    C5  584   2.035   2.697  11.725  0.2291 -0.5332 -0.1203
   38MPD2     H  585   2.385   2.835  11.753  0.4662 -1.4646  0.0332
   38MPD2    H1  586   2.116   2.576  11.569 -1.7317 -0.4940  0.1733
   38MPD2    H2  587   1.968   2.841  11.854 -1.0265 -1.0300 -0.6584
   38MPD2    H3  588   1.934   2.664  11.707 -1.2562  2.4320  2.7364
   38MPD2     N  589   2.376   2.610  11.625 -0.0331  0.5455 -0.6132
   38MPD2    H5  590   2.463   2.661  11.636 -0.3518  1.2381 -1.3438
   38MPD2    N1  591   2.210   2.954  11.908 -0.2546  0.3351  0.5048
   38MPD2    H7  592   2.304   2.992  11.902 -0.8156  1.4614 -1.1352
   39MPD2     C  593   0.899   0.161   1.953 -0.5699  0.0617  0.0168
   39MPD2    C1  594   0.890   0.289   1.999 -0.3415 -0.4772 -0.8461
   39MPD2    C2  595   0.770   0.361   1.975 -0.2159  0.2537 -0.2479
   39MPD2    C3  596   0.666   0.299   1.911 -0.1509  0.7091 -0.3553
   39MPD2    C4  597   0.681   0.165   1.878 -0.7601 -0.6642  0.0220
   39MPD2    C5  598   0.798   0.096   1.902 -0.0819 -0.0409 -0.6657
   39MPD2     H  599   0.773   0.464   2.008  0.5170  0.7805 -1.9839
   39MPD2    H1  600   0.601   0.098   1.848 -0.3763 -0.0649 -2.3280
   39MPD2    H2  601   0.998   0.119   1.949 -1.7009 -2.3978 -2.3118
   39MPD2    H3  602   0.791   4.713   1.880  0.9452  0.0718 -1.5103
   39MPD2     N  603   0.540   0.358   1.882 -0.6808  0.1558  0.3536
   39MPD2    H5  604   0.469   0.296   1.844  0.6204 -0.1657 -1.5626
   39MPD2    N1  605   1.008   0.342   2.055  0.3956  0.0292  0.0273
   39MPD2    H7  606   1.096   0.291   2.054  0.8164  0.7372  1.2375
   40TCq2    C1  607   1.018   0.467   2.117 -0.9308 -0.0013  0.9943
   40TCq2    O2  608   0.930   0.542   2.158  0.2090 -0.5319 -0.2570
   40TCq2    C2  609   1.155   0.496   2.156  0.2788  0.0796  1.0000
   40TCq2    C3  610   1.173   0.603   2.236  0.5429  0.6180  0.4419
   40TCq2    C4  611   1.295   0.644   2.274 -0.7295  0.2615 -0.4380
   40TCq2    C5  612   1.400   0.590   2.204 -0.2239  0.9172 -0.1159
   40TCq2    C6  613   1.384   0.489   2.120 -0.6278 -0.2211 -0.9142
   40TCq2    C7  614   1.262   0.430   2.103  0.1161 -0.3235 -0.7017
   40TCq2    C8  615   1.487   0.459   2.023 -0.0591  0.1446  0.5717
   40TCq2    O4  616   1.484   0.349   1.970  0.2522 -0.5591 -0.1581
   40TCq2    C9  617   1.313   0.759   2.360  0.1034 -0.0005  0.0782
   40TCq2    O5  618   1.418   0.832   2.347 -0.3741  0.3699 -0.6680
   40TCq2    O6  619   1.226   0.789   2.448  0.2652 -0.5196  0.0209
   40TCq2    H2  620   1.087   0.661   2.269 -1.3728 -1.3407 -1.1053
   40TCq2    H3  621   1.496   0.640   2.215 -0.1029  0.4809  0.8466
   40TCq2    H4  622   1.257   0.355   2.025 -0.3213 -1.7349  0.6965
   41TMC2    C1  623   4.499   3.933  13.767  0.1504  0.3574 -0.0030
   41TMC2    C2  624   4.459   4.051  13.830  0.1200 -0.1348  0.6522
   41TMC2    C3  625   4.359   4.122  13.771  0.1027 -0.2678 -0.1654
   41TMC2    C4  626   4.446   3.891  13.648 -0.4392  0.2201 -0.5046
   41TMC2    C5  627   4.339   3.958  13.593 -0.3542 -0.4545 -0.2924
   41TMC2    C6  628   4.300   4.080  13.655  0.2767 -0.7079  1.0206
   41TMC2     C  629   4.571   3.823  13.833 -0.0357  0.2475  1.5826
   41TMC2     O  630   4.625   3.731  13.778  0.4026 -0.3370 -0.0455
   41TMC2     H  631   4.505   4.084  13.922  2.5222  1.1374 -1.0263
   41TMC2    H1  632   4.490   3.804  13.600 -0.2234 -0.7292  1.4323
   41TMC2    H2  633   4.222   4.139  13.609  1.5521  0.5039  0.4121
   41TMC2    C7  634   4.293   3.945  13.458 -0.0329  0.0762 -0.6829
   41TMC2    C8  635   4.317   4.248  13.820  0.3761  0.5762  0.4378
   41TMC2    O1  636   4.182   3.989  13.429 -0.1271  0.0744  0.3924
   41TMC2    O2  637   4.328   4.352  13.756  0.1134  0.1636 -0.6729
   41TMC2    O5  638   4.276   4.238  13.950  0.1257  0.4330  0.3653
   41TMC2    H5  639   4.264   4.148  13.988 -0.8980  0.5989  0.4383
   42MPD2     C  640   4.679   3.632  14.057  0.2221 -0.3132 -0.4004
   42MPD2    C1  641   4.597   3.743  14.077 -0.1887 -0.0244 -0.0933
   42MPD2    C2  642   4.539   3.757  14.209 -0.6956  0.1383 -0.1482
   42MPD2    C3  643   4.559   3.657  14.307  0.5107  0.3375 -0.5089
   42MPD2    C4  644   4.639   3.546  14.278 -0.2332  0.0071  0.1010
   42MPD2    C5  645   4.707   3.546  14.160  0.0678 -0.6626  0.1458
   42MPD2     H  646   4.484   3.847  14.236  0.4773  0.4390  1.2661
   42MPD2    H1  647   4.655   3.464  14.347 -0.0511  0.7085  0.8933
   42MPD2    H2  648   4.716   3.609  13.958 -1.0771  0.5406 -1.0900
   42MPD2    H3  649   0.050   3.462  14.142  0.2831 -0.6096  0.6648
   42MPD2     N  650   4.511   3.672  14.444  0.7356 -0.2271 -0.0235
   42MPD2    H5  651   4.541   3.594  14.501 -1.4740 -0.1658  1.2236
   42MPD2    N1  652   4.554   3.831  13.972  0.0867 -0.6423 -0.0911
   42MPD2    H7  653   4.494   3.903  14.011  0.3918 -0.7609  0.6089
   43MPD2     C  654   0.868   1.537   0.710  0.2640  0.3765 -0.2862
   43MPD2    C1  655   0.977   1.547   0.798 -0.3131 -0.1438 -1.2335
   43MPD2    C2  656   0.967   1.629   0.909 -0.1956  0.6016  0.4853
   43MPD2    C3  657   0.854   1.707   0.923 -0.7052 -0.4585  0.4046
   43MPD2    C4  658   0.750   1.698   0.840 -0.0634  0.5829 -0.0205
   43MPD2    C5  659   0.753   1.620   0.730 -0.2363 -0.8207  0.3123
   43MPD2     H  660   1.057   1.631   0.969  0.0555 -0.2655  0.1314
   43MPD2    H1  661   0.663   1.755   0.871 -0.6175  0.9721 -2.3012
   43MPD2    H2  662   0.881   1.473   0.624 -2.8116  0.1361 -0.5667
   43MPD2    H3  663   0.667   1.609   0.664  0.4458 -1.5841 -0.4546
   43MPD2     N  664   0.850   1.807   1.023  0.2058 -0.2116  0.1385
   43MPD2    H5  665   0.763   1.859   1.027  0.1912 -0.0395 -2.0819
   43MPD2    N1  666   1.093   1.460   0.780 -0.4435 -0.0867  0.4779
   43MPD2    H7  667   1.166   1.459   0.850 -2.1275 -1.8375  2.2368
   44TCq2    C1  668   1.011   2.101   1.504 -0.1574  0.1653  0.5887
   44TCq2    O2  669   1.102   2.029   1.536 -0.0954  0.6183 -0.4307
   44TCq2    C2  670   0.941   2.078   1.378  1.0360  0.2951 -0.0397
   44TCq2    C3  671   0.895   2.192   1.317  0.0178  0.2562 -0.0299
   44TCq2    C4  672   0.839   2.164   1.195 -0.1440 -0.6834 -0.2356
   44TCq2    C5  673   0.831   2.041   1.135 -0.0289 -0.2084  0.3370
   44TCq2    C6  674   0.891   1.937   1.197 -0.2821 -0.4734 -0.1480
   44TCq2    C7  675   0.954   1.958   1.318  0.1132 -0.8555  0.1800
   44TCq2    C8  676   0.931   1.821   1.125  0.5272  0.0321 -0.0711
   44TCq2    O4  677   1.030   1.759   1.152  0.1806  0.0358  0.5892
   44TCq2    C9  678   0.784   2.277   1.123  0.4633 -1.0122 -0.0188
   44TCq2    O5  679   0.772   2.381   1.190  0.3547 -0.9106 -0.3655
   44TCq2    O6  680   0.762   2.263   1.001 -0.2710 -0.2547 -0.0824
   44TCq2    H2  681   0.905   2.295   1.348 -1.7149  0.1734  0.8012
   44TCq2    H3  682   0.791   2.040   1.034  1.3593  1.7271 -0.2155
   44TCq2    H4  683   0.981   1.874   1.382  1.9018  0.4960  1.2025
   45TMC2    C1  684   2.575   2.641   9.693 -0.2630  0.4931 -0.0216
   45TMC2    C2  685   2.702   2.599   9.665  0.3142  0.2069  0.5300
   45TMC2    C3  686   2.792   2.696   9.659  0.3555 -0.2793 -0.2829
   45TMC2    C4  687   2.534   2.771   9.716  0.6220  0.7558 -0.0335
   45TMC2    C5  688   2.638   2.863   9.707  0.2086 -0.5984  0.4391
   45TMC2    C6  689   2.770   2.827   9.685  0.2937  0.3682  0.1935
   45TMC2     C  690   2.479   2.534   9.666 -0.1899  0.1112 -0.6514
   45TMC2     O  691   2.520   2.425   9.633 -1.2130  0.1879 -0.0236
   45TMC2     H  692   2.732   2.496   9.651 -2.9169 -0.5281 -0.9398
   45TMC2    H1  693   2.431   2.803   9.724  0.6930  0.3318  2.3657
   45TMC2    H2  694   2.850   2.899   9.698  0.1100  0.3994  1.1790
   45TMC2    C7  695   2.608   2.996   9.736 -0.3719  0.2493  0.2307
   45TMC2    C8  696   2.930   2.655   9.677 -0.2620 -0.0013 -0.2265
   45TMC2    O1  697   2.503   3.007   9.797  0.1471  0.2904  0.5484
   45TMC2    O2  698   3.008   2.731   9.727  0.0450 -0.3064  0.3160
   45TMC2    O5  699   2.960   2.542   9.615 -0.0426 -0.4924 -0.1558
   45TMC2    H5  700   2.891   2.503   9.558 -0.4286 -1.9141  1.2674
   46MPD2     C  701   2.240   2.351   9.609  0.4906 -0.0504 -0.1616
   46MPD2    C1  702   2.236   2.468   9.670  1.2313 -0.0204  0.4399
   46MPD2    C2  703   2.106   2.504   9.711 -0.6281 -0.4055  0.0770
   46MPD2    C3  704   1.991   2.436   9.685  0.4766 -0.1581 -0.1507
   46MPD2    C4  705   2.002   2.313   9.623  0.3116 -0.4942 -0.0467
   46MPD2    C5  706   2.130   2.273   9.586  0.7062 -0.3462  0.1668
   46MPD2     H  707   2.101   2.586   9.782 -2.4822  0.7320 -1.3739
   46MPD2    H1  708   1.928   2.236   9.604 -0.0523 -0.1799  0.1164
   46MPD2    H2  709   2.333   2.304   9.581  0.9153  0.7245 -0.0509
   46MPD2    H3  710   2.148   2.177   9.539  1.6252 -0.6447  1.1235
   46MPD2     N  711   1.868   2.491   9.718  0.2475  0.2137  0.4605
   46MPD2    H5  712   1.879   2.575   9.774 -1.7840 -0.7721  2.3203
   46MPD2    N1  713   2.348   2.558   9.696  0.7943  0.0108  0.5747
   46MPD2    H7  714   2.333   2.644   9.748  0.6453 -0.9147  2.0771
   47TMC2    C1  715   2.972   2.848   9.359 -0.3750 -0.3024 -0.2713
   47TMC2    C2  716   3.037   2.751   9.292  0.4528 -0.2442 -0.0612
   47TMC2    C3  717   2.960   2.651   9.236  0.7173  0.4155  0.7330
   47TMC2    C4  718   2.834   2.853   9.359 -0.4180  0.2493  0.3816
   47TMC2    C5  719   2.761   2.756   9.310 -0.4760 -0.3132 -0.1058
   47TMC2    C6  720   2.821   2.651   9.236 -0.8682 -0.2111 -1.0281
   47TMC2     C  721   3.046   2.925   9.454 -0.7099  0.0947  0.4393
   47TMC2     O  722   2.985   3.023   9.496  0.2938 -0.6023  0.4225
   47TMC2     H  723   3.144   2.746   9.278  0.5855 -1.4801  1.2651
   47TMC2    H1  724   2.789   2.935   9.414  0.9029  1.5842 -0.5395
   47TMC2    H2  725   2.769   2.563   9.199 -0.7787 -0.7743  0.2080
   47TMC2    C7  726   2.615   2.740   9.342  0.2076 -0.1110 -0.2354
   47TMC2    C8  727   3.012   2.541   9.164 -0.1886 -0.0601  0.1957
   47TMC2    O1  728   2.569   2.844   9.388 -0.1916  0.4160 -0.1163
   47TMC2    O2  729   2.941   2.481   9.087 -0.0657 -0.1888 -0.3530
   47TMC2    O5  730   3.134   2.500   9.215  0.7851  0.0493  0.3773
   47TMC2    H5  731   3.178   2.570   9.269 -2.0693  0.3939  2.2800
   48MPD2     C  732   3.254   3.039   9.612  0.4532  0.4771 -0.5637
   48MPD2    C1  733   3.248   2.907   9.586 -0.2591  0.8846  0.1419
   48MPD2    C2  734   3.338   2.817   9.649 -0.1506  0.8732  0.2033
   48MPD2    C3  735   3.430   2.863   9.735 -0.5934  0.2794  0.8085
   48MPD2    C4  736   3.443   2.995   9.767  0.1604  0.0713  0.4014
   48MPD2    C5  737   3.356   3.081   9.698 -0.1086  0.3532 -0.5549
   48MPD2     H  738   3.324   2.710   9.636  0.5606  0.8242 -0.1602
   48MPD2    H1  739   3.519   3.030   9.836  0.1204  2.2422 -0.6525
   48MPD2    H2  740   3.196   3.106   9.550  0.0160  1.2481  0.6900
   48MPD2    H3  741   3.380   3.186   9.705 -0.5232  0.2381  2.8605
   48MPD2     N  742   3.522   2.768   9.787 -0.4022  0.1953  0.1610
   48MPD2    H5  743   3.518   2.673   9.754 -0.8376  1.2408 -2.8070
   48MPD2    N1  744   3.156   2.857   9.494 -0.4539  0.0807  0.1723
   48MPD2    H7  745   3.176   2.768   9.451  1.2457  1.2732 -1.5280
   49MPD2     C  746   2.341   0.934  10.764 -0.4420 -0.4075 -0.0448
   49MPD2    C1  747   2.335   0.803  10.740 -0.8378 -0.4205 -0.3638
   49MPD2    C2  748   2.301   0.723  10.851 -0.2674  0.4365 -0.1723
   49MPD2    C3  749   2.297   0.773  10.983 -0.1945  0.2104 -0.8240
   49MPD2    C4  750   2.321   0.910  11.000  0.1604 -0.6559  0.4401
   49MPD2    C5  751   2.348   0.987  10.891  0.2335 -0.0736 -0.2874
   49MPD2     H  752   2.285   0.619  10.823  0.6555  0.2278  0.0621
   49MPD2    H1  753   2.329   0.952  11.099  1.4618 -1.6344  0.7594
   49MPD2    H2  754   2.360   0.992  10.675 -0.5765  1.7810  1.3373
   49MPD2    H3  755   2.388   1.087  10.899 -0.6990  0.2057  0.8515
   49MPD2     N  756   2.265   0.694  11.095  0.2424 -1.0287 -0.5313
   49MPD2    H5  757   2.252   0.740  11.185  0.0335 -2.6744  0.2788
   49MPD2    N1  758   2.334   0.742  10.611 -0.1772  0.2602 -0.2246
   49MPD2    H7  759   2.295   0.649  10.602 -1.6172  0.8468 -0.0567
   50TCq2    C1  760   2.400   0.796  10.502 -0.5399  0.5533 -0.3685
   50TCq2    O2  761   2.462   0.901  10.506  0.1391 -0.0948 -0.3730
   50TCq2    C2  762   2.423   0.700  10.393  0.2496  0.0066 -0.1692
   50TCq2    C3  763   2.516   0.739  10.301 -0.8062  0.2576 -0.1555
   50TCq2    C4  764   2.545   0.656  10.201  0.0077 -0.3047  0.0983
   50TCq2    C5  765   2.484   0.537  10.182 -0.0318 -0.2235  0.0357
   50TCq2    C6  766   2.376   0.510  10.268 -0.5801  0.1656  0.4609
   50TCq2    C7  767   2.347   0.588  10.378 -1.0867  0.2043  0.0435
   50TCq2    C8  768   2.288   0.395  10.243  0.3017 -0.8097  0.3298
   50TCq2    O4  769   2.188   0.386  10.313 -0.6078  0.4283 -0.1874
   50TCq2    C9  770   2.641   0.704  10.106 -0.2968 -0.0486 -0.5296
   50TCq2    O5  771   2.678   0.824  10.121 -0.9750 -0.2080  0.6655
   50TCq2    O6  772   2.666   0.620  10.014  0.2290  0.7877 -0.0122
   50TCq2    H2  773   2.561   0.837  10.306 -1.1374  0.3706  0.6305
   50TCq2    H3  774   2.507   0.477  10.094 -0.5002  0.6343 -0.6748
   50TCq2    H4  775   2.258   0.564  10.436 -0.6864  1.3230  1.1364
   51MPD2     C  776   3.783   4.675   1.312  0.1141  0.3281 -0.1526
   51MPD2    C1  777   3.796   4.544   1.353  0.6078  0.2217 -0.0408
   51MPD2    C2  778   3.779   4.514   1.489 -0.2250  0.2113 -0.0671
   51MPD2    C3  779   3.753   4.615   1.582 -0.3758  0.3884  0.0043
   51MPD2    C4  780   3.748   0.023   1.534  0.4240 -0.1636 -0.0696
   51MPD2    C5  781   3.768   0.054   1.401 -0.2883  0.8607  0.2575
   51MPD2     H  782   3.804   4.411   1.514 -3.3176 -0.4924  0.1253
   51MPD2    H1  783   3.725   0.101   1.604 -0.1935  0.2252 -0.7113
   51MPD2    H2  784   3.819   4.709   1.216  0.3339 -0.9566 -0.5313
   51MPD2    H3  785   3.761   0.154   1.359 -0.6976  1.0276  0.7236
   51MPD2     N  786   3.762   4.587   1.726  0.2473  0.5580  0.0506
   51MPD2    H5  787   3.749   4.665   1.790  1.0288 -0.8103  1.8415
   51MPD2    N1  788   3.835   4.434   1.274 -0.2127  0.4089 -0.1224
   51MPD2    H7  789   3.845   4.342   1.316  3.5020 -0.4577 -2.9320
   52TCq2    C1  790   3.798   4.472   1.786  0.3345  0.6837  0.2734
   52TCq2    O2  791   3.839   4.370   1.739  0.1895 -0.2268 -0.1152
   52TCq2    C2  792   3.798   4.472   1.928 -0.2427  0.2513 -0.0400
   52TCq2    C3  793   3.895   4.395   1.985  0.4999 -0.0204  0.0118
   52TCq2    C4  794   3.951   4.424   2.106 -0.2500  0.0528 -0.4564
   52TCq2    C5  795   3.893   4.529   2.178 -0.3998 -0.5849 -0.0004
   52TCq2    C6  796   3.797   4.603   2.120  0.0248  0.3161  0.4782
   52TCq2    C7  797   3.759   4.585   1.989 -0.0157 -0.5066  0.0970
   52TCq2    C8  798   3.758   0.008   2.179 -0.9695  0.5495 -0.2011
   52TCq2    O4  799   3.737   0.103   2.106 -0.8440  0.2349 -0.4130
   52TCq2    C9  800   4.051   4.337   2.160 -0.8256 -0.5225 -0.5821
   52TCq2    O5  801   4.059   4.325   2.287 -0.0650 -0.7236 -0.6957
   52TCq2    O6  802   4.114   4.265   2.083 -0.2315 -0.3300  0.9173
   52TCq2    H2  803   3.926   4.304   1.935  1.0798  0.2423 -0.0983
   52TCq2    H3  804   3.933   4.544   2.278 -0.4036  2.2136 -0.4055
   52TCq2    H4  805   3.664   4.630   1.964  1.1383  0.6424 -2.2777
   53TMC2    C1  806   3.403   3.024  11.533 -0.3320  0.0435 -0.1776
   53TMC2    C2  807   3.523   3.059  11.587  0.0545 -0.6214 -0.1741
   53TMC2    C3  808   3.538   3.167  11.668  0.6499  0.4693 -1.1691
   53TMC2    C4  809   3.295   3.109  11.544  1.2201 -0.4860  0.6988
   53TMC2    C5  810   3.310   3.223  11.624  0.7765  1.1308  0.3094
   53TMC2    C6  811   3.432   3.254  11.685  0.4680 -0.2743  0.4792
   53TMC2     C  812   3.399   2.898  11.461 -0.3524  0.2374 -0.2779
   53TMC2     O  813   3.501   2.860  11.401 -0.5751 -0.3120  0.3442
   53TMC2     H  814   3.608   2.992  11.582  1.3442  0.8894  1.5306
   53TMC2    H1  815   3.200   3.096  11.493  1.6572  1.4258 -0.6145
   53TMC2    H2  816   3.443   3.342  11.746  1.7688  0.0173 -0.1700
   53TMC2    C7  817   3.182   3.290  11.666 -0.4053 -0.2782  0.2523
   53TMC2    C8  818   3.646   3.182  11.772 -0.2701 -0.1398  0.2465
   53TMC2    O1  819   3.076   3.268  11.608 -0.1866 -0.0832  0.0091
   53TMC2    O2  820   3.644   3.267  11.863  0.4714  0.0408  0.2874
   53TMC2    O5  821   3.753   3.128  11.719 -0.5379 -0.0149 -0.3929
   53TMC2    H5  822   3.758   3.105  11.624  0.0232  1.4942 -0.7252
   54MPD2     C  823   3.335   2.609  11.372 -0.1606 -0.4143  0.2147
   54MPD2    C1  824   3.248   2.700  11.429  0.3445 -0.1992  0.7818
   54MPD2    C2  825   3.117   2.651  11.441  0.2869  0.2881 -0.1654
   54MPD2    C3  826   3.089   2.515  11.411 -0.2498  1.2982 -0.2846
   54MPD2    C4  827   3.182   2.432  11.369 -0.7544 -0.0488  0.0728
   54MPD2    C5  828   3.305   2.478  11.348 -0.4111 -0.3299  0.3063
   54MPD2     H  829   3.041   2.717  11.481 -0.2382 -1.2259  1.3348
   54MPD2    H1  830   3.158   2.335  11.327 -1.2101  0.0187  0.1759
   54MPD2    H2  831   3.438   2.641  11.359 -0.1322 -1.0031 -0.9881
   54MPD2    H3  832   3.378   2.416  11.298  0.1308  0.1509  0.5113
   54MPD2     N  833   2.959   2.462  11.427  0.9137 -0.4770 -0.0077
   54MPD2    H5  834   2.962   2.361  11.435 -1.5737 -0.4143  1.7713
   54MPD2    N1  835   3.274   2.836  11.467 -0.0898 -0.1852  0.0617
   54MPD2    H7  836   3.194   2.882  11.509  0.0574  0.7550 -0.6962
   55MPD2     C  837   4.253   0.994  17.038 -0.1671  0.9176 -0.2582
   55MPD2    C1  838   4.232   0.993  17.174 -0.2920 -0.1684 -1.0971
   55MPD2    C2  839   4.132   1.074  17.215  0.3511 -1.3335  0.0025
   55MPD2    C3  840   4.082   1.173  17.135  0.6031 -0.5130 -0.3183
   55MPD2    C4  841   4.121   1.187  17.002 -0.1500 -0.4210  0.4559
   55MPD2    C5  842   4.194   1.086  16.953  0.9134  0.3532  0.2631
   55MPD2     H  843   4.099   1.079  17.318 -0.5524 -0.3531 -0.3370
   55MPD2    H1  844   4.091   1.262  16.929  1.5178  1.2297  1.4501
   55MPD2    H2  845   4.311   0.913  16.995 -0.0132 -0.1454  1.9554
   55MPD2    H3  846   4.229   1.077  16.850  0.7553  0.9050  0.1598
   55MPD2     N  847   4.008   1.275  17.202  0.3177 -0.4332 -0.2823
   55MPD2    H5  848   4.007   1.264  17.303  3.0901  0.8604 -0.1131
   55MPD2    N1  849   4.283   0.892  17.252 -0.4550 -0.3952  0.9259
   55MPD2    H7  850   4.338   0.826  17.197 -0.4917  2.2188 -2.1981
   56TCq2    C1  851   4.276   0.889  17.385  0.1729  0.0129 -0.3258
   56TCq2    O2  852   4.235   0.976  17.464 -0.0382 -1.0127  0.7977
   56TCq2    C2  853   4.355   0.776  17.440 -0.3508  0.0706 -0.1217
   56TCq2    C3  854   4.362   0.660  17.363  0.1613 -0.0975  0.0182
   56TCq2    C4  855   4.403   0.541  17.423  0.1620 -0.2164  0.0477
   56TCq2    C5  856   4.419   0.529  17.558  0.2634  0.6218 -0.3382
   56TCq2    C6  857   4.388   0.642  17.631  0.0737 -0.1509 -0.6243
   56TCq2    C7  858   4.358   0.763  17.574 -0.0929 -0.1876 -0.9722
   56TCq2    C8  859   4.364   0.615   0.086 -0.1594 -0.3587 -0.0336
   56TCq2    O4  860   4.423   0.527   0.138 -0.5826 -0.4822  0.4770
   56TCq2    C9  861   4.436   0.423  17.343  0.3473 -0.0624  0.6568
   56TCq2    O5  862   4.448   0.312  17.399 -0.0749 -0.3622 -0.0729
   56TCq2    O6  863   4.417   0.438  17.219  0.1659  0.5282  0.0754
   56TCq2    H2  864   4.346   0.653  17.256 -2.1585  0.8732  0.3046
   56TCq2    H3  865   4.448   0.431  17.596 -0.2011  0.9989  1.0047
   56TCq2    H4  866   4.319   0.842  17.637  1.1821  0.8343 -1.4568
   57TMC2    C1  867   3.122   2.498  14.011 -0.3025  0.5977  0.5968
   57TMC2    C2  868   3.198   2.547  14.118  0.4995  0.2610  0.1395
   57TMC2    C3  869   3.334   2.543  14.117 -0.3343 -0.3592  0.0835
   57TMC2    C4  870   3.190   2.466  13.894 -1.2217 -0.1834 -0.2699
   57TMC2    C5  871   3.325   2.486  13.893  0.8999  0.1723  0.3832
   57TMC2    C6  872   3.403   2.521  14.000  0.0881 -1.0515  0.2734
   57TMC2     C  873   2.982   2.474  14.039  0.1035  1.0173 -0.1196
   57TMC2     O  874   2.950   2.488  14.158 -0.8261  0.1216  0.0915
   57TMC2     H  875   3.145   2.586  14.204 -0.7272  1.6649 -1.2645
   57TMC2    H1  876   3.135   2.439  13.805  0.2624 -1.5619 -0.7739
   57TMC2    H2  877   3.511   2.531  13.995  0.3818 -3.4517  2.1232
   57TMC2    C7  878   3.398   2.432  13.780 -0.6105 -0.2760  0.7356
   57TMC2    C8  879   3.411   2.610  14.218 -1.2854  0.6677 -0.0601
   57TMC2    O1  880   3.515   2.457  13.784  0.4066 -0.4186 -0.3341
   57TMC2    O2  881   3.527   2.649  14.201 -0.0446  0.1007  0.5969
   57TMC2    O5  882   3.330   2.667  14.299 -0.4515  0.3833 -0.1997
   57TMC2    H5  883   3.261   2.603  14.329  1.8869 -1.2138  1.7512
   58MPD2     C  884   2.497   2.323  13.934 -0.1667 -0.9366 -0.1694
   58MPD2    C1  885   2.556   2.378  14.049 -0.2612  0.5702  0.3422
   58MPD2    C2  886   2.686   2.421  14.041 -0.3680 -0.3567  0.4082
   58MPD2    C3  887   2.767   2.393  13.934  0.1611  0.7086  0.4200
   58MPD2    C4  888   2.713   2.323  13.823  0.4908  0.1900 -0.2117
   58MPD2    C5  889   2.574   2.298  13.823  0.2065 -0.7408 -0.1270
   58MPD2     H  890   2.730   2.477  14.122  2.4874 -1.5087 -0.3671
   58MPD2    H1  891   2.768   2.294  13.734 -1.7684  0.2054 -1.6220
   58MPD2    H2  892   2.390   2.309  13.923 -0.1505 -2.8347  1.8899
   58MPD2    H3  893   2.517   2.251  13.745 -1.5646  0.4699  0.4419
   58MPD2     N  894   2.912   2.419  13.933  0.2645  0.3936  0.3555
   58MPD2    H5  895   2.956   2.396  13.844  0.0179 -5.0310  1.5970
   58MPD2    N1  896   2.485   2.414  14.169 -0.2588 -0.1338  0.0863
   58MPD2    H7  897   2.530   2.475  14.236 -2.3225  3.0436 -1.4315
   59MPD2     C  898   0.957   2.833  13.204  0.0563  0.3985 -0.1609
   59MPD2    C1  899   1.058   2.743  13.178 -0.2259 -0.1573  0.8097
   59MPD2    C2  900   1.180   2.781  13.219  0.0497  0.0520 -0.5417
   59MPD2    C3  901   1.199   2.894  13.303 -0.3804 -0.0940  0.2189
   59MPD2    C4  902   1.102   2.986  13.314 -0.3112  1.0233 -0.6115
   59MPD2    C5  903   0.981   2.959  13.248 -0.1760  0.2138  0.3737
   59MPD2     H  904   1.265   2.718  13.195 -0.5602 -1.1782  0.5326
   59MPD2    H1  905   1.114   3.079  13.368  0.4421  0.4166  0.2603
   59MPD2    H2  906   0.860   2.820  13.157  0.1453 -0.8729  0.0263
   59MPD2    H3  907   0.908   3.039  13.252  1.4014  1.6801 -0.4709
   59MPD2     N  908   1.317   2.923  13.371  0.1784 -0.2519 -0.1489
   59MPD2    H5  909   1.319   3.012  13.419 -1.1868  0.6607 -1.7930
   59MPD2    N1  910   1.043   2.617  13.109 -0.7700  0.7119 -0.0202
   59MPD2    H7  911   1.126   2.566  13.077 -1.0443  0.0008  0.4152
   60TCq2    C1  912   0.923   2.554  13.113  0.2210 -0.3857  0.7621
   60TCq2    O2  913   0.833   2.579  13.196  0.3751  0.8497  0.1418
   60TCq2    C2  914   0.929   2.425  13.036 -0.1181  0.3262 -0.0055
   60TCq2    C3  915   0.857   2.315  13.074 -0.2019 -0.0227  0.5028
   60TCq2    C4  916   0.874   2.193  13.004  0.4888 -0.2546 -0.2702
   60TCq2    C5  917   0.958   2.186  12.892  0.3238  0.1105  0.1125
   60TCq2    C6  918   1.009   2.304  12.852 -0.6014 -0.1720  0.0181
   60TCq2    C7  919   0.998   2.421  12.920  0.5480 -0.0610 -0.0164
   60TCq2    C8  920   1.049   2.305  12.714  0.6828 -0.7281 -0.0589
   60TCq2    O4  921   1.104   2.210  12.664 -0.2182 -0.2744  0.5413
   60TCq2    C9  922   0.804   2.078  13.045 -0.1827 -0.4571  0.1097
   60TCq2    O5  923   0.745   2.084  13.159 -0.8963 -0.5268 -0.1292
   60TCq2    O6  924   0.807   1.982  12.964 -0.0771 -0.2656 -0.0672
   60TCq2    H2  925   0.790   2.326  13.158 -0.8683  1.1682 -0.1880
   60TCq2    H3  926   0.965   2.097  12.831 -1.2118  0.0492  0.0384
   60TCq2    H4  927   1.042   2.512  12.880 -0.9512 -0.3270 -2.2832
   61MPD2     C  928   0.078   3.847  14.658 -0.0288 -0.1720 -0.1757
   61MPD2    C1  929   0.131   3.948  14.733 -0.0006  0.5293  0.0757
   61MPD2    C2  930   0.174   4.058  14.668  1.3950  0.7498  0.5956
   61MPD2    C3  931   0.153   4.080  14.535  0.5631  0.4998 -0.3617
   61MPD2    C4  932   0.093   3.979  14.466  0.0909 -0.1458 -0.2299
   61MPD2    C5  933   0.055   3.859  14.527 -0.4645  0.2274  1.1194
   61MPD2     H  934   0.216   4.138  14.728 -0.5125  2.5047 -0.4126
   61MPD2    H1  935   0.079   3.983  14.358  0.0709  0.0537 -0.2212
   61MPD2    H2  936   0.051   3.750  14.697 -0.0190 -0.4182 -0.7708
   61MPD2    H3  937   0.030   3.771  14.468  1.3476  0.2271  0.3582
   61MPD2     N  938   0.194   4.206  14.480 -0.6015 -0.1453  0.2839
   61MPD2    H5  939   0.258   4.262  14.536 -2.3336  1.0861  1.0044
   61MPD2    N1  940   0.141   3.949  14.872  0.8779  0.2347  0.0691
   61MPD2    H7  941   0.177   4.030  14.921  0.8965 -0.5830  1.4311
   62TCq2    C1  942   0.081   3.860  14.958  0.1178 -0.6949 -0.1505
   62TCq2    O2  943   0.037   3.744  14.942 -0.2362 -0.2849  0.0315
   62TCq2    C2  944   0.039   3.922  15.081  0.2317 -0.5701  0.2299
   62TCq2    C3  945   4.670   3.848  15.148  0.5848  0.5204 -0.5189
   62TCq2    C4  946   4.618   3.908  15.261  0.4700 -0.3138  0.5770
   62TCq2    C5  947   4.654   4.032  15.307 -0.0670 -0.4788  0.0719
   62TCq2    C6  948   0.032   4.098  15.244  0.9066 -0.7796 -0.6030
   62TCq2    C7  949   0.083   4.051  15.123  0.6713  0.4020 -0.9471
   62TCq2    C8  950   0.071   4.229  15.284  0.2027 -0.0524  0.0708
   62TCq2    O4  951   0.184   4.262  15.248  0.7334 -0.0409  0.5603
   62TCq2    C9  952   4.553   3.817  15.355 -0.0229 -0.7167  1.1695
   62TCq2    O5  953   4.538   3.699  15.310  0.1474 -0.6697 -0.7226
   62TCq2    O6  954   4.521   3.861  15.471  0.5980  0.2929  0.0531
   62TCq2    H2  955   4.642   3.746  15.123 -3.3575  1.4389  0.1703
   62TCq2    H3  956   4.624   4.064  15.406 -0.4293 -2.4065  0.5860
   62TCq2    H4  957   0.159   4.101  15.065  0.5826  0.2024 -1.2344
   63TMC2    C1  958   4.084   3.647  10.536  0.1867 -0.8137  0.4917
   63TMC2    C2  959   4.200   3.575  10.544 -0.3472 -0.2489  0.6854
   63TMC2    C3  960   4.306   3.629  10.482 -0.5402  0.2648 -0.8723
   63TMC2    C4  961   4.072   3.766  10.464 -0.0290 -0.3848 -0.2169
   63TMC2    C5  962   4.187   3.810  10.403  0.8020  0.5571 -0.0868
   63TMC2    C6  963   4.304   3.746  10.404  0.0609  1.3552  0.2836
   63TMC2     C  964   3.990   3.634  10.645 -0.5949 -0.7323 -0.1635
   63TMC2     O  965   3.904   3.721  10.661 -0.1913  0.1935  0.1518
   63TMC2     H  966   4.203   3.478  10.594  0.3717  0.4093  1.9367
   63TMC2    H1  967   3.983   3.828  10.467  1.7749  2.2575 -1.5278
   63TMC2    H2  968   4.406   3.775  10.380  0.4866 -1.0258 -0.7576
   63TMC2    C7  969   4.186   3.946  10.347 -0.5036 -0.0130 -0.5308
   63TMC2    C8  970   4.408   3.542  10.443  0.2041  0.7912 -0.5940
   63TMC2    O1  971   4.077   3.984  10.311  0.4852 -0.0085 -0.3985
   63TMC2    O2  972   4.508   3.519  10.506 -0.0382 -0.6526 -1.2844
   63TMC2    O5  973   4.346   3.449  10.363  0.1203 -0.4137 -0.5530
   63TMC2    H5  974   4.261   3.485  10.331 -0.3449  0.7081  1.9148
   64MPD2     C  975   3.801   3.350  11.036  0.6583 -0.1880 -0.0852
   64MPD2    C1  976   3.894   3.276  10.962  0.5722  0.1573  0.0526
   64MPD2    C2  977   3.954   3.336  10.857  0.0129  0.3294 -0.0189
   64MPD2    C3  978   3.935   3.461  10.818  0.1488 -0.2974 -0.2696
   64MPD2    C4  979   3.842   3.543  10.889 -0.3379 -0.3231  0.2953
   64MPD2    C5  980   3.775   3.479  10.996 -0.1977  0.0197  0.1486
   64MPD2     H  981   4.030   3.281  10.801 -1.3806  0.2196 -1.8123
   64MPD2    H1  982   3.822   3.649  10.875  0.1514 -0.7268 -3.5216
   64MPD2    H2  983   3.741   3.322  11.122  1.7214 -0.2349  0.6431
   64MPD2    H3  984   3.703   3.540  11.049  0.8230  1.0178  0.4021
   64MPD2     N  985   4.006   3.512  10.708  0.5409  0.5390 -0.1666
   64MPD2    H5  986   4.064   3.439  10.667 -0.0793  0.6808 -1.3104
   64MPD2    N1  987   3.938   3.147  11.010 -0.5056 -0.0574  0.2655
   64MPD2    H7  988   4.018   3.104  10.964 -0.1049 -1.2366  2.0728
   65MPD2     C  989   0.986   3.358  16.088  0.3601  0.0905  0.4474
   65MPD2    C1  990   0.994   3.319  15.956 -1.2921  0.1654 -0.6313
   65MPD2    C2  991   0.952   3.192  15.929  0.3075  0.7028 -0.5096
   65MPD2    C3  992   0.898   3.104  16.020  0.7127 -0.7390  0.1223
   65MPD2    C4  993   0.883   3.146  16.153  0.6084 -0.4993  0.5933
   65MPD2    C5  994   0.930   3.273  16.181 -0.6695 -0.1262 -0.4265
   65MPD2     H  995   0.959   3.164  15.825  1.4073 -1.3781  0.1461
   65MPD2    H1  996   0.838   3.087  16.231  0.5742 -1.6496 -0.2954
   65MPD2    H2  997   1.010   3.459  16.119 -2.7306  0.6194  1.1019
   65MPD2    H3  998   0.916   3.295  16.286 -0.2758 -2.1438  0.0371
   65MPD2     N  999   0.858   2.975  15.978  0.5228  0.8171 -0.2221
   65MPD2    H5 1000   0.824   2.912  16.049 -0.0945  1.8591  0.3962
   65MPD2    N1 1001   1.047   3.391  15.850  0.2695  0.4516  0.0783
   65MPD2    H7 1002   1.023   3.355  15.758 -2.3176  1.8104  0.1942
   66TCq2    C1 1003   1.091   3.520  15.845  0.2597 -0.1467  0.0523
   66TCq2    O2 1004   1.106   3.598  15.940  0.1749 -0.4599  0.4658
   66TCq2    C2 1005   1.067   3.565  15.704  0.1758  0.4087  0.4857
   66TCq2    C3 1006   1.069   3.472  15.602  0.2008 -0.2884  0.9349
   66TCq2    C4 1007   0.999   3.496  15.490  0.2448  0.2464 -0.1859
   66TCq2    C5 1008   0.932   3.611  15.480  0.8462 -0.5691 -1.0075
   66TCq2    C6 1009   0.923   3.703  15.576  0.2415 -0.3735  1.5060
   66TCq2    C7 1010   0.996   3.679  15.693  0.4431  0.1705 -0.4259
   66TCq2    C8 1011   0.834   3.817  15.562  0.1710  0.1675 -0.5941
   66TCq2    O4 1012   0.761   3.820  15.462  0.3694 -0.5678  0.0571
   66TCq2    C9 1013   0.984   3.398  15.385 -0.4905  0.7235  0.8132
   66TCq2    O5 1014   1.069   3.299  15.378 -0.2533 -0.4373 -0.2278
   66TCq2    O6 1015   0.907   3.426  15.293 -1.1651  0.4485  0.5849
   66TCq2    H2 1016   1.124   3.379  15.614  2.6972  0.7085 -2.7947
   66TCq2    H3 1017   0.864   3.620  15.396  0.0346  0.2608 -0.2678
   66TCq2    H4 1018   0.974   3.733  15.785  1.7320  3.6483 -2.1549
   67MPD2     C 1019   0.678   2.724  14.228 -0.0103  0.2513 -0.7797
   67MPD2    C1 1020   0.642   2.821  14.314  0.3705 -0.2575 -0.3250
   67MPD2    C2 1021   0.528   2.893  14.281  0.3905  0.0316  0.3413
   67MPD2    C3 1022   0.469   2.893  14.155  0.2400  0.1221 -0.4693
   67MPD2    C4 1023   0.524   2.807  14.067 -0.0200  0.3290  0.3809
   67MPD2    C5 1024   0.615   2.717  14.107  0.7950 -0.5844  0.4882
   67MPD2     H 1025   0.493   2.970  14.349  0.6085  0.1047  0.3716
   67MPD2    H1 1026   0.482   2.797  13.967 -0.8470  1.7642  0.5894
   67MPD2    H2 1027   0.765   2.661  14.239  0.2298  0.7127 -0.0674
   67MPD2    H3 1028   0.660   2.650  14.034 -1.2138  0.5304 -1.7583
   67MPD2     N 1029   0.353   2.972  14.119 -0.1306 -0.0895  0.2706
   67MPD2    H5 1030   0.315   2.973  14.025  1.9418 -1.4943 -0.5822
   67MPD2    N1 1031   0.717   2.851  14.433  0.5347 -0.4490 -0.2077
   67MPD2    H7 1032   0.676   2.919  14.496 -1.8738 -1.6327 -0.5080
   68TCq2    C1 1033   0.824   2.779  14.465  0.2809  0.6089  0.4716
   68TCq2    O2 1034   0.867   2.670  14.441  0.9455 -0.1478 -0.1441
   68TCq2    C2 1035   0.862   2.842  14.592 -0.7695  0.1071 -0.6775
   68TCq2    C3 1036   0.871   2.978  14.607  0.4583 -0.1768 -0.2880
   68TCq2    C4 1037   0.921   3.025  14.724 -0.1629  0.3303  0.2062
   68TCq2    C5 1038   0.937   2.948  14.837 -0.5613  0.5795 -0.4286
   68TCq2    C6 1039   0.912   2.810  14.824  0.2540  0.1785 -0.4477
   68TCq2    C7 1040   0.886   2.762  14.700 -0.1969  0.4353  0.5026
   68TCq2    C8 1041   0.958   2.708  14.918 -0.5378 -0.3737 -0.4276
   68TCq2    O4 1042   0.932   2.590  14.902  0.3651 -0.3061  0.2544
   68TCq2    C9 1043   0.956   3.156  14.724 -0.2725  0.0953  0.4826
   68TCq2    O5 1044   0.982   3.202  14.833  0.4168 -0.3389 -0.4051
   68TCq2    O6 1045   0.976   3.213  14.615  0.0329  0.3557  0.0849
   68TCq2    H2 1046   0.861   3.048  14.524 -1.2800  0.9094  0.8271
   68TCq2    H3 1047   0.984   2.986  14.926  0.9472 -0.2371 -0.8817
   68TCq2    H4 1048   0.867   2.655  14.690 -0.9558  0.7733 -1.7469
   69TMC2    C1 1049   2.674   4.043  12.701 -0.4878  0.2315  0.0455
   69TMC2    C2 1050   2.605   4.165  12.690  0.4608 -0.6744  0.2955
   69TMC2    C3 1051   2.665   4.257  12.608  0.4880  1.1088  0.3073
   69TMC2    C4 1052   2.798   4.028  12.653  0.0629  0.2322  0.3103
   69TMC2    C5 1053   2.842   4.115  12.561 -1.0755  0.6446  0.3944
   69TMC2    C6 1054   2.787   4.238  12.547 -0.2129  0.8236  0.1206
   69TMC2     C 1055   2.624   3.936  12.786  0.1198  0.0751 -0.0567
   69TMC2     O 1056   2.658   3.822  12.762 -1.1656 -0.3391 -0.2700
   69TMC2     H 1057   2.506   4.187  12.727  1.1271  0.9253  1.0958
   69TMC2    H1 1058   2.862   3.942  12.674  2.1773  0.6281 -4.4094
   69TMC2    H2 1059   2.830   4.320  12.490  0.1893  0.7640  0.3374
   69TMC2    C7 1060   2.960   4.080  12.486  0.0945  0.1595  0.2923
   69TMC2    C8 1061   2.619   4.391  12.605  0.5126  0.3042 -0.1696
   69TMC2    O1 1062   3.040   3.992  12.519  0.0856  0.1133  0.1061
   69TMC2    O2 1063   2.667   4.479  12.537  0.1201 -0.4617  0.0412
   69TMC2    O5 1064   2.581   4.416  12.730 -0.3035 -0.0333 -0.1742
   69TMC2    H5 1065   2.544   4.342  12.783  0.4138 -1.3881 -1.5773
   70MPD2     C 1066   2.380   3.970  13.060 -0.2823 -0.4923  0.6065
   70MPD2    C1 1067   2.471   3.900  12.985  0.0497 -0.6020 -0.4047
   70MPD2    C2 1068   2.497   3.772  13.028  0.2293 -0.1479  0.6865
   70MPD2    C3 1069   2.443   3.714  13.141  0.0022 -0.3548 -0.3124
   70MPD2    C4 1070   2.340   3.787  13.206  0.1178  0.0524 -0.0108
   70MPD2    C5 1071   2.320   3.918  13.177  0.0844 -0.4575 -0.3047
   70MPD2     H 1072   2.561   3.718  12.959 -0.8902 -1.2888  0.5437
   70MPD2    H1 1073   2.301   3.758  13.303 -1.3781  1.0794 -0.3009
   70MPD2    H2 1074   2.348   4.071  13.037 -2.8977 -1.9475 -2.0116
   70MPD2    H3 1075   2.269   3.994  13.235  1.7920 -0.0648  0.7044
   70MPD2     N 1076   2.476   3.578  13.185 -0.1115 -0.2685  0.1695
   70MPD2    H5 1077   2.437   3.540  13.270 -0.4004 -0.7109 -0.1622
   70MPD2    N1 1078   2.530   3.979  12.881 -0.0137  0.1142 -0.3366
   70MPD2    H7 1079   2.504   4.077  12.876 -0.5044  0.0282  0.7239
   71TMC2    C1 1080   0.029   4.360   2.142  0.1110 -0.1625  0.1031
   71TMC2    C2 1081   0.116   4.305   2.235 -0.5511  0.5613  0.5632
   71TMC2    C3 1082   0.103   4.356   2.363  0.4947 -0.2090 -0.5386
   71TMC2    C4 1083   4.651   4.445   2.174 -0.0796  0.0843 -0.1864
   71TMC2    C5 1084   4.638   4.491   2.307 -0.4572  0.2284  0.5926
   71TMC2    C6 1085   4.719   4.440   2.406 -0.3334  0.2230  0.3440
   71TMC2     C 1086   0.040   4.308   2.004  0.2666  0.8496  0.2469
   71TMC2     O 1087   0.156   4.305   1.954  0.0670  0.3589 -0.5087
   71TMC2     H 1088   0.204   4.250   2.203 -0.5130 -0.2882  2.1441
   71TMC2    H1 1089   4.591   4.496   2.100  0.2564  2.4927  1.1864
   71TMC2    H2 1090   4.707   4.471   2.509 -1.6603 -0.9935  0.5507
   71TMC2    C7 1091   4.526   4.566   2.356  1.0423  0.8797 -0.3982
   71TMC2    C8 1092   0.184   4.284   2.461 -0.2184  0.7009  0.1868
   71TMC2    O1 1093   4.525   4.623   2.464  0.5748 -0.0470 -0.6957
   71TMC2    O2 1094   0.245   4.183   2.436  0.3053  0.4788 -0.1927
   71TMC2    O5 1095   0.191   4.359   2.575  0.8776 -0.2340 -0.0056
   71TMC2    H5 1096   0.180   4.456   2.563  0.0590 -0.0539  2.1528
   72MPD2     C 1097   4.548   4.320   1.532 -0.4036  0.1368 -0.1765
   72MPD2    C1 1098   4.680   4.337   1.570 -0.0813 -0.0839  0.1143
   72MPD2    C2 1099   4.714   4.327   1.703  0.9302 -0.0131  0.3915
   72MPD2    C3 1100   4.618   4.308   1.799 -0.5450 -0.3542  0.3248
   72MPD2    C4 1101   4.487   4.307   1.758  0.4485 -0.0758  0.3452
   72MPD2    C5 1102   4.452   4.300   1.628 -0.0216  0.2088 -0.4148
   72MPD2     H 1103   0.096   4.340   1.728  0.8719  1.8115 -0.3262
   72MPD2    H1 1104   4.411   4.320   1.834 -0.2863  3.1435 -0.9230
   72MPD2    H2 1105   4.516   4.307   1.430  0.4439  1.2671 -0.5872
   72MPD2    H3 1106   4.354   4.275   1.591 -0.2528 -2.4628  1.9627
   72MPD2     N 1107   4.639   4.296   1.943  0.1030 -0.2766  0.2415
   72MPD2    H5 1108   4.558   4.291   2.002  1.3251  1.3853  2.0414
   72MPD2    N1 1109   0.048   4.363   1.470 -0.5043  0.2873 -0.6125
   72MPD2    H7 1110   0.020   4.340   1.375 -0.2583 -0.4966 -0.5023
   73TMC2    C1 1111   4.342   1.595  14.061 -0.2171 -0.4537  0.3411
   73TMC2    C2 1112   4.363   1.507  13.961 -0.5289  0.1676 -0.3269
   73TMC2    C3 1113   4.448   1.402  13.986  0.8232 -0.8045 -0.3214
   73TMC2    C4 1114   4.399   1.576  14.182  0.0712  0.0420 -0.3784
   73TMC2    C5 1115   4.479   1.471  14.208 -0.2401  0.0167 -0.2879
   73TMC2    C6 1116   4.500   1.376  14.114 -0.1580  0.5190  0.0441
   73TMC2     C 1117   4.339   1.728  14.015 -0.1893  0.5296  0.6429
   73TMC2     O 1118   4.382   1.810  14.097 -0.3192 -0.1245  0.5819
   73TMC2     H 1119   4.329   1.521  13.859 -0.5296 -0.1453 -0.3709
   73TMC2    H1 1120   4.383   1.651  14.259  1.6775 -0.7185  0.6999
   73TMC2    H2 1121   4.572   1.297  14.136 -2.0192 -0.4544  2.6560
   73TMC2    C7 1122   4.606   1.515  14.264  0.2579  0.1294  0.0919
   73TMC2    C8 1123   4.493   1.310  13.881  0.2593 -0.4213  0.3531
   73TMC2    O1 1124   4.687   1.431  14.305 -0.0492  0.0025  0.3672
   73TMC2    O2 1125   4.408   1.253  13.813  0.1742  0.5358 -0.3115
   73TMC2    O5 1126   4.621   1.262  13.901 -0.1708 -0.1404 -0.0142
   73TMC2    H5 1127   4.684   1.323  13.943 -2.3076 -0.5417  3.7671
   74MPD2     C 1128   4.352   2.116  13.693  0.0758 -0.0039 -0.3394
   74MPD2    C1 1129   4.415   2.098  13.816 -0.8259 -0.3462 -0.1346
   74MPD2    C2 1130   4.396   1.979  13.881  0.0583  0.3289  0.3535
   74MPD2    C3 1131   4.309   1.884  13.831 -0.6336 -0.4924  1.1905
   74MPD2    C4 1132   4.249   1.902  13.710 -0.6481  1.6965  0.3638
   74MPD2    C5 1133   4.271   2.017  13.640 -0.5951 -0.5529 -0.0424
   74MPD2     H 1134   4.450   1.967  13.975 -1.1073 -1.3479  0.8166
   74MPD2    H1 1135   4.182   1.831  13.662 -0.9380  2.2155  0.0042
   74MPD2    H2 1136   4.365   2.207  13.636  2.3760 -1.1203 -1.5937
   74MPD2    H3 1137   4.224   2.019  13.542  0.0029  1.5433 -0.2860
   74MPD2     N 1138   4.285   1.753  13.887  1.2958 -0.4783 -0.2966
   74MPD2    H5 1139   4.239   1.682  13.832  1.7960 -1.2512  0.2893
   74MPD2    N1 1140   4.503   2.196  13.865 -0.2507  0.0335  0.2274
   74MPD2    H7 1141   4.516   2.280  13.810  1.6929 -0.0508  0.5521
   75TCq2    C1 1142   0.262   3.023  14.209 -0.2629  0.1934  0.3758
   75TCq2    O2 1143   0.260   3.010  14.328  0.6250 -0.4546 -0.0487
   75TCq2    C2 1144   0.151   3.088  14.138 -0.2440 -0.6269  0.0852
   75TCq2    C3 1145   0.037   3.111  14.207  0.0601  0.4721 -0.2290
   75TCq2    C4 1146   4.642   3.155  14.151  1.0965 -0.4697 -0.3734
   75TCq2    C5 1147   4.643   3.188  14.016 -0.1832  0.3050  0.4160
   75TCq2    C6 1148   0.041   3.184  13.949 -0.0971  0.1431 -0.5794
   75TCq2    C7 1149   0.153   3.124  14.008 -0.6916 -0.4499  0.7087
   75TCq2    C8 1150   0.029   3.186  13.802  0.3320  0.3644  0.2724
   75TCq2    O4 1151   0.112   3.114  13.744  0.1972 -0.0228 -0.3911
   75TCq2    C9 1152   4.525   3.166  14.228 -0.4192 -0.3320 -0.8267
   75TCq2    O5 1153   4.535   3.142  14.352 -0.5751 -0.6411  0.2110
   75TCq2    O6 1154   4.420   3.202  14.160  0.2461  0.0324  0.4063
   75TCq2    H2 1155   0.040   3.075  14.310  1.4826  1.9638  0.2525
   75TCq2    H3 1156   4.549   3.205  13.964 -1.2662 -1.7402  1.6988
   75TCq2    H4 1157   0.241   3.114  13.946 -1.1849 -0.2548 -0.0262
   76MPD2     C 1158   3.744   3.271  12.399 -0.2349  0.3474  0.1358
   76MPD2    C1 1159   3.779   3.288  12.271 -0.7182 -0.5360  0.1679
   76MPD2    C2 1160   3.886   3.213  12.218 -0.8178 -0.1479  0.4713
   76MPD2    C3 1161   3.940   3.117  12.300 -0.5169 -0.0211  0.1276
   76MPD2    C4 1162   3.895   3.081  12.420  0.6266  0.3728 -0.0695
   76MPD2    C5 1163   3.798   3.164  12.474 -0.4711 -0.5552 -0.3120
   76MPD2     H 1164   3.929   3.236  12.121 -0.6326 -3.4396 -0.2299
   76MPD2    H1 1165   3.930   2.992  12.471 -1.3132 -1.4326 -1.8892
   76MPD2    H2 1166   3.668   3.333  12.443 -1.1691  1.3727 -2.9351
   76MPD2    H3 1167   3.762   3.153  12.576 -0.6678 -2.2468 -0.5571
   76MPD2     N 1168   4.056   3.045  12.264  0.1600  0.0204  0.5740
   76MPD2    H5 1169   4.098   2.983  12.333 -2.2564  0.2311  2.2684
   76MPD2    N1 1170   3.742   3.409  12.205  0.6606  0.1925  0.6297
   76MPD2    H7 1171   3.805   3.443  12.133 -0.9013  0.8832 -0.4165
   77TCq2    C1 1172   4.114   3.036  12.140 -0.5138 -0.3907 -0.0041
   77TCq2    O2 1173   4.080   3.095  12.038 -0.1326 -0.0514  0.2445
   77TCq2    C2 1174   4.230   2.948  12.132  0.6451  0.2878 -0.1676
   77TCq2    C3 1175   4.237   2.870  12.017  0.1740  0.1876 -0.4559
   77TCq2    C4 1176   4.305   2.751  12.026 -0.5373 -0.2901  0.1084
   77TCq2    C5 1177   4.384   2.724  12.136 -0.3184  0.5538 -0.0486
   77TCq2    C6 1178   4.387   2.807  12.246 -0.3293 -0.1733 -0.4495
   77TCq2    C7 1179   4.303   2.920  12.246 -0.4184 -1.2119 -0.0581
   77TCq2    C8 1180   4.481   2.768  12.353  0.2674 -0.0942  0.5923
   77TCq2    O4 1181   4.519   2.652  12.351  0.0382  0.3789 -0.6541
   77TCq2    C9 1182   4.310   2.664  11.912 -0.0828  0.1212  0.5175
   77TCq2    O5 1183   4.235   2.687  11.815 -0.1929 -0.0744  0.0556
   77TCq2    O6 1184   4.373   2.552  11.917 -0.3331 -0.0104  0.2266
   77TCq2    H2 1185   4.187   2.899  11.925  0.1971  0.6404 -0.3277
   77TCq2    H3 1186   4.453   2.640  12.133 -2.2727 -1.1484  1.8554
   77TCq2    H4 1187   4.306   2.995  12.325  2.1425 -1.4727  0.1124
   78MPD1     C 1188   2.034   3.071   1.946 -1.0220  0.1496 -0.0236
   78MPD1    C1 1189   2.085   3.153   1.850  0.0324  0.4829 -0.6916
   78MPD1    C2 1190   2.194   3.225   1.894 -0.4862  0.5304  1.1883
   78MPD1    C3 1191   2.224   3.245   2.029  0.8562 -0.7755 -0.4369
   78MPD1    C4 1192   2.166   3.167   2.119  0.3538 -0.4568 -0.6584
   78MPD1    C5 1193   2.076   3.073   2.076 -0.0752 -0.1776 -1.0607
   78MPD1     H 1194   2.242   3.281   1.815 -2.7581  2.3746  1.1027
   78MPD1    H1 1195   2.200   3.163   2.222 -2.7497  1.3205  0.4273
   78MPD1    H2 1196   1.965   2.990   1.929 -0.6342  0.0793 -1.2669
   78MPD1    H3 1197   2.039   3.001   2.149  0.0973  0.2663 -0.5299
   78MPD1     N 1198   2.329   3.324   2.069  0.0277  0.0804  0.0590
   78MPD1    H5 1199   2.373   3.287   2.153 -2.9217 -3.2547  0.1043
   78MPD1    N1 1200   2.059   3.124   1.712 -0.3968  0.4508  0.2582
   78MPD1    H6 1201   1.963   3.112   1.679 -0.6676 -0.5053  1.3689
   78MPD1    H7 1202   2.095   3.202   1.658  1.0979 -0.9651 -0.7901
   79TCq2    C1 1203   2.401   3.423   1.997  0.1967  1.0184  0.0552
   79TCq2    O2 1204   2.378   3.461   1.884 -0.2885 -0.2820 -0.2045
   79TCq2    C2 1205   2.531   3.461   2.058  0.9088  0.0527 -0.0579
   79TCq2    C3 1206   2.549   3.446   2.195  0.6919  0.3594 -0.1548
   79TCq2    C4 1207   2.663   3.484   2.252  0.2468  0.6380 -0.0053
   79TCq2    C5 1208   2.754   3.545   2.172  0.2277 -0.1694 -0.3022
   79TCq2    C6 1209   2.735   3.556   2.035 -0.3551 -0.1020 -0.7290
   79TCq2    C7 1210   2.622   3.512   1.979 -0.6953  0.3522  0.2788
   79TCq2    C8 1211   2.830   3.631   1.958  0.0235  0.8202  0.5213
   79TCq2    O4 1212   2.829   3.615   1.834 -0.1671  0.3008 -0.2102
   79TCq2    C9 1213   2.699   3.462   2.391 -0.2536 -0.2528 -0.1593
   79TCq2    O5 1214   2.813   3.491   2.429 -0.0201 -0.0306 -0.2713
   79TCq2    O6 1215   2.599   3.444   2.474 -0.7150 -0.2516  0.0747
   79TCq2    H2 1216   2.482   3.388   2.258  0.2867  1.0848  0.0820
   79TCq2    H3 1217   2.845   3.571   2.224  0.0102 -1.7857  0.8784
   79TCq2    H4 1218   2.598   3.539   1.877 -0.6632  1.0573  0.4550
   80MPD2     C 1219   3.009   3.312  12.118  0.1045  0.1502  0.2381
   80MPD2    C1 1220   2.932   3.230  12.042 -0.6728 -0.2283 -0.2637
   80MPD2    C2 1221   2.795   3.240  12.038 -0.4768 -0.6242 -0.0962
   80MPD2    C3 1222   2.734   3.332  12.121 -0.3708 -0.3925  0.3972
   80MPD2    C4 1223   2.805   3.415  12.206 -0.5981 -0.0533  0.3212
   80MPD2    C5 1224   2.947   3.404  12.205 -0.0621  0.3030 -0.7115
   80MPD2     H 1225   2.748   3.163  11.977 -1.8277  0.1195  0.0051
   80MPD2    H1 1226   2.759   3.491  12.268  0.3883  1.0851 -0.3374
   80MPD2    H2 1227   3.117   3.308  12.110  0.3726  1.6167  3.2402
   80MPD2    H3 1228   3.002   3.482  12.256 -0.4512 -0.6975  1.2311
   80MPD2     N 1229   2.591   3.334  12.119 -0.3767 -0.0544  0.9672
   80MPD2    H5 1230   2.541   3.380  12.195  0.0219  0.2095  1.0723
   80MPD2    N1 1231   2.991   3.129  11.965  0.6650 -0.0392  1.2655
   80MPD2    H7 1232   2.942   3.106  11.880  2.7463 -0.0913  0.0648
   81TCq2    C1 1233   3.114   3.071  11.984 -0.0766 -0.2054  0.2164
   81TCq2    O2 1234   3.203   3.096  12.066  0.2276  0.1407  0.4243
   81TCq2    C2 1235   3.143   2.966  11.894 -1.0890 -0.2347  0.7339
   81TCq2    C3 1236   3.276   2.931  11.888  0.6494 -0.1377 -0.8288
   81TCq2    C4 1237   3.313   2.818  11.829  0.4225 -0.5054 -0.5590
   81TCq2    C5 1238   3.220   2.727  11.783 -0.1451 -0.5813 -0.8413
   81TCq2    C6 1239   3.093   2.763  11.802 -0.0085 -0.6446  0.4796
   81TCq2    C7 1240   3.046   2.879  11.854  0.4067 -0.0173 -0.4352
   81TCq2    C8 1241   3.007   2.650  11.810 -0.3709  0.1413 -0.2560
   81TCq2    O4 1242   3.004   2.566  11.723  0.3596 -0.6052  0.1099
   81TCq2    C9 1243   3.453   2.795  11.809  0.7403 -0.7221  0.5231
   81TCq2    O5 1244   3.538   2.880  11.841 -1.0224 -0.1199  0.6360
   81TCq2    O6 1245   3.493   2.677  11.786  0.4743  0.0224  0.2948
   81TCq2    H2 1246   3.351   3.006  11.908 -0.7500  0.0736  3.8298
   81TCq2    H3 1247   3.245   2.626  11.753  2.0295 -0.4364  0.5003
   81TCq2    H4 1248   2.943   2.911  11.850 -0.0757 -1.6534 -0.8113
   82MPD2     C 1249   0.967   2.518  10.802  0.2418 -0.0451  0.0837
   82MPD2    C1 1250   0.982   2.387  10.766  0.2489 -0.1417  0.4606
   82MPD2    C2 1251   1.081   2.313  10.814 -0.2293 -0.4339  0.0405
   82MPD2    C3 1252   1.185   2.371  10.888 -0.0175  0.6203  0.1309
   82MPD2    C4 1253   1.176   2.511  10.913 -0.7854  0.5880 -0.1253
   82MPD2    C5 1254   1.061   2.578  10.872 -0.5570 -0.1084  0.9925
   82MPD2     H 1255   1.082   2.209  10.783  2.1076 -0.7344  1.1617
   82MPD2    H1 1256   1.251   2.570  10.964  0.1744 -0.0452 -0.7978
   82MPD2    H2 1257   0.888   2.580  10.762 -0.5610 -1.8308 -1.1063
   82MPD2    H3 1258   1.050   2.684  10.893 -1.4360 -0.1723  0.8625
   82MPD2     N 1259   1.294   2.293  10.943 -0.3553 -0.3501 -0.5013
   82MPD2    H5 1260   1.294   2.192  10.927  1.1104 -0.4916  0.3977
   82MPD2    N1 1261   0.876   2.334  10.685 -0.2598  0.1405 -0.1895
   82MPD2    H7 1262   0.802   2.400  10.662 -0.7145  0.3926  2.0853
   83TCq2    C1 1263   1.405   2.345  11.011  0.8751  1.4269 -0.0133
   83TCq2    O2 1264   1.409   2.456  11.054 -0.4283 -0.0123  0.3075
   83TCq2    C2 1265   1.519   2.258  11.043 -0.0798 -0.8125  0.0182
   83TCq2    C3 1266   1.617   2.317  11.125  0.1728 -0.3238 -0.2220
   83TCq2    C4 1267   1.702   2.232  11.189  0.7293  0.1637 -0.3546
   83TCq2    C5 1268   1.705   2.098  11.174 -0.4466 -0.4774  0.0414
   83TCq2    C6 1269   1.617   2.046  11.083  0.2222 -0.0831 -0.1114
   83TCq2    C7 1270   1.526   2.126  11.017 -0.6548  0.3910  0.1310
   83TCq2    C8 1271   1.559   1.927  11.133  0.6564  0.7645  0.1647
   83TCq2    O4 1272   1.530   1.919  11.252  0.6767  0.8065  0.2208
   83TCq2    C9 1273   1.808   2.281  11.273 -0.2896  0.4751 -0.3113
   83TCq2    O5 1274   1.889   2.194  11.326 -0.1060 -0.1806 -0.0631
   83TCq2    O6 1275   1.820   2.406  11.291 -0.1683  0.4609 -0.1071
   83TCq2    H2 1276   1.625   2.424  11.139 -0.6498 -0.2589 -0.2759
   83TCq2    H3 1277   1.770   2.033  11.232 -0.4596  0.5104  1.1478
   83TCq2    H4 1278   1.457   2.075  10.950 -0.7788 -0.1806  0.6884
   84TCq2    C1 1279   2.252   0.560  11.100  0.4284 -0.0706 -0.1075
   84TCq2    O2 1280   2.284   0.478  11.013 -0.0902  0.0463 -0.5458
   84TCq2    C2 1281   2.222   0.525  11.238  0.1070  0.9307 -0.6687
   84TCq2    C3 1282   2.229   0.387  11.265  0.0197  0.3368 -0.5666
   84TCq2    C4 1283   2.243   0.344  11.389  0.3290  0.1648 -0.4880
   84TCq2    C5 1284   2.244   0.435  11.492  0.1170 -0.4769 -0.1194
   84TCq2    C6 1285   2.221   0.572  11.466  0.1707  0.3046 -0.2112
   84TCq2    C7 1286   2.214   0.618  11.337  0.4327 -0.8103 -0.6344
   84TCq2    C8 1287   2.206   0.673  11.570 -0.0304  0.0773  0.4452
   84TCq2    O4 1288   2.177   0.789  11.532  0.8299 -0.2326  0.3834
   84TCq2    C9 1289   2.247   0.201  11.414  0.3067  0.4534  0.3101
   84TCq2    O5 1290   2.214   0.130  11.316 -0.5104  0.0981 -0.3979
   84TCq2    O6 1291   2.276   0.161  11.530 -0.6266 -0.4068  0.2227
   84TCq2    H2 1292   2.240   0.312  11.187 -0.5248  0.3397 -0.6504
   84TCq2    H3 1293   2.223   0.396  11.591 -1.5384  0.5563 -0.0644
   84TCq2    H4 1294   2.221   0.724  11.316 -1.3692 -0.5121  0.2621
   85MPD2     C 1295   3.052   4.329  16.603  0.3985 -0.0447 -0.1094
   85MPD2    C1 1296   3.056   4.302  16.469 -0.4186 -0.1205 -0.4768
   85MPD2    C2 1297   3.067   4.407  16.384  0.1076 -0.0418 -0.0861
   85MPD2    C3 1298   3.101   4.528  16.431 -0.6466  1.2536  0.2517
   85MPD2    C4 1299   3.102   4.558  16.563 -0.0299 -0.4720  0.1832
   85MPD2    C5 1300   3.067   4.456  16.646 -0.1037  0.0162  0.3816
   85MPD2     H 1301   3.070   4.382  16.278  0.3146  1.0539 -0.3357
   85MPD2    H1 1302   3.132   4.654  16.603 -0.2652 -0.3715  0.1164
   85MPD2    H2 1303   3.035   4.244  16.669  0.6839 -0.3423 -0.4198
   85MPD2    H3 1304   3.061   4.482  16.751 -1.3995  0.3915  0.2127
   85MPD2     N 1305   3.126   4.639  16.348 -0.0407 -0.4651  0.4453
   85MPD2    H5 1306   3.161   4.721  16.396 -0.8588  0.5278 -0.6344
   85MPD2    N1 1307   3.036   4.167  16.431  0.2334 -0.3202  0.5837
   85MPD2    H7 1308   3.007   4.100  16.501 -0.0507 -2.0091 -1.1483
   86TCq2    C1 1309   3.149   4.639  16.207 -0.5843  0.2423 -0.0057
   86TCq2    O2 1310   3.127   4.545  16.130  0.3325 -0.3479  0.1652
   86TCq2    C2 1311   3.209   0.035  16.156  0.3812 -0.1617 -0.1180
   86TCq2    C3 1312   3.165   0.155  16.198 -0.1459  0.1517  0.3862
   86TCq2    C4 1313   3.228   0.272  16.155 -0.0058  0.0591 -0.0416
   86TCq2    C5 1314   3.339   0.265  16.076  0.6450  0.3601 -0.5607
   86TCq2    C6 1315   3.377   0.138  16.037  0.7564  0.1173 -0.0840
   86TCq2    C7 1316   3.313   0.021  16.069  0.4938 -0.3600  0.3522
   86TCq2    C8 1317   3.471   0.133  15.924 -0.6991  0.3870 -0.0097
   86TCq2    O4 1318   3.538   0.031  15.903  0.2989 -0.5255 -0.3370
   86TCq2    C9 1319   3.185   0.396  16.205  0.0970 -0.3189  0.3339
   86TCq2    O5 1320   3.067   0.392  16.242  0.0628 -0.1445  0.1746
   86TCq2    O6 1321   3.273   0.483  16.186 -0.1137 -0.2905  0.0080
   86TCq2    H2 1322   3.079   0.172  16.262  1.7479  3.5139  2.0862
   86TCq2    H3 1323   3.404   0.350  16.059  1.7781 -0.1612  1.2074
   86TCq2    H4 1324   3.346   4.646  16.034 -1.7745 -1.1566  0.4355
   87MPD2     C 1325   0.405   3.319   2.019 -0.0991 -0.6681 -0.2161
   87MPD2    C1 1326   0.513   3.372   1.946 -0.1304 -0.0513 -0.3349
   87MPD2    C2 1327   0.487   3.487   1.880 -0.0633 -0.6022 -0.4407
   87MPD2    C3 1328   0.369   3.557   1.892  0.0578 -0.2319  0.4636
   87MPD2    C4 1329   0.264   3.501   1.954 -0.7649 -0.5148  0.2941
   87MPD2    C5 1330   0.285   3.380   2.018  0.0450  0.3259 -0.1405
   87MPD2     H 1331   0.560   3.533   1.814 -1.5683 -0.6635 -2.1591
   87MPD2    H1 1332   0.172   3.559   1.951  0.1445  0.7659 -3.1716
   87MPD2    H2 1333   0.414   3.232   2.083  0.6511  0.1113  0.7404
   87MPD2    H3 1334   0.197   3.345   2.072  0.3144 -0.6991 -0.3655
   87MPD2     N 1335   0.337   3.675   1.811 -0.1201  0.5733 -0.0087
   87MPD2    H5 1336   0.243   3.712   1.815 -1.0020 -1.6033 -1.2885
   87MPD2    N1 1337   0.636   3.303   1.936 -0.1341 -0.3582 -0.4448
   87MPD2    H7 1338   0.636   3.209   1.974 -0.6814  0.3744  1.3774
   88TCq2    C1 1339   0.752   3.359   1.902  0.7829  0.2602 -0.5505
   88TCq2    O2 1340   0.777   3.470   1.852  1.0829  0.0220 -0.7268
   88TCq2    C2 1341   0.859   3.264   1.874 -0.5031 -0.3102  1.2637
   88TCq2    C3 1342   0.976   3.326   1.888  0.5981  0.1548  0.2275
   88TCq2    C4 1343   1.086   3.290   1.818 -0.2279  0.5991 -0.1991
   88TCq2    C5 1344   1.076   3.198   1.714 -0.4973 -0.1093  0.0322
   88TCq2    C6 1345   0.954   3.147   1.691  0.1196 -0.3576  0.0819
   88TCq2    C7 1346   0.841   3.183   1.768  0.0303 -0.2518  0.7120
   88TCq2    C8 1347   0.940   3.072   1.562 -0.0008  0.2887 -0.0394
   88TCq2    O4 1348   1.036   3.080   1.485 -0.1676  0.0566  0.2938
   88TCq2    C9 1349   1.215   3.349   1.841  0.0199  0.4543 -0.0217
   88TCq2    O5 1350   1.240   3.426   1.935 -0.4220  0.1830  0.2304
   88TCq2    O6 1351   1.295   3.323   1.753 -0.6617  0.1098  0.0779
   88TCq2    H2 1352   0.990   3.399   1.967  3.7691 -1.3722  1.0620
   88TCq2    H3 1353   1.160   3.152   1.665  0.9364  0.7140  1.7260
   88TCq2    H4 1354   0.741   3.147   1.748 -0.6812  1.0355  1.9659
   89MPD2     C 1355   1.751   0.459   1.885  0.2239 -0.8344 -0.2911
   89MPD2    C1 1356   1.688   0.569   1.922  0.1198 -0.6316 -0.6355
   89MPD2    C2 1357   1.734   0.693   1.883 -0.1226  0.2155  0.6736
   89MPD2    C3 1358   1.828   0.704   1.784 -0.5649  0.4330  0.0989
   89MPD2    C4 1359   1.895   0.587   1.746 -0.0498  0.1121  0.1534
   89MPD2    C5 1360   1.848   0.464   1.799  0.2024 -0.2762  0.1128
   89MPD2     H 1361   1.683   0.782   1.918  1.2332  1.1802  0.2083
   89MPD2    H1 1362   1.984   0.587   1.684  1.2732  1.8525  2.0309
   89MPD2    H2 1363   1.724   0.362   1.925 -0.8208 -0.7331 -0.7385
   89MPD2    H3 1364   1.892   0.373   1.759  0.9737 -1.4871  3.7605
   89MPD2     N 1365   1.864   0.835   1.741  0.0374 -0.3778  0.4356
   89MPD2    H5 1366   1.813   0.914   1.780 -0.4954 -1.2533  1.5303
   89MPD2    N1 1367   1.569   0.566   2.000  0.1454  0.2126  1.0572
   89MPD2    H7 1368   1.540   0.654   2.042 -3.4905 -0.1294 -0.7346
   90TCq2    C1 1369   1.950   0.872   1.640 -0.3154  0.1661 -0.5542
   90TCq2    O2 1370   2.037   0.804   1.590  0.1980 -0.0397  0.2136
   90TCq2    C2 1371   1.940   1.001   1.587 -0.8453 -0.4794  0.3578
   90TCq2    C3 1372   2.048   1.043   1.526 -0.5452 -0.6813  0.3640
   90TCq2    C4 1373   2.041   1.155   1.455 -0.3759 -0.4424  0.7647
   90TCq2    C5 1374   1.927   1.221   1.439 -0.1725  0.0513 -0.4496
   90TCq2    C6 1375   1.813   1.179   1.504  0.0871  0.3113  0.0457
   90TCq2    C7 1376   1.824   1.074   1.593  0.3612  0.0928  0.5263
   90TCq2    C8 1377   1.678   1.220   1.458 -0.1259  0.2542 -0.3248
   90TCq2    O4 1378   1.585   1.186   1.529 -0.4012  0.0263  0.6152
   90TCq2    C9 1379   2.159   1.195   1.384  0.2399  0.6488  0.0313
   90TCq2    O5 1380   2.143   1.287   1.301 -0.1769 -0.1859 -0.4266
   90TCq2    O6 1381   2.260   1.125   1.405  0.2360 -0.8135  0.0042
   90TCq2    H2 1382   2.139   0.984   1.530 -0.7082 -0.9870 -0.4817
   90TCq2    H3 1383   1.914   1.305   1.372  0.8827 -0.5503 -1.4185
   90TCq2    H4 1384   1.735   1.045   1.649 -0.9350 -0.0000 -1.5712
   91TMC2    C1 1385   3.061   0.389  16.547  0.3117 -0.4066  0.1028
   91TMC2    C2 1386   3.107   0.516  16.539  0.2391  0.7471  0.4123
   91TMC2    C3 1387   3.024   0.615  16.574  0.7595 -0.1952  0.4326
   91TMC2    C4 1388   2.936   0.356  16.584  0.6805  0.2669  0.2411
   91TMC2    C5 1389   2.860   0.460  16.635 -0.2687  0.4872  0.0415
   91TMC2    C6 1390   2.910   0.587  16.635  0.2998  1.2193 -0.4310
   91TMC2     C 1391   3.147   0.274  16.519 -0.2887 -0.1868 -0.1114
   91TMC2     O 1392   3.101   0.157  16.520  0.4935  0.1068  0.4537
   91TMC2     H 1393   3.197   0.549  16.487 -0.6877  0.1166 -1.5575
   91TMC2    H1 1394   2.888   0.262  16.559  0.8115  0.7318 -1.7759
   91TMC2    H2 1395   2.844   0.665  16.670  1.1119  0.4614  2.8172
   91TMC2    C7 1396   2.722   0.448  16.650 -0.0696 -0.1480 -1.0197
   91TMC2    C8 1397   3.072   0.753  16.581  0.2732  0.1617  0.5941
   91TMC2    O1 1398   2.671   0.512  16.742  0.1734 -0.3466  0.5424
   91TMC2    O2 1399   3.190   0.792  16.591  0.8244 -0.0998  0.6818
   91TMC2    O5 1400   2.969   0.832  16.553 -0.3469 -0.5131  0.1508
   91TMC2    H5 1401   2.888   0.782  16.531 -1.2034  1.0731 -0.2952
   92MPD2     C 1402   3.387   0.089  16.488  0.8171 -0.0363  0.2502
   92MPD2    C1 1403   3.392   0.226  16.507 -1.0241  0.0029  0.6713
   92MPD2    C2 1404   3.516   0.284  16.489 -0.4746 -0.4207 -0.1246
   92MPD2    C3 1405   3.630   0.215  16.453 -0.5256  0.0319  0.0880
   92MPD2    C4 1406   3.624   0.077  16.453  0.4034  0.1595 -0.5169
   92MPD2    C5 1407   3.499   0.019  16.461 -0.1501 -0.5632  0.4539
   92MPD2     H 1408   3.515   0.393  16.483  1.4078 -0.4371 -0.7744
   92MPD2    H1 1409   3.708   0.019  16.418 -1.0580 -1.3985 -1.4509
   92MPD2    H2 1410   3.292   0.038  16.496  0.8275  0.1336  1.4764
   92MPD2    H3 1411   3.493   4.637  16.437  1.2957 -0.6841  0.5772
   92MPD2     N 1412   3.756   0.285  16.445 -0.1388  0.2874 -0.1537
   92MPD2    H5 1413   3.748   0.384  16.467  2.0713  1.0396 -2.7498
   92MPD2    N1 1414   3.279   0.307  16.527  0.0120  0.3302  0.7367
   92MPD2    H7 1415   3.306   0.404  16.538 -0.4285  0.5342  0.0328
   93MPD2     C 1416   4.172   1.264  14.149 -0.1270  0.2931 -0.2145
   93MPD2    C1 1417   4.172   1.148  14.077  0.7415  0.1911  0.3153
   93MPD2    C2 1418   4.074   1.131  13.982  0.6919 -0.3045 -0.4058
   93MPD2    C3 1419   3.975   1.232  13.958  0.0575  0.0594 -0.0207
   93MPD2    C4 1420   3.993   1.359  14.009 -0.2849 -0.0549  0.0672
   93MPD2    C5 1421   4.095   1.372  14.102  0.4665  1.5930  0.6481
   93MPD2     H 1422   4.075   1.040  13.923  0.2552 -0.0787 -0.7646
   93MPD2    H1 1423   3.933   1.447  13.987 -0.9745 -0.9945 -1.7708
   93MPD2    H2 1424   4.243   1.285  14.227 -0.6357 -1.1214  0.6175
   93MPD2    H3 1425   4.103   1.465  14.157 -0.8023  1.8898  0.3191
   93MPD2     N 1426   3.869   1.218  13.870  0.2870  0.3623 -0.0453
   93MPD2    H5 1427   3.842   1.308  13.831 -2.1952  0.4802  1.8846
   93MPD2    N1 1428   4.261   1.042  14.101 -0.1003 -0.3011  0.0340
   93MPD2    H7 1429   4.252   0.956  14.049  1.9362  0.3872 -1.4891
   94TCq2    C1 1430   4.366   1.050  14.190 -0.2159 -0.0337 -0.0773
   94TCq2    O2 1431   4.401   1.136  14.269  0.3531  0.0501 -0.2015
   94TCq2    C2 1432   4.481   0.969  14.133  0.4592 -0.0436 -0.3358
   94TCq2    C3 1433   4.456   0.842  14.071  0.2969 -0.7043 -0.3355
   94TCq2    C4 1434   4.565   0.794  13.996 -0.2104 -0.8711  0.2011
   94TCq2    C5 1435   4.693   0.849  14.008  0.3968  0.3141  0.1538
   94TCq2    C6 1436   4.710   0.957  14.097 -0.3071 -0.9952  0.1751
   94TCq2    C7 1437   4.602   1.024  14.149 -0.0511 -0.9876 -0.5848
   94TCq2    C8 1438   0.123   1.011  14.102  0.3953  0.0433  0.1678
   94TCq2    O4 1439   0.201   0.964  14.020 -0.3329  0.0576 -0.5601
   94TCq2    C9 1440   4.543   0.680  13.913 -0.0376 -0.1923 -0.4188
   94TCq2    O5 1441   4.420   0.646  13.903 -0.2235 -0.1658 -0.3923
   94TCq2    O6 1442   4.639   0.629  13.853 -0.1721 -0.0684 -0.0164
   94TCq2    H2 1443   4.363   0.786  14.069 -1.1363  1.7309 -1.4638
   94TCq2    H3 1444   0.056   0.799  13.965  0.1964 -0.6095  0.8380
   94TCq2    H4 1445   4.616   1.120  14.197 -0.7966  0.0767 -2.4923
   95TMC2    C1 1446   0.253   2.059  16.289  0.1851 -0.6420  0.5191
   95TMC2    C2 1447   0.250   2.057  16.429 -0.0760 -0.1171  0.4513
   95TMC2    C3 1448   0.222   1.936  16.485 -0.6941 -0.6875  0.2343
   95TMC2    C4 1449   0.241   1.943  16.210  0.5364  0.6996 -0.6541
   95TMC2    C5 1450   0.211   1.825  16.276  0.2934  0.2401 -0.0950
   95TMC2    C6 1451   0.191   1.818  16.412  0.1494  0.1103  0.5612
   95TMC2     C 1452   0.282   2.184  16.205  0.0441  0.0327  1.2439
   95TMC2     O 1453   0.321   2.164  16.088  0.6921  0.2947 -0.0968
   95TMC2     H 1454   0.297   2.141  16.480  0.8596 -0.1068 -0.4311
   95TMC2    H1 1455   0.251   1.946  16.102  1.3539  1.9944 -0.5275
   95TMC2    H2 1456   0.182   1.722  16.461  3.9015 -0.2701  0.4788
   95TMC2    C7 1457   0.179   1.703  16.202  0.1136 -0.4258 -1.0605
   95TMC2    C8 1458   0.237   1.932  16.622 -0.4482  0.3706  0.0132
   95TMC2    O1 1459   0.093   1.634  16.261  0.2022  0.3252 -0.5106
   95TMC2    O2 1460   0.238   2.033  16.688 -0.0379 -0.0844 -0.8193
   95TMC2    O5 1461   0.312   1.824  16.647  0.3535  0.3683  0.7364
   95TMC2    H5 1462   0.369   1.814  16.568 -1.2884 -0.9672 -0.2940
   96MPD2     C 1463   0.333   2.698  16.163  0.2619  0.1831 -0.3526
   96MPD2    C1 1464   0.412   2.596  16.123  0.3814  0.6553  0.3636
   96MPD2    C2 1465   0.381   2.466  16.158 -0.2726 -0.5405  0.5265
   96MPD2    C3 1466   0.280   2.430  16.235  0.5893  0.5757  0.2646
   96MPD2    C4 1467   0.207   2.538  16.289  1.1712 -0.0256 -0.9332
   96MPD2    C5 1468   0.230   2.669  16.249  0.1324 -0.2524 -0.6269
   96MPD2     H 1469   0.441   2.386  16.116  0.1289  0.3899 -0.6657
   96MPD2    H1 1470   0.131   2.521  16.365  0.0576  0.2597 -1.9724
   96MPD2    H2 1471   0.348   2.800  16.131 -0.1671  0.5208  0.5363
   96MPD2    H3 1472   0.182   2.752  16.299  0.9379  0.6870 -1.4299
   96MPD2     N 1473   0.249   2.299  16.274  0.4438  0.2448  0.7889
   96MPD2    H5 1474   0.179   2.292  16.346 -0.1643 -0.9180  0.0800
   96MPD2    N1 1475   0.524   2.629  16.036  0.3881 -0.4234  0.1266
   96MPD2    H7 1476   0.548   2.726  16.018 -1.5177  0.0670  0.2473
   97MPD2     C 1477   2.132   0.030   0.770  0.6068  0.1631 -0.4979
   97MPD2    C1 1478   2.259   0.077   0.809  0.2299 -0.3031 -0.2314
   97MPD2    C2 1479   2.324   0.169   0.727  0.0943  0.1788 -0.1018
   97MPD2    C3 1480   2.267   0.211   0.610 -0.6339  0.2597 -0.1681
   97MPD2    C4 1481   2.148   0.157   0.568  0.2140 -0.5675 -0.1047
   97MPD2    C5 1482   2.079   0.068   0.649  0.6494 -0.2510 -0.0855
   97MPD2     H 1483   2.429   0.190   0.742  0.0679  0.0369  0.2767
   97MPD2    H1 1484   2.097   0.176   0.474  0.7643  0.1757 -0.2581
   97MPD2    H2 1485   2.068   4.685   0.826 -0.4366  1.7397  0.2218
   97MPD2    H3 1486   1.983   0.032   0.612  0.8780 -1.5984  0.6162
   97MPD2     N 1487   2.322   0.304   0.521 -0.2019  0.2963 -0.1419
   97MPD2    H5 1488   2.285   0.298   0.427  0.3904 -0.0677 -0.3531
   97MPD2    N1 1489   2.308   0.028   0.932 -0.4251 -0.3223  0.1848
   97MPD2    H7 1490   2.252   4.682   0.981  0.9424 -0.3910  1.6483
   98TCq2    C1 1491   2.419   0.405   0.550  0.4797 -0.5120 -0.0053
   98TCq2    O2 1492   2.476   0.428   0.656 -0.1532  0.5582  0.0021
   98TCq2    C2 1493   2.434   0.501   0.438 -0.0827 -0.6143  0.4242
   98TCq2    C3 1494   2.357   0.486   0.325 -0.2718 -0.7982 -0.0725
   98TCq2    C4 1495   2.324   0.599   0.255 -0.2537 -0.2039  0.7390
   98TCq2    C5 1496   2.364   0.722   0.288  0.2074 -0.6343 -0.4069
   98TCq2    C6 1497   2.457   0.728   0.392  0.0028  0.4329 -0.2090
   98TCq2    C7 1498   2.488   0.617   0.467 -0.3881  0.6941 -0.3611
   98TCq2    C8 1499   2.495   0.860   0.442  0.3517  0.3070 -0.0634
   98TCq2    O4 1500   2.605   0.870   0.499 -0.4594  0.2410 -0.0023
   98TCq2    C9 1501   2.245   0.590   0.126  0.4002 -0.3499 -0.1869
   98TCq2    O5 1502   2.215   0.477   0.085  0.1498  0.0779  0.2089
   98TCq2    O6 1503   2.241   0.698   0.067  0.4725 -0.0644 -0.5451
   98TCq2    H2 1504   2.334   0.388   0.284 -2.3140  0.3638 -1.6909
   98TCq2    H3 1505   2.355   0.811   0.228 -2.2414 -0.2990  0.4690
   98TCq2    H4 1506   2.547   0.628   0.557  0.4724 -2.0043 -0.6008
   99MPD2     C 1507   1.103   2.354   1.931 -0.4251 -0.6184 -0.4004
   99MPD2    C1 1508   0.967   2.371   1.904  0.0749 -0.7752 -0.3477
   99MPD2    C2 1509   0.928   2.319   1.778 -0.0505  0.0202 -0.1840
   99MPD2    C3 1510   1.011   2.251   1.691 -0.0774 -0.3009  0.2666
   99MPD2    C4 1511   1.145   2.248   1.713  0.5414  0.6936 -0.5037
   99MPD2    C5 1512   1.188   2.301   1.835  0.1830  0.7312 -0.2468
   99MPD2     H 1513   0.827   2.351   1.754 -0.3164 -0.6255  0.0644
   99MPD2    H1 1514   1.222   2.207   1.647 -1.1854  0.2333 -2.2257
   99MPD2    H2 1515   1.149   2.385   2.024 -0.4628 -1.1782 -0.1936
   99MPD2    H3 1516   1.293   2.308   1.863  0.1651 -1.5256  0.4196
   99MPD2     N 1517   0.952   2.198   1.571  0.2882  0.0265 -0.1053
   99MPD2    H5 1518   0.857   2.227   1.549  0.3694  0.2468 -0.1653
   99MPD2    N1 1519   0.869   2.431   1.990 -0.1430  0.2554  0.4514
   99MPD2    H7 1520   0.770   2.426   1.967 -0.1467  1.5581  0.1449
  100TCq2    C1 1521   0.899   2.486   2.115  0.3207  0.0974 -0.2913
  100TCq2    O2 1522   1.005   2.477   2.178 -0.2373 -0.4025 -0.6454
  100TCq2    C2 1523   0.785   2.560   2.175 -0.4172 -0.5004 -0.4272
  100TCq2    C3 1524   0.823   2.661   2.259  0.0592  1.1079 -0.5979
  100TCq2    C4 1525   0.735   2.750   2.304  0.0256 -0.4334  0.5288
  100TCq2    C5 1526   0.604   2.751   2.273  0.6816 -0.0877  0.2623
  100TCq2    C6 1527   0.563   2.640   2.200  0.2226  0.3265  0.7017
  100TCq2    C7 1528   0.649   2.543   2.149  0.1030 -0.1324  0.3712
  100TCq2    C8 1529   0.416   2.632   2.172 -0.9359  0.3693  0.4008
  100TCq2    O4 1530   0.340   2.709   2.227  0.2280 -0.3063  0.3845
  100TCq2    C9 1531   0.785   2.865   2.373  0.2724  0.1230  0.4163
  100TCq2    O5 1532   0.887   2.853   2.444  0.9642  0.1185  0.4036
  100TCq2    O6 1533   0.720   2.967   2.352 -0.3808  0.1006  0.1833
  100TCq2    H2 1534   0.927   2.685   2.278  0.0780  1.3070 -0.9563
  100TCq2    H3 1535   0.540   2.834   2.301  0.6989  0.4557 -1.3336
  100TCq2    H4 1536   0.609   2.458   2.095  0.8999  0.0853 -0.5791
  101MPD2     C 1537   1.956   3.154  12.830 -0.6659 -0.3857 -0.6020
  101MPD2    C1 1538   1.884   3.247  12.900  0.1940 -0.4028  0.2531
  101MPD2    C2 1539   1.853   3.229  13.037 -0.1723  0.1329  0.1012
  101MPD2    C3 1540   1.881   3.108  13.100 -0.1964 -0.5288 -0.7584
  101MPD2    C4 1541   1.947   3.008  13.030 -0.3906 -0.1199  0.6666
  101MPD2    C5 1542   1.980   3.039  12.894  0.1763 -0.3004  0.1508
  101MPD2     H 1543   1.816   3.312  13.097  0.8172  0.8626 -0.2945
  101MPD2    H1 1544   1.969   2.908  13.065 -1.4866 -0.8182 -0.6387
  101MPD2    H2 1545   1.993   3.163  12.729 -2.5493  3.3594 -0.9647
  101MPD2    H3 1546   2.042   2.970  12.838  2.3984 -0.2258  2.5262
  101MPD2     N 1547   1.835   3.085  13.229  0.3722 -0.3860  0.1274
  101MPD2    H5 1548   1.775   3.160  13.262 -1.2439 -1.2522 -0.8286
  101MPD2    N1 1549   1.854   3.366  12.828 -0.0631 -0.5572 -0.0792
  101MPD2    H7 1550   1.907   3.383  12.743 -0.7779  1.2672 -0.1399
  102TCq2    C1 1551   1.871   3.682  12.441 -0.3370  0.2732  0.2865
  102TCq2    O2 1552   1.962   3.609  12.425 -0.2340  0.4982  0.1944
  102TCq2    C2 1553   1.794   3.670  12.567  0.2153 -0.0335 -0.1977
  102TCq2    C3 1554   1.726   3.778  12.607  0.2409 -0.6653 -0.3806
  102TCq2    C4 1555   1.670   3.784  12.730  0.1271 -0.2672 -0.1449
  102TCq2    C5 1556   1.670   3.672  12.807  0.0136  0.7263  0.5386
  102TCq2    C6 1557   1.737   3.562  12.760 -0.3056  0.4579  0.5592
  102TCq2    C7 1558   1.807   3.556  12.639  0.3273  0.6298  0.8367
  102TCq2    C8 1559   1.760   3.458  12.862 -0.1246  0.5029 -0.2303
  102TCq2    O4 1560   1.688   3.456  12.960  0.0311  0.3901  0.4904
  102TCq2    C9 1561   1.579   3.889  12.761  0.4655  0.2584 -0.6067
  102TCq2    O5 1562   1.515   3.936  12.661  0.3728 -0.2957  0.2375
  102TCq2    O6 1563   1.545   3.901  12.882 -0.2898 -0.2068 -0.0320
  102TCq2    H2 1564   1.735   3.871  12.553  1.1338  0.7597  2.1785
  102TCq2    H3 1565   1.604   3.657  12.892 -1.2552  0.3481 -0.5111
  102TCq2    H4 1566   1.850   3.470  12.588 -0.1316  1.7907 -1.4942
  103TMC2    C1 1567   0.078   3.318  12.848  0.2029  0.2874 -0.1210
  103TMC2    C2 1568   0.196   3.287  12.902  0.0016 -0.3076  0.0146
  103TMC2    C3 1569   0.231   3.341  13.023 -0.0386  0.6494  0.5113
  103TMC2    C4 1570   4.720   3.411  12.906 -0.3889 -0.3558  0.5637
  103TMC2    C5 1571   0.024   3.454  13.032 -0.3240 -0.5202  0.0101
  103TMC2    C6 1572   0.143   3.420  13.091 -0.0949 -0.2478 -0.1362
  103TMC2     C 1573   0.023   3.220  12.757 -0.0961  0.1945  0.4780
  103TMC2     O 1574   4.647   3.261  12.703  0.4608 -0.3018 -0.7077
  103TMC2     H 1575   0.272   3.220  12.862 -1.9003 -1.3769 -1.7830
  103TMC2    H1 1576   4.630   3.437  12.852 -0.1340 -3.0311 -1.1684
  103TMC2    H2 1577   0.165   3.452  13.192  0.2187  0.8690 -0.5532
  103TMC2    C7 1578   4.665   3.554  13.101 -0.1037  0.5563  0.2227
  103TMC2    C8 1579   0.371   3.346  13.053  0.2047 -0.5905  0.3943
  103TMC2    O1 1580   4.714   3.606  13.202 -0.0765  0.3597 -0.1537
  103TMC2    O2 1581   0.405   3.360  13.170 -0.3971  0.3008  0.0727
  103TMC2    O5 1582   0.453   3.375  12.946 -0.1455 -0.2717  0.4834
  103TMC2    H5 1583   0.415   3.364  12.856 -0.5886  0.2401  0.6122
  104MPD2     C 1584   0.061   2.852  12.761  0.1550  0.4255  0.2086
  104MPD2    C1 1585   0.020   2.975  12.714 -0.1361  0.1342 -0.4541
  104MPD2    C2 1586   4.653   2.983  12.609  0.0977 -0.2275 -0.0788
  104MPD2    C3 1587   4.600   2.873  12.553 -0.1339 -0.1868 -0.0064
  104MPD2    C4 1588   4.639   2.754  12.602 -0.4458 -0.6490 -0.3082
  104MPD2    C5 1589   0.008   2.744  12.710 -0.3354 -0.3988  0.0129
  104MPD2     H 1590   4.639   3.077  12.557  2.0290 -0.2262 -0.5877
  104MPD2    H1 1591   4.592   2.662  12.569 -1.4480 -0.1985 -0.1293
  104MPD2    H2 1592   0.140   2.848  12.836 -0.2259  1.7785  0.6917
  104MPD2    H3 1593   0.020   2.646  12.754  1.5059  0.0178  0.4206
  104MPD2     N 1594   4.525   2.877  12.430  0.4361 -0.2791  0.1439
  104MPD2    H5 1595   4.514   2.971  12.394 -0.6400  0.7398  3.1649
  104MPD2    N1 1596   0.066   3.091  12.776  0.3014 -0.1641  0.5433
  104MPD2    H7 1597   0.134   3.067  12.848 -0.4732 -1.8253  0.7207
  105MPD2     C 1598   1.435   2.540   0.262 -0.5574  1.2965 -1.0089
  105MPD2    C1 1599   1.398   2.663   0.216 -0.0714  0.5821 -0.1526
  105MPD2    C2 1600   1.319   2.738   0.298  0.3604 -0.8379  0.2754
  105MPD2    C3 1601   1.276   2.685   0.417  0.2775  0.0182 -0.6669
  105MPD2    C4 1602   1.319   2.556   0.463 -0.3321  0.5767  0.3388
  105MPD2    C5 1603   1.394   2.490   0.381 -0.5226 -0.5471  0.0255
  105MPD2     H 1604   1.287   2.838   0.273  1.9721 -0.2578  0.5038
  105MPD2    H1 1605   1.284   2.516   0.557 -0.3860  0.6187  0.3363
  105MPD2    H2 1606   1.476   2.473   0.188 -0.7139 -0.4619  0.5083
  105MPD2    H3 1607   1.409   2.384   0.398  0.1158 -0.6049 -0.9035
  105MPD2     N 1608   1.190   2.766   0.494 -0.0777 -0.2478 -0.1410
  105MPD2    H5 1609   1.170   2.860   0.462 -2.3960 -0.6715  0.0788
  105MPD2    N1 1610   1.438   2.704   0.089 -0.1049 -0.4203 -0.5904
  105MPD2    H7 1611   1.395   2.790   0.056 -1.7437 -0.6261  1.0048
  106TCq2    C1 1612   1.131   2.726   0.619 -0.7961 -0.3314  0.0054
  106TCq2    O2 1613   1.122   2.618   0.672 -0.0043  0.1794 -0.0837
  106TCq2    C2 1614   1.032   2.829   0.666  0.2171 -0.5207 -0.3873
  106TCq2    C3 1615   1.045   2.961   0.641  0.3357  0.0954 -0.1310
  106TCq2    C4 1616   0.996   3.057   0.726  0.2303 -0.6975 -0.8396
  106TCq2    C5 1617   0.921   3.016   0.839 -0.8070  0.2750 -0.3437
  106TCq2    C6 1618   0.906   2.877   0.858  0.3900 -0.3171  0.6546
  106TCq2    C7 1619   0.970   2.784   0.782 -0.3160 -0.1268  0.9305
  106TCq2    C8 1620   0.832   2.822   0.965  0.3580  0.7827 -0.5993
  106TCq2    O4 1621   0.778   2.717   0.942 -0.4848 -0.6287  0.9657
  106TCq2    C9 1622   1.011   3.194   0.694 -0.1400  0.2464  0.3062
  106TCq2    O5 1623   1.039   3.233   0.576  0.2645  0.0114  0.1438
  106TCq2    O6 1624   0.948   3.271   0.772  0.3942  0.5185 -0.1764
  106TCq2    H2 1625   1.102   2.989   0.553  0.6447 -2.3604 -0.7200
  106TCq2    H3 1626   0.868   3.086   0.903 -0.0479  1.2543 -0.7832
  106TCq2    H4 1627   0.948   2.680   0.801 -0.2266 -0.4282 -0.6148
  107TMC2    C1 1628   2.189   1.497  11.976 -0.4348  0.4809  0.5977
  107TMC2    C2 1629   2.153   1.513  11.847 -0.9918  0.0941  0.1346
  107TMC2    C3 1630   2.194   1.427  11.749 -0.2889 -0.5293  0.2738
  107TMC2    C4 1631   2.272   1.401  12.016  0.2827 -0.6744 -0.3728
  107TMC2    C5 1632   2.308   1.307  11.918  0.5840  0.3035 -0.0007
  107TMC2    C6 1633   2.264   1.315  11.786  0.2418 -0.7231  0.4172
  107TMC2     C 1634   2.114   1.575  12.073 -0.3557  0.5778 -0.6821
  107TMC2     O 1635   2.001   1.608  12.041  0.1855 -0.2421  0.0905
  107TMC2     H 1636   2.093   1.600  11.822  1.0108  1.5066  0.2340
  107TMC2    H1 1637   2.305   1.377  12.116  0.5395  0.6513 -0.1290
  107TMC2    H2 1638   2.298   1.239  11.717  1.2029 -1.8733  2.1827
  107TMC2    C7 1639   2.332   1.168  11.968  0.0190  0.1548  0.0496
  107TMC2    C8 1640   2.150   1.454  11.612  0.7846  0.3432 -0.3609
  107TMC2    O1 1641   2.340   1.165  12.090  0.3648  0.1898 -0.2599
  107TMC2    O2 1642   2.064   1.537  11.586 -0.2466  0.3217 -0.2908
  107TMC2    O5 1643   2.270   1.448  11.548  0.0417 -0.6070 -0.4859
  107TMC2    H5 1644   2.341   1.402  11.597 -0.4440 -0.8983 -0.0525
  108MPD2     C 1645   2.243   1.745  12.352  0.0879  0.0343 -0.2442
  108MPD2    C1 1646   2.146   1.694  12.277  0.1907 -0.3067 -0.1368
  108MPD2    C2 1647   2.013   1.718  12.308 -0.8607 -0.4091  0.0450
  108MPD2    C3 1648   1.979   1.803  12.415 -0.7010  0.1181 -0.6322
  108MPD2    C4 1649   2.075   1.848  12.498 -0.1648 -0.1081 -0.3020
  108MPD2    C5 1650   2.206   1.823  12.460  0.1718 -0.4327 -0.7566
  108MPD2     H 1651   1.938   1.665  12.251  2.1288 -1.7498 -2.6048
  108MPD2    H1 1652   2.048   1.906  12.586  1.8661 -1.7599  1.4255
  108MPD2    H2 1653   2.345   1.723  12.323  0.0479 -1.9069  1.1087
  108MPD2    H3 1654   2.287   1.866  12.518 -1.4299 -1.0489  1.9341
  108MPD2     N 1655   1.848   1.845  12.438 -0.3327 -0.0337  0.8437
  108MPD2    H5 1656   1.835   1.911  12.514  0.8200 -0.9746  1.8467
  108MPD2    N1 1657   2.194   1.616  12.169 -0.0098 -0.4027 -0.1586
  108MPD2    H7 1658   2.292   1.589  12.167  0.7661  2.6139 -2.2579
  109MPD2     C 1659   3.581   4.120   0.967  0.0097 -0.3784  0.0640
  109MPD2    C1 1660   3.541   4.142   1.091  0.7290  0.0749 -0.1882
  109MPD2    C2 1661   3.516   4.270   1.133 -0.1307 -0.1716  0.1288
  109MPD2    C3 1662   3.543   4.378   1.054  0.1177  0.2178 -0.3358
  109MPD2    C4 1663   3.598   4.355   0.928  0.4162 -0.1079  0.0449
  109MPD2    C5 1664   3.609   4.223   0.890 -0.2153 -0.0270 -0.7906
  109MPD2     H 1665   3.475   4.293   1.231 -1.4881 -0.4549 -0.3643
  109MPD2    H1 1666   3.626   4.427   0.852  1.6384 -0.3585  0.2647
  109MPD2    H2 1667   3.609   4.023   0.929 -0.0263 -0.0485 -0.7888
  109MPD2    H3 1668   3.630   4.205   0.786  0.1103  0.6770 -0.8507
  109MPD2     N 1669   3.519   4.512   1.105 -0.0986 -0.0842  0.1862
  109MPD2    H5 1670   3.497   4.521   1.204  1.0235  2.8887  0.1819
  109MPD2    N1 1671   3.519   4.021   1.166 -0.3710 -0.5166 -0.3921
  109MPD2    H7 1672   3.562   3.944   1.117  1.0715 -1.7065  2.7302
  110TCq2    C1 1673   3.539   4.629   1.026  0.4250 -0.2153  0.3205
  110TCq2    O2 1674   3.566   4.634   0.905  0.2605  0.0532  0.0864
  110TCq2    C2 1675   3.524   0.027   1.106 -0.1296 -0.1134 -0.7899
  110TCq2    C3 1676   3.602   0.138   1.073 -0.0083 -0.5229 -0.6448
  110TCq2    C4 1677   3.562   0.261   1.115  0.0257  0.7959  0.1776
  110TCq2    C5 1678   3.450   0.275   1.199 -0.0204  0.1495  0.4308
  110TCq2    C6 1679   3.386   0.168   1.235 -0.0276  0.0671  0.1830
  110TCq2    C7 1680   3.413   0.040   1.182 -0.0785 -0.2991 -0.1534
  110TCq2    C8 1681   3.263   0.180   1.312 -0.8456 -0.5554  0.2535
  110TCq2    O4 1682   3.204   0.072   1.326  0.6840  0.1440  0.5293
  110TCq2    C9 1683   3.634   0.376   1.057 -0.5775 -0.2648  0.2196
  110TCq2    O5 1684   3.582   0.487   1.088  0.0290  0.6881 -0.0296
  110TCq2    O6 1685   3.731   0.351   0.984  0.3398 -0.3742 -0.5549
  110TCq2    H2 1686   3.685   0.135   1.004  2.4240  2.4440  2.1826
  110TCq2    H3 1687   3.426   0.374   1.237  2.4690  0.8801  0.1401
  110TCq2    H4 1688   3.355   4.674   1.206 -0.1914 -0.1175  0.2490
  111TMC2    C1 1689   1.681   3.363  11.232  0.6357 -0.2023  0.1376
  111TMC2    C2 1690   1.586   3.302  11.308 -0.5916  0.1541  0.4607
  111TMC2    C3 1691   1.621   3.194  11.387 -0.2406 -0.5431 -0.1707
  111TMC2    C4 1692   1.804   3.307  11.221  0.1124  0.0481 -0.2768
  111TMC2    C5 1693   1.830   3.195  11.296 -0.2420 -0.0737 -0.8560
  111TMC2    C6 1694   1.746   3.140  11.383 -0.0413  0.4768  0.2319
  111TMC2     C 1695   1.669   3.501  11.193 -0.3712  0.5319 -0.0281
  111TMC2     O 1696   1.732   3.524  11.091 -0.3095  0.0102  0.1021
  111TMC2     H 1697   1.496   3.358  11.331 -0.4540  0.1663  0.9814
  111TMC2    H1 1698   1.884   3.362  11.174  0.0351  0.0232 -0.4379
  111TMC2    H2 1699   1.764   3.057  11.450 -0.1090  1.0737  0.9827
  111TMC2    C7 1700   1.966   3.194  11.341 -0.1027  0.9363 -0.3765
  111TMC2    C8 1701   1.513   3.130  11.471 -1.0082 -0.7966 -0.4675
  111TMC2    O1 1702   1.986   3.160  11.457  0.6406 -0.2414 -0.1347
  111TMC2    O2 1703   1.526   3.049  11.563 -0.2725 -0.6521  0.7059
  111TMC2    O5 1704   1.398   3.180  11.427 -0.4892 -0.0742 -0.1290
  111TMC2    H5 1705   1.395   3.217  11.336  1.3160 -0.2876 -0.2861
  112MPD2     C 1706   1.622   3.992  11.239 -0.1179 -0.0836 -0.1374
  112MPD2    C1 1707   1.625   3.912  11.123 -0.3362 -0.0654  0.2149
  112MPD2    C2 1708   1.615   3.778  11.139 -0.1019 -0.1022  0.5308
  112MPD2    C3 1709   1.606   3.722  11.267 -0.0570  0.1553 -0.8796
  112MPD2    C4 1710   1.587   3.801  11.374 -0.3780  0.1881  0.3354
  112MPD2    C5 1711   1.604   3.941  11.363  0.9536 -0.7364 -0.0786
  112MPD2     H 1712   1.602   3.715  11.052  0.5193  0.9106 -0.2939
  112MPD2    H1 1713   1.569   3.753  11.470  0.8008 -3.6062 -1.3411
  112MPD2    H2 1714   1.612   4.100  11.236  1.7465  0.0685 -1.0109
  112MPD2    H3 1715   1.603   4.004  11.451  0.6152 -1.2161  0.2550
  112MPD2     N 1716   1.610   3.584  11.286 -0.1084 -0.1213 -0.3696
  112MPD2    H5 1717   1.600   3.546  11.380 -0.0353 -0.2284 -0.4046
  112MPD2    N1 1718   1.634   3.962  10.988  0.4083 -0.1416  0.4876
  112MPD2    H7 1719   1.641   3.892  10.914 -0.9549 -0.2109  0.4257
  113MPD2     C 1720   0.494   2.231   1.340  0.1154  0.2542 -0.4250
  113MPD2    C1 1721   0.399   2.325   1.363 -0.3520  0.5419 -0.6336
  113MPD2    C2 1722   0.296   2.334   1.273 -0.7220 -0.1363 -0.7706
  113MPD2    C3 1723   0.272   2.238   1.171  0.0387  0.6110  0.6048
  113MPD2    C4 1724   0.367   2.147   1.161 -0.1268 -0.2422 -0.1526
  113MPD2    C5 1725   0.474   2.140   1.237  0.2000 -0.2399 -0.3518
  113MPD2     H 1726   0.231   2.419   1.289 -0.1412  0.1378  0.1111
  113MPD2    H1 1727   0.367   2.070   1.085 -0.8188 -2.5428  2.1547
  113MPD2    H2 1728   0.591   2.233   1.388 -0.8467  1.2881  1.4837
  113MPD2    H3 1729   0.554   2.074   1.204  0.6784  0.3778 -0.4363
  113MPD2     N 1730   0.157   2.234   1.082  0.5109 -0.5157 -0.4331
  113MPD2    H5 1731   0.161   2.157   1.017  4.2662 -0.4790 -0.2540
  113MPD2    N1 1732   0.421   2.433   1.445 -0.1147  0.0586  0.2330
  113MPD2    H7 1733   0.353   2.507   1.438  1.2062  1.3529  0.9906
  114TCq2    C1 1734   0.050   2.317   1.094  0.1381  0.3149  0.7565
  114TCq2    O2 1735   0.032   2.415   1.167 -0.1200 -0.0152  0.0724
  114TCq2    C2 1736   4.662   2.282   1.006 -0.6263 -0.5576 -0.3040
  114TCq2    C3 1737   4.591   2.394   0.969 -0.2118  0.2346  0.6270
  114TCq2    C4 1738   4.478   2.374   0.888 -0.1303 -0.2544  0.2461
  114TCq2    C5 1739   4.447   2.252   0.852 -0.1982  0.6892 -0.5431
  114TCq2    C6 1740   4.539   2.150   0.872 -1.1032 -0.1942  0.7545
  114TCq2    C7 1741   4.653   2.160   0.945 -0.2738 -0.5317 -0.1287
  114TCq2    C8 1742   4.477   2.021   0.870 -0.4446 -0.3329  0.6008
  114TCq2    O4 1743   4.384   2.006   0.792  0.4753 -0.2355  0.0231
  114TCq2    C9 1744   4.397   2.486   0.844  0.1738  0.3304 -0.1179
  114TCq2    O5 1745   4.316   2.465   0.749  0.2835  0.4287  0.8526
  114TCq2    O6 1746   4.421   2.596   0.893  0.4400 -0.5189 -0.2735
  114TCq2    H2 1747   4.623   2.490   1.006 -0.5311  0.6471 -0.1499
  114TCq2    H3 1748   4.357   2.233   0.795 -0.0020  0.4558 -0.7700
  114TCq2    H4 1749   4.699   2.069   0.981 -0.3089 -0.4892  0.0251
  115TMC2    C1 1750   0.581   4.376   0.235  0.2273 -0.2261 -0.2646
  115TMC2    C2 1751   0.711   4.337   0.214 -0.8324  0.4565  0.1952
  115TMC2    C3 1752   0.804   4.433   0.221 -0.0240  0.5184  0.1216
  115TMC2    C4 1753   0.542   4.510   0.240 -0.5283 -0.1502 -0.2560
  115TMC2    C5 1754   0.642   4.598   0.228  0.7727 -0.5257  0.1001
  115TMC2    C6 1755   0.776   4.565   0.227 -0.8097  0.4165 -0.1143
  115TMC2     C 1756   0.487   4.281   0.188  0.5491  0.3035 -0.3247
  115TMC2     O 1757   0.531   4.184   0.128 -0.1696  0.2940  0.4229
  115TMC2     H 1758   0.728   4.230   0.202 -1.5147  0.4841 -1.1006
  115TMC2    H1 1759   0.435   4.525   0.231 -0.5893 -0.3151  0.1935
  115TMC2    H2 1760   0.856   4.637   0.215 -0.3241  0.0036  0.6427
  115TMC2    C7 1761   0.606   0.014   0.203  0.2777 -0.4964 -0.2870
  115TMC2    C8 1762   0.933   4.398   0.180  0.2355  0.2945  1.0699
  115TMC2    O1 1763   0.493   0.050   0.237 -0.4060 -0.4773 -0.2456
  115TMC2    O2 1764   0.948   4.301   0.108 -0.4801 -0.0632  0.8259
  115TMC2    O5 1765   1.027   4.466   0.250  0.3800 -0.2420  0.4516
  115TMC2    H5 1766   0.992   4.522   0.323  0.5793 -1.6953  1.6665
  116MPD2     C 1767   0.035   4.059   0.146  0.2808 -0.3848  0.6671
  116MPD2    C1 1768   0.144   4.056   0.061 -0.2248  1.0405  0.1724
  116MPD2    C2 1769   0.249   4.140   0.094  0.3553 -0.5330  0.3293
  116MPD2    C3 1770   0.254   4.210   0.214 -0.0873  0.1920 -0.6523
  116MPD2    C4 1771   0.146   4.205   0.300  0.6916  0.2196  0.6567
  116MPD2    C5 1772   0.035   4.126   0.264 -0.2583 -0.0861 -0.2056
  116MPD2     H 1773   0.329   4.137   0.021 -0.9945  1.1184 -1.2130
  116MPD2    H1 1774   0.139   4.250   0.399 -1.3591  1.0589  0.1359
  116MPD2    H2 1775   4.670   3.998   0.128  0.3614  0.2411 -1.7909
  116MPD2    H3 1776   4.672   4.106   0.327  1.0561  1.3501  2.0668
  116MPD2     N 1777   0.364   4.287   0.249 -0.0879  0.0453 -0.5413
  116MPD2    H5 1778   0.352   4.340   0.334 -0.1448  1.6058 -1.5141
  116MPD2    N1 1779   0.143   3.967  17.648  0.2737 -0.6396 -0.0741
  116MPD2    H7 1780   0.053   3.932  17.618  0.0439 -0.2750  0.1870
  117TMC2    C1 1781   3.550   1.158  14.101  0.3218 -0.3412  0.2361
  117TMC2    C2 1782   3.639   1.053  14.107  0.0972 -0.2098 -0.2791
  117TMC2    C3 1783   3.753   1.064  14.193  0.5380  0.3043 -0.3487
  117TMC2    C4 1784   3.584   1.277  14.155  1.4723  0.2913 -0.4238
  117TMC2    C5 1785   3.703   1.296  14.210 -0.4145 -0.7958  0.4194
  117TMC2    C6 1786   3.786   1.197  14.242 -0.5769 -0.5846  0.0591
  117TMC2     C 1787   3.451   1.156  13.994  0.0345  0.7628  0.5696
  117TMC2     O 1788   3.391   1.054  13.961 -0.3078 -0.2021  0.1670
  117TMC2     H 1789   3.606   0.954  14.077 -0.7879 -0.3021  0.9982
  117TMC2    H1 1790   3.514   1.360  14.158  1.8923  0.6418 -0.4144
  117TMC2    H2 1791   3.877   1.209  14.300 -0.5114 -0.6323 -0.0346
  117TMC2    C7 1792   3.740   1.429  14.248 -0.0407 -0.7262  0.3534
  117TMC2    C8 1793   3.848   0.969  14.199 -0.5204  0.8485  0.1608
  117TMC2    O1 1794   3.702   1.516  14.172  0.6386  0.4664 -0.4559
  117TMC2    O2 1795   3.961   0.989  14.251 -0.0543 -0.0607 -0.3408
  117TMC2    O5 1796   3.786   0.850  14.160  0.2519 -0.0382  0.0438
  117TMC2    H5 1797   3.688   0.853  14.163  0.2079  0.9701 -2.4021
  118MPD2     C 1798   4.029   1.516  14.451  0.1319 -0.4573 -0.6167
  118MPD2    C1 1799   3.918   1.541  14.366  0.0296 -0.3762 -0.6291
  118MPD2    C2 1800   3.909   1.658  14.299  0.5727  0.3238  0.5338
  118MPD2    C3 1801   4.005   1.758  14.307 -0.6280 -0.8000  0.0386
  118MPD2    C4 1802   4.110   1.737  14.395  0.0629  0.8501 -0.2736
  118MPD2    C5 1803   4.129   1.615  14.455  0.4148  0.0913  0.5877
  118MPD2     H 1804   3.838   1.671  14.217 -0.6514 -0.1202  1.5231
  118MPD2    H1 1805   4.192   1.805  14.415 -0.0063  0.8794 -0.0924
  118MPD2    H2 1806   4.036   1.427  14.512  0.6323 -0.0880 -0.1340
  118MPD2    H3 1807   4.219   1.607  14.514  1.1957 -0.6728 -0.7137
  118MPD2     N 1808   4.002   1.879  14.234 -0.2954 -0.1504 -0.1015
  118MPD2    H5 1809   4.089   1.931  14.245  0.4011 -1.3413 -0.0429
  118MPD2    N1 1810   3.834   1.434  14.347 -0.5144 -0.7188 -0.0476
  118MPD2    H7 1811   3.854   1.355  14.407  2.9915 -1.0833 -1.6943
  119MPD2     C 1812   2.750   2.735  14.244  0.3350 -0.5410 -0.2798
  119MPD2    C1 1813   2.622   2.749  14.283 -0.3597 -0.3062  0.3331
  119MPD2    C2 1814   2.533   2.780  14.181 -0.2300 -0.0978 -0.3604
  119MPD2    C3 1815   2.567   2.796  14.046  0.1607  0.1496  0.8539
  119MPD2    C4 1816   2.700   2.792  14.012 -0.7160 -0.8990 -0.2055
  119MPD2    C5 1817   2.792   2.763  14.115 -0.1956 -0.4119  0.5536
  119MPD2     H 1818   2.432   2.807  14.209  0.0913  1.3012 -0.5668
  119MPD2    H1 1819   2.741   2.789  13.911 -0.3806  0.1034 -0.1073
  119MPD2    H2 1820   2.834   2.707  14.307 -0.6817  1.7954  2.0718
  119MPD2    H3 1821   2.897   2.749  14.089 -0.6544  0.5535 -1.8148
  119MPD2     N 1822   2.474   2.797  13.944 -0.9712 -0.1024  0.0850
  119MPD2    H5 1823   2.509   2.806  13.849 -1.3299  0.8709  0.0457
  119MPD2    N1 1824   2.589   2.744  14.423 -0.3557 -0.7844  0.8310
  119MPD2    H7 1825   2.663   2.755  14.492 -0.9438 -0.2535  1.3826
  120TCq2    C1 1826   2.339   2.768  13.958  0.1200  0.0167  0.3177
  120TCq2    O2 1827   2.281   2.721  14.055 -0.5884 -0.0359 -0.7740
  120TCq2    C2 1828   2.263   2.799  13.837 -0.5564 -0.0062  0.1192
  120TCq2    C3 1829   2.328   2.844  13.722  0.5396  0.5750  0.2816
  120TCq2    C4 1830   2.259   2.854  13.607 -0.0551  0.3441  0.2930
  120TCq2    C5 1831   2.134   2.813  13.591 -0.1325  0.1365 -0.4399
  120TCq2    C6 1832   2.071   2.773  13.706 -0.0619 -0.6230 -0.3026
  120TCq2    C7 1833   2.134   2.769  13.828 -0.2540 -0.7948  0.4285
  120TCq2    C8 1834   1.937   2.729  13.693  0.2051  0.3518 -0.3807
  120TCq2    O4 1835   1.876   2.748  13.585  0.0948 -0.0990 -0.4169
  120TCq2    C9 1836   2.343   2.878  13.492  0.1273 -0.7471 -0.2877
  120TCq2    O5 1837   2.290   2.920  13.389  0.0228  0.1672 -0.1991
  120TCq2    O6 1838   2.462   2.839  13.489 -0.7332  0.5439  0.2846
  120TCq2    H2 1839   2.432   2.874  13.727  0.3277  1.5970 -1.1949
  120TCq2    H3 1840   2.089   2.811  13.492 -0.9467  2.1983 -0.1097
  120TCq2    H4 1841   2.086   2.750  13.924  1.1214  0.3718  1.3560
  121TMC2    C1 1842   4.043   4.529  13.709  0.5839  0.3060  0.4345
  121TMC2    C2 1843   4.051   4.531  13.850 -0.4733 -0.1345 -0.1248
  121TMC2    C3 1844   3.949   4.480  13.924  0.2247 -0.0743 -0.1271
  121TMC2    C4 1845   3.928   4.487  13.647  0.9471 -0.0094 -0.2944
  121TMC2    C5 1846   3.833   4.440  13.729  0.3091  0.5699 -0.0427
  121TMC2    C6 1847   3.835   4.438  13.864 -0.3655 -1.0424 -0.0223
  121TMC2     C 1848   4.120   4.642  13.653  0.1105 -0.0372 -0.0040
  121TMC2     O 1849   4.164   4.720  13.734 -0.4012  0.0947 -0.2828
  121TMC2     H 1850   4.145   4.557  13.896 -0.7757 -1.8274  1.4766
  121TMC2    H1 1851   3.910   4.486  13.540  0.3070 -1.4518 -0.1690
  121TMC2    H2 1852   3.760   4.391  13.926 -0.2179  0.1188  1.0402
  121TMC2    C7 1853   3.711   4.399  13.662  0.2238  0.3407 -0.5664
  121TMC2    C8 1854   3.978   4.460  14.065  0.6226  0.1407  0.8198
  121TMC2    O1 1855   3.733   4.350  13.556 -0.1117 -0.0495  0.1775
  121TMC2    O2 1856   4.063   4.519  14.130  0.4666  0.0668 -0.1818
  121TMC2    O5 1857   3.925   4.342  14.101  0.4060  0.0068  0.4448
  121TMC2    H5 1858   3.866   4.306  14.032  1.2061  0.1545 -0.3205
  122MPD2     C 1859   4.227   0.125  13.487  0.1378 -0.1737  0.3785
  122MPD2    C1 1860   4.195   4.722  13.433 -0.2429 -0.1985  0.5299
  122MPD2    C2 1861   4.207   4.698  13.297 -0.7372  0.0924 -0.1134
  122MPD2    C3 1862   4.258   0.069  13.208  0.0781 -0.7131  0.5738
  122MPD2    C4 1863   4.306   0.187  13.267 -0.3321 -0.1088  0.1916
  122MPD2    C5 1864   4.286   0.210  13.402 -0.1246  0.2897 -0.0526
  122MPD2     H 1865   4.177   4.603  13.253 -2.2301  0.5624 -0.1250
  122MPD2    H1 1866   4.367   0.255  13.209 -2.1270  0.8691 -0.5733
  122MPD2    H2 1867   4.215   0.158  13.590  1.4893  1.7757 -0.0983
  122MPD2    H3 1868   4.320   0.300  13.454 -2.3841  0.4803  1.0974
  122MPD2     N 1869   4.255   0.065  13.071 -0.0066 -0.5341 -0.4338
  122MPD2    H5 1870   4.292   0.146  13.023 -0.5398  0.0132  0.0677
  122MPD2    N1 1871   4.140   4.626  13.520 -0.7151  0.1770 -0.2280
  122MPD2    H7 1872   4.107   4.541  13.477  0.8639  0.3120 -1.7138
  123MPD2     C 1873   1.668   1.651   8.954  0.7130  0.2356  0.3832
  123MPD2    C1 1874   1.706   1.703   9.078  0.7857  0.4084 -0.4579
  123MPD2    C2 1875   1.840   1.743   9.092  0.4811  0.5746  0.0046
  123MPD2    C3 1876   1.927   1.732   8.984  0.5460 -0.5468 -0.0333
  123MPD2    C4 1877   1.884   1.668   8.874  0.0475  0.5120  0.5454
  123MPD2    C5 1878   1.757   1.622   8.863  0.1023 -0.5908 -0.1676
  123MPD2     H 1879   1.881   1.788   9.182 -0.6021  1.3516  0.1155
  123MPD2    H1 1880   1.950   1.637   8.794  1.9011 -2.5774  3.2483
  123MPD2    H2 1881   1.564   1.635   8.931  1.3241 -2.0380 -0.8243
  123MPD2    H3 1882   1.724   1.569   8.774 -0.2399 -1.1090  0.2690
  123MPD2     N 1883   2.061   1.774   9.006  0.1208 -0.6962  0.4191
  123MPD2    H5 1884   2.077   1.819   9.096 -0.1790 -1.7970  1.0344
  123MPD2    N1 1885   1.606   1.715   9.182  0.0910 -0.2396  0.3802
  123MPD2    H7 1886   1.525   1.658   9.160  1.1058 -1.3938 -0.3989
  124TCq2    C1 1887   2.170   1.765   8.919 -0.6674 -0.5956 -0.1692
  124TCq2    O2 1888   2.166   1.727   8.801  0.0555  0.0163  0.1200
  124TCq2    C2 1889   2.302   1.799   8.974  0.2118  0.1190 -0.7672
  124TCq2    C3 1890   2.399   1.833   8.884  0.5135  0.0880 -0.0071
  124TCq2    C4 1891   2.509   1.905   8.938 -0.4222  0.9875 -0.3747
  124TCq2    C5 1892   2.515   1.922   9.073  0.8400  0.6829  0.1335
  124TCq2    C6 1893   2.416   1.881   9.161 -0.1004 -0.0057 -0.2976
  124TCq2    C7 1894   2.308   1.815   9.111  0.5482 -0.1340  0.3241
  124TCq2    C8 1895   2.443   1.883   9.298 -0.5312 -0.4418  0.3358
  124TCq2    O4 1896   2.564   1.893   9.326 -0.1068  0.6120 -1.0036
  124TCq2    C9 1897   2.614   1.959   8.847  0.2481 -0.7960 -0.8854
  124TCq2    O5 1898   2.627   1.894   8.742  0.1429 -0.6287 -0.2367
  124TCq2    O6 1899   2.707   2.031   8.899 -0.2666  0.4794  0.1722
  124TCq2    H2 1900   2.383   1.826   8.777 -1.0790  1.6382  0.1352
  124TCq2    H3 1901   2.614   1.955   9.100  0.6708 -0.5622  2.2706
  124TCq2    H4 1902   2.228   1.777   9.174 -1.5718  2.0861 -1.0395
  125TMC2    C1 1903   1.695   2.964   9.384  0.4131 -0.6252  0.0058
  125TMC2    C2 1904   1.751   3.087   9.383  0.0598 -0.1787 -0.1807
  125TMC2    C3 1905   1.885   3.093   9.356  0.4708  0.7124 -0.1568
  125TMC2    C4 1906   1.767   2.847   9.351  0.4756 -0.1073  1.2305
  125TMC2    C5 1907   1.899   2.856   9.321  0.4673 -0.3851 -0.0723
  125TMC2    C6 1908   1.963   2.978   9.326 -0.4858 -0.5517 -0.8130
  125TMC2     C 1909   1.555   2.954   9.410 -0.1823 -0.5537  0.2589
  125TMC2     O 1910   1.511   2.842   9.398 -0.0682 -0.2438 -0.0257
  125TMC2     H 1911   1.703   3.180   9.413  1.4896  0.6924 -0.5923
  125TMC2    H1 1912   1.716   2.752   9.341 -0.5379  0.3152  2.4024
  125TMC2    H2 1913   2.067   2.988   9.299 -0.3392  1.6022  0.4998
  125TMC2    C7 1914   1.972   2.725   9.317  0.5669  0.2064 -0.7226
  125TMC2    C8 1915   1.946   3.227   9.350  0.6767 -0.1904  0.3656
  125TMC2    O1 1916   1.905   2.626   9.343  0.3389 -0.2951 -0.0738
  125TMC2    O2 1917   2.045   3.251   9.282  0.4956  0.2070  0.1149
  125TMC2    O5 1918   1.892   3.304   9.445 -0.5349  0.1665  0.3031
  125TMC2    H5 1919   1.829   3.266   9.509 -1.8197 -0.8689 -1.5856
  126MPD1     C 1920   1.074   3.161   9.454  0.4184 -0.5435  0.8767
  126MPD1    C1 1921   1.172   3.262   9.447  0.5376  0.4934 -1.1727
  126MPD1    C2 1922   1.304   3.228   9.447  0.6212 -0.2377  0.6824
  126MPD1    C3 1923   1.352   3.102   9.457 -0.0724  0.3110 -0.3826
  126MPD1    C4 1924   1.256   3.003   9.470 -0.0080  0.3982 -0.2497
  126MPD1    C5 1925   1.121   3.035   9.466  0.3791 -0.4480  0.2099
  126MPD1     H 1926   1.373   3.311   9.437 -1.9028  1.8770  0.5348
  126MPD1    H1 1927   1.281   2.905   9.509 -0.6021  0.0549 -0.7278
  126MPD1    H2 1928   0.971   3.191   9.466  1.1594  1.4063  2.4102
  126MPD1    H3 1929   1.044   2.961   9.486 -0.6934  0.5322 -0.2965
  126MPD1     N 1930   1.496   3.077   9.427 -0.1299  0.0401  0.8133
  126MPD1    H5 1931   1.544   3.157   9.388 -0.4481 -0.6757 -1.0608
  126MPD1    N1 1932   1.127   3.391   9.429 -0.8727 -0.4375  0.0239
  126MPD1    H6 1933   1.032   3.415   9.456 -0.8672 -0.8200  0.3823
  126MPD1    H7 1934   1.193   3.467   9.446  0.3325 -1.6330  0.7272
  127MPD2     C 1935   3.506   1.847   9.644 -0.2072  0.5983  0.2062
  127MPD2    C1 1936   3.635   1.880   9.602 -0.3556  1.0640 -0.0591
  127MPD2    C2 1937   3.680   2.010   9.621 -0.5111 -0.4796 -0.0898
  127MPD2    C3 1938   3.610   2.098   9.694  0.4197 -0.2037  0.2737
  127MPD2    C4 1939   3.481   2.067   9.728  0.0598 -0.0235  0.2844
  127MPD2    C5 1940   3.432   1.940   9.709 -0.8356  0.8982  0.3143
  127MPD2     H 1941   3.777   2.042   9.582  0.7996 -1.3375  2.4962
  127MPD2    H1 1942   3.403   2.130   9.770  1.3699  1.0250  1.1469
  127MPD2    H2 1943   3.466   1.747   9.627 -0.6016  1.0405 -1.4068
  127MPD2    H3 1944   3.332   1.919   9.744  0.5008 -3.5983  1.4181
  127MPD2     N 1945   3.671   2.223   9.734  0.3640 -0.2995  0.0922
  127MPD2    H5 1946   3.769   2.239   9.713 -0.2816  0.4532 -2.3095
  127MPD2    N1 1947   3.712   1.775   9.549 -0.2276 -0.1927 -0.0354
  127MPD2    H7 1948   3.667   1.685   9.557 -0.5145 -0.3440 -3.4319
  128TCq2    C1 1949   3.836   1.782   9.483  0.7103 -0.0102 -0.0062
  128TCq2    O2 1950   3.900   1.881   9.455  0.0967  0.3416 -0.7438
  128TCq2    C2 1951   3.894   1.656   9.438 -0.1678  0.3064  0.2175
  128TCq2    C3 1952   4.026   1.640   9.447  0.8288  0.1491 -0.0627
  128TCq2    C4 1953   4.067   1.512   9.415 -0.1730  0.4037  0.3102
  128TCq2    C5 1954   3.979   1.415   9.360  0.5521  0.2639 -0.4310
  128TCq2    C6 1955   3.854   1.452   9.339  0.2245  0.0327  0.9172
  128TCq2    C7 1956   3.803   1.569   9.388 -0.0479 -0.0031  0.3828
  128TCq2    C8 1957   3.770   1.371   9.255 -0.2986  0.5381  0.1350
  128TCq2    O4 1958   3.678   1.428   9.193 -0.4474  0.7061  0.3604
  128TCq2    C9 1959   4.209   1.480   9.404 -0.5615  0.7792  0.2983
  128TCq2    O5 1960   4.249   1.362   9.394 -0.2079  1.0428 -0.6487
  128TCq2    O6 1961   4.287   1.581   9.416  0.6139 -0.2293 -0.4712
  128TCq2    H2 1962   4.083   1.729   9.474  0.9224  0.1247 -0.1814
  128TCq2    H3 1963   4.008   1.319   9.319  0.7231 -0.0419  0.4175
  128TCq2    H4 1964   3.698   1.590   9.374  0.1209  0.5021 -0.1477
  129MPD2     C 1965   3.796   3.608   1.436 -0.0280 -0.2580 -0.2048
  129MPD2    C1 1966   3.756   3.731   1.485 -0.1981 -0.2965  0.4792
  129MPD2    C2 1967   3.814   3.842   1.439  0.2093 -0.3629 -0.2182
  129MPD2    C3 1968   3.904   3.836   1.336  0.7688  0.3777  0.1711
  129MPD2    C4 1969   3.941   3.717   1.288 -0.0270 -0.2108  0.0946
  129MPD2    C5 1970   3.895   3.601   1.346  0.0936  0.3281  0.4403
  129MPD2     H 1971   3.771   3.934   1.479 -0.1344  0.0543 -1.5644
  129MPD2    H1 1972   4.017   3.698   1.213  0.3710 -0.8992  0.6697
  129MPD2    H2 1973   3.757   3.514   1.474  0.1499 -1.0640 -2.0091
  129MPD2    H3 1974   3.925   3.502   1.312  1.8067  0.7991  0.5568
  129MPD2     N 1975   3.936   3.960   1.273  0.5246 -0.3094 -0.0565
  129MPD2    H5 1976   3.900   4.043   1.318  1.3022  1.1498 -2.1224
  129MPD2    N1 1977   3.659   3.741   1.587 -0.0126  1.0294 -0.1438
  129MPD2    H7 1978   3.644   3.835   1.623  0.6519  1.1801 -0.2430
  130TCq2    C1 1979   3.578   3.641   1.634 -0.2595 -0.4714  0.6163
  130TCq2    O2 1980   3.556   3.532   1.582 -0.8195  0.2326  0.0825
  130TCq2    C2 1981   3.506   3.668   1.753 -0.4536 -0.5735 -0.0765
  130TCq2    C3 1982   3.561   3.736   1.862  0.8075 -0.0736  0.4347
  130TCq2    C4 1983   3.510   3.717   1.988 -0.6277 -0.3722  0.2030
  130TCq2    C5 1984   3.407   3.628   2.010 -0.5079  0.4157  0.6339
  130TCq2    C6 1985   3.345   3.569   1.901  0.3381  0.1123  0.0505
  130TCq2    C7 1986   3.399   3.583   1.777 -0.5761  0.4606  0.4815
  130TCq2    C8 1987   3.237   3.469   1.915  0.2667  0.1323  0.0626
  130TCq2    O4 1988   3.201   3.406   1.815  0.0962  0.4886 -0.8918
  130TCq2    C9 1989   3.572   3.790   2.098  0.0826 -0.5164 -0.0827
  130TCq2    O5 1990   3.508   3.793   2.212  0.4374 -0.3571 -0.3253
  130TCq2    O6 1991   3.680   3.852   2.074 -0.5851 -0.2019  0.3705
  130TCq2    H2 1992   3.649   3.799   1.850 -0.1967  0.9696 -1.4779
  130TCq2    H3 1993   3.378   3.613   2.113 -0.2211 -0.0360  0.6480
  130TCq2    H4 1994   3.344   3.538   1.696 -0.0895 -0.2901  0.5662
  131MPD2     C 1995   1.520   2.303   9.982  0.3962 -0.4680  0.6872
  131MPD2    C1 1996   1.632   2.243   9.930  0.7895 -0.2057  0.3509
  131MPD2    C2 1997   1.610   2.166   9.818 -0.2327 -1.1485  0.0395
  131MPD2    C3 1998   1.481   2.116   9.783  0.3852 -0.4667 -1.5987
  131MPD2    C4 1999   1.372   2.172   9.855 -0.2183  0.3114 -0.6316
  131MPD2    C5 2000   1.390   2.276   9.944  0.6323 -0.2306  0.7871
  131MPD2     H 2001   1.698   2.138   9.760 -0.8975  0.1516 -1.6177
  131MPD2    H1 2002   1.269   2.148   9.829  0.4901 -0.4095 -2.7175
  131MPD2    H2 2003   1.531   2.386  10.051 -2.1917 -0.7896  1.4683
  131MPD2    H3 2004   1.304   2.327   9.986  0.0307  0.8990 -1.8691
  131MPD2     N 2005   1.469   2.025   9.680 -0.2493  0.6136 -0.2633
  131MPD2    H5 2006   1.557   2.002   9.635 -0.5483 -1.2184  0.0652
  131MPD2    N1 2007   1.751   2.300   9.979  0.5391 -0.5059 -0.1021
  131MPD2    H7 2008   1.745   2.382  10.039  1.7159 -1.0843  0.8169
  132TCq2    C1 2009   2.354   2.322   9.977 -0.2926 -0.4214 -0.7889
  132TCq2    O2 2010   2.361   2.215   9.917  0.2010 -0.0754  0.1184
  132TCq2    C2 2011   2.216   2.365  10.011 -0.3701 -0.3537 -0.4548
  132TCq2    C3 2012   2.202   2.473  10.090  0.2022  0.2132  0.0424
  132TCq2    C4 2013   2.070   2.511  10.113  0.5761  0.2235  0.0282
  132TCq2    C5 2014   1.958   2.443  10.069  0.1659  0.6370 -0.2251
  132TCq2    C6 2015   1.981   2.323  10.001  0.5864 -0.7355  0.0442
  132TCq2    C7 2016   2.107   2.284   9.981 -0.5644 -0.4047 -0.1867
  132TCq2    C8 2017   1.872   2.245   9.947 -0.2859 -1.2627 -0.1587
  132TCq2    O4 2018   1.893   2.133   9.902  0.1451 -0.4067  0.3424
  132TCq2    C9 2019   2.057   2.633  10.187 -0.0283  0.1727 -0.1035
  132TCq2    O5 2020   2.158   2.710  10.191  0.4955 -0.3908 -0.3732
  132TCq2    O6 2021   1.960   2.638  10.260 -0.3389  0.2592  0.2374
  132TCq2    H2 2022   2.280   2.520  10.148  1.9012 -0.1137 -1.9703
  132TCq2    H3 2023   1.863   2.494  10.081  0.8956  1.4341  2.1433
  132TCq2    H4 2024   2.123   2.202   9.912  1.1582 -0.0981 -0.1487
  133MPD2     C 2025   1.312   3.307   9.988  0.0096 -0.2493  0.1081
  133MPD2    C1 2026   1.394   3.293   9.878  0.3435  0.4630 -0.4450
  133MPD2    C2 2027   1.428   3.165   9.829  0.6184 -0.1470  0.8547
  133MPD2    C3 2028   1.385   3.056   9.901  0.3202 -0.7480 -0.3645
  133MPD2    C4 2029   1.306   3.070  10.012  0.5537  0.2796  0.2212
  133MPD2    C5 2030   1.274   3.190  10.054  0.6250  0.5235 -0.5609
  133MPD2     H 2031   1.495   3.154   9.744 -0.7438 -5.3458  0.4411
  133MPD2    H1 2032   1.268   2.986  10.068 -1.1380  1.5379  0.9588
  133MPD2    H2 2033   1.276   3.402  10.028 -0.3057 -0.8263  1.1848
  133MPD2    H3 2034   1.206   3.205  10.138 -2.5775  0.2250 -3.0725
  133MPD2     N 2035   1.428   2.927   9.868 -0.2713  0.1865  0.0614
  133MPD2    H5 2036   1.386   2.858   9.929  0.6617  0.1669  0.6829
  133MPD2    N1 2037   1.441   3.408   9.817  0.7027  0.1271  0.7484
  133MPD2    H7 2038   1.411   3.492   9.867 -0.3060 -0.7794  1.6679
  134TCq2    C1 2039   1.526   3.418   9.708  0.1970 -0.0166  1.1510
  134TCq2    O2 2040   1.581   3.332   9.643  0.0414 -0.5363 -0.0093
  134TCq2    C2 2041   1.550   3.559   9.666 -0.3175  0.0369 -1.0153
  134TCq2    C3 2042   1.463   3.651   9.716 -0.0817 -0.1966  0.1054
  134TCq2    C4 2043   1.472   3.778   9.676 -0.7646 -0.0207 -0.0811
  134TCq2    C5 2044   1.571   3.823   9.593 -0.7137 -0.4071 -0.0045
  134TCq2    C6 2045   1.652   3.731   9.541 -0.1379  0.2720  0.9387
  134TCq2    C7 2046   1.651   3.597   9.575 -0.1569 -0.0756  0.4936
  134TCq2    C8 2047   1.771   3.777   9.463  0.0229  1.0702  0.1675
  134TCq2    O4 2048   1.793   3.894   9.468  0.4186  0.4002  0.0343
  134TCq2    C9 2049   1.371   3.861   9.732  0.2664  0.0944 -0.1252
  134TCq2    O5 2050   1.400   3.983   9.718 -0.1854  0.1417  0.2625
  134TCq2    O6 2051   1.267   3.808   9.779 -0.0653 -0.1659 -0.8024
  134TCq2    H2 2052   1.386   3.630   9.789 -1.6011  1.6856 -0.9566
  134TCq2    H3 2053   1.588   3.929   9.587 -1.6336 -0.3261 -1.0994
  134TCq2    H4 2054   1.712   3.518   9.532  0.3865  0.6894 -0.1178
  135MPD2     C 2055   3.422   3.723   9.752 -0.0626 -0.5739 -0.4800
  135MPD2    C1 2056   3.468   3.708   9.625 -0.1801  0.7279 -0.0323
  135MPD2    C2 2057   3.529   3.590   9.583  0.8628  0.0966 -0.4268
  135MPD2    C3 2058   3.550   3.492   9.678 -0.4777  0.5513  0.2195
  135MPD2    C4 2059   3.507   3.504   9.805  0.6179  0.5919 -0.4628
  135MPD2    C5 2060   3.444   3.623   9.846 -0.2175 -0.3906 -0.4676
  135MPD2     H 2061   3.574   3.581   9.485  3.3574  0.7710  0.6494
  135MPD2    H1 2062   3.517   3.424   9.877 -0.0855  1.7112  0.8806
  135MPD2    H2 2063   3.352   3.798   9.789 -0.0924  0.1021 -1.9392
  135MPD2    H3 2064   3.389   3.627   9.939  1.7274 -1.1702  0.7228
  135MPD2     N 2065   3.618   3.369   9.651  0.1030 -0.0510 -0.9313
  135MPD2    H5 2066   3.648   3.316   9.733 -0.3968 -0.7788 -1.2143
  135MPD2    N1 2067   3.460   3.816   9.535  0.1171 -0.4058  1.0378
  135MPD2    H7 2068   3.493   3.806   9.440 -0.0668  0.2548  0.9076
  136TCq2    C1 2069   3.405   3.940   9.570 -0.8845 -0.1011  0.1119
  136TCq2    O2 2070   3.324   3.974   9.655 -0.3200  0.2106  0.0244
  136TCq2    C2 2071   3.435   4.058   9.482 -0.7349 -0.0784  0.5838
  136TCq2    C3 2072   3.568   4.093   9.461 -0.7539  0.5483  0.1921
  136TCq2    C4 2073   3.608   4.225   9.463  0.0704  0.6233 -0.6821
  136TCq2    C5 2074   3.511   4.324   9.480 -0.0284  0.8780 -0.1192
  136TCq2    C6 2075   3.381   4.285   9.498  0.2835  0.0959 -0.1216
  136TCq2    C7 2076   3.341   4.155   9.499 -0.5563  1.0275 -0.3470
  136TCq2    C8 2077   3.307   4.367   9.594 -0.5470  0.4183 -0.6261
  136TCq2    O4 2078   3.342   4.485   9.589  0.6370  0.0221 -0.6308
  136TCq2    C9 2079   3.750   4.261   9.451  0.1740 -0.0861  0.0114
  136TCq2    O5 2080   3.831   4.169   9.430  0.2958  0.0347  0.0621
  136TCq2    O6 2081   3.788   4.368   9.501  0.0194  0.8117 -0.3194
  136TCq2    H2 2082   3.646   4.018   9.472 -1.1599 -0.0271 -0.8862
  136TCq2    H3 2083   3.542   4.428   9.480  1.7841  0.3609  1.9039
  136TCq2    H4 2084   3.238   4.133   9.522 -0.2048  0.4351  0.6683
  137MPD2     C 2085   3.839   3.342  10.159  0.2999 -0.4356 -0.6591
  137MPD2    C1 2086   3.863   3.329  10.291  0.5627  0.6193 -0.1057
  137MPD2    C2 2087   3.842   3.431  10.375 -0.5540  0.4835  0.0827
  137MPD2    C3 2088   3.782   3.552  10.325  0.1639 -0.2015 -0.1761
  137MPD2    C4 2089   3.769   3.563  10.194 -0.2452 -0.2927  0.7987
  137MPD2    C5 2090   3.795   3.460  10.116  0.0868 -0.5517  0.0246
  137MPD2     H 2091   3.859   3.427  10.482 -0.4526  1.0767  0.0924
  137MPD2    H1 2092   3.719   3.648  10.150 -2.7397 -1.0082  2.2608
  137MPD2    H2 2093   3.840   3.260  10.088  1.0854 -0.4189 -0.6676
  137MPD2    H3 2094   3.758   3.462  10.014  0.4977 -1.4979 -0.1405
  137MPD2     N 2095   3.752   3.656  10.420  0.3821 -0.0996  0.0736
  137MPD2    H5 2096   3.791   3.640  10.512  0.7286 -0.2030 -0.0927
  137MPD2    N1 2097   3.918   3.211  10.337 -0.1400 -0.2727  0.6981
  137MPD2    H7 2098   3.901   3.130  10.278 -0.0139 -0.0054  0.2951
  138TCq2    C1 2099   3.968   3.191  10.460  1.2022  0.0211  0.1288
  138TCq2    O2 2100   4.006   3.277  10.540 -0.0624  0.1985 -0.5075
  138TCq2    C2 2101   3.978   3.054  10.500  0.2616 -0.1737 -0.4031
  138TCq2    C3 2102   4.045   3.035  10.618 -0.4811  0.4237  0.9644
  138TCq2    C4 2103   4.064   2.906  10.661 -0.5119 -0.9012 -0.3865
  138TCq2    C5 2104   4.001   2.800  10.594 -0.0907  0.5674  0.6077
  138TCq2    C6 2105   3.939   2.822  10.473  0.2417  0.0467  0.0588
  138TCq2    C7 2106   3.932   2.956  10.422 -0.4287 -0.8115 -0.1652
  138TCq2    C8 2107   3.853   2.720  10.420  0.4534 -0.0458  0.9664
  138TCq2    O4 2108   3.887   2.607  10.448  0.4637 -0.2298  0.1171
  138TCq2    C9 2109   4.111   2.875  10.791  0.2004  0.1047  0.9554
  138TCq2    O5 2110   4.160   2.976  10.849  0.1055 -0.1856  0.0493
  138TCq2    O6 2111   4.136   2.757  10.819  0.6682  0.4346  0.1558
  138TCq2    H2 2112   4.077   3.119  10.679 -0.3611  2.8322 -2.4053
  138TCq2    H3 2113   3.983   2.708  10.648 -1.4190  1.6881  2.0445
  138TCq2    H4 2114   3.883   2.976  10.328 -1.5548  2.7679  1.2162
  139TMC2    C1 2115   3.516   2.543  13.147  0.5929  0.1448  0.0564
  139TMC2    C2 2116   3.413   2.577  13.060  0.8311  0.2805 -0.2264
  139TMC2    C3 2117   3.307   2.643  13.115  0.3407 -0.4481 -0.3721
  139TMC2    C4 2118   3.522   2.578  13.280 -0.2230  0.1375  0.4711
  139TMC2    C5 2119   3.410   2.634  13.329 -1.4313 -0.1091 -0.2650
  139TMC2    C6 2120   3.303   2.670  13.251 -0.0938 -0.1395 -0.3174
  139TMC2     C 2121   3.623   2.468  13.092 -0.2758 -0.4032  0.4217
  139TMC2     O 2122   3.593   2.374  13.021 -0.5533 -0.4672  0.1397
  139TMC2     H 2123   3.428   2.549  12.956 -1.0416 -1.0017 -0.1563
  139TMC2    H1 2124   3.600   2.549  13.349 -0.5518 -1.0557  0.3478
  139TMC2    H2 2125   3.217   2.718  13.297 -0.7234 -1.3767 -0.1908
  139TMC2    C7 2126   3.414   2.696  13.461 -0.1521 -0.4075  0.0304
  139TMC2    C8 2127   3.196   2.670  13.031 -0.0012  0.5900  0.5551
  139TMC2    O1 2128   3.302   2.706  13.511  0.0870  0.0288  0.2044
  139TMC2    O2 2129   3.084   2.671  13.082 -0.0722 -0.4438  0.2039
  139TMC2    O5 2130   3.219   2.670  12.901  0.0554 -0.5930  0.1160
  139TMC2    H5 2131   3.305   2.714  12.888 -0.9502  1.4417  0.3788
  140MPD2     C 2132   3.991   2.521  13.153  0.2018 -0.3936 -0.4454
  140MPD2    C1 2133   3.875   2.463  13.103  0.6918 -0.2573  0.1068
  140MPD2    C2 2134   3.891   2.341  13.042  0.3171 -0.5285 -0.2523
  140MPD2    C3 2135   4.018   2.284  13.032 -0.0353  0.0021 -0.0886
  140MPD2    C4 2136   4.133   2.352  13.078  0.5350  0.4371  0.5573
  140MPD2    C5 2137   4.118   2.471  13.138 -0.3624  0.4573 -0.2667
  140MPD2     H 2138   3.806   2.287  13.002 -1.2784  1.1946  0.7839
  140MPD2    H1 2139   4.234   2.318  13.059  0.1600  0.3030 -1.2874
  140MPD2    H2 2140   3.993   2.617  13.203  0.1183 -1.8832  2.4447
  140MPD2    H3 2141   4.202   2.536  13.160 -0.5952 -0.0341  2.0137
  140MPD2     N 2142   4.019   2.159  12.959  0.5438  0.2689  0.4078
  140MPD2    H5 2143   3.930   2.112  12.948  0.5083  0.2755  0.6852
  140MPD2    N1 2144   3.747   2.518  13.130  1.3416 -0.5564 -0.4791
  140MPD2    H7 2145   3.740   2.600  13.190  0.5286 -0.9643 -0.0175
  141TCq2    C1 2146   4.424   3.771  14.490  0.2731  0.0319 -0.5349
  141TCq2    O2 2147   4.393   3.870  14.428 -0.7781 -0.2192 -0.2013
  141TCq2    C2 2148   4.404   3.762  14.633 -0.4203 -0.0440  0.0343
  141TCq2    C3 2149   4.431   3.646  14.703  0.1679  0.0325  0.7357
  141TCq2    C4 2150   4.422   3.662  14.835 -0.3162 -1.7429 -0.0217
  141TCq2    C5 2151   4.394   3.780  14.901  1.0326 -0.1767  0.3657
  141TCq2    C6 2152   4.378   3.893  14.836  0.8097  0.3555  0.0361
  141TCq2    C7 2153   4.379   3.882  14.702 -0.7270 -0.4765 -0.5504
  141TCq2    C8 2154   4.407   4.024  14.894  0.1081  0.6226  0.1975
  141TCq2    O4 2155   4.385   4.043  15.014  0.1746  0.3250  0.2864
  141TCq2    C9 2156   4.443   3.544  14.909  0.6037  0.0272 -0.4933
  141TCq2    O5 2157   4.414   3.547  15.034 -0.1189 -0.1396  0.3265
  141TCq2    O6 2158   4.498   3.451  14.851  0.0949 -0.5772  0.3087
  141TCq2    H2 2159   4.441   3.548  14.659 -1.6639 -0.8472  2.2884
  141TCq2    H3 2160   4.406   3.788  15.009  1.6912  0.0145  0.2809
  141TCq2    H4 2161   4.344   3.966  14.643  1.2110  1.1110  0.5495
  142MPD2     C 2162   2.578   1.585  10.775 -0.0973 -0.7038 -0.0723
  142MPD2    C1 2163   2.489   1.568  10.674 -0.5718  0.0537  0.0172
  142MPD2    C2 2164   2.526   1.623  10.555 -0.3637  0.6884 -1.5163
  142MPD2    C3 2165   2.649   1.688  10.534 -0.1685 -0.3565 -0.0736
  142MPD2    C4 2166   2.739   1.689  10.637 -0.1268 -0.8957 -0.3335
  142MPD2    C5 2167   2.701   1.645  10.757  0.3868  0.3113  0.0414
  142MPD2     H 2168   2.463   1.610  10.468 -0.2566 -2.0065 -1.1966
  142MPD2    H1 2169   2.835   1.731  10.611 -0.9622  0.6986 -0.8398
  142MPD2    H2 2170   2.565   1.532  10.869  1.3453 -1.7178 -0.4424
  142MPD2    H3 2171   2.767   1.643  10.843  0.2767 -1.6742  0.0751
  142MPD2     N 2172   2.680   1.750  10.404  0.0104  0.3087  0.2718
  142MPD2    H5 2173   2.778   1.772  10.388  0.7518 -2.0552  1.5881
  142MPD2    N1 2174   2.365   1.511  10.710 -0.4418  0.4930 -0.0658
  142MPD2    H7 2175   2.359   1.482  10.807  0.5593  0.7281  0.0639
  143TCq2    C1 2176   2.593   1.779  10.308  0.5903  0.0061 -0.3576
  143TCq2    O2 2177   2.471   1.770  10.310 -0.1940 -0.3064  0.6280
  143TCq2    C2 2178   2.651   1.837  10.192 -0.8289 -0.2101  0.0947
  143TCq2    C3 2179   2.788   1.860  10.196  0.6823  0.5702  0.0165
  143TCq2    C4 2180   2.870   1.857  10.087  0.3801  0.7278 -0.7105
  143TCq2    C5 2181   2.813   1.829   9.969 -0.1815 -0.5473 -0.2533
  143TCq2    C6 2182   2.679   1.824   9.959 -0.3557  0.0609 -0.6136
  143TCq2    C7 2183   2.601   1.818  10.071  0.6533  0.1218  0.2100
  143TCq2    C8 2184   2.620   1.815   9.824  0.5490  0.1626  0.1551
  143TCq2    O4 2185   2.691   1.825   9.723  0.2408 -0.8599  0.1751
  143TCq2    C9 2186   3.009   1.889  10.107  0.3636  0.4019 -0.5168
  143TCq2    O5 2187   3.060   1.900  10.225  0.3712  0.0289  0.0561
  143TCq2    O6 2188   3.080   1.891  10.001 -0.2465 -0.2707 -0.1301
  143TCq2    H2 2189   2.837   1.900  10.284  1.4921  0.2719 -0.2929
  143TCq2    H3 2190   2.878   1.835   9.883  0.9835 -0.4856  0.6297
  143TCq2    H4 2191   2.493   1.820  10.067  0.7303  1.2182 -1.6022
  144MPD2     C 2192   4.694   1.304   0.871  0.5004  0.0829  0.7191
  144MPD2    C1 2193   0.036   1.184   0.842  0.1859  0.6409  0.5939
  144MPD2    C2 2194   0.136   1.147   0.923 -0.4373 -0.6297  0.2859
  144MPD2    C3 2195   0.178   1.222   1.026  0.4684 -1.1938  0.4526
  144MPD2    C4 2196   0.117   1.342   1.055  0.2904 -0.4745 -0.6749
  144MPD2    C5 2197   0.016   1.382   0.976  0.5577 -0.0015 -0.1630
  144MPD2     H 2198   0.172   1.046   0.908 -1.0892 -0.7613 -0.4343
  144MPD2    H1 2199   0.146   1.398   1.143  2.0277 -0.0332 -1.5143
  144MPD2    H2 2200   4.606   1.337   0.817  0.4216 -1.4262 -0.0899
  144MPD2    H3 2201   4.680   1.472   0.991  0.3531 -0.0970 -0.3848
  144MPD2     N 2202   0.278   1.186   1.119  0.0971  0.2223 -0.7395
  144MPD2    H5 2203   0.303   1.260   1.185 -0.9424  0.2529 -0.3817
  144MPD2    N1 2204   4.717   1.099   0.740 -0.1189 -0.3726  0.0718
  144MPD2    H7 2205   0.024   1.003   0.757  0.5093 -0.2566 -0.3834
  145TCq2    C1 2206   0.352   1.070   1.116 -0.1693  0.0713  0.1927
  145TCq2    O2 2207   0.327   0.966   1.055 -0.0646  0.4292 -0.7747
  145TCq2    C2 2208   0.479   1.079   1.194  0.1750 -0.3480  0.3719
  145TCq2    C3 2209   0.556   0.970   1.196  1.1520  0.3486 -0.7062
  145TCq2    C4 2210   0.680   0.978   1.254  0.1295  0.1749 -0.2280
  145TCq2    C5 2211   0.730   1.093   1.306 -0.6146  0.1548  0.0542
  145TCq2    C6 2212   0.645   1.200   1.305 -0.2970  0.4122  1.1765
  145TCq2    C7 2213   0.520   1.194   1.249 -0.0787  0.1832  0.0860
  145TCq2    C8 2214   0.691   1.320   1.377 -0.3307  0.2930  0.1526
  145TCq2    O4 2215   0.784   1.311   1.454  0.2585  0.5611 -0.2012
  145TCq2    C9 2216   0.756   0.862   1.265 -0.0972  0.1813  0.2768
  145TCq2    O5 2217   0.862   0.862   1.333 -0.2163  0.0584  0.1097
  145TCq2    O6 2218   0.718   0.764   1.197  0.0402 -0.1589 -0.5611
  145TCq2    H2 2219   0.522   0.880   1.147 -0.9709  1.5124 -1.3762
  145TCq2    H3 2220   0.824   1.089   1.360 -0.5191  1.7519 -0.0065
  145TCq2    H4 2221   0.453   1.279   1.248 -1.4449 -0.9118 -1.5054
  146TMC2    C1 2222   1.884   4.348  12.455 -0.2414  0.4419 -0.2139
  146TMC2    C2 2223   1.889   4.378  12.325  0.5371 -0.1826 -1.1968
  146TMC2    C3 2224   1.928   4.272  12.236  0.4686  0.4031 -0.0538
  146TMC2    C4 2225   1.914   4.221  12.505  0.5096 -0.9223  0.1696
  146TMC2    C5 2226   1.937   4.118  12.418 -0.3402 -0.0417 -0.2274
  146TMC2    C6 2227   1.946   4.142  12.285 -0.2538  0.0123 -0.3740
  146TMC2     C 2228   1.851   4.464  12.539  0.2803  0.0990 -0.1163
  146TMC2     O 2229   1.787   4.554  12.482  0.1346  0.3532  0.1436
  146TMC2     H 2230   1.884   4.478  12.282 -0.7927  0.7530  1.1773
  146TMC2    H1 2231   1.927   4.216  12.612  0.5420 -1.8331  0.1209
  146TMC2    H2 2232   1.965   4.059  12.217 -3.4492 -0.3553 -0.8226
  146TMC2    C7 2233   2.021   4.009  12.455 -0.3277  0.8569  0.5125
  146TMC2    C8 2234   1.931   4.313  12.098  0.0147 -0.0715 -0.0107
  146TMC2    O1 2235   2.104   3.963  12.380 -0.2002  0.4898  0.2071
  146TMC2    O2 2236   1.847   4.393  12.058  0.0648 -0.3525  0.0551
  146TMC2    O5 2237   1.970   4.205  12.029  0.0012  0.0937 -0.4880
  146TMC2    H5 2238   2.050   4.161  12.064 -0.4037  0.0906  0.4549
  147MPD2     C 2239   2.233   3.710  12.830 -0.8041  0.1477 -0.4585
  147MPD2    C1 2240   2.102   3.743  12.871  0.1969 -0.1342 -0.9423
  147MPD2    C2 2241   2.026   3.832  12.792 -0.0733  0.8589  0.0527
  147MPD2    C3 2242   2.073   3.879  12.664  0.2052  0.3647  0.7067
  147MPD2    C4 2243   2.202   3.849  12.634 -0.3783 -0.2614 -0.0008
  147MPD2    C5 2244   2.275   3.761  12.709 -0.4697  0.3648 -0.4426
  147MPD2     H 2245   1.921   3.858  12.807  0.1381  1.7165  0.0322
  147MPD2    H1 2246   2.249   3.878  12.541 -1.7677  1.9721 -0.0052
  147MPD2    H2 2247   2.296   3.643  12.888 -0.1565  0.7645 -0.4468
  147MPD2    H3 2248   2.374   3.737  12.672 -0.0318  1.0631  0.2646
  147MPD2     N 2249   1.994   3.966  12.585 -0.4136 -0.1236  0.1984
  147MPD2    H5 2250   1.909   3.997  12.630 -1.3227 -0.9807 -0.9452
  147MPD2    N1 2251   2.055   3.668  12.983 -0.7775  0.4071 -0.1738
  147MPD2    H7 2252   2.118   3.597  13.020  0.3466  1.4822 -0.0415
  148MPD2     C 2253   2.290   3.200  10.415  0.0470 -0.0399 -0.2993
  148MPD2    C1 2254   2.307   3.063  10.435  0.5764  0.0601  0.4161
  148MPD2    C2 2255   2.204   2.993  10.488  0.2360 -0.0864 -0.2228
  148MPD2    C3 2256   2.082   3.045  10.519 -0.2668 -0.3192  0.2840
  148MPD2    C4 2257   2.062   3.174  10.484 -0.0011 -0.1756 -0.2916
  148MPD2    C5 2258   2.168   3.250  10.444  0.1831  0.0111 -0.2943
  148MPD2     H 2259   2.217   2.885  10.485  0.0540 -0.1119 -0.1225
  148MPD2    H1 2260   1.965   3.213  10.512 -0.4083 -1.4001  0.0154
  148MPD2    H2 2261   2.374   3.264  10.389  0.3076  0.1488  1.0231
  148MPD2    H3 2262   2.155   3.358  10.435  1.7490  0.3459  1.6411
  148MPD2     N 2263   1.976   2.981  10.580  0.4027 -0.0387 -0.6754
  148MPD2    H5 2264   1.890   3.035  10.574 -0.5178 -1.1698  2.4884
  148MPD2    N1 2265   2.428   2.983  10.410  0.0858 -0.4610  0.3557
  148MPD2    H7 2266   2.425   2.884  10.433  0.6131 -1.2362 -2.9763
  149TCq2    C1 2267   2.547   3.027  10.365 -0.2695  0.6924  0.2715
  149TCq2    O2 2268   2.571   3.137  10.327 -0.1288  0.0050 -0.4182
  149TCq2    C2 2269   2.642   2.919  10.363  0.4159  0.1953 -0.8576
  149TCq2    C3 2270   2.770   2.950  10.372  0.2901 -0.0515  0.1226
  149TCq2    C4 2271   2.857   2.848  10.393  0.6994  0.0354 -0.0811
  149TCq2    C5 2272   2.816   2.722  10.373 -0.4574  0.0438  0.5163
  149TCq2    C6 2273   2.685   2.688  10.354 -0.7577  0.2321  0.5439
  149TCq2    C7 2274   2.599   2.789  10.352 -0.2880  0.2438  0.4723
  149TCq2    C8 2275   2.630   2.551  10.367  0.0632 -0.6461 -0.4316
  149TCq2    O4 2276   2.508   2.537  10.360  0.2129 -0.3110 -0.1891
  149TCq2    C9 2277   2.995   2.890  10.397  0.2617  0.8754  0.7307
  149TCq2    O5 2278   3.023   3.003  10.441  0.6270  0.0980 -0.0404
  149TCq2    O6 2279   3.086   2.814  10.362  0.2814 -0.0046  0.2715
  149TCq2    H2 2280   2.797   3.054  10.390 -3.6085  0.9986 -0.0318
  149TCq2    H3 2281   2.886   2.639  10.376 -1.1493 -0.5055  1.4614
  149TCq2    H4 2282   2.499   2.771  10.314 -0.4898  2.1639  0.0622
  150MPD2     C 2283   3.222   2.555  12.453 -0.1810  0.3762  0.5800
  150MPD2    C1 2284   3.256   2.531  12.323 -0.2586 -0.2975 -0.4921
  150MPD2    C2 2285   3.388   2.568  12.290 -0.1056  0.8181 -0.4440
  150MPD2    C3 2286   3.477   2.627  12.385  0.1463 -0.2318 -0.0637
  150MPD2    C4 2287   3.438   2.634  12.515 -0.3416 -0.4555 -0.1518
  150MPD2    C5 2288   3.317   2.586  12.548  0.3481  0.1888 -0.4798
  150MPD2     H 2289   3.411   2.568  12.184  1.3011  0.2824 -0.1387
  150MPD2    H1 2290   3.495   2.679  12.595  0.9021 -1.3052 -0.5769
  150MPD2    H2 2291   3.121   2.534  12.487 -0.2396  1.4369  1.0324
  150MPD2    H3 2292   3.300   2.583  12.655  2.4459  0.2693 -0.1294
  150MPD2     N 2293   3.602   2.680  12.331 -0.0084 -0.0042  0.5728
  150MPD2    H5 2294   3.635   2.656  12.238 -4.1317 -1.0122 -0.6590
  150MPD2    N1 2295   3.161   2.485  12.234  0.1709  0.2129 -0.7804
  150MPD2    H7 2296   3.066   2.481  12.271  0.9368  0.3263  1.1706
  151TCq2    C1 2297   3.702   2.734  12.411 -0.0414  0.2020  0.1474
  151TCq2    O2 2298   3.698   2.783  12.520  0.3696 -0.0910  0.0782
  151TCq2    C2 2299   3.824   2.720  12.342  0.6125  0.4421  0.2948
  151TCq2    C3 2300   3.827   2.683  12.214  0.6791 -0.2456 -0.1251
  151TCq2    C4 2301   3.922   2.593  12.171 -0.2541 -0.1673  0.4204
  151TCq2    C5 2302   4.016   2.549  12.252 -0.2759  0.0945 -0.0364
  151TCq2    C6 2303   4.017   2.589  12.381  0.7459 -0.5668  0.1689
  151TCq2    C7 2304   3.925   2.681  12.430 -0.1493 -0.0910  0.0283
  151TCq2    C8 2305   4.138   2.574  12.459 -0.2870 -0.4755  0.1941
  151TCq2    O4 2306   4.176   2.674  12.517 -0.1925  0.0968  0.4746
  151TCq2    C9 2307   3.947   2.580  12.034 -0.1177  0.1123  0.5461
  151TCq2    O5 2308   3.880   2.651  11.956 -0.2229 -0.7167  0.5132
  151TCq2    O6 2309   4.030   2.492  11.994 -0.2112 -0.3511  0.4726
  151TCq2    H2 2310   3.754   2.716  12.142  0.6410 -1.4310 -0.6270
  151TCq2    H3 2311   4.081   2.473  12.209 -1.0264 -1.0149  0.7833
  151TCq2    H4 2312   3.929   2.709  12.535 -1.3772  1.7665 -0.4201
  152MPD2     C 2313   3.263   2.286  13.014 -0.5196  0.1284  0.0788
  152MPD2    C1 2314   3.277   2.277  12.878  0.4244 -0.2098  0.5858
  152MPD2    C2 2315   3.172   2.271  12.801 -0.1170 -0.4039 -0.7488
  152MPD2    C3 2316   3.045   2.285  12.860  0.4732  1.0023  0.1671
  152MPD2    C4 2317   3.029   2.315  12.994 -0.4510  0.0238  0.1987
  152MPD2    C5 2318   3.138   2.300  13.072 -0.6840 -1.0145  0.1286
  152MPD2     H 2319   3.184   2.270  12.694  0.4815  1.7892 -0.7021
  152MPD2    H1 2320   2.935   2.338  13.044 -1.7326 -0.2824 -2.0794
  152MPD2    H2 2321   3.347   2.286  13.083  0.9056  0.8455 -1.6565
  152MPD2    H3 2322   3.125   2.310  13.179  1.5430  1.0364  0.2030
  152MPD2     N 2323   2.932   2.282  12.773 -0.2076 -0.2003  0.4356
  152MPD2    H5 2324   2.958   2.272  12.675 -1.3125  1.6715 -0.0307
  152MPD2    N1 2325   3.411   2.280  12.833  0.0424 -0.1621  0.3402
  152MPD2    H7 2326   3.479   2.305  12.904  0.2654  0.1358  0.0225
  153TCq2    C1 2327   3.452   2.251  12.704 -0.3381  0.0364  0.2008
  153TCq2    O2 2328   3.393   2.204  12.609 -0.0886 -0.2699 -0.2539
  153TCq2    C2 2329   3.589   2.289  12.684 -0.0982  0.1877  0.6493
  153TCq2    C3 2330   3.672   2.207  12.608 -0.4646 -0.4006 -0.6785
  153TCq2    C4 2331   3.786   2.259  12.565 -0.1261 -0.3008 -0.5957
  153TCq2    C5 2332   3.829   2.384  12.598 -0.0219  0.9834 -0.2705
  153TCq2    C6 2333   3.750   2.457  12.690  0.1483  0.0829  0.1260
  153TCq2    C7 2334   3.626   2.414  12.726 -0.2194 -0.5838  0.2238
  153TCq2    C8 2335   3.789   2.582  12.758  0.3013 -0.2154 -0.0611
  153TCq2    O4 2336   3.704   2.633  12.831  0.3665 -0.3954 -0.0132
  153TCq2    C9 2337   3.857   2.188  12.459  0.0297  0.7651  0.2948
  153TCq2    O5 2338   3.815   2.077  12.423  0.1053 -0.4382  0.1363
  153TCq2    O6 2339   3.954   2.252  12.401  0.0370 -0.8788  0.3491
  153TCq2    H2 2340   3.638   2.117  12.560 -2.7871 -0.2628  0.6987
  153TCq2    H3 2341   3.924   2.421  12.562 -0.8504  1.8777 -1.5299
  153TCq2    H4 2342   3.555   2.484  12.766 -0.5719  1.3294 -3.6842
  154MPD2     C 2343   0.211   3.000   0.425 -0.6481  0.5380  0.2458
  154MPD2    C1 2344   0.258   2.948   0.542  0.0725  0.0671  0.6179
  154MPD2    C2 2345   0.183   2.968   0.660  0.8854  0.1262 -0.2604
  154MPD2    C3 2346   0.072   3.047   0.657  0.0920  0.1342  0.2911
  154MPD2    C4 2347   0.032   3.110   0.543  0.1046 -0.4562  0.0352
  154MPD2    C5 2348   0.099   3.081   0.429  0.6288 -0.4288 -0.5081
  154MPD2     H 2349   0.218   2.931   0.756  1.9121  0.9785 -0.3118
  154MPD2    H1 2350   4.667   3.174   0.535  1.7774  1.9399  0.8230
  154MPD2    H2 2351   0.269   2.991   0.334 -0.3934 -0.8773  0.5424
  154MPD2    H3 2352   0.062   3.143   0.347  0.6092  1.0090  0.5921
  154MPD2     N 2353   0.003   3.070   0.780 -0.3619  0.3986  0.6300
  154MPD2    H5 2354   0.038   3.019   0.860  1.7001 -2.0480 -1.8094
  154MPD2    N1 2355   0.380   2.877   0.531 -0.0029  0.2987 -0.2001
  154MPD2    H7 2356   0.418   2.858   0.439 -0.1725 -1.0528  0.0031
  155TCq2    C1 2357   0.443   2.822   0.636 -0.7861  0.3675  0.0997
  155TCq2    O2 2358   0.410   2.829   0.754 -0.4033 -0.0985 -0.1461
  155TCq2    C2 2359   0.567   2.764   0.589 -0.4566  0.0418  0.2821
  155TCq2    C3 2360   0.612   2.653   0.658 -0.9558 -0.5350 -0.3363
  155TCq2    C4 2361   0.735   2.599   0.616  0.0969  0.0324 -0.0162
  155TCq2    C5 2362   0.809   2.653   0.511  0.4947  0.0332 -0.1402
  155TCq2    C6 2363   0.762   2.768   0.455  0.7025 -0.0386  0.1204
  155TCq2    C7 2364   0.635   2.819   0.484 -0.0039 -0.1605 -0.2387
  155TCq2    C8 2365   0.835   2.837   0.348  0.0637  0.1397  0.0829
  155TCq2    O4 2366   0.825   2.959   0.342 -0.2825  0.3646 -0.4450
  155TCq2    C9 2367   0.788   2.487   0.688  0.1239  0.4543  0.0305
  155TCq2    O5 2368   0.898   2.436   0.654 -0.0250 -0.2586  0.6003
  155TCq2    O6 2369   0.725   2.447   0.789 -0.3018 -0.0801 -0.2923
  155TCq2    H2 2370   0.565   2.612   0.746 -1.7186 -0.6614 -0.8001
  155TCq2    H3 2371   0.905   2.604   0.495  0.7702  0.1706  1.1054
  155TCq2    H4 2372   0.612   2.918   0.446  1.7179  1.0368  1.8187
  156MPD2     C 2373   3.798   4.657  12.725  0.3141  0.1742  0.7120
  156MPD2    C1 2374   3.792   0.024  12.621  0.1771 -0.8305  0.8656
  156MPD2    C2 2375   3.797   0.160  12.653 -0.3281 -0.1499 -0.6461
  156MPD2    C3 2376   3.812   0.206  12.781  0.2347 -0.0280 -0.6086
  156MPD2    C4 2377   3.797   0.118  12.885  0.5078 -0.1289 -0.2650
  156MPD2    C5 2378   3.802   4.701  12.856  0.3358  0.9994  0.0341
  156MPD2     H 2379   3.784   0.242  12.583  2.0642  1.7948  1.2032
  156MPD2    H1 2380   3.800   0.143  12.990  3.1437 -0.1300 -0.3328
  156MPD2    H2 2381   3.800   4.549  12.712  1.3118  0.6194 -2.8257
  156MPD2    H3 2382   3.810   4.631  12.939 -1.3476 -0.0293 -0.6888
  156MPD2     N 2383   3.798   0.348  12.808 -0.8822  0.2280 -0.3740
  156MPD2    H5 2384   3.786   0.411  12.730  1.6330 -2.1158 -2.6862
  156MPD2    N1 2385   3.785   4.704  12.490 -0.1739 -0.4159  0.2202
  156MPD2    H7 2386   3.794   4.603  12.475  0.4600 -0.4964  1.1504
  157TCq2    C1 2387   3.783   0.056  12.375  0.1556  0.4617  0.0556
  157TCq2    O2 2388   3.786   0.180  12.370  0.2590 -0.3171  0.0918
  157TCq2    C2 2389   3.754   4.706  12.254  0.4857  0.5089 -0.0191
  157TCq2    C3 2390   3.705   4.571  12.261  0.3964 -0.6181  0.1958
  157TCq2    C4 2391   3.691   4.509  12.139  0.1692  0.1163 -0.1906
  157TCq2    C5 2392   3.716   4.572  12.026 -0.8645 -0.1424 -0.3390
  157TCq2    C6 2393   3.763   4.700  12.022 -0.6478 -0.3258 -0.6196
  157TCq2    C7 2394   3.772   0.051  12.136  0.1182  0.3145  0.2425
  157TCq2    C8 2395   3.799   0.050  11.892 -0.0145 -0.1201  0.1483
  157TCq2    O4 2396   3.817   0.172  11.901 -0.0908 -0.2394  0.5672
  157TCq2    C9 2397   3.652   4.375  12.150  0.6726 -0.0471 -0.4436
  157TCq2    O5 2398   3.621   4.325  12.260  0.0365  0.1477  0.2250
  157TCq2    O6 2399   3.693   4.308  12.051 -0.0212 -0.2380  0.0829
  157TCq2    H2 2400   3.687   4.529  12.360  0.9069  0.2579  0.6608
  157TCq2    H3 2401   3.703   4.527  11.928  1.1382 -0.9971 -0.2254
  157TCq2    H4 2402   3.823   0.146  12.136 -1.5410  1.2096 -0.5259
  158TMC2    C1 2403   3.427   3.678  13.400  0.8725  0.4229 -0.7682
  158TMC2    C2 2404   3.432   3.728  13.271  0.3875  0.4707  0.6582
  158TMC2    C3 2405   3.314   3.762  13.219 -0.2265 -0.2204  0.2769
  158TMC2    C4 2406   3.315   3.666  13.468  0.0134  0.3160  0.0135
  158TMC2    C5 2407   3.199   3.693  13.405  0.3590  0.9212  0.3119
  158TMC2    C6 2408   3.195   3.751  13.283  0.3340 -0.5733 -0.4572
  158TMC2     C 2409   3.557   3.630  13.451  0.4674 -0.1951  0.2378
  158TMC2     O 2410   3.636   3.601  13.365  0.0336  0.0826 -0.0733
  158TMC2     H 2411   3.524   3.722  13.215  1.3314  0.6523  2.1684
  158TMC2    H1 2412   3.329   3.622  13.565 -0.5178  3.1233  1.3772
  158TMC2    H2 2413   3.100   3.780  13.239  2.0844  0.4428 -3.5791
  158TMC2    C7 2414   3.076   3.647  13.465  0.3047 -0.1056 -0.1169
  158TMC2    C8 2415   3.319   3.810  13.079 -0.0597 -0.2467  0.2066
  158TMC2    O1 2416   2.976   3.686  13.410  0.0097 -0.4969 -0.2962
  158TMC2    O2 2417   3.413   3.872  13.035  0.8435 -0.1532 -1.5038
  158TMC2    O5 2418   3.224   3.744  13.011 -0.4338 -0.0940  0.3997
  158TMC2    H5 2419   3.168   3.684  13.065 -0.9977  2.8858  3.1555
  159MPD2     C 2420   3.902   3.468  13.803 -0.3050 -0.2505  0.4995
  159MPD2    C1 2421   3.795   3.538  13.863  0.8740  0.7907  0.2111
  159MPD2    C2 2422   3.686   3.580  13.786  0.1765 -0.9007 -0.1611
  159MPD2    C3 2423   3.687   3.554  13.652  0.2934 -0.1373  0.6579
  159MPD2    C4 2424   3.789   3.485  13.595 -0.1258  0.7909  0.3591
  159MPD2    C5 2425   3.898   3.442  13.668 -0.0091  0.0484 -0.8982
  159MPD2     H 2426   3.595   3.625  13.827 -0.5274 -3.8538  1.4799
  159MPD2    H1 2427   3.788   3.465  13.488 -2.0401 -0.5363  0.6225
  159MPD2    H2 2428   3.987   3.445  13.867  1.7201 -3.6253 -3.4325
  159MPD2    H3 2429   3.973   3.381  13.617 -0.2355  0.0315 -1.2093
  159MPD2     N 2430   3.571   3.611  13.585 -0.2893 -0.0520 -0.1829
  159MPD2    H5 2431   3.495   3.634  13.649  1.3198 -2.7290  2.6884
  159MPD2    N1 2432   3.803   3.541  14.009  0.6973 -0.3482  0.0293
  159MPD2    H7 2433   3.877   3.491  14.057 -0.4217 -1.9046  0.1404
  160TMC2    C1 2434   3.882   0.968   0.906 -0.2511  0.0896  0.0308
  160TMC2    C2 2435   3.958   0.857   0.926 -0.5536 -0.2957  0.5272
  160TMC2    C3 2436   4.080   0.837   0.860  0.6186  1.0225 -0.3144
  160TMC2    C4 2437   3.931   1.068   0.825 -0.0452 -0.4292  0.4579
  160TMC2    C5 2438   4.055   1.050   0.769 -0.4575  0.1414 -0.5225
  160TMC2    C6 2439   4.132   0.932   0.781 -0.3900 -0.3883 -0.9897
  160TMC2     C 2440   3.788   0.995   1.013 -0.4334  0.3203  0.0446
  160TMC2     O 2441   3.761   0.906   1.089  0.0541  0.4492 -0.5053
  160TMC2     H 2442   3.919   0.775   0.984  0.3892 -0.1982  1.3141
  160TMC2    H1 2443   3.880   1.163   0.816  0.5312 -0.2817 -1.1645
  160TMC2    H2 2444   4.227   0.917   0.731  0.0191  0.6423 -0.5286
  160TMC2    C7 2445   4.116   1.147   0.682 -0.0939  0.1945 -0.4940
  160TMC2    C8 2446   4.146   0.712   0.875 -0.2994  0.5142 -0.1852
  160TMC2    O1 2447   4.204   1.104   0.606 -0.0048 -0.4628  0.6718
  160TMC2    O2 2448   4.259   0.690   0.838  0.6860  0.6379  0.1530
  160TMC2    O5 2449   4.049   0.626   0.843 -0.3963 -0.5526  0.1746
  160TMC2    H5 2450   3.954   0.650   0.854  0.1489  2.1129 -1.0618
  161MPD2     C 2451   3.573   1.108   1.187 -0.0427 -0.1142  0.5713
  161MPD2    C1 2452   3.614   1.164   1.070 -0.1955 -0.6364 -0.7388
  161MPD2    C2 2453   3.546   1.272   1.021  0.4104  0.1151 -0.2925
  161MPD2    C3 2454   3.430   1.320   1.084 -0.3608  0.4041  0.4902
  161MPD2    C4 2455   3.388   1.259   1.201 -0.0806  0.0916  0.3562
  161MPD2    C5 2456   3.458   1.155   1.242 -0.4194 -0.3726 -0.3282
  161MPD2     H 2457   3.581   1.326   0.933  1.4351  0.6635  0.4356
  161MPD2    H1 2458   3.304   1.297   1.258 -0.1555  2.9650 -1.6362
  161MPD2    H2 2459   3.628   1.026   1.232 -0.1036 -0.5102 -0.0776
  161MPD2    H3 2460   3.418   1.107   1.331  2.8910 -0.3230  1.1702
  161MPD2     N 2461   3.351   1.425   1.034  0.3698  0.6035  0.2574
  161MPD2    H5 2462   3.261   1.438   1.080 -0.3028 -0.9307 -0.6567
  161MPD2    N1 2463   3.735   1.119   1.001 -1.0968  0.5427 -0.6138
  161MPD2    H7 2464   3.768   1.181   0.928  0.7073 -1.7645 -1.7308
  162TMC2    C1 2465   2.136   3.722   0.918 -0.4678  0.5344 -0.6907
  162TMC2    C2 2466   2.072   3.838   0.906  0.1811 -0.1843  0.7706
  162TMC2    C3 2467   2.127   3.947   0.974  0.1851 -0.4744  0.3496
  162TMC2    C4 2468   2.238   3.703   1.008 -0.9080 -0.4447 -1.4613
  162TMC2    C5 2469   2.265   3.806   1.100  0.4269  0.3711 -0.2455
  162TMC2    C6 2470   2.215   3.932   1.079  0.8546  0.4018 -0.3961
  162TMC2     C 2471   2.076   3.612   0.855 -0.3250  0.4830 -0.2507
  162TMC2     O 2472   1.980   3.626   0.785  0.2107  0.1943 -0.1122
  162TMC2     H 2473   1.997   3.850   0.829  0.4104  0.9515  0.7149
  162TMC2    H1 2474   2.298   3.613   1.012 -0.8224 -0.3146  0.3445
  162TMC2    H2 2475   2.250   4.018   1.134  0.6739 -0.0916  0.4841
  162TMC2    C7 2476   2.387   3.796   1.177 -0.2736  0.0590 -0.5664
  162TMC2    C8 2477   2.088   4.084   0.946 -0.8097 -0.0529 -1.1789
  162TMC2    O1 2478   2.439   3.902   1.210  0.1674 -0.0511  0.0733
  162TMC2    O2 2479   2.115   4.181   1.015  0.1291 -0.3719  0.0069
  162TMC2    O5 2480   2.002   4.099   0.844 -0.1155 -0.1605  0.2253
  162TMC2    H5 2481   1.985   4.015   0.796  0.5717  0.2180 -0.6586
  163MPD2     C 2482   2.021   3.120   0.770  0.5993 -0.2423  0.0716
  163MPD2    C1 2483   2.033   3.221   0.686  0.1604  0.4548  0.2770
  163MPD2    C2 2484   2.063   3.344   0.740  0.9186 -0.8455 -0.0409
  163MPD2    C3 2485   2.076   3.368   0.875 -0.0964 -0.9093 -0.7577
  163MPD2    C4 2486   2.070   3.264   0.960 -0.3670  0.7795 -0.3056
  163MPD2    C5 2487   2.046   3.140   0.908  0.6075  0.1197 -0.0704
  163MPD2     H 2488   2.087   3.424   0.672  0.0624 -0.2946  0.3105
  163MPD2    H1 2489   2.083   3.274   1.067  0.3521  2.4965 -0.5628
  163MPD2    H2 2490   1.993   3.018   0.745  0.1150 -0.5356  1.7775
  163MPD2    H3 2491   2.053   3.049   0.967 -1.1479  0.9043  1.3251
  163MPD2     N 2492   2.112   3.494   0.924 -1.0339  0.0916  0.4829
  163MPD2    H5 2493   2.156   3.507   1.015 -0.4998 -1.6832  0.4686
  163MPD2    N1 2494   2.026   3.199   0.551  0.2274  0.5411 -0.0484
  163MPD2    H7 2495   2.027   3.100   0.529  0.7292  0.2688  1.2258
  164TCq2    C1 2496   2.460   2.864  10.733  0.0604 -0.1136 -0.5229
  164TCq2    O2 2497   2.373   2.783  10.731  0.3818  0.4856  0.4436
  164TCq2    C2 2498   2.417   3.007  10.759  0.3890  0.4576 -1.1454
  164TCq2    C3 2499   2.487   3.111  10.704  0.2023 -0.0831 -0.5019
  164TCq2    C4 2500   2.436   3.238  10.717 -0.0352 -0.2398  0.5724
  164TCq2    C5 2501   2.311   3.250  10.773  0.3810  0.0265  0.4412
  164TCq2    C6 2502   2.236   3.139  10.799 -0.1851  0.4898 -0.3489
  164TCq2    C7 2503   2.294   3.018  10.816 -0.2319  0.1075 -0.0852
  164TCq2    C8 2504   2.103   3.170  10.844  0.3733 -0.4105  0.2974
  164TCq2    O4 2505   2.051   3.274  10.803  0.2192 -0.0518  0.5378
  164TCq2    C9 2506   2.513   3.344  10.660  0.4900  0.0224  0.6705
  164TCq2    O5 2507   2.448   3.453  10.654 -0.5642 -0.1779  0.0472
  164TCq2    O6 2508   2.598   3.318  10.570 -0.5283  0.8179  0.2975
  164TCq2    H2 2509   2.583   3.097  10.655  0.1817  2.0027 -1.1490
  164TCq2    H3 2510   2.268   3.349  10.777 -0.2428 -0.2051 -0.3967
  164TCq2    H4 2511   2.240   2.935  10.860 -2.2316  0.5380 -1.7772
  165MPD2     C 2512   3.768   0.140   2.519  1.1019  0.0301  0.2751
  165MPD2    C1 2513   3.763   0.147   2.383 -0.2614 -0.6068  0.6808
  165MPD2    C2 2514   3.741   0.271   2.324 -0.0085  0.2940 -0.6740
  165MPD2    C3 2515   3.731   0.383   2.407 -0.2350  0.4708 -0.6887
  165MPD2    C4 2516   3.749   0.374   2.545 -0.3086 -0.2655  0.4908
  165MPD2    C5 2517   3.761   0.248   2.603 -0.2419  0.1729  0.0013
  165MPD2     H 2518   3.727   0.281   2.217  1.7791  3.8510 -0.5653
  165MPD2    H1 2519   3.734   0.463   2.605  2.3743 -0.7771  1.9073
  165MPD2    H2 2520   3.774   0.043   2.568 -0.2970  1.3239  2.9979
  165MPD2    H3 2521   3.771   0.250   2.711 -0.6631 -0.5473  0.0576
  165MPD2     N 2522   3.712   0.513   2.358  0.0624  0.2232 -0.4115
  165MPD2    H5 2523   3.721   0.590   2.424 -0.5447  0.3327 -0.4526
  165MPD2    N1 2524   3.781   0.028   2.314  0.0130  0.0314  0.0362
  165MPD2    H7 2525   3.804   4.669   2.370  0.4845 -1.6683 -2.6187
  166TCq2    C1 2526   3.703   0.548   2.223  0.1296  0.2769  0.0355
  166TCq2    O2 2527   3.715   0.484   2.121 -0.2950  0.1431  0.5342
  166TCq2    C2 2528   3.715   0.694   2.217 -0.4606 -0.2357 -0.5235
  166TCq2    C3 2529   3.674   0.772   2.320  1.1978 -0.2003 -0.4411
  166TCq2    C4 2530   3.727   0.895   2.322 -0.5112 -0.2331  0.3476
  166TCq2    C5 2531   3.800   0.949   2.219  0.4401 -0.6670  0.5848
  166TCq2    C6 2532   3.847   0.866   2.125 -0.1961  0.7642 -0.5085
  166TCq2    C7 2533   3.802   0.737   2.117  0.4897 -0.0203  0.0902
  166TCq2    C8 2534   3.934   0.924   2.030  0.7519 -0.2451 -0.1697
  166TCq2    O4 2535   3.980   1.034   2.049  0.0693  0.0209  0.1949
  166TCq2    C9 2536   3.698   0.977   2.436  0.1064 -0.9975  0.2001
  166TCq2    O5 2537   3.740   1.091   2.437 -0.0909 -0.4257  0.1888
  166TCq2    O6 2538   3.668   0.916   2.538  0.3518 -0.1431  0.0479
  166TCq2    H2 2539   3.611   0.733   2.399  1.3495  0.9472  0.2387
  166TCq2    H3 2540   3.839   1.050   2.226 -0.6642 -0.2276  0.5306
  166TCq2    H4 2541   3.834   0.670   2.038 -0.1959 -1.6563  1.2018
  167TMC2    C1 2542   1.475   3.259  12.798 -0.4626 -0.9640  0.2972
  167TMC2    C2 2543   1.409   3.317  12.908 -0.4741  0.0333 -0.1466
  167TMC2    C3 2544   1.377   3.229  13.011  0.4723  0.4205 -0.7865
  167TMC2    C4 2545   1.510   3.129  12.794  0.6694  0.2568  0.4934
  167TMC2    C5 2546   1.483   3.046  12.900  0.9569  0.3337  0.3153
  167TMC2    C6 2547   1.418   3.095  13.009 -0.5779 -0.5885  0.0815
  167TMC2     C 2548   1.486   3.336  12.676 -0.5271  0.4475  0.6226
  167TMC2     O 2549   1.466   3.457  12.685  0.0530 -1.0029  0.2608
  167TMC2     H 2550   1.390   3.424  12.917  1.3370  0.2588  0.9940
  167TMC2    H1 2551   1.582   3.094  12.721  0.4007 -0.3029  0.4921
  167TMC2    H2 2552   1.389   3.045  13.101  1.6199 -1.4596  0.3036
  167TMC2    C7 2553   1.544   2.909  12.919  0.0460 -0.8321 -0.3892
  167TMC2    C8 2554   1.318   3.278  13.134 -0.2985 -0.0453 -0.0281
  167TMC2    O1 2555   1.499   2.850  13.015  0.2702 -0.0428  0.6431
  167TMC2    O2 2556   1.344   3.236  13.245 -0.6653  0.0828 -0.2304
  167TMC2    O5 2557   1.202   3.336  13.086  0.1132  0.7363  0.1333
  167TMC2    H5 2558   1.190   3.324  12.989 -0.1452 -0.4654  0.3090
  168MPD2     C 2559   1.532   3.440  12.398 -0.0768 -0.9997  0.5576
  168MPD2    C1 2560   1.518   3.304  12.437  0.0223 -0.0745  0.1855
  168MPD2    C2 2561   1.519   3.215  12.334 -0.1265  0.3327 -0.0122
  168MPD2    C3 2562   1.536   3.247  12.200  0.1409  0.1950 -0.0734
  168MPD2    C4 2563   1.551   3.379  12.165 -0.0354 -0.5550  0.5018
  168MPD2    C5 2564   1.536   3.470  12.260  0.0210 -0.2272 -0.3865
  168MPD2     H 2565   1.499   3.112  12.360 -2.4066  0.7434 -0.1418
  168MPD2    H1 2566   1.571   3.413  12.064  0.8301 -3.1250 -0.1991
  168MPD2    H2 2567   1.528   3.524  12.467  2.1759 -1.4862  1.2573
  168MPD2    H3 2568   1.540   3.576  12.241  0.7530 -0.3008 -0.6286
  168MPD2     N 2569   1.545   3.138  12.117 -0.1093  1.3304  0.2057
  168MPD2    H5 2570   1.513   3.048  12.151  1.1203  0.1245 -1.8359
  168MPD2    N1 2571   1.501   3.255  12.567 -0.4864 -0.4297 -0.2869
  168MPD2    H7 2572   1.505   3.154  12.578  0.1805 -0.2128  1.4367
  169MPD1     C 2573   4.020   1.879   8.989  0.1888 -1.0891  0.8208
  169MPD1    C1 2574   4.146   1.837   9.001 -0.4346  0.3589  0.1909
  169MPD1    C2 2575   4.166   1.700   9.011 -0.3186 -0.5356 -0.6631
  169MPD1    C3 2576   4.061   1.611   9.011 -0.1533  0.7712  0.0998
  169MPD1    C4 2577   3.937   1.653   8.991  0.2807 -0.5323  0.5968
  169MPD1    C5 2578   3.917   1.789   8.985 -0.4545  0.1528  0.9278
  169MPD1     H 2579   4.263   1.653   9.021 -1.3719 -2.6549 -0.4662
  169MPD1    H1 2580   3.847   1.595   9.005 -1.2161  1.7499  0.4538
  169MPD1    H2 2581   3.994   1.984   8.978 -0.5851 -1.9224 -5.2718
  169MPD1    H3 2582   3.815   1.828   8.981 -0.4008  0.1919 -0.0742
  169MPD1     N 2583   4.094   1.473   9.030  0.5292  0.1804 -0.1531
  169MPD1    H5 2584   4.193   1.453   9.045 -0.4078 -2.7029  2.1575
  169MPD1    N1 2585   4.246   1.932   8.984  0.2150  0.4859  0.1316
  169MPD1    H6 2586   4.214   2.026   9.005 -3.2451 -1.0738  1.7697
  169MPD1    H7 2587   4.336   1.903   9.020  0.4171  0.8617 -0.0711
  170MPD1     C 2588   2.427   0.809  12.968  0.4071 -0.1037  0.1313
  170MPD1    C1 2589   2.390   0.945  12.975  0.2018  0.1401 -0.0027
  170MPD1    C2 2590   2.363   0.982  13.105  0.1621 -0.1190  0.2412
  170MPD1    C3 2591   2.379   0.892  13.214  0.1995 -0.5802  0.1568
  170MPD1    C4 2592   2.416   0.763  13.196 -0.0737  0.1974  0.6320
  170MPD1    C5 2593   2.443   0.730  13.072  0.1213  0.5938 -0.1673
  170MPD1     H 2594   2.323   1.081  13.122  2.0391  0.8859 -1.2952
  170MPD1    H1 2595   2.431   0.692  13.276 -1.1296 -1.1307 -0.3468
  170MPD1    H2 2596   2.446   0.757  12.875  0.4769  0.1048  0.0282
  170MPD1    H3 2597   2.484   0.630  13.063  0.7367  0.4652  4.2825
  170MPD1     N 2598   2.360   0.954  13.336  0.0582  0.5250 -0.5600
  170MPD1    H5 2599   2.357   1.055  13.347 -0.9904  0.3787  0.5139
  170MPD1    N1 2600   2.359   1.030  12.867 -0.4487 -0.1410 -0.3690
  170MPD1    H6 2601   2.329   1.121  12.903 -0.5416 -0.5599  0.6084
  170MPD1    H7 2602   2.413   1.023  12.781 -2.0191  2.3316 -1.5533
  171MPD1     C 2603   1.274   1.852  15.537  0.0442  0.6816  0.2029
  171MPD1    C1 2604   1.245   1.731  15.482  0.1717 -0.4621  0.1164
  171MPD1    C2 2605   1.252   1.616  15.558 -0.9745  0.5058  0.6595
  171MPD1    C3 2606   1.309   1.615  15.687 -0.9986  0.0515 -0.3136
  171MPD1    C4 2607   1.343   1.734  15.738  0.3366  0.5186 -0.0277
  171MPD1    C5 2608   1.319   1.853  15.670  0.3988  0.1483 -0.3702
  171MPD1     H 2609   1.196   1.532  15.521 -0.6363  0.8856 -0.7309
  171MPD1    H1 2610   1.368   1.755  15.842  1.6320  1.5348 -0.5484
  171MPD1    H2 2611   1.269   1.946  15.484 -0.6246 -0.9784 -2.6736
  171MPD1    H3 2612   1.338   1.949  15.716 -0.6098 -0.3759  1.1552
  171MPD1     N 2613   1.327   1.499  15.762  0.3369 -0.0302 -0.4617
  171MPD1    H5 2614   1.342   1.512  15.862  1.7713 -1.4743 -0.4794
  171MPD1    N1 2615   1.180   1.730  15.365  0.1797 -0.4857  0.2694
  171MPD1    H6 2616   1.234   1.785  15.299 -0.2016  1.7423  1.8238
  171MPD1    H7 2617   1.162   1.636  15.330  0.1098 -1.1690  2.1345
  172MPD1     C 2618   0.639   0.738   0.366  0.1071  0.2242 -0.0577
  172MPD1    C1 2619   0.507   0.773   0.397 -0.4405 -0.1838 -0.5881
  172MPD1    C2 2620   0.490   0.854   0.509  0.1932 -0.0975 -0.3121
  172MPD1    C3 2621   0.594   0.901   0.588  0.0458 -0.3679 -0.2890
  172MPD1    C4 2622   0.718   0.861   0.552 -0.9666  0.7818 -0.0406
  172MPD1    C5 2623   0.737   0.778   0.446 -0.2694  0.0777 -0.4865
  172MPD1     H 2624   0.388   0.885   0.530 -0.6535 -2.5417 -0.7673
  172MPD1    H1 2625   0.810   0.883   0.605 -1.6017 -0.0611  1.4185
  172MPD1    H2 2626   0.672   0.670   0.288  1.2252 -1.0058  1.4972
  172MPD1    H3 2627   0.839   0.745   0.429  0.7813  2.4166  1.2428
  172MPD1     N 2628   0.584   0.991   0.692 -0.1082 -0.0422 -0.3056
  172MPD1    H5 2629   0.671   1.022   0.732  0.1133 -0.9202 -0.1240
  172MPD1    N1 2630   0.400   0.733   0.316  0.1890 -0.5009 -0.6406
  172MPD1    H6 2631   0.417   0.699   0.221  2.6581  0.6234 -0.5955
  172MPD1    H7 2632   0.321   0.798   0.322  0.4764 -0.2228  0.1195
  173MPD1     C 2633   1.714   1.565  14.202  0.2682  0.4317 -0.2849
  173MPD1    C1 2634   1.733   1.472  14.093  0.0131 -0.1418  0.5510
  173MPD1    C2 2635   1.754   1.340  14.133  0.5723  0.6940 -0.0913
  173MPD1    C3 2636   1.771   1.311  14.270  0.8260  0.1567 -0.4300
  173MPD1    C4 2637   1.767   1.403  14.371  0.3165  0.0202  0.1439
  173MPD1    C5 2638   1.739   1.530  14.331 -0.2467 -0.2832 -0.0196
  173MPD1     H 2639   1.757   1.261  14.059  1.1165  1.8454 -1.2978
  173MPD1    H1 2640   1.784   1.380  14.475  0.8126 -1.5874 -0.3059
  173MPD1    H2 2641   1.684   1.668  14.184 -1.6294 -0.1297 -0.2863
  173MPD1    H3 2642   1.739   1.607  14.406 -0.6137  0.5215 -0.8491
  173MPD1     N 2643   1.793   1.171  14.297  0.4002 -0.7043 -0.8986
  173MPD1    H5 2644   1.808   1.114  14.214 -1.6339  0.3809 -2.0263
  173MPD1    N1 2645   1.707   1.500  13.960 -0.0255  0.4774  0.3035
  173MPD1    H6 2646   1.767   1.440  13.905 -2.6961 -2.1012  0.2028
  173MPD1    H7 2647   1.723   1.597  13.931  1.3493  0.3345  0.5978
  174MPD1     C 2648   1.385   0.655  13.772  0.5352 -0.5363  0.2105
  174MPD1    C1 2649   1.450   0.561  13.850 -0.7707 -0.2198 -0.3684
  174MPD1    C2 2650   1.521   0.600  13.959  0.3505 -0.0479  0.2365
  174MPD1    C3 2651   1.519   0.729  13.995 -0.8016 -0.8270  0.1811
  174MPD1    C4 2652   1.453   0.823  13.919 -0.3533  0.1513  0.1525
  174MPD1    C5 2653   1.384   0.791  13.805 -0.0672  0.4343  0.2704
  174MPD1     H 2654   1.578   0.525  14.011 -0.6332  0.6574  2.3175
  174MPD1    H1 2655   1.455   0.928  13.948 -0.7684  0.0630  0.5134
  174MPD1    H2 2656   1.330   0.626  13.683 -0.3905  1.6544  0.0830
  174MPD1    H3 2657   1.342   0.861  13.735 -1.2345 -0.6053 -0.0568
  174MPD1     N 2658   1.594   0.783  14.104 -0.3269  0.2187  0.1746
  174MPD1    H5 2659   1.578   0.881  14.123  0.7829  1.1915 -3.9984
  174MPD1    N1 2660   1.464   0.433  13.790 -0.9581  0.0654  0.0339
  174MPD1    H6 2661   1.380   0.396  13.745  0.4226 -0.0616 -2.4334
  174MPD1    H7 2662   1.499   0.366  13.858  1.0543  1.3073  0.2077
  175MPD1     C 2663   4.493   1.294  16.108 -0.1279 -0.5397  0.2599
  175MPD1    C1 2664   4.592   1.207  16.160 -0.4737  0.7045  0.1354
  175MPD1    C2 2665   4.645   1.253  16.279 -0.0988 -0.2968  0.4729
  175MPD1    C3 2666   4.595   1.366  16.344 -0.1806  0.1657 -0.1089
  175MPD1    C4 2667   4.499   1.439  16.289  0.8096  0.3356  0.5572
  175MPD1    C5 2668   4.448   1.412  16.167  0.0019 -0.5621  0.6383
  175MPD1     H 2669   4.720   1.186  16.321  0.8708  0.4340 -0.1009
  175MPD1    H1 2670   4.461   1.532  16.331 -2.3885 -0.3128 -0.9039
  175MPD1    H2 2671   4.446   1.269  16.013 -0.0766  0.5699 -0.0606
  175MPD1    H3 2672   4.372   1.479  16.128  2.0446  0.6056 -1.2932
  175MPD1     N 2673   4.633   1.412  16.463  0.2665  0.6039  0.1937
  175MPD1    H5 2674   4.603   1.507  16.483 -2.5763 -0.5766  1.5610
  175MPD1    N1 2675   4.646   1.101  16.088 -0.2562  0.3449  1.0499
  175MPD1    H6 2676   4.572   1.053  16.037  2.4183 -0.1767 -2.3514
  175MPD1    H7 2677   4.686   1.027  16.145 -1.6676  0.0644  1.6714
  176MPD1     C 2678   2.346   3.954   0.671  0.6323 -0.3601 -0.1811
  176MPD1    C1 2679   2.329   3.853   0.567 -0.1764 -0.0451  0.7369
  176MPD1    C2 2680   2.250   3.893   0.459 -0.5392  0.2268  0.2432
  176MPD1    C3 2681   2.171   4.008   0.456 -0.3654 -0.3518  0.3366
  176MPD1    C4 2682   2.195   4.103   0.560 -0.2758  0.0662  0.0921
  176MPD1    C5 2683   2.285   4.078   0.661  0.4961  0.6956 -0.3570
  176MPD1     H 2684   2.240   3.818   0.381  0.8300  3.1753 -2.7365
  176MPD1    H1 2685   2.151   4.201   0.562 -1.2955 -0.4248  2.0337
  176MPD1    H2 2686   2.420   3.945   0.750 -0.2387  0.0579  0.6840
  176MPD1    H3 2687   2.309   4.149   0.738 -1.7980  1.5265 -0.4241
  176MPD1     N 2688   2.069   4.013   0.353  0.2165  0.0917  0.2044
  176MPD1    H5 2689   2.068   3.940   0.283  0.1895  0.7075 -0.4367
  176MPD1    N1 2690   2.402   3.735   0.570 -0.2492  0.1016  0.6893
  176MPD1    H6 2691   2.417   3.711   0.668 -2.6201 -2.7524  0.3414
  176MPD1    H7 2692   2.352   3.657   0.530 -0.5977  1.7116 -1.9950
  177MPD1     C 2693   4.523   2.379   9.876 -0.4146 -0.7453 -0.3701
  177MPD1    C1 2694   4.444   2.301   9.793  0.1161  0.3662 -0.2159
  177MPD1    C2 2695   4.304   2.328   9.791  0.5308  0.6296 -0.2957
  177MPD1    C3 2696   4.245   2.429   9.865  0.0895  0.9986  0.4396
  177MPD1    C4 2697   4.328   2.509   9.945 -0.1128  0.5143  0.3180
  177MPD1    C5 2698   4.463   2.484   9.942  0.2824  0.3795 -0.6666
  177MPD1     H 2699   4.246   2.255   9.736  0.6611  0.4961 -0.2573
  177MPD1    H1 2700   4.296   2.590  10.009 -3.5363 -0.4760 -0.1462
  177MPD1    H2 2701   4.628   2.353   9.891 -0.0161  1.5424  0.8830
  177MPD1    H3 2702   4.525   2.541  10.011  3.2731 -1.8181 -1.5205
  177MPD1     N 2703   4.104   2.437   9.862 -0.0898  0.4834 -0.8162
  177MPD1    H5 2704   4.047   2.382   9.799  1.3346 -3.2532  1.1552
  177MPD1    N1 2705   4.499   2.181   9.741  0.0363  0.1945  0.1667
  177MPD1    H6 2706   4.442   2.162   9.660  0.2563  1.9734 -0.4169
  177MPD1    H7 2707   4.599   2.196   9.728 -0.2985  1.3397 -1.1440
  178MPD1     C 2708   2.239   0.581  16.859 -0.3142 -0.1145  0.3191
  178MPD1    C1 2709   2.189   0.489  16.947 -0.0731  0.5644 -0.2649
  178MPD1    C2 2710   2.278   0.423  17.038 -0.3947  0.2615  0.4011
  178MPD1    C3 2711   2.407   0.461  17.039  0.1853  0.5333  0.2242
  178MPD1    C4 2712   2.456   0.562  16.955  0.0194 -0.0721  0.0536
  178MPD1    C5 2713   2.371   0.613  16.866 -0.5168  0.2318  0.3239
  178MPD1     H 2714   2.237   0.355  17.112  0.0355 -0.1666  0.2450
  178MPD1    H1 2715   2.563   0.582  16.950  0.5504 -3.1809 -1.0957
  178MPD1    H2 2716   2.185   0.644  16.790  2.0348  0.0604 -1.3613
  178MPD1    H3 2717   2.407   0.692  16.801  0.6734 -1.1590 -0.7033
  178MPD1     N 2718   2.513   0.389  17.103 -0.0234 -0.6544 -0.0228
  178MPD1    H5 2719   2.607   0.423  17.086 -1.4014  3.6985  1.1503
  178MPD1    N1 2720   2.041   0.474  16.961  0.2500 -0.2615 -0.1890
  178MPD1    H6 2721   1.989   0.487  16.875 -0.2767  1.2509  0.3627
  178MPD1    H7 2722   2.014   0.385  17.004 -2.3290  0.6999  0.1805
  179MPD1     C 2723   1.875   2.934  15.231 -0.0218  0.0744  0.4338
  179MPD1    C1 2724   1.910   2.827  15.145  0.3626 -0.2567 -0.6408
  179MPD1    C2 2725   1.927   2.704  15.203 -0.1847  0.5897 -0.4252
  179MPD1    C3 2726   1.907   2.674  15.336  1.3061  0.8921 -0.9446
  179MPD1    C4 2727   1.868   2.781  15.423  0.0348  0.6456 -0.1334
  179MPD1    C5 2728   1.859   2.905  15.362  0.3069  0.5014  0.2977
  179MPD1     H 2729   1.941   2.619  15.137  1.8343  0.7281 -0.1828
  179MPD1    H1 2730   1.842   2.762  15.527 -1.4877 -0.1371 -0.6588
  179MPD1    H2 2731   1.874   3.038  15.198  0.9842 -0.4152 -1.1091
  179MPD1    H3 2732   1.852   2.986  15.434 -1.0256  0.9764 -0.3851
  179MPD1     N 2733   1.908   2.541  15.393  0.4337 -0.4220 -0.1125
  179MPD1    H5 2734   1.879   2.527  15.490  1.0192  0.0996  0.1341
  179MPD1    N1 2735   1.950   2.852  15.009  0.0448 -0.3413  0.1969
  179MPD1    H6 2736   1.932   2.774  14.946 -0.5509  0.8302 -1.0678
  179MPD1    H7 2737   1.906   2.937  14.976  0.5634 -0.0680  0.2053
  180MPD1     C 2738   2.422   4.166  15.515  0.1684  0.6600  0.0216
  180MPD1    C1 2739   2.518   4.228  15.434 -0.3431  0.1816 -0.5153
  180MPD1    C2 2740   2.508   4.212  15.300  0.0144 -0.4929  0.0543
  180MPD1    C3 2741   2.403   4.140  15.246  0.0215  0.6158  0.9662
  180MPD1    C4 2742   2.310   4.078  15.324 -0.7352 -0.4094 -0.2628
  180MPD1    C5 2743   2.320   4.094  15.460  0.4087  0.4049  0.3510
  180MPD1     H 2744   2.576   4.276  15.245  0.7442  0.3143  1.9102
  180MPD1    H1 2745   2.230   4.022  15.278 -0.6478  0.4453 -1.4706
  180MPD1    H2 2746   2.427   4.161  15.623 -1.7160 -0.1512  0.0649
  180MPD1    H3 2747   2.252   4.052  15.533  0.1161 -1.1752 -0.8450
  180MPD1     N 2748   2.375   4.133  15.116 -0.3869 -0.5872  0.3712
  180MPD1    H5 2749   2.304   4.064  15.094  0.2771 -1.5111  1.0832
  180MPD1    N1 2750   2.596   4.327  15.492 -0.6988 -0.1776  0.4466
  180MPD1    H6 2751   2.617   4.315  15.591  1.2846  1.8172  0.2668
  180MPD1    H7 2752   2.682   4.350  15.444  0.7147 -3.3242  1.4534
  181MPD1     C 2753   3.589   0.547   9.039  0.1073  0.1830 -0.1206
  181MPD1    C1 2754   3.596   0.410   9.048  0.5066 -0.0810 -0.3300
  181MPD1    C2 2755   3.671   0.362   9.158  0.3060 -0.4222 -0.1190
  181MPD1    C3 2756   3.740   0.452   9.237 -0.0596  0.7951  0.7046
  181MPD1    C4 2757   3.736   0.585   9.221  0.4429  0.3932  0.7403
  181MPD1    C5 2758   3.661   0.627   9.118 -0.2808  0.4353 -0.3101
  181MPD1     H 2759   3.683   0.255   9.169  2.2547 -0.2461 -0.6055
  181MPD1    H1 2760   3.806   0.650   9.272  1.3488 -0.0923  0.1155
  181MPD1    H2 2761   3.526   0.585   8.960 -1.0216  1.1383  1.2350
  181MPD1    H3 2762   3.657   0.733   9.094 -0.9062  0.8410  1.6079
  181MPD1     N 2763   3.826   0.410   9.342 -0.0977 -0.3058  0.0818
  181MPD1    H5 2764   3.882   0.478   9.391 -2.0560  0.1725  1.6828
  181MPD1    N1 2765   3.516   0.329   8.965  0.2480 -0.4420 -0.3799
  181MPD1    H6 2766   3.553   0.234   8.971 -1.1220 -0.7427  3.6653
  181MPD1    H7 2767   3.504   0.362   8.869 -2.5008 -1.8788 -0.5351
  182MPD1     C 2768   4.699   0.407   1.884  0.3518 -0.1058 -0.2633
  182MPD1    C1 2769   4.723   0.307   1.790  0.0380  0.3318  0.9531
  182MPD1    C2 2770   4.694   0.334   1.663 -0.4315  0.5278 -0.0971
  182MPD1    C3 2771   4.625   0.450   1.639 -0.0565 -0.5995 -0.7240
  182MPD1    C4 2772   4.620   0.560   1.726  0.2410  0.8034 -0.2953
  182MPD1    C5 2773   4.658   0.535   1.854  0.0711 -0.6259  0.4414
  182MPD1     H 2774   4.705   0.253   1.592  0.5276 -0.5833  1.3119
  182MPD1    H1 2775   4.582   0.660   1.707 -1.1792  0.5448  1.1978
  182MPD1    H2 2776   4.721   0.382   1.987  1.3772  1.3223 -0.1375
  182MPD1    H3 2777   4.671   0.610   1.931  0.6419 -1.3861  1.0860
  182MPD1     N 2778   4.585   0.476   1.507 -0.4167 -0.1776  0.0595
  182MPD1    H5 2779   4.571   0.576   1.493 -0.0211 -0.1654 -0.2604
  182MPD1    N1 2780   0.052   0.183   1.823 -0.0337  0.5090 -0.1393
  182MPD1    H6 2781   0.045   0.172   1.924  1.4801  1.7094  0.0991
  182MPD1    H7 2782   0.029   0.098   1.773 -2.0332  1.5894 -1.0687
  183MPD1     C 2783   3.619   3.654   8.734  0.2951  0.5575 -0.3797
  183MPD1    C1 2784   3.742   3.607   8.771  0.8406 -0.6132  0.4261
  183MPD1    C2 2785   3.835   3.689   8.826  0.5375  0.7836  0.2900
  183MPD1    C3 2786   3.798   3.822   8.845 -0.8886  0.4984  0.0425
  183MPD1    C4 2787   3.668   3.862   8.820 -0.7345  0.0560 -0.4097
  183MPD1    C5 2788   3.575   3.781   8.760 -0.2656 -0.6542  0.2028
  183MPD1     H 2789   3.930   3.646   8.858  1.6145  2.8440 -0.1023
  183MPD1    H1 2790   3.635   3.964   8.835  0.0144  0.2119  0.1825
  183MPD1    H2 2791   3.548   3.590   8.683 -0.4547 -1.2113  2.8577
  183MPD1    H3 2792   3.472   3.804   8.736 -0.2063  0.9989  1.5503
  183MPD1     N 2793   3.892   3.904   8.905 -0.1130  0.0489 -0.3671
  183MPD1    H5 2794   3.977   3.857   8.936 -0.0763 -0.7920 -1.7392
  183MPD1    N1 2795   3.774   3.472   8.746 -0.2041 -0.0964 -0.0652
  183MPD1    H6 2796   3.696   3.408   8.759 -1.0207  1.3079  1.9622
  183MPD1    H7 2797   3.842   3.444   8.816  0.1191 -0.8942 -0.6914
  184MPD1     C 2798   0.201   2.105  10.550 -0.0616 -0.2630 -0.6180
  184MPD1    C1 2799   0.177   2.080  10.416  0.1246 -0.3960 -0.5521
  184MPD1    C2 2800   0.060   2.123  10.361  0.1678 -0.1944  0.3300
  184MPD1    C3 2801   4.703   2.209  10.437 -0.3103  0.3369 -0.7955
  184MPD1    C4 2802   0.013   2.238  10.566 -0.0546 -0.1555 -0.2810
  184MPD1    C5 2803   0.131   2.201  10.617 -0.3496 -0.0639 -0.5095
  184MPD1     H 2804   0.043   2.103  10.255  1.6446  1.2300 -0.1776
  184MPD1    H1 2805   4.672   2.294  10.634  0.1957 -0.2647  0.0450
  184MPD1    H2 2806   0.288   2.073  10.606 -1.3696  0.8810  2.0787
  184MPD1    H3 2807   0.161   2.241  10.714 -0.9246 -2.5025  0.6804
  184MPD1     N 2808   4.584   2.267  10.386  0.4182  0.2024 -0.5979
  184MPD1    H5 2809   4.522   2.317  10.448 -0.7393  2.1594 -3.3332
  184MPD1    N1 2810   0.264   1.980  10.365  0.7572 -0.0551  0.0234
  184MPD1    H6 2811   0.342   1.953  10.424  2.0100  0.3209 -1.4727
  184MPD1    H7 2812   0.284   1.974  10.265  1.5176 -0.8658  0.2266
  185MPD1     C 2813   3.885   1.824   9.856 -0.3081  0.1240 -0.1735
  185MPD1    C1 2814   3.823   1.928   9.920 -0.8725  0.8002  0.0063
  185MPD1    C2 2815   3.905   2.011   9.992 -0.1000  0.1135  0.6752
  185MPD1    C3 2816   4.047   2.018   9.985 -0.1538  0.4436 -0.0720
  185MPD1    C4 2817   4.101   1.918   9.906 -0.2432 -0.3938  0.0750
  185MPD1    C5 2818   4.024   1.822   9.845  0.7244 -0.3192 -0.1413
  185MPD1     H 2819   3.849   2.074  10.060 -1.0779 -1.8601  1.6909
  185MPD1    H1 2820   4.208   1.921   9.891 -0.5265  2.0984 -1.4495
  185MPD1    H2 2821   3.822   1.753   9.803 -0.9014  1.1965 -0.8840
  185MPD1    H3 2822   4.075   1.752   9.780  1.9308  0.1380  0.3242
  185MPD1     N 2823   4.126   2.113  10.053 -0.4402  0.0442  0.0944
  185MPD1    H5 2824   4.225   2.113  10.030 -0.5982  1.4291 -0.5992
  185MPD1    N1 2825   3.683   1.922   9.950  0.2426  0.1496  0.2158
  185MPD1    H6 2826   3.639   2.011   9.968 -1.4252 -1.0587  2.1550
  185MPD1    H7 2827   3.635   1.885   9.868 -2.7449  1.5312  1.3472
  186MPD1     C 2828   2.953   2.697  15.796  0.1425  0.1512  0.6652
  186MPD1    C1 2829   2.830   2.764  15.800 -0.1353  0.8847 -0.4004
  186MPD1    C2 2830   2.805   2.842  15.907  0.6755  0.6454 -0.1367
  186MPD1    C3 2831   2.902   2.846  16.009 -0.7350  0.1267 -0.1109
  186MPD1    C4 2832   3.019   2.783  15.998 -0.3788  0.0361 -0.1526
  186MPD1    C5 2833   3.051   2.704  15.893 -0.0482  0.3710 -1.0239
  186MPD1     H 2834   2.705   2.885  15.911  0.6031  0.6371 -1.8228
  186MPD1    H1 2835   3.094   2.785  16.076 -1.6145  2.3820  0.9815
  186MPD1    H2 2836   2.983   2.634  15.713  0.5983  0.8687  0.2796
  186MPD1    H3 2837   3.151   2.663  15.883 -1.4803 -3.1262 -1.0012
  186MPD1     N 2838   2.889   2.925  16.126 -0.2536  0.2175  0.4080
  186MPD1    H5 2839   2.975   2.931  16.179 -0.5216  0.1354  0.8474
  186MPD1    N1 2840   2.726   2.737  15.712 -0.2176 -0.4445 -0.4718
  186MPD1    H6 2841   2.661   2.812  15.692  2.7331  2.4511  0.7113
  186MPD1    H7 2842   2.754   2.686  15.628  1.0223  3.6009 -2.4867
  187MPD1     C 2843   2.390   4.432   0.047 -0.2459 -0.3715 -0.5063
  187MPD1    C1 2844   2.263   4.382   0.069  1.1506 -1.1825  0.5113
  187MPD1    C2 2845   2.162   4.440  17.691 -0.5995 -0.3728  0.3224
  187MPD1    C3 2846   2.185   4.547  17.602 -0.3102  0.0840 -0.0541
  187MPD1    C4 2847   2.317   4.589  17.581 -0.0787  0.7105 -0.0995
  187MPD1    C5 2848   2.414   4.533  17.653  0.0492  0.7099 -0.3667
  187MPD1     H 2849   2.062   4.400   0.007 -0.5625 -0.5015  0.1729
  187MPD1    H1 2850   2.343   4.666  17.510  3.5869  0.5903  1.0917
  187MPD1    H2 2851   2.477   4.398   0.102 -0.6596 -0.5462  0.0493
  187MPD1    H3 2852   2.517   4.566  17.641  0.7337 -0.5678  1.8583
  187MPD1     N 2853   2.087   4.629  17.535  0.5371  0.4152  0.4513
  187MPD1    H5 2854   2.126   4.709  17.485  1.1946 -0.7398 -0.9150
  187MPD1    N1 2855   2.233   4.288   0.174 -0.4636  0.3372  0.0927
  187MPD1    H6 2856   2.152   4.228   0.160  0.7658 -1.5560  0.9913
  187MPD1    H7 2857   2.310   4.223   0.189 -0.8873 -0.7275 -2.3654
  188MPD1     C 2858   3.030   3.811   9.381  0.2746  0.2045  0.2814
  188MPD1    C1 2859   2.953   3.858   9.484 -0.9350  0.1036 -0.1963
  188MPD1    C2 2860   2.814   3.814   9.484 -0.0160  0.7654 -0.3600
  188MPD1    C3 2861   2.767   3.712   9.407 -0.0719  0.3858 -0.0513
  188MPD1    C4 2862   2.854   3.647   9.326 -0.5595 -0.2143 -0.2212
  188MPD1    C5 2863   2.983   3.701   9.312  0.5352  0.5136  0.4638
  188MPD1     H 2864   2.746   3.873   9.544 -0.2696  0.6992 -0.5870
  188MPD1    H1 2865   2.828   3.575   9.250  0.5850 -1.3343  0.4339
  188MPD1    H2 2866   3.136   3.830   9.376  0.3210 -0.1045  0.1147
  188MPD1    H3 2867   3.055   3.657   9.243  2.0220  0.9363  1.7350
  188MPD1     N 2868   2.636   3.666   9.399 -0.2209  0.1214  0.4540
  188MPD1    H5 2869   2.635   3.581   9.343 -2.2135  0.2116  0.3528
  188MPD1    N1 2870   3.002   3.963   9.563  0.3446  0.0483 -0.3556
  188MPD1    H6 2871   2.958   3.942   9.653  0.7273 -0.3123 -0.2553
  188MPD1    H7 2872   3.101   3.941   9.567 -0.3489 -2.7609  1.4592
  189MPD1     C 2873   3.536   0.712   0.368 -0.6405  0.4770 -0.4781
  189MPD1    C1 2874   3.399   0.694   0.385 -0.1223 -0.4161 -0.1510
  189MPD1    C2 2875   3.316   0.808   0.378  0.3125 -0.1343 -0.0487
  189MPD1    C3 2876   3.363   0.929   0.323 -0.3429  0.3367  0.1087
  189MPD1    C4 2877   3.495   0.941   0.280  0.7710 -0.2148  0.5721
  189MPD1    C5 2878   3.575   0.831   0.312  0.5490 -0.3083 -0.4290
  189MPD1     H 2879   3.217   0.812   0.423  0.8383  0.6911  1.0370
  189MPD1    H1 2880   3.542   1.025   0.231 -0.7319 -0.7224 -1.7670
  189MPD1    H2 2881   3.611   0.636   0.382 -1.0958  0.0499 -0.3593
  189MPD1    H3 2882   3.676   0.838   0.275 -0.4509  2.5626 -2.6274
  189MPD1     N 2883   3.276   1.043   0.312 -0.7291  0.4028  0.2242
  189MPD1    H5 2884   3.186   1.017   0.352 -0.6487 -2.0045 -1.1425
  189MPD1    N1 2885   3.356   0.573   0.446  0.5530  0.2618  0.3288
  189MPD1    H6 2886   3.267   0.545   0.404  0.5041  0.1706  0.4956
  189MPD1    H7 2887   3.421   0.505   0.406 -1.5160 -1.4733 -0.0939
  190MPD1     C 2888   1.839   3.660  15.560  0.2217  0.0664 -0.7271
  190MPD1    C1 2889   1.845   3.744  15.672  0.3124  0.2662 -0.0756
  190MPD1    C2 2890   1.973   3.778  15.721  0.6040  0.1920  0.3548
  190MPD1    C3 2891   2.083   3.748  15.645 -0.3026 -0.2952 -0.3453
  190MPD1    C4 2892   2.067   3.688  15.521  0.3079 -0.2780 -0.6305
  190MPD1    C5 2893   1.946   3.636  15.487  0.3909 -0.0445 -0.4693
  190MPD1     H 2894   1.985   3.823  15.819  2.0991  0.3271  0.1211
  190MPD1    H1 2895   2.141   3.666  15.445  2.8119  0.7189  1.5192
  190MPD1    H2 2896   1.746   3.620  15.522  0.1746 -2.7031  2.3181
  190MPD1    H3 2897   1.940   3.579  15.395  0.1740 -0.1826 -0.3709
  190MPD1     N 2898   2.210   3.796  15.683 -0.2336  0.1323  0.1771
  190MPD1    H5 2899   2.226   3.841  15.773 -0.0253  0.6558 -0.1209
  190MPD1    N1 2900   1.730   3.785  15.748  0.4405 -0.8394 -0.6074
  190MPD1    H6 2901   1.730   3.881  15.782  0.6198 -0.9524 -0.2906
  190MPD1    H7 2902   1.634   3.780  15.712 -0.1573  0.3533  0.8537
  191MPD1     C 2903   2.456   0.059  12.625  0.0565  0.5287 -0.5824
  191MPD1    C1 2904   2.430   0.155  12.520  0.3058 -0.0825 -0.9433
  191MPD1    C2 2905   2.365   0.271  12.555  0.6217  0.5774  0.5777
  191MPD1    C3 2906   2.351   0.310  12.686  0.1055  0.0831 -0.2276
  191MPD1    C4 2907   2.395   0.226  12.789 -0.5314  0.4427 -0.1574
  191MPD1    C5 2908   2.448   0.103  12.757  0.2871 -0.6780  0.1173
  191MPD1     H 2909   2.328   0.336  12.476  1.1405 -0.3055 -0.3960
  191MPD1    H1 2910   2.404   0.261  12.891  2.3092  0.7006 -0.4956
  191MPD1    H2 2911   2.501   4.687  12.599  0.0503 -0.2035  2.1174
  191MPD1    H3 2912   2.489   0.045  12.839 -1.8205 -2.7129 -0.2589
  191MPD1     N 2913   2.305   0.446  12.706 -0.7003 -0.6512 -0.0622
  191MPD1    H5 2914   2.293   0.501  12.622 -1.5946  1.7265  1.6169
  191MPD1    N1 2915   2.449   0.106  12.388 -0.1103  0.3241 -0.0284
  191MPD1    H6 2916   2.517   0.032  12.371 -0.9844 -0.3771 -0.4880
  191MPD1    H7 2917   2.459   0.170  12.309 -1.4675  0.0619 -0.4199
  192MPD1     C 2918   1.891   0.950  13.498  0.2914 -0.1653  0.4035
  192MPD1    C1 2919   1.882   1.038  13.388 -0.3637  0.0280  0.5588
  192MPD1    C2 2920   1.931   1.000  13.264  0.4039 -0.4303  0.0900
  192MPD1    C3 2921   2.005   0.883  13.255  0.1357 -0.6558  0.7026
  192MPD1    C4 2922   2.029   0.806  13.370 -0.3186  0.0936  0.1255
  192MPD1    C5 2923   1.965   0.840  13.488  0.1835 -0.4636  0.0835
  192MPD1     H 2924   1.908   1.057  13.174  0.7147  0.5095  0.6011
  192MPD1    H1 2925   2.084   0.713  13.360 -0.2827 -0.0790  1.9930
  192MPD1    H2 2926   1.839   0.980  13.589  0.8911  0.6484  0.4786
  192MPD1    H3 2927   1.967   0.777  13.576  1.4680 -0.5896 -0.0381
  192MPD1     N 2928   2.056   0.835  13.131  0.3174 -0.1968  0.2586
  192MPD1    H5 2929   2.098   0.743  13.139  0.3076 -0.1109  1.3043
  192MPD1    N1 2930   1.792   1.151  13.390  0.0090  0.5627  0.1865
  192MPD1    H6 2931   1.767   1.191  13.480 -0.2123  1.2338 -0.1750
  192MPD1    H7 2932   1.825   1.226  13.330 -2.4035  2.2469  0.9735
  193MPD1     C 2933   1.285   1.038  16.982  0.5581 -0.9571 -0.2291
  193MPD1    C1 2934   1.205   1.151  16.976  0.0631  0.0753 -0.8114
  193MPD1    C2 2935   1.261   1.270  16.947  0.6092 -0.2859 -0.4701
  193MPD1    C3 2936   1.393   1.279  16.906  0.2325  0.6664 -0.1659
  193MPD1    C4 2937   1.468   1.162  16.899 -0.5566 -0.0828  0.6374
  193MPD1    C5 2938   1.413   1.044  16.946 -0.2166  0.2513  0.3074
  193MPD1     H 2939   1.202   1.361  16.950 -0.3593 -0.9905  1.7497
  193MPD1    H1 2940   1.574   1.159  16.874 -0.4525 -0.8902  1.1917
  193MPD1    H2 2941   1.251   0.939  17.011 -1.7063 -0.0039  0.4322
  193MPD1    H3 2942   1.472   0.954  16.950 -0.3466  0.2213  1.5652
  193MPD1     N 2943   1.469   1.400  16.883 -0.1335  0.5242  0.4993
  193MPD1    H5 2944   1.566   1.387  16.858 -0.3760 -2.0027  0.7835
  193MPD1    N1 2945   1.073   1.147  17.027  0.3096 -0.2835  0.1822
  193MPD1    H6 2946   1.012   1.201  16.965  1.3751  0.7470  0.0259
  193MPD1    H7 2947   1.037   1.051  17.027 -0.5695  0.0296 -1.2733
  194MPD1     C 2948   4.447   4.073  17.354 -0.5847  0.8530 -0.0913
  194MPD1    C1 2949   4.315   4.078  17.376  0.5645 -0.3413 -0.1776
  194MPD1    C2 2950   4.259   3.958  17.384  0.7015  0.2480 -0.3924
  194MPD1    C3 2951   4.328   3.840  17.344  0.0146  0.0774  0.4181
  194MPD1    C4 2952   4.460   3.835  17.313 -0.2350  0.1292  0.0665
  194MPD1    C5 2953   4.518   3.961  17.315  0.8374 -0.1349 -0.3454
  194MPD1     H 2954   4.153   3.955  17.406  0.4920 -0.5397 -1.5305
  194MPD1    H1 2955   4.518   3.748  17.287  0.1770  0.8168 -1.3346
  194MPD1    H2 2956   4.501   4.166  17.354  2.1157 -0.7073 -0.0393
  194MPD1    H3 2957   4.625   3.965  17.297  1.1282 -0.1181  1.4052
  194MPD1     N 2958   4.262   3.717  17.323 -0.2260  0.2645  0.1369
  194MPD1    H5 2959   4.312   3.630  17.305 -0.1448  0.4124 -0.3354
  194MPD1    N1 2960   4.246   4.203  17.398 -0.0015 -0.2010  0.1765
  194MPD1    H6 2961   4.145   4.189  17.396 -0.0319  0.1150 -0.2032
  194MPD1    H7 2962   4.274   4.286  17.348  1.0165 -1.0194 -0.6311
  195MPD1     C 2963   0.987   0.931  17.641 -0.0897 -0.5536 -0.6644
  195MPD1    C1 2964   0.920   0.894   0.061  0.4994 -0.2662 -1.1329
  195MPD1    C2 2965   0.946   0.773   0.121 -0.4011 -0.4985 -0.0991
  195MPD1    C3 2966   1.032   0.680   0.058 -0.0788 -0.4889 -0.4522
  195MPD1    C4 2967   1.091   0.722  17.631  0.2909  0.9260  0.1348
  195MPD1    C5 2968   1.073   0.848  17.576  0.1562  0.5241  0.2260
  195MPD1     H 2969   0.900   0.754   0.217 -0.2016 -1.6541 -0.2273
  195MPD1    H1 2970   1.168   0.660  17.585 -1.3572 -0.3710 -0.8719
  195MPD1    H2 2971   0.967   1.025  17.592  0.2944  0.0298  0.3073
  195MPD1    H3 2972   1.125   0.867  17.484 -0.0159 -1.6691 -0.3267
  195MPD1     N 2973   1.072   0.550   0.104  0.5141 -0.2238  0.1904
  195MPD1    H5 2974   1.142   0.497   0.055  1.4283  0.9206  0.2703
  195MPD1    N1 2975   0.839   0.985   0.124  0.2573 -0.5406 -0.6101
  195MPD1    H6 2976   0.813   1.053   0.053  2.6533  1.2623  0.2352
  195MPD1    H7 2977   0.758   0.929   0.149  1.0989 -1.1936  0.6508
  196MPD1     C 2978   0.263   3.875   0.785 -0.4887  0.1317 -0.4351
  196MPD1    C1 2979   0.229   4.007   0.747  0.1372  0.1990  0.2745
  196MPD1    C2 2980   0.260   4.122   0.824 -0.2659 -0.1385  0.2450
  196MPD1    C3 2981   0.292   4.109   0.963  0.0973  0.3017  0.5338
  196MPD1    C4 2982   0.315   3.980   1.003  0.1806 -0.2386  0.1630
  196MPD1    C5 2983   0.297   3.869   0.919  0.2950 -0.0145 -0.8821
  196MPD1     H 2984   0.258   4.217   0.771 -1.9950 -0.0195  0.5347
  196MPD1    H1 2985   0.353   3.961   1.102 -0.6457 -1.3239  0.2654
  196MPD1    H2 2986   0.257   3.783   0.728 -0.0459 -0.3504  0.2982
  196MPD1    H3 2987   0.310   3.769   0.960  0.6008  0.5104  0.2842
  196MPD1     N 2988   0.312   4.214   1.055 -0.1277  0.4363  0.5007
  196MPD1    H5 2989   0.323   4.190   1.153  0.6517  0.1469  0.3422
  196MPD1    N1 2990   0.187   4.022   0.613 -0.3968 -0.2112  0.0798
  196MPD1    H6 2991   0.125   3.948   0.580  1.0822 -1.2304 -0.4180
  196MPD1    H7 2992   0.159   4.117   0.590 -0.1349 -0.9081 -3.0248
  197MPD1     C 2993   0.116   2.549   0.585  0.6079 -0.2978  0.6996
  197MPD1    C1 2994   0.133   2.422   0.540 -0.2183  0.4778 -0.7360
  197MPD1    C2 2995   0.142   2.400   0.403 -0.2965 -0.8189 -1.2743
  197MPD1    C3 2996   0.125   2.503   0.310  0.3407 -0.1313  0.2668
  197MPD1    C4 2997   0.092   2.629   0.362 -0.0656 -0.0919 -0.0061
  197MPD1    C5 2998   0.083   2.644   0.496 -0.2440  0.3245 -0.0527
  197MPD1     H 2999   0.168   2.299   0.372  0.4762 -1.1550  0.4650
  197MPD1    H1 3000   0.072   2.707   0.290 -0.6891  0.7568  1.0699
  197MPD1    H2 3001   0.131   2.580   0.688 -0.6797  0.5777  0.6330
  197MPD1    H3 3002   0.072   2.742   0.542  1.0393  0.8234 -0.8107
  197MPD1     N 3003   0.126   2.482   0.173  0.5566  0.1250 -0.0422
  197MPD1    H5 3004   0.116   2.568   0.120 -2.3197 -0.9834 -1.3152
  197MPD1    N1 3005   0.154   2.312   0.626  0.1813 -1.0401 -0.4838
  197MPD1    H6 3006   0.106   2.316   0.716 -1.1814  2.2974 -1.3675
  197MPD1    H7 3007   0.136   2.220   0.585  1.5217 -1.2845 -0.4987
  198MPD1     C 3008   2.196   4.456  15.557  0.1977 -0.2638 -0.6004
  198MPD1    C1 3009   2.281   4.494  15.657 -0.4629 -0.2855  0.2270
  198MPD1    C2 3010   2.233   4.590  15.739  0.3429 -0.6900  0.0601
  198MPD1    C3 3011   2.113   4.663  15.721  0.4853 -0.2908 -0.9378
  198MPD1    C4 3012   2.034   4.616  15.621 -0.4009 -0.1899 -0.4854
  198MPD1    C5 3013   2.071   4.514  15.544 -0.3616 -0.8851 -0.4946
  198MPD1     H 3014   2.294   4.633  15.818 -0.0347 -1.9117  1.0244
  198MPD1    H1 3015   1.931   4.646  15.602 -0.1351 -0.1649 -1.8886
  198MPD1    H2 3016   2.224   4.381  15.483  0.3779 -0.2212 -0.5762
  198MPD1    H3 3017   2.004   4.484  15.465  0.3450  0.1341 -1.4696
  198MPD1     N 3018   2.089   0.046  15.810 -0.5281 -0.0412  0.2229
  198MPD1    H5 3019   2.144   0.052  15.895 -0.4805 -1.3355  0.2749
  198MPD1    N1 3020   2.400   4.424  15.682  0.1250  0.2436 -0.0139
  198MPD1    H6 3021   2.445   4.392  15.596  0.1762  0.3543 -0.0279
  198MPD1    H7 3022   2.471   4.483  15.724  1.8542 -1.9738  0.1837
  199MPD1     C 3023   0.068   0.039   9.677  0.2611  0.0142 -0.4553
  199MPD1    C1 3024   0.038   4.655   9.604  0.5639  0.7993  0.1045
  199MPD1    C2 3025   4.666   4.678   9.509  0.7300  0.2563 -0.1018
  199MPD1    C3 3026   4.592   0.075   9.499  0.1368  0.5712 -0.0107
  199MPD1    C4 3027   4.616   0.173   9.590 -0.3742  0.0958 -0.5998
  199MPD1    C5 3028   4.715   0.153   9.681  0.2848 -0.4065 -0.0611
  199MPD1     H 3029   4.643   4.592   9.446  1.5455  0.3635 -0.5524
  199MPD1    H1 3030   4.562   0.267   9.593  0.0496  0.3230 -0.1775
  199MPD1    H2 3031   0.143   0.026   9.755 -0.7784 -0.4419  0.4800
  199MPD1    H3 3032   0.019   0.241   9.738 -1.6157 -0.4804  0.9423
  199MPD1     N 3033   4.477   0.088   9.410  0.0673  0.7781 -0.0950
  199MPD1    H5 3034   4.422   0.171   9.393 -0.2474  0.8573  1.2809
  199MPD1    N1 3035   0.107   4.529   9.601  0.2900  0.6537  0.5390
  199MPD1    H6 3036   0.049   4.451   9.569 -2.0178  2.6916 -0.2736
  199MPD1    H7 3037   0.151   4.505   9.690  1.2012 -1.6516 -0.5149
  200MPD1     C 3038   2.727   1.415  15.496 -0.0065 -0.1772  0.2273
  200MPD1    C1 3039   2.863   1.409  15.527 -0.1408  0.0885 -0.5789
  200MPD1    C2 3040   2.950   1.441  15.428 -1.0418 -0.0886 -0.3818
  200MPD1    C3 3041   2.904   1.481  15.304 -0.0974 -0.1806  0.5623
  200MPD1    C4 3042   2.767   1.484  15.277 -0.7417  0.1765 -0.2068
  200MPD1    C5 3043   2.677   1.441  15.369 -0.2432 -0.5579 -0.4858
  200MPD1     H 3044   3.057   1.444  15.448 -1.0328  1.4785 -0.6902
  200MPD1    H1 3045   2.722   1.517  15.184 -0.6152  0.1254 -0.2857
  200MPD1    H2 3046   2.661   1.390  15.578 -1.4757  2.0146 -0.2863
  200MPD1    H3 3047   2.573   1.442  15.339 -0.7909  1.1010  1.4877
  200MPD1     N 3048   3.001   1.503  15.206  0.2369 -0.5559 -0.1848
  200MPD1    H5 3049   3.099   1.496  15.233  0.0209 -0.1453  0.7055
  200MPD1    N1 3050   2.902   1.390  15.657  0.2065  0.2054 -0.4112
  200MPD1    H6 3051   2.831   1.346  15.715  1.4815 -2.3954 -0.8216
  200MPD1    H7 3052   2.988   1.335  15.658  0.2079  0.2348  1.8276
  201MPD1     C 3053   2.015   0.582  13.741 -0.6168  0.3906  0.5918
  201MPD1    C1 3054   1.893   0.632  13.784 -0.3251  0.1989  0.0252
  201MPD1    C2 3055   1.787   0.588  13.703  0.3104 -0.1173 -0.5445
  201MPD1    C3 3056   1.798   0.507  13.590  0.1073  0.3932 -0.0541
  201MPD1    C4 3057   1.924   0.469  13.551  0.2857  0.3030 -0.1644
  201MPD1    C5 3058   2.026   0.512  13.627 -0.0387  0.2138 -0.5911
  201MPD1     H 3059   1.685   0.610  13.735  0.4678 -0.4942  0.2179
  201MPD1    H1 3060   1.956   0.399  13.474 -0.7502  0.1212 -0.4261
  201MPD1    H2 3061   2.111   0.600  13.788 -0.5538  0.1791  0.5454
  201MPD1    H3 3062   2.128   0.480  13.610  0.3939  1.4840 -0.3954
  201MPD1     N 3063   1.684   0.466  13.519  0.5804 -0.0295  0.0717
  201MPD1    H5 3064   1.595   0.483  13.565  1.9984  4.0257  1.3940
  201MPD1    N1 3065   1.878   0.713  13.889 -0.4113 -0.5558 -0.2920
  201MPD1    H6 3066   1.880   0.653  13.972 -0.2481  1.1045  0.8954
  201MPD1    H7 3067   1.784   0.750  13.881  0.5870  2.2693  1.1164
  202MPD1     C 3068   3.786   3.014   9.126  0.6345 -0.1268 -0.9089
  202MPD1    C1 3069   3.887   2.921   9.156 -0.0834  0.6222 -0.4046
  202MPD1    C2 3070   4.002   2.969   9.219 -1.2132  0.0301 -0.5344
  202MPD1    C3 3071   4.003   3.091   9.289  0.1058 -0.1998  0.1702
  202MPD1    C4 3072   3.894   3.172   9.272  0.5679  0.8492 -0.0921
  202MPD1    C5 3073   3.797   3.138   9.176  0.4193 -0.2610 -0.3151
  202MPD1     H 3074   4.077   2.891   9.230 -0.7727  0.6816  1.0604
  202MPD1    H1 3075   3.897   3.274   9.306  1.2934  0.6283  0.5032
  202MPD1    H2 3076   3.712   2.999   9.048  1.8380 -0.7145 -1.9305
  202MPD1    H3 3077   3.727   3.215   9.146  3.5521  2.2427 -1.3191
  202MPD1     N 3078   4.103   3.130   9.373 -0.1567 -0.0175  0.4723
  202MPD1    H5 3079   4.079   3.210   9.431 -0.6614  0.0700  0.1333
  202MPD1    N1 3080   3.905   2.826   9.055 -0.2176  0.1783  0.3784
  202MPD1    H6 3081   3.819   2.792   9.012  0.5045 -1.0468 -0.0985
  202MPD1    H7 3082   3.956   2.742   9.082 -0.0021  0.1469 -0.1416
  203MPD1     C 3083   4.308   1.251  11.497  0.2859 -0.0775 -0.2576
  203MPD1    C1 3084   4.316   1.135  11.432  0.3418  0.2272  0.1264
  203MPD1    C2 3085   4.258   1.021  11.490  0.0693  0.2709 -0.0781
  203MPD1    C3 3086   4.214   1.030  11.623 -0.3303  0.2531 -0.2560
  203MPD1    C4 3087   4.213   1.150  11.689 -0.0692 -0.3129 -0.6472
  203MPD1    C5 3088   4.258   1.262  11.621 -0.4023 -0.5881 -1.2131
  203MPD1     H 3089   4.271   0.923  11.444  0.9649  0.6195 -0.5785
  203MPD1    H1 3090   4.179   1.162  11.791  0.1573 -2.7714 -0.2804
  203MPD1    H2 3091   4.331   1.344  11.446 -0.7342  0.0648 -0.4634
  203MPD1    H3 3092   4.268   1.362  11.661 -1.5416 -0.8041 -0.4085
  203MPD1     N 3093   4.187   0.912  11.687  0.0246  0.1270  0.3970
  203MPD1    H5 3094   4.194   0.829  11.629  0.9395  0.3168  0.2387
  203MPD1    N1 3095   4.365   1.134  11.303  0.5040 -0.4001 -0.0430
  203MPD1    H6 3096   4.435   1.204  11.279  0.2683 -0.8964 -2.1632
  203MPD1    H7 3097   4.403   1.041  11.284 -0.1698 -1.0156  1.5243
  204MPD1     C 3098   3.428   2.269  17.180  0.0481  0.0731  0.2493
  204MPD1    C1 3099   3.427   2.148  17.241  0.1728 -0.4996  0.7647
  204MPD1    C2 3100   3.437   2.038  17.159  0.4508  0.0741 -0.5314
  204MPD1    C3 3101   3.430   2.053  17.023 -0.2351 -0.7224 -0.0571
  204MPD1    C4 3102   3.404   2.176  16.968 -0.4767  0.0219 -0.0845
  204MPD1    C5 3103   3.413   2.287  17.050 -0.2752 -0.2322  0.5430
  204MPD1     H 3104   3.460   1.940  17.200  0.9622  0.4704  0.1235
  204MPD1    H1 3105   3.402   2.197  16.862 -0.1145  2.4293  0.3891
  204MPD1    H2 3106   3.421   2.354  17.247 -1.1303 -1.2102  1.7617
  204MPD1    H3 3107   3.424   2.389  17.015  1.3849  0.0454  1.8864
  204MPD1     N 3108   3.446   1.935  16.947 -0.5982  0.0123  0.6615
  204MPD1    H5 3109   3.478   1.850  16.993 -0.9379 -1.3835 -1.6236
  204MPD1    N1 3110   3.450   2.126  17.375  0.2683 -0.2914 -0.1004
  204MPD1    H6 3111   3.419   2.202  17.435  1.6100  0.2899 -0.1430
  204MPD1    H7 3112   3.403   2.041  17.404 -1.1079 -0.6703 -3.5039
  205MPD1     C 3113   4.329   0.657  16.633 -0.3937 -0.4693 -0.5729
  205MPD1    C1 3114   4.351   0.597  16.754 -0.4329  0.1872 -0.1426
  205MPD1    C2 3115   4.257   0.608  16.859  0.9337 -0.1446  0.3121
  205MPD1    C3 3116   4.132   0.666  16.832  0.1963 -0.3552  0.0252
  205MPD1    C4 3117   4.113   0.736  16.714 -0.4529 -0.2688 -1.0096
  205MPD1    C5 3118   4.214   0.732  16.623 -0.0424  0.1994 -0.3880
  205MPD1     H 3119   4.287   0.576  16.958 -1.6731  3.2745  2.1711
  205MPD1    H1 3120   4.029   0.801  16.689 -0.8099 -0.4021 -0.1527
  205MPD1    H2 3121   4.409   0.666  16.560 -0.8461 -1.6037 -1.1964
  205MPD1    H3 3122   4.212   0.803  16.540 -0.3855 -0.1696 -0.6957
  205MPD1     N 3123   4.028   0.688  16.922 -0.6309  0.0406  0.1960
  205MPD1    H5 3124   3.942   0.729  16.890 -0.1652 -0.6388 -1.9651
  205MPD1    N1 3125   4.482   0.551  16.774 -0.8087 -0.0659  0.3556
  205MPD1    H6 3126   4.522   0.508  16.691 -0.6637  0.5574  0.1064
  205MPD1    H7 3127   4.485   0.469  16.835 -2.7662 -0.2574  0.1705
  206MPD1     C 3128   4.306   3.853  16.702  0.2250  0.0093  0.1957
  206MPD1    C1 3129   4.343   3.752  16.620  0.6844 -0.4354 -0.2198
  206MPD1    C2 3130   4.276   3.731  16.504  0.4771  0.0798  0.2854
  206MPD1    C3 3131   4.188   3.825  16.451  0.4799 -0.2615 -0.7833
  206MPD1    C4 3132   4.146   3.929  16.531 -0.1623  0.4689  0.0041
  206MPD1    C5 3133   4.208   3.936  16.656 -0.0558  0.1341  0.0509
  206MPD1     H 3134   4.304   3.651  16.436  0.5349 -1.6057  2.3022
  206MPD1    H1 3135   4.082   4.010  16.497  1.0807  1.0801 -0.8501
  206MPD1    H2 3136   4.340   3.865  16.805  0.7417 -0.5853  0.0945
  206MPD1    H3 3137   4.179   4.016  16.724 -0.7194 -1.0876  1.1960
  206MPD1     N 3138   4.132   3.809  16.321  0.0451  1.0268 -0.3630
  206MPD1    H5 3139   4.061   3.874  16.288 -0.4372  1.0133  0.6462
  206MPD1    N1 3140   4.431   3.653  16.671 -0.1923  0.3889 -0.4887
  206MPD1    H6 3141   4.494   3.692  16.741  0.6660 -1.6951 -0.1292
  206MPD1    H7 3142   4.484   3.588  16.613  1.2512  1.1011  0.0381
  207MPD1     C 3143   2.116   1.181  11.453  0.9490  0.1143  0.3826
  207MPD1    C1 3144   2.002   1.181  11.379 -0.1366  0.6336  0.3465
  207MPD1    C2 3145   2.006   1.205  11.239  0.1376  0.3207 -0.4533
  207MPD1    C3 3146   2.131   1.242  11.187 -0.4536  0.9489  0.1107
  207MPD1    C4 3147   2.243   1.256  11.267  0.6149  0.2164  0.5556
  207MPD1    C5 3148   2.234   1.214  11.397 -0.0516 -0.6236  0.0375
  207MPD1     H 3149   1.915   1.199  11.180  0.3019  2.3991 -0.9324
  207MPD1    H1 3150   2.340   1.264  11.219  0.7690  2.0666  1.1753
  207MPD1    H2 3151   2.113   1.160  11.560 -2.7403  0.2491  0.2900
  207MPD1    H3 3152   2.328   1.197  11.448 -0.9812 -0.9359  1.6542
  207MPD1     N 3153   2.150   1.261  11.051 -0.4956 -0.0527 -0.3039
  207MPD1    H5 3154   2.230   1.312  11.015 -0.7940 -0.1399 -1.0911
  207MPD1    N1 3155   1.882   1.151  11.451 -0.0968 -0.0321 -0.0760
  207MPD1    H6 3156   1.798   1.125  11.401 -0.8761  1.7530  0.2916
  207MPD1    H7 3157   1.897   1.077  11.519 -2.6485  0.5361  1.0913
  208MPD1     C 3158   0.307   0.400   0.362 -0.6013 -0.8850  0.3550
  208MPD1    C1 3159   0.230   0.338   0.450 -0.6452  0.4767  0.4724
  208MPD1    C2 3160   0.112   0.275   0.409 -0.0690  0.4015 -0.3238
  208MPD1    C3 3161   0.068   0.287   0.281 -0.2352  0.4223 -0.1390
  208MPD1    C4 3162   0.147   0.344   0.185  0.3176  0.2874  0.1043
  208MPD1    C5 3163   0.262   0.403   0.231 -0.5295  0.2308 -0.0565
  208MPD1     H 3164   0.060   0.210   0.478  0.0723  0.6451  0.0086
  208MPD1    H1 3165   0.116   0.354   0.082  0.0746 -1.9648 -0.0375
  208MPD1    H2 3166   0.397   0.453   0.390 -0.9752  0.1587 -0.3905
  208MPD1    H3 3167   0.320   0.462   0.162  1.0280 -0.5409  0.5885
  208MPD1     N 3168   4.665   0.223   0.266  0.4043  0.2706 -0.5676
  208MPD1    H5 3169   4.625   0.174   0.345  0.7680  0.7423 -0.1022
  208MPD1    N1 3170   0.284   0.325   0.578  0.6613 -1.2051  0.2294
  208MPD1    H6 3171   0.216   0.341   0.652 -0.0973 -1.1544 -0.4758
  208MPD1    H7 3172   0.367   0.380   0.601 -0.1780 -0.2788  1.0288
  209MPD1     C 3173   1.807   4.591   9.623  0.2633  0.0439 -0.9946
  209MPD1    C1 3174   1.729   4.584   9.738 -0.6177  0.0324 -0.4946
  209MPD1    C2 3175   1.723   4.692   9.813  0.4777 -0.1838  0.1214
  209MPD1    C3 3176   1.812   0.072   9.800 -0.6870  0.7506  0.0583
  209MPD1    C4 3177   1.901   0.080   9.692  0.5798  0.1284 -0.0051
  209MPD1    C5 3178   1.889   4.699   9.601  0.3051  0.1597 -0.2235
  209MPD1     H 3179   1.654   4.689   9.896  1.7506 -0.4857  1.1794
  209MPD1    H1 3180   1.970   0.162   9.677  1.9664 -0.2674  4.3524
  209MPD1    H2 3181   1.803   4.504   9.559 -0.4130  0.1462 -1.0891
  209MPD1    H3 3182   1.958   4.710   9.518  1.2448 -1.0076  0.4045
  209MPD1     N 3183   1.820   0.168   9.903  0.8226  0.3011 -0.3866
  209MPD1    H5 3184   1.752   0.160   9.977  1.0227 -1.0793 -0.3628
  209MPD1    N1 3185   1.634   4.480   9.751 -0.2429  0.8198 -0.2555
  209MPD1    H6 3186   1.615   4.451   9.847 -1.1190 -0.8400 -0.9123
  209MPD1    H7 3187   1.655   4.390   9.706 -2.8826 -0.3021  0.7490
  210MPD1     C 3188   1.504   0.263  10.831 -0.7617  0.3279  0.4621
  210MPD1    C1 3189   1.470   0.192  10.719  0.1100  0.7588 -0.4772
  210MPD1    C2 3190   1.558   0.204  10.610  0.1566  0.8326  0.2219
  210MPD1    C3 3191   1.670   0.278  10.611 -0.0672 -0.1747 -0.3153
  210MPD1    C4 3192   1.706   0.338  10.728 -0.1578 -0.3080 -0.0800
  210MPD1    C5 3193   1.622   0.334  10.838 -0.0118 -0.1130  0.6668
  210MPD1     H 3194   1.538   0.141  10.524 -0.0497  0.2197  0.7159
  210MPD1    H1 3195   1.797   0.396  10.738 -0.0760 -0.1909 -1.4755
  210MPD1    H2 3196   1.440   0.268  10.919  1.0706 -1.8769  1.9070
  210MPD1    H3 3197   1.655   0.370  10.935 -0.4612  1.1753  0.3437
  210MPD1     N 3198   1.745   0.310  10.492  0.3722  0.1506 -1.0839
  210MPD1    H5 3199   1.829   0.360  10.519 -0.4348  0.5754  0.5811
  210MPD1    N1 3200   1.342   0.135  10.714 -0.6356 -0.2550  0.3849
  210MPD1    H6 3201   1.309   0.115  10.809 -0.6542 -2.3940 -0.0800
  210MPD1    H7 3202   1.334   0.045  10.667  3.7507 -1.2786  1.6754
  211MPD1     C 3203   0.117   0.428  16.599 -0.0199 -0.3585 -0.9812
  211MPD1    C1 3204   0.083   0.492  16.481 -0.4169  0.1449  0.3269
  211MPD1    C2 3205   4.679   0.461  16.426  0.0461 -0.2236  0.1091
  211MPD1    C3 3206   4.588   0.378  16.496  0.0291 -0.0473  0.2508
  211MPD1    C4 3207   4.621   0.325  16.613  0.3294  0.2460  0.4412
  211MPD1    C5 3208   0.028   0.353  16.666  0.8314  0.4787  0.2852
  211MPD1     H 3209   4.654   0.508  16.331 -0.3192  0.4730  0.5490
  211MPD1    H1 3210   4.559   0.257  16.669  1.9169 -1.3403  0.2821
  211MPD1    H2 3211   0.218   0.448  16.631 -0.6288 -2.0173  1.9822
  211MPD1    H3 3212   0.063   0.320  16.764 -1.7708 -0.5201  0.8700
  211MPD1     N 3213   4.453   0.381  16.446  0.3020 -0.2900  0.0031
  211MPD1    H5 3214   4.441   0.429  16.358  0.4281  1.6805  1.0514
  211MPD1    N1 3215   0.178   0.562  16.401  0.2186 -0.1966  0.1837
  211MPD1    H6 3216   0.252   0.600  16.461 -2.8857 -0.0760  3.9222
  211MPD1    H7 3217   0.139   0.641  16.350  2.0027  0.2592 -0.4926
  212MPD1     C 3218   4.111   4.034  17.047 -0.0271 -0.2045  0.3447
  212MPD1    C1 3219   3.994   4.071  17.098  0.9805 -0.8178 -0.3173
  212MPD1    C2 3220   3.894   3.976  17.118 -0.4445 -0.4699 -0.1772
  212MPD1    C3 3221   3.908   3.844  17.071 -0.0024  0.1871 -0.5599
  212MPD1    C4 3222   4.028   3.809  17.013 -0.2875  0.7697  0.1132
  212MPD1    C5 3223   4.130   3.904  17.010 -0.5203  0.1070  0.3460
  212MPD1     H 3224   3.800   4.011  17.157 -0.1992  0.7880 -0.7014
  212MPD1    H1 3225   4.059   3.712  16.974  2.1736  1.1725  1.0845
  212MPD1    H2 3226   4.203   4.091  17.044 -1.2030  1.6095 -1.3973
  212MPD1    H3 3227   4.226   3.874  16.968  0.0226  0.5513  1.2707
  212MPD1     N 3228   3.810   3.745  17.086  0.6730  0.1639  0.2077
  212MPD1    H5 3229   3.814   3.663  17.026  1.5639  0.1914  0.2306
  212MPD1    N1 3230   3.974   4.203  17.146  0.5296 -0.2354  0.4843
  212MPD1    H6 3231   4.022   4.263  17.079 -1.1604 -0.4337 -0.9325
  212MPD1    H7 3232   3.875   4.227  17.156  0.6154  0.0200  0.7363
  213MPD1     C 3233   1.712   4.039  15.949  0.1004  0.7154  0.1492
  213MPD1    C1 3234   1.589   3.986  15.920  0.6900 -0.8839  0.1181
  213MPD1    C2 3235   1.535   4.045  15.811 -0.0671  1.0536  0.3228
  213MPD1    C3 3236   1.609   4.114  15.713  0.0695  0.1059  1.2193
  213MPD1    C4 3237   1.742   4.134  15.740  0.0882 -0.0303 -0.4318
  213MPD1    C5 3238   1.797   4.089  15.855  0.2565  0.2652 -0.5300
  213MPD1     H 3239   1.428   4.054  15.793  0.0166  0.5018 -0.4557
  213MPD1    H1 3240   1.802   4.186  15.667 -0.4011 -1.1997 -1.6664
  213MPD1    H2 3241   1.754   4.001  16.041 -0.8256 -0.8103 -0.0718
  213MPD1    H3 3242   1.902   4.108  15.871  0.2895  0.8254 -1.4057
  213MPD1     N 3243   1.538   4.163  15.605 -0.1291 -0.1308  0.6898
  213MPD1    H5 3244   1.439   4.143  15.595 -0.2381  0.1327  1.2436
  213MPD1    N1 3245   1.499   3.964  16.024 -0.8294  0.4979 -0.2365
  213MPD1    H6 3246   1.416   3.915  15.992  0.1294  0.5975 -2.8677
  213MPD1    H7 3247   1.541   3.903  16.095  2.5457  2.7017 -0.3458
  214MPD1     C 3248   0.745   4.122  15.006 -0.2423  0.0470  0.4180
  214MPD1    C1 3249   0.781   4.059  15.122 -0.0741  0.1043 -0.1328
  214MPD1    C2 3250   0.899   4.100  15.189 -0.0636  0.2766  0.3187
  214MPD1    C3 3251   0.969   4.214  15.142  0.1181  0.0415  0.1059
  214MPD1    C4 3252   0.922   4.284  15.036 -0.4544  0.2559  0.0663
  214MPD1    C5 3253   0.811   4.237  14.973 -0.3494  0.6630 -0.4731
  214MPD1     H 3254   0.930   4.049  15.279  0.3580 -0.3774 -0.1974
  214MPD1    H1 3255   0.977   4.370  14.998 -1.2352  0.9350  0.4551
  214MPD1    H2 3256   0.657   4.096  14.948 -1.7771 -0.3236  2.9111
  214MPD1    H3 3257   0.780   4.288  14.882 -0.4248 -0.4881 -1.0855
  214MPD1     N 3258   1.081   4.270  15.193  0.0039  0.0904 -0.2893
  214MPD1    H5 3259   1.124   4.347  15.142 -0.2637 -0.8664 -1.9419
  214MPD1    N1 3260   0.715   3.931  15.155 -0.2105 -0.1324 -0.3689
  214MPD1    H6 3261   0.725   3.914  15.255 -0.9204  0.7119 -0.1616
  214MPD1    H7 3262   0.617   3.956  15.149  0.2167  1.3528 -1.0986
  215MPD1     C 3263   1.269   0.412  10.236  0.2135 -0.6923 -0.1958
  215MPD1    C1 3264   1.304   0.394  10.366 -0.0116  0.2778  0.7961
  215MPD1    C2 3265   1.410   0.465  10.422 -0.4208 -0.7828  0.1394
  215MPD1    C3 3266   1.474   0.559  10.355  0.3389  1.0351 -0.6094
  215MPD1    C4 3267   1.437   0.584  10.229  0.5181  0.6787  0.1210
  215MPD1    C5 3268   1.335   0.511  10.167 -0.3479  0.0897 -0.0401
  215MPD1     H 3269   1.439   0.445  10.524 -0.5138 -1.9755 -0.0657
  215MPD1    H1 3270   1.486   0.661  10.170  1.1855 -0.1271 -0.3825
  215MPD1    H2 3271   1.193   0.356  10.183 -0.7881 -1.5767  2.1919
  215MPD1    H3 3272   1.321   0.527  10.060  0.3777  3.9259  0.4603
  215MPD1     N 3273   1.570   0.632  10.424 -0.1393 -0.0249  0.1698
  215MPD1    H5 3274   1.580   0.614  10.524  2.5766  1.8382  0.2542
  215MPD1    N1 3275   1.248   0.280  10.432 -0.0576  0.2651  0.6710
  215MPD1    H6 3276   1.149   0.264  10.419  0.3250 -0.1629 -1.6469
  215MPD1    H7 3277   1.261   0.282  10.533  1.2238  3.2246  0.4610
  216MPD1     C 3278   3.690   1.748  15.788 -0.6128  0.1168 -0.4559
  216MPD1    C1 3279   3.733   1.876  15.797 -0.7228 -0.3069  0.4193
  216MPD1    C2 3280   3.730   1.943  15.915  0.2783 -0.1875  0.8568
  216MPD1    C3 3281   3.648   1.906  16.016 -0.2309  0.5637 -0.5497
  216MPD1    C4 3282   3.579   1.787  15.991  0.7459 -0.4567  0.0475
  216MPD1    C5 3283   3.607   1.706  15.882 -0.3734  0.2174 -0.1330
  216MPD1     H 3284   3.768   2.044  15.926  1.0660 -0.1726 -1.9450
  216MPD1    H1 3285   3.500   1.752  16.056  1.3824  1.0190  1.6326
  216MPD1    H2 3286   3.716   1.689  15.701 -1.6685  1.3428 -1.5922
  216MPD1    H3 3287   3.560   1.610  15.870 -0.8813  0.3921  0.4720
  216MPD1     N 3288   3.628   1.984  16.135  0.3611 -0.1894 -0.2714
  216MPD1    H5 3289   3.667   2.078  16.136 -1.6803  0.6889 -2.6992
  216MPD1    N1 3290   3.805   1.915  15.686  0.3174  1.1928 -0.0007
  216MPD1    H6 3291   3.780   1.882  15.593  0.3130 -0.9685  0.7636
  216MPD1    H7 3292   3.812   2.016  15.673  4.1393  0.8355 -0.7534
  217MPD1     C 3293   3.184   2.837   8.966 -0.7151  0.1283  0.5615
  217MPD1    C1 3294   3.302   2.770   8.983 -0.6815 -0.9970  0.3093
  217MPD1    C2 3295   3.376   2.819   9.083  0.0271  0.2753 -0.9176
  217MPD1    C3 3296   3.336   2.916   9.174  0.6010  0.2327 -0.0465
  217MPD1    C4 3297   3.223   2.980   9.147 -0.6283 -0.1851 -0.2697
  217MPD1    C5 3298   3.144   2.940   9.045  0.1310 -0.2874  0.0560
  217MPD1     H 3299   3.473   2.770   9.086  0.9657  2.2109  0.2282
  217MPD1    H1 3300   3.185   3.060   9.209  1.3899  1.3776 -1.0703
  217MPD1    H2 3301   3.120   2.805   8.885  0.2085  2.4042 -1.0557
  217MPD1    H3 3302   3.048   2.987   9.032  2.0310  3.4039 -0.6931
  217MPD1     N 3303   3.415   2.955   9.284  0.0346  0.2689  0.0733
  217MPD1    H5 3304   3.388   3.034   9.342 -1.4120  0.7439 -1.2682
  217MPD1    N1 3305   3.355   2.689   8.882  0.3464 -1.0163 -0.8033
  217MPD1    H6 3306   3.278   2.640   8.837  0.5810 -3.4666  1.4562
  217MPD1    H7 3307   3.424   2.618   8.906  0.3720 -1.6534 -2.8233
  218MPD1     C 3308   1.743   1.385  12.308 -0.0352 -0.9226 -0.3857
  218MPD1    C1 3309   1.781   1.308  12.415 -0.2918 -0.3934 -0.0823
  218MPD1    C2 3310   1.819   1.181  12.395 -1.0229  0.5717 -0.2795
  218MPD1    C3 3311   1.830   1.129  12.269 -0.5080  0.3793 -0.1504
  218MPD1    C4 3312   1.799   1.211  12.159  0.4386 -0.0037 -0.1037
  218MPD1    C5 3313   1.753   1.338  12.181  0.3623  0.3540  0.4368
  218MPD1     H 3314   1.835   1.122  12.484 -0.8916  2.6180  1.0535
  218MPD1    H1 3315   1.809   1.185  12.054 -1.4855  1.3733 -0.6304
  218MPD1    H2 3316   1.705   1.484  12.334 -0.8435 -1.1372 -0.7588
  218MPD1    H3 3317   1.716   1.393  12.096  1.2545  0.5174  0.1551
  218MPD1     N 3318   1.853   0.992  12.257  0.4025 -0.3131 -0.3575
  218MPD1    H5 3319   1.850   0.945  12.346 -0.3800  0.0389 -0.2019
  218MPD1    N1 3320   1.769   1.359  12.544 -0.1754 -0.5193  0.1165
  218MPD1    H6 3321   1.771   1.460  12.558 -0.6460 -0.4528 -0.3080
  218MPD1    H7 3322   1.826   1.319  12.619  0.8298  1.3499  0.3304
  219MPD1     C 3323   1.902   0.269  11.509  0.0141  0.9397 -0.7292
  219MPD1    C1 3324   1.874   0.216  11.634 -0.2560 -0.0447 -0.1650
  219MPD1    C2 3325   1.871   0.287  11.754  0.0145  0.7685  0.6304
  219MPD1    C3 3326   1.893   0.425  11.751 -0.0679  0.1582 -0.2144
  219MPD1    C4 3327   1.920   0.482  11.630  0.5098  0.2836  0.3569
  219MPD1    C5 3328   1.923   0.403  11.519 -0.2729  0.1488  0.4047
  219MPD1     H 3329   1.858   0.233  11.847  1.3149  0.7238  0.7892
  219MPD1    H1 3330   1.925   0.590  11.624 -0.8940  0.4722  2.4639
  219MPD1    H2 3331   1.904   0.215  11.415 -0.6874  2.0915 -1.4102
  219MPD1    H3 3332   1.940   0.451  11.423 -0.2537  4.1877  2.4227
  219MPD1     N 3333   1.899   0.511  11.866 -0.1212  0.1531  0.3507
  219MPD1    H5 3334   1.899   0.609  11.839 -1.2236 -0.0454 -0.3718
  219MPD1    N1 3335   1.872   0.076  11.628 -0.1815 -0.5057  0.1166
  219MPD1    H6 3336   1.852   0.037  11.537 -0.6505 -0.1518  0.0713
  219MPD1    H7 3337   1.805   0.032  11.690 -2.6948  3.1716 -0.0200
  220MPD1     C 3338   1.001   2.297  10.267  0.8217 -0.3301 -0.1680
  220MPD1    C1 3339   1.104   2.233  10.324 -0.0315  0.1178 -0.5158
  220MPD1    C2 3340   1.159   2.126  10.258 -0.7161  0.9711 -0.2338
  220MPD1    C3 3341   1.102   2.091  10.135 -0.5204 -0.0153 -0.3213
  220MPD1    C4 3342   0.994   2.167  10.081  0.1143  0.2168 -0.0305
  220MPD1    C5 3343   0.949   2.274  10.145  0.0963  0.5261  0.2775
  220MPD1     H 3344   1.235   2.064  10.305 -0.2382  3.2832  2.0488
  220MPD1    H1 3345   0.944   2.151   9.985 -1.7053 -1.0858  1.1194
  220MPD1    H2 3346   0.958   2.383  10.316 -0.7202 -0.9590 -0.4322
  220MPD1    H3 3347   0.880   2.341  10.095 -0.5030  0.5348  1.1078
  220MPD1     N 3348   1.153   1.973  10.078  0.3971 -0.5699 -0.3041
  220MPD1    H5 3349   1.240   1.941  10.120  0.3810 -0.6827 -0.3577
  220MPD1    N1 3350   1.150   2.257  10.453  0.5756 -0.6690  0.5177
  220MPD1    H6 3351   1.237   2.217  10.487  0.8379  0.6521  1.4281
  220MPD1    H7 3352   1.073   2.224  10.511  1.3582 -2.0710  0.7553
  221MPD1     C 3353   4.488   0.093  17.160 -0.2316 -0.0106  0.2517
  221MPD1    C1 3354   4.352   0.093  17.139 -0.0599  1.1606  0.0988
  221MPD1    C2 3355   4.298   0.050  17.025 -0.3155 -0.1999 -0.1351
  221MPD1    C3 3356   4.385   4.719  16.930 -0.8362 -0.4521  0.0559
  221MPD1    C4 3357   4.518   4.711  16.946 -0.1857  0.0544 -0.4382
  221MPD1    C5 3358   4.570   0.034  17.065 -0.2337 -1.4102  0.6745
  221MPD1     H 3359   4.191   0.060  17.011  0.0371  2.9261 -0.7324
  221MPD1    H1 3360   4.587   4.656  16.883  2.7807  4.2765 -0.8408
  221MPD1    H2 3361   4.534   0.150  17.240  0.1221 -1.3281  0.9907
  221MPD1    H3 3362   4.678   0.038  17.077 -0.4924 -0.5381  2.7998
  221MPD1     N 3363   4.332   4.660  16.812 -0.1608  0.0448 -0.1682
  221MPD1    H5 3364   4.397   4.634  16.739 -1.3522 -2.0717 -0.4704
  221MPD1    N1 3365   4.267   0.151  17.232 -0.4350  0.2450  0.1440
  221MPD1    H6 3366   4.314   0.186  17.316  1.3382 -0.8163 -0.3999
  221MPD1    H7 3367   4.207   0.077  17.267 -1.0426  0.7319  0.1218
  222MPD1     C 3368   2.776   3.141   0.567  0.6379  0.0074 -0.5212
  222MPD1    C1 3369   2.767   3.103   0.436  0.9270 -0.4797 -0.1476
  222MPD1    C2 3370   2.767   3.207   0.335  0.3890 -0.2965  0.2799
  222MPD1    C3 3371   2.750   3.337   0.372 -0.2994  0.4501 -0.4683
  222MPD1    C4 3372   2.748   3.371   0.509 -0.4709 -0.6574 -0.1827
  222MPD1    C5 3373   2.757   3.273   0.606  0.3442 -0.1886 -0.1396
  222MPD1     H 3374   2.777   3.175   0.232 -2.4793 -3.9498  1.1107
  222MPD1    H1 3375   2.739   3.475   0.536  2.7879 -0.4777  0.1433
  222MPD1    H2 3376   2.804   3.074   0.648  2.6264  2.0665  0.5013
  222MPD1    H3 3377   2.771   3.310   0.707  0.8412 -4.0659  1.2518
  222MPD1     N 3378   2.753   3.443   0.279 -0.6084  0.3273  0.7021
  222MPD1    H5 3379   2.751   3.536   0.321 -0.3714  0.4693  0.4048
  222MPD1    N1 3380   2.800   2.969   0.408  0.3547  0.1710 -0.3534
  222MPD1    H6 3381   2.766   2.938   0.317 -1.3140 -0.0288  0.3400
  222MPD1    H7 3382   2.753   2.910   0.476  0.0790 -1.5149 -1.9916
  223MPD1     C 3383   2.630   4.364   0.398 -0.0259  0.1996  0.5515
  223MPD1    C1 3384   2.738   4.366   0.311  1.0144  0.1035 -0.1668
  223MPD1    C2 3385   2.771   4.250   0.246 -0.7104  1.1139  0.5646
  223MPD1    C3 3386   2.698   4.134   0.263 -0.7387 -0.0406  0.4396
  223MPD1    C4 3387   2.582   4.137   0.345  0.8015  0.0988 -0.0607
  223MPD1    C5 3388   2.554   4.251   0.411  0.7757  0.8720  0.1843
  223MPD1     H 3389   2.857   4.243   0.180 -1.5770  0.6647 -0.5103
  223MPD1    H1 3390   2.514   4.056   0.370 -0.1194  2.0719  3.9375
  223MPD1    H2 3391   2.600   4.453   0.452 -0.2018  0.5552 -0.1322
  223MPD1    H3 3392   2.468   4.267   0.475 -1.1431  0.0260 -2.1683
  223MPD1     N 3393   2.749   4.018   0.204 -0.2039  0.3553  0.1555
  223MPD1    H5 3394   2.840   4.031   0.161  1.2130  0.6675  3.2257
  223MPD1    N1 3395   2.825   4.481   0.302 -0.6075  0.2439 -0.7561
  223MPD1    H6 3396   2.877   4.485   0.214  0.8656 -3.2634 -0.0630
  223MPD1    H7 3397   2.771   4.566   0.316 -1.7795 -0.5822 -0.2939
  224MPD1     C 3398   3.656   3.708   9.123 -0.0333  0.2823  0.4509
  224MPD1    C1 3399   3.709   3.615   9.210 -0.3659  0.2429  0.1105
  224MPD1    C2 3400   3.774   3.661   9.325  0.8125  0.3360  0.0374
  224MPD1    C3 3401   3.790   3.795   9.354  0.0337 -0.6789  0.3948
  224MPD1    C4 3402   3.734   3.886   9.266 -0.1610  0.1511  0.1641
  224MPD1    C5 3403   3.660   3.844   9.160 -0.0715 -0.1307 -0.2605
  224MPD1     H 3404   3.832   3.595   9.387  1.8143 -0.7182 -2.0318
  224MPD1    H1 3405   3.743   3.992   9.281  2.5469  0.1198 -1.2590
  224MPD1    H2 3406   3.611   3.677   9.029 -0.3354 -2.3888  1.4699
  224MPD1    H3 3407   3.611   3.918   9.097 -2.9139 -0.5059  1.4739
  224MPD1     N 3408   3.856   3.849   9.468  0.1644  0.1799 -0.3474
  224MPD1    H5 3409   3.864   3.950   9.464 -0.1728  0.1406 -2.1613
  224MPD1    N1 3410   3.727   3.482   9.174  0.5049  0.0893 -0.9083
  224MPD1    H6 3411   3.669   3.457   9.094 -0.6435 -0.6529  0.1570
  224MPD1    H7 3412   3.714   3.424   9.256 -0.9512  2.2364  0.3883
  225MPD1     C 3413   1.365   1.571  12.391 -0.4340 -0.5821  0.3102
  225MPD1    C1 3414   1.364   1.555  12.258 -0.0304  0.4436  0.4082
  225MPD1    C2 3415   1.240   1.534  12.199 -0.2205 -0.5936 -0.1974
  225MPD1    C3 3416   1.125   1.545  12.273 -0.2411 -0.2097 -0.4633
  225MPD1    C4 3417   1.126   1.557  12.407 -0.2643  0.2154  0.1677
  225MPD1    C5 3418   1.249   1.572  12.464 -0.2151  0.0228 -0.3248
  225MPD1     H 3419   1.237   1.526  12.091  0.7190 -1.2222 -0.1769
  225MPD1    H1 3420   1.039   1.569  12.470 -1.7113 -2.1131 -1.3886
  225MPD1    H2 3421   1.461   1.584  12.439  0.7796  1.3856 -2.6354
  225MPD1    H3 3422   1.255   1.583  12.572  1.0436 -3.2250 -0.0674
  225MPD1     N 3423   0.995   1.539  12.219 -0.3156 -0.0049 -0.4551
  225MPD1    H5 3424   0.929   1.569  12.290  1.3004 -1.6826  1.7948
  225MPD1    N1 3425   1.483   1.549  12.174 -0.1133 -0.1702 -0.0291
  225MPD1    H6 3426   1.558   1.603  12.217  0.3490 -1.2462  0.5196
  225MPD1    H7 3427   1.459   1.589  12.084  0.7736  1.7096  0.5842
  226MPD1     C 3428   4.161   1.290   8.666  0.0634  0.9356 -0.0220
  226MPD1    C1 3429   4.046   1.224   8.618  0.2094  0.2247 -0.1668
  226MPD1    C2 3430   4.055   1.089   8.611 -0.0737  0.2140  1.0480
  226MPD1    C3 3431   4.151   1.007   8.665  0.3453 -0.5263  0.7351
  226MPD1    C4 3432   4.265   1.073   8.713  0.5233  0.2377  0.2173
  226MPD1    C5 3433   4.263   1.210   8.707 -0.3397  1.1673  0.5509
  226MPD1     H 3434   3.968   1.038   8.572  0.7325  0.5154 -1.1786
  226MPD1    H1 3435   4.351   1.019   8.749  0.9296  1.0948  0.5212
  226MPD1    H2 3436   4.178   1.397   8.655  2.3351  0.7376  1.4975
  226MPD1    H3 3437   4.345   1.266   8.750  0.9107 -1.3018  1.4119
  226MPD1     N 3438   4.139   0.863   8.651 -0.1314  0.0188 -0.4795
  226MPD1    H5 3439   4.076   0.828   8.580 -0.9140  1.3597 -0.4507
  226MPD1    N1 3440   3.951   1.292   8.546 -0.0054 -0.1275  0.6068
  226MPD1    H6 3441   3.928   1.378   8.597 -2.1334 -0.4868  0.2648
  226MPD1    H7 3442   3.876   1.225   8.533 -0.6624  0.4855  1.1697
  227MPD1     C 3443   4.049   0.118   7.998 -0.7895 -0.0768 -0.8745
  227MPD1    C1 3444   4.029   0.047   8.116  0.0218  0.2158 -0.3571
  227MPD1    C2 3445   4.041   0.127   8.232  0.0734  0.2180  0.5668
  227MPD1    C3 3446   4.084   0.257   8.236  0.1125  0.0049 -0.1651
  227MPD1    C4 3447   4.117   0.315   8.114 -0.0453 -0.5860  0.1857
  227MPD1    C5 3448   4.099   0.248   7.997  0.4969 -0.0138  0.6928
  227MPD1     H 3449   4.034   0.081   8.330 -2.0439 -0.9098 -0.1267
  227MPD1    H1 3450   4.157   0.415   8.107 -1.7391 -0.1098 -2.6388
  227MPD1    H2 3451   4.039   0.070   7.901  1.0779  0.3679 -1.2764
  227MPD1    H3 3452   4.116   0.298   7.902 -2.0665 -1.5499 -0.5744
  227MPD1     N 3453   4.104   0.312   8.366  0.3684  0.1175  0.3225
  227MPD1    H5 3454   4.077   0.257   8.447 -0.3013 -0.5567 -0.3672
  227MPD1    N1 3455   3.966   4.643   8.117  0.6432 -0.6290 -0.4901
  227MPD1    H6 3456   4.003   4.589   8.195  1.6236  3.1306  1.6559
  227MPD1    H7 3457   3.987   4.592   8.032  0.2833 -0.7036 -0.5318
  228MPD1     C 3458   2.325   3.667  13.885  0.9082  0.4225 -0.0292
  228MPD1    C1 3459   2.186   3.671  13.891 -0.0554 -0.0785  0.0080
  228MPD1    C2 3460   2.114   3.640  13.775 -0.4031 -0.6000 -0.0590
  228MPD1    C3 3461   2.172   3.584  13.664 -0.3088 -0.2971 -0.3140
  228MPD1    C4 3462   2.311   3.576  13.662 -0.0554  0.5540  0.9051
  228MPD1    C5 3463   2.378   3.622  13.769 -0.3079  0.5970 -0.3310
  228MPD1     H 3464   2.008   3.659  13.775 -0.8571 -3.1279  1.2922
  228MPD1    H1 3465   2.365   3.550  13.572 -3.2050  1.7273 -1.3445
  228MPD1    H2 3466   2.390   3.710  13.959  1.4620  1.1669 -0.9499
  228MPD1    H3 3467   2.486   3.612  13.762 -0.1745  0.4115  2.0343
  228MPD1     N 3468   2.089   3.552  13.550 -0.1143 -0.1393 -0.2584
  228MPD1    H5 3469   1.989   3.568  13.564  0.1018 -0.7158  1.8614
  228MPD1    N1 3470   2.118   3.742  13.996  0.4631 -0.0273 -0.4335
  228MPD1    H6 3471   2.027   3.700  14.013  0.4857 -0.5602 -1.5608
  228MPD1    H7 3472   2.165   3.744  14.086 -1.2651  1.6025  0.4102
  229MPD1     C 3473   2.139   3.427  14.801 -0.4436  0.1380 -0.0094
  229MPD1    C1 3474   2.189   3.442  14.925 -0.5229 -0.6167  0.5692
  229MPD1    C2 3475   2.192   3.334  15.013 -0.3926 -0.0048 -0.1417
  229MPD1    C3 3476   2.197   3.203  14.965 -0.7320  0.5291 -0.2724
  229MPD1    C4 3477   2.158   3.191  14.835 -0.3124 -0.1068 -0.2859
  229MPD1    C5 3478   2.124   3.299  14.754 -0.2705  0.2141 -0.4238
  229MPD1     H 3479   2.210   3.360  15.116 -0.8403  0.2750 -0.1326
  229MPD1    H1 3480   2.150   3.088  14.801  0.7619  0.0907 -1.0996
  229MPD1    H2 3481   2.110   3.508  14.736 -1.6115 -0.3297 -0.0727
  229MPD1    H3 3482   2.098   3.275  14.652 -1.8028  0.4927 -0.0973
  229MPD1     N 3483   2.220   3.093  15.041  0.2667 -0.2167 -0.1388
  229MPD1    H5 3484   2.197   3.004  14.999  0.3040  0.3694 -1.4053
  229MPD1    N1 3485   2.199   3.574  14.979 -0.3554 -0.5156  1.0543
  229MPD1    H6 3486   2.222   3.630  14.897 -0.8681 -0.5591  0.8811
  229MPD1    H7 3487   2.259   3.593  15.059  0.7120 -1.6080  0.5113
  230MPD1     C 3488   1.957   2.945  15.988 -0.0506  0.1915  0.1378
  230MPD1    C1 3489   2.010   3.056  15.934  0.0979  0.2865 -0.2159
  230MPD1    C2 3490   2.073   3.050  15.810 -0.7724 -0.7657  0.6306
  230MPD1    C3 3491   2.069   2.929  15.735 -0.1466  0.8777 -0.8338
  230MPD1    C4 3492   2.009   2.823  15.790 -0.3089 -0.7484  0.2666
  230MPD1    C5 3493   1.967   2.828  15.922  0.1659 -0.4719  0.0873
  230MPD1     H 3494   2.126   3.136  15.772 -1.9011 -0.8473 -1.1566
  230MPD1    H1 3495   1.998   2.723  15.749 -1.7854 -0.0096 -1.1383
  230MPD1    H2 3496   1.911   2.945  16.086 -0.8536  0.1001 -0.2402
  230MPD1    H3 3497   1.932   2.739  15.973 -1.9279 -0.1023 -0.7030
  230MPD1     N 3498   2.129   2.920  15.607 -0.4445 -0.4770 -0.6944
  230MPD1    H5 3499   2.184   3.002  15.584 -2.3092  0.4115 -2.0041
  230MPD1    N1 3500   1.986   3.181  15.997 -0.3891 -0.2774  0.3602
  230MPD1    H6 3501   1.982   3.170  16.098  1.4917  0.6910  0.5272
  230MPD1    H7 3502   2.058   3.251  15.980  0.9934 -1.7967 -0.0488
  231MPD1     C 3503   0.613   4.607  15.572 -0.6223 -0.5665 -0.2798
  231MPD1    C1 3504   0.570   4.581  15.441  0.0933 -0.4129  0.0756
  231MPD1    C2 3505   0.660   4.586  15.344  0.6791  0.3296  0.2369
  231MPD1    C3 3506   0.785   4.644  15.370 -0.0464  0.5049 -0.3947
  231MPD1    C4 3507   0.823   4.683  15.495  0.3380  0.1086 -0.0333
  231MPD1    C5 3508   0.730   4.673  15.594  0.6072  0.0573  0.2861
  231MPD1     H 3509   0.634   4.560  15.243 -0.9727  2.2405  0.1602
  231MPD1    H1 3510   0.910   0.019  15.521  0.5722 -0.1809 -0.1527
  231MPD1    H2 3511   0.554   4.579  15.658 -2.0458  0.5712 -0.8755
  231MPD1    H3 3512   0.756   4.705  15.695 -0.5443 -1.0597  0.9404
  231MPD1     N 3513   0.878   4.654  15.259  0.1902 -0.2570 -0.1536
  231MPD1    H5 3514   0.837   4.646  15.166  0.4798 -0.1295 -0.2901
  231MPD1    N1 3515   0.450   4.519  15.431 -0.3972 -0.6434 -0.2713
  231MPD1    H6 3516   0.397   4.533  15.345 -0.5702  0.7180  0.0726
  231MPD1    H7 3517   0.392   4.536  15.513 -0.2469 -1.0037 -0.0895
  232MPD1     C 3518   2.763   2.259  17.188  0.4064 -0.0804 -0.2497
  232MPD1    C1 3519   2.652   2.341  17.169 -0.2077  0.4575  0.6533
  232MPD1    C2 3520   2.533   2.305  17.227  0.6152 -0.2804  0.7070
  232MPD1    C3 3521   2.525   2.177  17.292  0.1049  0.2116 -0.3935
  232MPD1    C4 3522   2.634   2.094  17.296  0.4454 -0.0314 -0.6782
  232MPD1    C5 3523   2.755   2.132  17.244  0.3574 -0.5405 -0.9283
  232MPD1     H 3524   2.448   2.372  17.216  1.6226  0.9998  0.6427
  232MPD1    H1 3525   2.639   1.993  17.333 -1.9087  0.0823 -0.0771
  232MPD1    H2 3526   2.856   2.291  17.141  0.2714  0.6863  0.0164
  232MPD1    H3 3527   2.836   2.060  17.251 -0.4333 -1.1103  2.2883
  232MPD1     N 3528   2.397   2.149  17.354 -0.0395  0.2826  0.7847
  232MPD1    H5 3529   2.330   2.226  17.345 -0.4205  0.0183  1.4159
  232MPD1    N1 3530   2.673   2.468  17.109 -0.1078 -0.1733 -0.5065
  232MPD1    H6 3531   2.741   2.451  17.035  1.4719 -2.4730  1.4654
  232MPD1    H7 3532   2.584   2.500  17.071 -0.6789  0.7620  1.5546
  233MPD1     C 3533   4.252   1.740   1.716  0.0715  0.2411 -0.3587
  233MPD1    C1 3534   4.218   1.643   1.802  0.6873 -0.6587  0.6356
  233MPD1    C2 3535   4.130   1.542   1.763 -0.3503 -0.1041 -0.0444
  233MPD1    C3 3536   4.083   1.555   1.630 -0.1751  0.0701 -0.2280
  233MPD1    C4 3537   4.125   1.652   1.542 -0.2496  0.0367 -0.4298
  233MPD1    C5 3538   4.217   1.741   1.584 -0.0294 -0.1582  0.1330
  233MPD1     H 3539   4.094   1.465   1.829  0.0438 -0.6068 -0.4199
  233MPD1    H1 3540   4.081   1.660   1.444  1.6235  0.0154 -1.2657
  233MPD1    H2 3541   4.328   1.814   1.740  0.0469  0.0267  0.4036
  233MPD1    H3 3542   4.256   1.815   1.516 -2.2273 -0.2776 -1.2324
  233MPD1     N 3543   4.000   1.450   1.571  0.0083  0.1690 -0.0854
  233MPD1    H5 3544   3.979   1.460   1.473  2.3512 -2.6331 -0.8720
  233MPD1    N1 3545   4.254   1.657   1.938  0.3337 -0.1989 -0.3013
  233MPD1    H6 3546   4.227   1.582   2.001  3.0582 -0.8422  0.1082
  233MPD1    H7 3547   4.348   1.681   1.969 -0.2067  2.0148 -0.3446
  234MPD1     C 3548   0.118   2.575  10.631 -0.0462  0.7382 -0.6471
  234MPD1    C1 3549   0.029   2.666  10.670  0.0811  0.1813 -0.1320
  234MPD1    C2 3550   4.703   2.751  10.578 -0.3241 -0.5908 -0.2158
  234MPD1    C3 3551   0.005   2.723  10.443  0.2531  0.6408  0.7478
  234MPD1    C4 3552   0.084   2.618  10.402 -0.6076  0.3457  0.9626
  234MPD1    C5 3553   0.139   2.543  10.504 -0.7204 -0.1884 -0.3921
  234MPD1     H 3554   4.630   2.828  10.600  0.9862  0.2212  1.2467
  234MPD1    H1 3555   0.107   2.595  10.299  1.5854  1.0209  1.3165
  234MPD1    H2 3556   0.171   2.504  10.694  0.2343  0.4171 -1.2460
  234MPD1    H3 3557   0.217   2.471  10.483  1.6250  2.4004 -0.4410
  234MPD1     N 3558   4.666   2.805  10.354  0.1931 -0.2700 -0.4311
  234MPD1    H5 3559   4.618   2.884  10.394 -2.2968 -3.2013  2.2502
  234MPD1    N1 3560   0.010   2.687  10.806  1.1566  0.1122  0.1601
  234MPD1    H6 3561   4.645   2.736  10.817  2.0803  2.3359 -2.3599
  234MPD1    H7 3562   4.722   2.598  10.855  3.5181 -0.5944 -0.5885
  235MPD1     C 3563   1.197   1.045   9.364 -0.1354 -0.1964  0.5696
  235MPD1    C1 3564   1.311   1.083   9.311  0.9655  0.1666 -0.0224
  235MPD1    C2 3565   1.354   1.219   9.335 -0.4510 -0.1422  0.6666
  235MPD1    C3 3566   1.277   1.310   9.397  0.6966  0.0808 -0.7680
  235MPD1    C4 3567   1.147   1.274   9.432 -0.3312  0.1431  0.3930
  235MPD1    C5 3568   1.114   1.140   9.418 -0.0948 -0.3108 -0.6293
  235MPD1     H 3569   1.457   1.248   9.314 -0.5252 -0.0957  0.3712
  235MPD1    H1 3570   1.082   1.342   9.486 -1.4650 -0.1706 -0.5602
  235MPD1    H2 3571   1.174   0.940   9.354  0.3208 -0.4595  2.1616
  235MPD1    H3 3572   1.036   1.105   9.484  0.3766 -2.6938 -1.3224
  235MPD1     N 3573   1.332   1.440   9.433  0.4086 -0.8323 -0.4604
  235MPD1    H5 3574   1.432   1.444   9.417  1.0334 -1.9351  3.3301
  235MPD1    N1 3575   1.408   0.989   9.261  0.5595  0.5311 -1.0199
  235MPD1    H6 3576   1.366   0.910   9.211  0.6507 -0.9962  1.2966
  235MPD1    H7 3577   1.461   1.038   9.189  1.5785 -0.3013 -0.8267
  236MPD1     C 3578   1.036   2.729  10.459 -0.1687  0.0101  0.1393
  236MPD1    C1 3579   1.095   2.843  10.508 -0.4280 -0.2431  0.0598
  236MPD1    C2 3580   1.219   2.837  10.566  0.9603 -0.0644 -0.4070
  236MPD1    C3 3581   1.284   2.711  10.589  0.0752  0.3209 -0.5633
  236MPD1    C4 3582   1.209   2.600  10.553  0.9244 -0.3158 -0.3274
  236MPD1    C5 3583   1.089   2.608  10.492 -0.3772 -0.0794 -0.5345
  236MPD1     H 3584   1.271   2.926  10.597  0.6960  0.2484 -0.8739
  236MPD1    H1 3585   1.245   2.499  10.562 -0.0182 -0.4638  1.6962
  236MPD1    H2 3586   0.937   2.734  10.414  0.2436  0.2436 -0.7404
  236MPD1    H3 3587   1.041   2.513  10.466  1.2490  0.3352 -5.0190
  236MPD1     N 3588   1.414   2.694  10.637 -0.1397 -0.2496  0.5719
  236MPD1    H5 3589   1.444   2.597  10.640  0.7066  0.0186  0.7410
  236MPD1    N1 3590   1.045   2.969  10.475 -0.1202  0.4026  0.3399
  236MPD1    H6 3591   0.944   2.969  10.461 -0.0493  2.9370 -0.2600
  236MPD1    H7 3592   1.081   3.032  10.546  1.1790  1.0205 -0.8485
  237MPD1     C 3593   1.282   1.465  14.848 -0.6194 -0.4013 -0.4432
  237MPD1    C1 3594   1.195   1.462  14.743  0.4849  0.0065  1.0297
  237MPD1    C2 3595   1.093   1.371  14.740 -0.4771 -0.2379  1.1439
  237MPD1    C3 3596   1.078   1.272  14.835 -0.1433  0.8539 -0.2530
  237MPD1    C4 3597   1.169   1.267  14.939  0.1508 -0.5275  0.1934
  237MPD1    C5 3598   1.263   1.365  14.940  0.6770  0.4966  1.2134
  237MPD1     H 3599   1.015   1.384  14.666  0.0213  0.0561  0.6701
  237MPD1    H1 3600   1.149   1.198  15.019  2.4432  0.3730  1.5714
  237MPD1    H2 3601   1.366   1.533  14.859 -0.6629 -0.5361  0.7687
  237MPD1    H3 3602   1.317   1.379  15.033  1.9774 -0.2368  0.5651
  237MPD1     N 3603   0.966   1.186  14.844 -0.2531  0.0063  0.0238
  237MPD1    H5 3604   0.964   1.130  14.928  0.8927  1.3455  0.9536
  237MPD1    N1 3605   1.192   1.566  14.646 -0.1022 -0.7446  0.3653
  237MPD1    H6 3606   1.140   1.543  14.562 -2.0990 -3.1470  2.2693
  237MPD1    H7 3607   1.285   1.598  14.619 -0.1728 -0.7107  0.1602
  238MPD1     C 3608   2.634   0.207  15.660  0.1381 -0.0559  0.2342
  238MPD1    C1 3609   2.702   0.118  15.574  0.0632  0.1714 -0.5009
  238MPD1    C2 3610   2.629   0.032  15.489 -0.2819  0.1972 -0.4968
  238MPD1    C3 3611   2.496   0.038  15.491  0.1954  0.2896 -0.1731
  238MPD1    C4 3612   2.430   0.109  15.592  0.2649 -0.2823  0.2494
  238MPD1    C5 3613   2.500   0.193  15.675  0.6229 -0.0988  0.0098
  238MPD1     H 3614   2.680   0.003  15.398 -0.9996 -1.9071 -0.2422
  238MPD1    H1 3615   2.323   0.115  15.606  0.5658  2.9409  1.2656
  238MPD1    H2 3616   2.689   0.284  15.712  0.4138  0.1310 -0.3321
  238MPD1    H3 3617   2.450   0.267  15.736 -0.7419  0.7021 -2.0822
  238MPD1     N 3618   2.417   4.712  15.380  0.0332 -0.2665  0.4979
  238MPD1    H5 3619   2.317   0.005  15.388 -0.1068 -1.7036  1.6864
  238MPD1    N1 3620   2.842   0.128  15.547 -0.3632  0.7725 -0.2581
  238MPD1    H6 3621   2.878   0.036  15.522  0.6708  1.2363 -0.4796
  238MPD1    H7 3622   2.894   0.144  15.634  0.9244 -2.9648 -0.3315
  239MPD1     C 3623   3.321   0.789  14.588 -0.2874 -0.0695 -0.0875
  239MPD1    C1 3624   3.217   0.840  14.669 -0.0727 -0.4048 -0.3186
  239MPD1    C2 3625   3.103   0.888  14.611 -0.3432  0.1898 -0.2585
  239MPD1    C3 3626   3.087   0.890  14.475  0.1432 -0.2709 -0.2998
  239MPD1    C4 3627   3.194   0.843  14.399  0.7140  0.0973  0.5113
  239MPD1    C5 3628   3.302   0.794  14.453 -1.0299  1.0846  0.0653
  239MPD1     H 3629   3.026   0.939  14.669 -0.3004  0.4523 -0.4348
  239MPD1    H1 3630   3.196   0.848  14.291  1.4742  0.1556  0.5303
  239MPD1    H2 3631   3.419   0.756  14.621  1.0416  1.7026 -2.2251
  239MPD1    H3 3632   3.381   0.763  14.386 -2.9191 -2.5873 -0.4525
  239MPD1     N 3633   2.976   0.942  14.404 -0.1635 -0.8308 -0.7449
  239MPD1    H5 3634   2.993   0.960  14.306 -2.3379  0.8165 -0.8247
  239MPD1    N1 3635   3.251   0.860  14.806 -0.3351 -0.3065  0.1888
  239MPD1    H6 3636   3.321   0.790  14.832 -1.0563 -0.9181  0.4788
  239MPD1    H7 3637   3.169   0.849  14.866  0.6303 -0.8833  1.4081
  240MPD1     C 3638   3.056   0.122  14.355  0.6065 -0.4829 -0.1738
  240MPD1    C1 3639   2.950   0.183  14.285 -0.5400 -0.6239 -0.0486
  240MPD1    C2 3640   2.843   0.223  14.358 -0.0399  0.4764  0.0607
  240MPD1    C3 3641   2.839   0.210  14.496  0.8387  0.2960 -0.6470
  240MPD1    C4 3642   2.946   0.151  14.563  0.0259  0.0078  0.0402
  240MPD1    C5 3643   3.054   0.108  14.490  0.2060  0.4371 -0.7409
  240MPD1     H 3644   2.754   0.255  14.305 -0.5321 -1.4065 -0.2488
  240MPD1    H1 3645   2.945   0.141  14.671 -1.1663  1.4205  0.1638
  240MPD1    H2 3646   3.139   0.091  14.293 -0.1171 -1.3220 -0.7184
  240MPD1    H3 3647   3.125   0.051  14.549  0.6423  1.4010 -0.3353
  240MPD1     N 3648   2.717   0.249  14.559  0.1467  0.0921  0.1678
  240MPD1    H5 3649   2.647   0.280  14.493 -2.0883 -1.8901  1.5873
  240MPD1    N1 3650   2.953   0.192  14.144  1.4218 -0.3516  1.0395
  240MPD1    H6 3651   3.049   0.189  14.110  1.5229  2.0730  1.1348
  240MPD1    H7 3652   2.888   0.258  14.101 -0.8641 -0.5039  4.2230
  241MPD1     C 3653   1.981   0.061  15.318 -0.0532  1.1586  0.1178
  241MPD1    C1 3654   2.076   0.155  15.344  0.6608  0.5245 -0.0668
  241MPD1    C2 3655   2.142   0.198  15.233 -0.2856  0.5890 -0.2404
  241MPD1    C3 3656   2.114   0.162  15.101  0.0613  0.3560 -0.1528
  241MPD1    C4 3657   2.009   0.073  15.081  0.2369  0.1954 -1.0830
  241MPD1    C5 3658   1.948   0.022  15.193 -0.0683 -0.2959 -0.3999
  241MPD1     H 3659   2.226   0.264  15.252  2.9363 -3.2534 -1.2344
  241MPD1    H1 3660   1.969   0.046  14.984 -0.0158  0.0875 -0.9506
  241MPD1    H2 3661   1.918   0.015  15.393 -0.7108  0.4304 -0.8758
  241MPD1    H3 3662   1.862   4.685  15.166  0.4923 -1.0484 -0.5028
  241MPD1     N 3663   2.186   0.205  14.990  0.6317  0.9799  0.2502
  241MPD1    H5 3664   2.155   0.176  14.898 -0.0980 -0.3774  0.9249
  241MPD1    N1 3665   2.117   0.186  15.472  0.0415  0.6324  0.6896
  241MPD1    H6 3666   2.042   0.170  15.539  0.4703 -0.1827  0.9796
  241MPD1    H7 3667   2.160   0.275  15.496 -0.0802 -0.2249  4.1082
  242MPD1     C 3668   1.510   2.711  16.117  0.4764  0.0597  0.1605
  242MPD1    C1 3669   1.523   2.675  15.988 -0.3380 -0.0046  0.2442
  242MPD1    C2 3670   1.574   2.765  15.895  0.5071  0.4097 -0.4519
  242MPD1    C3 3671   1.592   2.898  15.929  0.3180  0.1041 -0.5203
  242MPD1    C4 3672   1.583   2.933  16.065 -0.1808 -0.6802  0.3575
  242MPD1    C5 3673   1.536   2.842  16.152  0.2029  0.6433  0.6654
  242MPD1     H 3674   1.603   2.740  15.793  0.9309  2.6543 -0.8927
  242MPD1    H1 3675   1.593   3.036  16.098  0.0282 -0.6657  0.2467
  242MPD1    H2 3676   1.478   2.637  16.190  0.1411  0.1431  0.0984
  242MPD1    H3 3677   1.532   2.878  16.254 -0.6237 -0.3494  0.9792
  242MPD1     N 3678   1.627   3.002  15.830 -0.0472 -1.0473  0.0629
  242MPD1    H5 3679   1.636   3.094  15.872 -3.0455 -0.6094 -0.2565
  242MPD1    N1 3680   1.523   2.541  15.951  0.2702 -0.1369 -0.0863
  242MPD1    H6 3681   1.515   2.535  15.849 -0.1205 -1.0499  0.0023
  242MPD1    H7 3682   1.464   2.484  16.011 -1.5268  1.3254 -0.4575
  243MPD1     C 3683   4.110   2.971  16.863 -0.6801  0.3658  0.2937
  243MPD1    C1 3684   4.198   2.904  16.778 -0.3326  0.6740  0.1439
  243MPD1    C2 3685   4.212   2.769  16.792  0.5708 -0.5489  0.2911
  243MPD1    C3 3686   4.159   2.693  16.894 -0.4367 -0.4468  0.1146
  243MPD1    C4 3687   4.098   2.767  16.988 -0.3485 -0.2136  0.7577
  243MPD1    C5 3688   4.074   2.895  16.971  0.0392  0.3442  0.0757
  243MPD1     H 3689   4.265   2.721  16.711  1.1891  2.0587 -0.8486
  243MPD1    H1 3690   4.047   2.719  17.071 -0.0262 -0.6795  0.6869
  243MPD1    H2 3691   4.082   3.075  16.855  0.7682  0.7130 -0.3815
  243MPD1    H3 3692   4.012   2.937  17.049 -1.1683 -0.4956 -0.4192
  243MPD1     N 3693   4.168   2.552  16.884  0.5075  0.5086  0.2819
  243MPD1    H5 3694   4.224   2.510  16.810  1.2668  2.3087 -0.1698
  243MPD1    N1 3695   4.255   2.967  16.666  0.5547 -0.2640  0.6139
  243MPD1    H6 3696   4.343   2.927  16.633  0.3456  0.7381 -1.1526
  243MPD1    H7 3697   4.271   3.066  16.684 -1.4784  0.1948 -0.0715
  244MPD1     C 3698   4.279   1.578  17.427 -0.1732 -0.2684 -0.0180
  244MPD1    C1 3699   4.277   1.545  17.293  0.1062  0.0560 -0.0550
  244MPD1    C2 3700   4.249   1.648  17.202  0.5028  0.3443  0.2442
  244MPD1    C3 3701   4.209   1.775  17.241 -0.3393 -0.6617 -0.0522
  244MPD1    C4 3702   4.214   1.801  17.372  0.4156 -0.3188 -0.3856
  244MPD1    C5 3703   4.248   1.711  17.469  0.2114  0.8291 -0.2896
  244MPD1     H 3704   4.233   1.617  17.099 -0.0613 -2.3058  1.1493
  244MPD1    H1 3705   4.196   1.902  17.408  1.3079 -0.6303  0.9677
  244MPD1    H2 3706   4.324   1.518  17.505  2.9806 -0.1581 -1.7610
  244MPD1    H3 3707   4.276   1.734  17.571 -2.4696  0.3609  0.5559
  244MPD1     N 3708   4.201   1.885  17.150  0.1325 -0.4537 -0.5963
  244MPD1    H5 3709   4.219   1.857  17.054 -0.5844 -0.7810 -0.6281
  244MPD1    N1 3710   4.315   1.414  17.255 -0.5208  0.2842  0.0713
  244MPD1    H6 3711   4.258   1.363  17.187 -0.0889 -1.0770  0.7361
  244MPD1    H7 3712   4.322   1.346  17.330  0.8320  0.0925 -0.2399
  245MPD1     C 3713   0.123   2.662  13.419 -0.7308  0.6063  0.3882
  245MPD1    C1 3714   0.059   2.741  13.521  0.5387 -0.0911  0.5070
  245MPD1    C2 3715   0.129   2.855  13.567  0.4854 -0.2235 -0.1752
  245MPD1    C3 3716   0.237   2.912  13.499 -0.2517 -0.1949 -0.5021
  245MPD1    C4 3717   0.296   2.835  13.404  0.2781  0.6665 -0.2122
  245MPD1    C5 3718   0.241   2.713  13.370  0.3871 -0.0850  0.8176
  245MPD1     H 3719   0.088   2.918  13.646 -0.6789 -1.2794  0.0562
  245MPD1    H1 3720   0.389   2.851  13.350  1.4350 -0.6720  1.3856
  245MPD1    H2 3721   0.089   2.564  13.390 -1.0635  1.3497 -1.7719
  245MPD1    H3 3722   0.300   2.648  13.306  0.1426  1.2823 -0.7939
  245MPD1     N 3723   0.280   3.041  13.533  0.6099 -0.5192  0.4235
  245MPD1    H5 3724   0.230   3.080  13.612  0.7664  0.0960  0.2106
  245MPD1    N1 3725   4.666   2.703  13.587  0.2042  0.4159 -0.6007
  245MPD1    H6 3726   4.608   2.771  13.635 -0.3231  0.7843 -1.7676
  245MPD1    H7 3727   4.600   2.650  13.530  0.5871 -1.2740  0.5305
  246MPD1     C 3728   2.212   3.717   9.193 -0.4630 -0.6335 -0.3553
  246MPD1    C1 3729   2.149   3.593   9.210  0.2211  0.2558 -0.2002
  246MPD1    C2 3730   2.023   3.585   9.275  0.0029 -0.4944  0.2457
  246MPD1    C3 3731   1.966   3.695   9.330  0.3091 -1.0693  0.5888
  246MPD1    C4 3732   2.039   3.814   9.323 -0.5809  0.0343 -0.2085
  246MPD1    C5 3733   2.158   3.823   9.258 -0.3739  0.0636  0.2644
  246MPD1     H 3734   1.964   3.493   9.279 -0.8554 -0.0019 -1.0995
  246MPD1    H1 3735   1.991   3.903   9.363 -0.7852  0.3421 -1.1296
  246MPD1    H2 3736   2.307   3.730   9.143  0.6339 -1.3429  1.5358
  246MPD1    H3 3737   2.197   3.924   9.247  0.7726 -0.4708 -0.4972
  246MPD1     N 3738   1.839   3.681   9.396  0.4495  0.2303  0.2956
  246MPD1    H5 3739   1.800   3.587   9.402  0.1628  0.5028  2.6849
  246MPD1    N1 3740   2.209   3.490   9.139 -0.0908 -0.7744  0.2703
  246MPD1    H6 3741   2.175   3.401   9.175 -0.2309 -0.3692  1.1452
  246MPD1    H7 3742   2.311   3.484   9.145 -0.0395 -0.4014 -0.2618
  247MPD1     C 3743   0.225   1.411  15.794  0.4731 -0.6352  0.4493
  247MPD1    C1 3744   0.161   1.391  15.911 -0.7579 -0.0278 -0.4685
  247MPD1    C2 3745   0.153   1.490  16.002 -1.0497  1.1415 -0.1302
  247MPD1    C3 3746   0.225   1.606  15.982  0.1345  0.6263 -0.1625
  247MPD1    C4 3747   0.291   1.626  15.859  0.2982  0.1637  0.2227
  247MPD1    C5 3748   0.299   1.523  15.771 -0.0292  0.4677 -0.4408
  247MPD1     H 3749   0.100   1.477  16.096  3.6276 -0.5761  2.3152
  247MPD1    H1 3750   0.357   1.712  15.852  0.6318 -0.1595 -0.5069
  247MPD1    H2 3751   0.237   1.332  15.721  1.8676  0.5695 -0.6215
  247MPD1    H3 3752   0.360   1.533  15.681 -0.1801  2.4894 -0.3194
  247MPD1     N 3753   0.243   1.698  16.083  0.4930 -0.5424 -0.2893
  247MPD1    H5 3754   0.313   1.768  16.059  0.5659 -0.6835 -0.4927
  247MPD1    N1 3755   0.111   1.259  15.948 -0.4714 -0.2879  0.3324
  247MPD1    H6 3756   0.082   1.207  15.865  0.5335 -0.1092 -0.1320
  247MPD1    H7 3757   0.030   1.261  16.009 -0.2165  0.0653  0.6605
  248MPD1     C 3758   1.152   2.837  17.619  0.3074  0.9449 -0.2962
  248MPD1    C1 3759   1.103   2.711  17.646 -0.1177  0.3207 -0.8467
  248MPD1    C2 3760   1.027   2.693   0.070  0.3462 -0.7077  0.1825
  248MPD1    C3 3761   0.972   2.792   0.144  0.3306  0.1805 -0.1039
  248MPD1    C4 3762   1.017   2.922   0.111  0.0975 -0.2590 -0.1711
  248MPD1    C5 3763   1.103   2.940   0.004  0.1343 -0.0352 -0.1659
  248MPD1     H 3764   0.996   2.591   0.089  0.7276 -0.4114  2.3021
  248MPD1    H1 3765   0.980   3.002   0.175 -2.2273 -0.0432 -1.7764
  248MPD1    H2 3766   1.219   2.856  17.536 -0.9636 -0.0745 -1.5511
  248MPD1    H3 3767   1.138   3.041  17.680 -0.2768  0.0736 -0.3436
  248MPD1     N 3768   0.904   2.754   0.263 -0.0293  0.3284 -0.5449
  248MPD1    H5 3769   0.892   2.654   0.270 -0.2085  0.5140  1.7914
  248MPD1    N1 3770   1.158   2.602  17.570 -1.0442  0.0219  0.3466
  248MPD1    H6 3771   1.109   2.514  17.560  1.2067 -1.2857  0.9560
  248MPD1    H7 3772   1.168   2.638  17.475  1.1769  0.7087  0.8215
  249MPD1     C 3773   2.204   4.688   9.988 -0.0844 -0.8893  0.1963
  249MPD1    C1 3774   2.338   4.712   9.985 -0.7819  0.1479 -0.2737
  249MPD1    C2 3775   2.388   0.103  10.046 -0.4174 -0.1594  0.3917
  249MPD1    C3 3776   2.302   0.188  10.118 -0.3268  0.1539  0.9383
  249MPD1    C4 3777   2.171   0.145  10.143 -0.1674 -0.1057 -0.6295
  249MPD1    C5 3778   2.126   0.031  10.077  0.1840  0.2505 -0.0370
  249MPD1     H 3779   2.492   0.131  10.032 -0.3722 -0.0424  0.9757
  249MPD1    H1 3780   2.110   0.193  10.218  0.6985  2.7737 -1.7591
  249MPD1    H2 3781   2.170   4.598   9.938 -0.7470 -0.5423  0.0280
  249MPD1    H3 3782   2.023   4.722  10.091  0.7111 -0.5492  1.9797
  249MPD1     N 3783   2.351   0.312  10.158  0.0432 -0.1067 -0.0631
  249MPD1    H5 3784   2.444   0.348  10.134  0.9249 -1.7868  0.8951
  249MPD1    N1 3785   2.420   4.640   9.894  0.1190  0.1897  0.1833
  249MPD1    H6 3786   2.513   4.630   9.935 -0.0663 -0.4732  0.4485
  249MPD1    H7 3787   2.380   4.547   9.887  0.6795 -0.0085 -0.3583
  250MPD2     C 3788   2.910   1.511  13.408  0.2318 -0.5075  0.2624
  250MPD2    C1 3789   2.878   1.545  13.282  0.3328  0.0190  0.3923
  250MPD2    C2 3790   2.835   1.444  13.190 -0.2792  0.1160  0.1068
  250MPD2    C3 3791   2.845   1.310  13.229  0.2354  0.0204  0.7151
  250MPD2    C4 3792   2.873   1.284  13.360 -0.2842 -0.6074  0.0776
  250MPD2    C5 3793   2.904   1.381  13.448 -0.2268  0.1788  0.0950
  250MPD2     H 3794   2.809   1.463  13.086 -2.0225  0.0922  0.5349
  250MPD2    H1 3795   2.862   1.178  13.382 -0.3956 -0.7503 -0.6575
  250MPD2    H2 3796   2.936   1.590  13.478 -0.6990  0.0656 -0.0356
  250MPD2    H3 3797   2.911   1.357  13.553  1.8494 -0.4240 -0.1839
  250MPD2     N 3798   2.814   1.191  13.151  0.0111  0.0013 -1.0528
  250MPD2    H5 3799   2.827   1.100  13.196 -0.5778  0.1222 -0.6322
  250MPD2    N1 3800   2.892   1.682  13.244 -0.4999  1.2798  0.5834
  250MPD2    H7 3801   2.937   1.745  13.309  0.9085  0.1020  0.7564
  251TMC3    C1 3802   2.965   1.846  13.088  0.1375 -0.3097 -0.7608
  251TMC3    C2 3803   3.004   1.925  13.191  0.5815 -0.3034  0.0671
  251TMC3    C3 3804   3.134   1.972  13.186 -0.6988 -0.2444 -0.0718
  251TMC3    C4 3805   3.041   1.827  12.979  0.3181 -0.1254 -0.2925
  251TMC3    C5 3806   3.166   1.883  12.970  0.3902  0.9683  0.0389
  251TMC3    C6 3807   3.212   1.965  13.067 -0.0477  0.0583  0.0925
  251TMC3     C 3808   2.886   1.732  13.114 -0.0226 -0.2237  0.0023
  251TMC3     O 3809   2.832   1.674  13.020 -0.3118 -0.1214 -0.2039
  251TMC3     H 3810   2.937   1.949  13.273  0.0117  2.2410 -1.1717
  251TMC3    H1 3811   3.018   1.751  12.905  2.5315 -0.3979 -0.7208
  251TMC3    H2 3812   3.318   1.986  13.067  0.3835 -2.0351  0.6935
  251TMC3    C7 3813   3.270   1.834  12.884 -0.0300 -0.0829  0.6392
  251TMC3    C8 3814   3.185   2.032  13.311 -0.1884  0.6157 -0.3083
  251TMC3    O1 3815   3.351   1.921  12.856  0.1622  0.0433  0.2381
  251TMC3    O2 3816   3.118   2.018  13.411 -0.2235 -0.5170  0.3060
  252TMC3    C1 3817   4.059   1.245   9.061 -0.0626  0.3460  0.4437
  252TMC3    C2 3818   4.182   1.238   9.128  0.1423 -0.2432  0.4937
  252TMC3    C3 3819   4.234   1.112   9.127  0.3203  0.4034 -1.3313
  252TMC3    C4 3820   3.990   1.130   9.018 -0.2834  0.1619  0.6393
  252TMC3    C5 3821   4.052   1.014   9.032 -0.1987  0.2419 -0.3420
  252TMC3    C6 3822   4.179   1.001   9.070  0.0405  0.6616 -0.3407
  252TMC3     C 3823   4.014   1.367   9.000 -0.4880 -0.1764 -0.0624
  252TMC3     O 3824   3.903   1.366   8.949  0.0207  0.1045  0.4785
  252TMC3     H 3825   4.239   1.326   9.157  1.4194 -1.2285  0.9499
  252TMC3    H1 3826   3.893   1.146   8.972 -0.4554  2.4636  1.7826
  252TMC3    H2 3827   4.233   0.907   9.067 -1.7526 -0.2877 -2.7506
  252TMC3    C7 3828   3.967   0.903   8.983  0.1090  0.3514 -0.1294
  252TMC3    C8 3829   4.370   1.080   9.181  0.0106  0.2425  1.0651
  252TMC3    O1 3830   3.859   0.926   8.935 -0.2713  0.2198 -0.0468
  252TMC3    O2 3831   4.429   0.977   9.149  0.2225 -0.2929 -0.1305
  253MPD2     C 3832   0.616   1.316  15.366 -0.1440  0.1327 -0.5459
  253MPD2    C1 3833   0.485   1.287  15.379  0.4803 -0.7224  0.1683
  253MPD2    C2 3834   0.451   1.219  15.498 -0.2575  0.0295  0.2788
  253MPD2    C3 3835   0.541   1.195  15.600 -0.4866 -0.0134  0.8282
  253MPD2    C4 3836   0.671   1.227  15.577  0.6393 -0.1957  0.0688
  253MPD2    C5 3837   0.711   1.281  15.457 -0.4040 -0.0608 -1.1797
  253MPD2     H 3838   0.349   1.186  15.512  0.0581 -0.9142  0.3799
  253MPD2    H1 3839   0.741   1.203  15.656  0.6850 -2.3263 -0.6187
  253MPD2    H2 3840   0.650   1.360  15.273  2.6571  0.8621  0.8529
  253MPD2    H3 3841   0.813   1.300  15.427 -0.5647  3.3911  0.4083
  253MPD2     N 3842   0.512   1.130  15.722  0.0162  0.1405 -0.1509
  253MPD2    H5 3843   0.589   1.098  15.781  1.9202  3.8573 -0.6246
  253MPD2    N1 3844   0.383   1.332  15.293  0.4167 -0.0359 -0.4975
  253MPD2    H7 3845   0.289   1.313  15.328  1.2139 -1.7180  0.7187
  254TMC3    C1 3846   0.419   0.996  15.888  0.2346  0.0181 -0.6107
  254TMC3    C2 3847   0.324   0.900  15.921 -0.7648  0.4070  0.6802
  254TMC3    C3 3848   0.330   0.829  16.033  0.1373 -0.0925  0.0979
  254TMC3    C4 3849   0.516   1.031  15.984  0.2435 -0.0917  0.8066
  254TMC3    C5 3850   0.513   0.966  16.105 -0.3016 -0.1810 -0.7406
  254TMC3    C6 3851   0.428   0.863  16.126 -0.3897 -0.3947  0.1101
  254TMC3     C 3852   0.399   1.078  15.768  1.6713 -0.1977  0.2824
  254TMC3     O 3853   0.291   1.077  15.710  0.5530  0.5912 -0.3903
  254TMC3     H 3854   0.248   0.859  15.856  0.7157  1.6210 -1.8218
  254TMC3    H1 3855   0.575   1.120  15.968  0.8714 -0.8108 -0.8719
  254TMC3    H2 3856   0.439   0.815  16.222  2.9926 -2.4667 -1.3246
  254TMC3    C7 3857   0.526   1.050  16.225 -0.2185 -0.3897  0.5294
  254TMC3    C8 3858   0.213   0.777  16.098 -1.2797  0.1532  0.1669
  254TMC3    O1 3859   0.443   1.026  16.314  0.7312 -0.4512 -0.2029
  254TMC3    O2 3860   0.204   0.801  16.217  0.0243  0.7303 -0.0231
  255MPD2     C 3861   2.944   3.592  10.677 -0.1099 -0.4195 -0.8661
  255MPD2    C1 3862   2.968   3.728  10.650  0.3720 -0.8046  0.1784
  255MPD2    C2 3863   3.092   3.784  10.683  0.3173 -0.1035  0.0885
  255MPD2    C3 3864   3.193   3.707  10.734  0.3139  0.0526  1.0353
  255MPD2    C4 3865   3.172   3.569  10.744 -0.6406  0.9692 -0.0218
  255MPD2    C5 3866   3.044   3.519  10.724  0.5383 -0.3120  0.8537
  255MPD2     H 3867   3.113   3.889  10.666  1.4160 -0.1712  1.1323
  255MPD2    H1 3868   3.245   3.504  10.791 -0.5619  0.9562 -0.1638
  255MPD2    H2 3869   2.845   3.548  10.666 -1.0827  2.1005 -2.1952
  255MPD2    H3 3870   3.019   3.418  10.754 -0.4535 -0.1403  0.6136
  255MPD2     N 3871   3.316   3.773  10.744  0.3087  0.1454 -0.3133
  255MPD2    H5 3872   3.313   3.869  10.710 -0.1586 -1.1302 -3.8951
  255MPD2    N1 3873   2.871   3.794  10.576 -0.2064 -0.1772  0.4853
  255MPD2    H7 3874   2.801   3.728  10.544  0.1184 -0.2504 -0.0782
  256TMC3    C1 3875   2.808   3.935  10.407 -0.1861 -0.2044 -0.0340
  256TMC3    C2 3876   2.833   4.061  10.357 -0.3845 -0.5476 -0.2323
  256TMC3    C3 3877   2.850   4.073  10.222 -0.1464  0.8554 -0.3130
  256TMC3    C4 3878   2.788   3.827  10.325 -0.7144  0.1523 -0.6105
  256TMC3    C5 3879   2.800   3.843  10.190  0.0807  0.4323  0.4472
  256TMC3    C6 3880   2.835   3.966  10.135 -0.5630 -0.5189  0.0131
  256TMC3     C 3881   2.883   3.919  10.525  0.4400  0.3188 -1.0635
  256TMC3     O 3882   2.941   4.016  10.574 -0.2007 -0.8802 -0.3926
  256TMC3     H 3883   2.861   4.149  10.414 -2.1999 -1.4462  2.0280
  256TMC3    H1 3884   2.761   3.730  10.366 -0.1673  1.2548  2.3769
  256TMC3    H2 3885   2.846   3.982  10.028 -1.8643  0.1073 -0.0303
  256TMC3    C7 3886   2.842   3.725  10.123 -0.3365  0.1386  0.1411
  256TMC3    C8 3887   2.892   4.204  10.176  0.6174  1.2430 -0.1645
  256TMC3    O1 3888   2.798   3.619  10.165 -0.0800  0.2010  0.3232
  256TMC3    O2 3889   2.855   4.306  10.238  0.4506 -0.2607  0.0614
  257MPD2     C 3890   2.196   1.789  13.417  0.1965 -0.3249  0.7771
  257MPD2    C1 3891   2.138   1.698  13.330  0.5027  0.0161 -0.1259
  257MPD2    C2 3892   2.143   1.563  13.364 -0.0287 -0.3117 -0.0148
  257MPD2    C3 3893   2.195   1.523  13.486 -0.1322  0.7049 -0.1014
  257MPD2    C4 3894   2.241   1.621  13.580  0.2111  0.6610  0.5931
  257MPD2    C5 3895   2.233   1.748  13.539  0.1623 -0.4079  0.4523
  257MPD2     H 3896   2.129   1.491  13.284  0.8750 -0.9137  0.3658
  257MPD2    H1 3897   2.263   1.598  13.683 -0.8908  2.1867  1.1679
  257MPD2    H2 3898   2.206   1.895  13.396 -1.7124 -0.4786 -0.8990
  257MPD2    H3 3899   2.261   1.812  13.621  0.0883  2.6730 -1.9237
  257MPD2     N 3900   2.201   1.383  13.514 -0.1243  0.2827  0.3932
  257MPD2    H5 3901   2.179   1.317  13.440  2.2601  1.8835 -1.7226
  257MPD2    N1 3902   2.082   1.753  13.212 -0.0693 -0.3155  0.0406
  257MPD2    H7 3903   2.124   1.842  13.185 -0.5333 -0.3940 -0.9196
  258TMC3    C1 3904   2.194   1.186  13.645  0.4867  0.6121  0.4584
  258TMC3    C2 3905   2.254   1.113  13.539 -0.3407  0.5012 -0.1395
  258TMC3    C3 3906   2.256   0.975  13.553 -0.1908  0.4310 -0.4601
  258TMC3    C4 3907   2.149   1.128  13.760 -0.2616  0.0920 -0.2035
  258TMC3    C5 3908   2.146   0.994  13.767 -0.2005  0.0804  0.0456
  258TMC3    C6 3909   2.195   0.917  13.659 -0.5972 -0.2716  0.5333
  258TMC3     C 3910   2.213   1.328  13.642  0.3113  0.4367  0.1941
  258TMC3     O 3911   2.209   1.395  13.748  0.2463  0.0502  0.2877
  258TMC3     H 3912   2.315   1.165  13.466 -1.5616  0.7605 -0.9654
  258TMC3    H1 3913   2.113   1.186  13.845 -0.0253  0.3582 -0.2846
  258TMC3    H2 3914   2.186   0.809  13.667 -0.6353 -0.2067  1.3505
  258TMC3    C7 3915   2.180   0.940  13.899  0.4524 -0.5263  0.2219
  258TMC3    C8 3916   2.319   0.890  13.450 -0.5229 -0.0970 -0.4986
  258TMC3    O1 3917   2.132   1.010  13.987  0.2070 -0.1670 -0.1751
  258TMC3    O2 3918   2.314   0.769  13.466 -0.0040 -0.8097 -0.2604
  259MPD2     C 3919   1.326   3.093   0.983 -0.1170  0.7657  0.2043
  259MPD2    C1 3920   1.398   2.975   1.003  0.2713  0.1139  0.0365
  259MPD2    C2 3921   1.450   2.906   0.897  0.7260  0.4031  0.0733
  259MPD2    C3 3922   1.436   2.958   0.766 -0.9415 -0.3666 -0.2376
  259MPD2    C4 3923   1.368   3.079   0.751  0.4582 -0.1108  0.2653
  259MPD2    C5 3924   1.318   3.146   0.862 -0.0123  0.9368  0.1069
  259MPD2     H 3925   1.495   2.809   0.911 -0.1959  0.3157  2.4240
  259MPD2    H1 3926   1.352   3.134   0.659 -2.7571 -1.4157  0.0259
  259MPD2    H2 3927   1.294   3.140   1.076 -1.9233  0.2328 -0.1404
  259MPD2    H3 3928   1.286   3.246   0.835  0.5121  0.8100 -1.0106
  259MPD2     N 3929   1.499   2.887   0.652 -0.1050 -0.0149 -0.5389
  259MPD2    H5 3930   1.557   2.808   0.676  0.8500  1.0920  0.7988
  259MPD2    N1 3931   1.407   2.925   1.137  0.0584  0.4671 -0.0355
  259MPD2    H7 3932   1.352   2.973   1.206  0.0121  1.2424 -0.6084
  260TMC3    C1 3933   1.583   2.864   0.440  0.6028  0.3456 -0.3295
  260TMC3    C2 3934   1.634   2.933   0.335  0.2023  0.5610 -0.5844
  260TMC3    C3 3935   1.752   2.891   0.291  0.6429  0.3769 -0.2593
  260TMC3    C4 3936   1.638   2.757   0.497 -0.2902 -0.5536 -0.3759
  260TMC3    C5 3937   1.761   2.717   0.462  0.3766  0.4656 -0.3584
  260TMC3    C6 3938   1.816   2.787   0.362  0.4698 -0.5691 -0.3515
  260TMC3     C 3939   1.488   2.934   0.522  0.3369 -0.2937 -0.9245
  260TMC3     O 3940   1.442   3.041   0.479 -0.2693  0.0924  0.1524
  260TMC3     H 3941   1.583   3.016   0.287  1.3281  0.0646 -2.6556
  260TMC3    H1 3942   1.586   2.688   0.562  0.4699 -2.3768 -1.7023
  260TMC3    H2 3943   1.916   2.763   0.327  1.0309  0.3188  0.6245
  260TMC3    C7 3944   1.768   2.579   0.430 -0.4780 -0.4572  0.3038
  260TMC3    C8 3945   1.776   2.887   0.155  0.0188 -0.6483  0.4641
  260TMC3    O1 3946   1.807   2.554   0.315 -0.1240  0.1642 -0.4852
  260TMC3    O2 3947   1.768   2.992   0.096 -0.5712  0.2433 -0.1054
  261MPD2     C 3948   2.848   0.747  12.456 -0.4699 -0.3199  0.4329
  261MPD2    C1 3949   2.856   0.874  12.490  0.5226  0.1622  0.1634
  261MPD2    C2 3950   2.921   0.978  12.415  0.4121 -0.8496  0.7145
  261MPD2    C3 3951   2.973   0.937  12.287 -0.4580  0.2120  0.0478
  261MPD2    C4 3952   2.970   0.802  12.255  0.4895  0.2816 -0.5450
  261MPD2    C5 3953   2.913   0.708  12.341 -0.0490 -0.5314 -0.2369
  261MPD2     H 3954   2.920   1.079  12.455  0.1753 -0.4155 -0.3822
  261MPD2    H1 3955   3.003   0.757  12.163  1.5470 -1.6799  0.7892
  261MPD2    H2 3956   2.812   0.663  12.513 -4.0113  1.1978  0.4499
  261MPD2    H3 3957   2.918   0.605  12.306 -1.1531 -0.5339 -0.3795
  261MPD2     N 3958   3.020   1.036  12.198  0.2540 -0.2862  0.2746
  261MPD2    H5 3959   3.029   1.131  12.233 -0.2055 -0.2256  0.2329
  261MPD2    N1 3960   2.814   0.908  12.622  0.1712  0.5503 -0.0307
  261MPD2    H7 3961   2.837   1.002  12.651 -0.5988  0.3130  1.3247
  262TMC3    C1 3962   3.104   1.124  11.997 -0.0505  0.2737  0.0600
  262TMC3    C2 3963   3.038   1.240  12.021 -0.1788  0.1981 -0.7435
  262TMC3    C3 3964   3.080   1.346  11.947 -0.0974 -0.3445 -1.0336
  262TMC3    C4 3965   3.192   1.109  11.897  0.1732  0.2756 -0.9323
  262TMC3    C5 3966   3.219   1.217  11.811 -0.3675  0.0435 -0.0066
  262TMC3    C6 3967   3.166   1.340  11.835  0.4460 -0.1071  0.4897
  262TMC3     C 3968   3.054   1.010  12.069 -0.3818  0.0708 -0.3830
  262TMC3     O 3969   3.063   0.904  12.006  0.2932  0.1933  0.5419
  262TMC3     H 3970   2.944   1.247  12.075 -0.2423  3.7354 -1.3439
  262TMC3    H1 3971   3.234   1.012  11.874  0.6187  0.4870 -1.0129
  262TMC3    H2 3972   3.188   1.420  11.766 -1.4819  0.0805  0.1015
  262TMC3    C7 3973   3.315   1.191  11.708  0.0256  0.2696 -0.3467
  262TMC3    C8 3974   3.033   1.482  11.972  0.0061 -0.6619  0.4771
  262TMC3    O1 3975   3.368   1.079  11.705  0.1352 -0.0084 -0.0856
  262TMC3    O2 3976   3.026   1.556  11.876 -0.2090  0.4645 -0.4705
  263MPD2     C 3977   4.330   0.033  10.800 -0.2418  0.6784 -0.1470
  263MPD2    C1 3978   4.414   0.133  10.841 -0.4951  0.7975  0.1897
  263MPD2    C2 3979   4.427   0.254  10.775  0.4407  0.3000 -0.2540
  263MPD2    C3 3980   4.355   0.268  10.655  0.2864  0.2439  0.2005
  263MPD2    C4 3981   4.269   0.171  10.613  0.7191  0.3539  0.3654
  263MPD2    C5 3982   4.254   0.054  10.682 -0.1262  0.0643  0.2670
  263MPD2     H 3983   4.480   0.339  10.816  1.5442 -0.1751 -0.6838
  263MPD2    H1 3984   4.208   0.189  10.526 -0.0544  0.6494  0.9766
  263MPD2    H2 3985   4.313   4.671  10.866 -1.0099  0.3192 -0.7983
  263MPD2    H3 3986   4.184   4.706  10.639 -0.6696  1.7894 -1.7015
  263MPD2     N 3987   4.367   0.395  10.584  0.2382 -0.3278 -0.1515
  263MPD2    H5 3988   4.413   0.473  10.630 -1.1858  1.0130 -1.0050
  263MPD2    N1 3989   4.486   0.111  10.959  0.5013 -0.5036 -0.2076
  263MPD2    H7 3990   4.479   0.017  10.997 -2.3786 -0.3678 -0.4099
  264TMC3    C1 3991   4.346   0.545  10.406 -0.1164  0.4476 -0.7299
  264TMC3    C2 3992   4.279   0.641  10.478  0.2417  0.1925  0.5594
  264TMC3    C3 3993   4.260   0.758  10.415  0.2804 -0.1617  0.3558
  264TMC3    C4 3994   4.399   0.568  10.279 -0.1173 -0.6142 -0.2802
  264TMC3    C5 3995   4.372   0.683  10.233  0.1011  0.3937  0.3962
  264TMC3    C6 3996   4.289   0.776  10.286 -0.1761  0.0327  0.9894
  264TMC3     C 3997   4.337   0.407  10.450 -0.5732 -0.0901  0.0166
  264TMC3     O 3998   4.351   0.318  10.370  0.2097  0.1160  0.7111
  264TMC3     H 3999   4.230   0.630  10.574  0.7201 -2.9125  0.4582
  264TMC3    H1 4000   4.459   0.501  10.219 -1.4912 -0.3354 -1.9407
  264TMC3    H2 4001   4.270   0.873  10.241 -1.3763 -1.2507 -1.2704
  264TMC3    C7 4002   4.500   0.738  10.185 -0.6751 -0.1685  0.0482
  264TMC3    C8 4003   4.295   0.879  10.488  0.1001 -0.7412 -0.0212
  264TMC3    O1 4004   4.583   0.667  10.131  0.5100  0.2112  0.6899
  264TMC3    O2 4005   4.337   0.974  10.425 -0.2629  0.1197  0.0306
  265MPD2     C 4006   1.448   0.667  15.673  0.1765  0.4187  0.0617
  265MPD2    C1 4007   1.515   0.779  15.632 -0.6875  0.3430 -0.7050
  265MPD2    C2 4008   1.578   0.783  15.511  0.2771 -0.3680  1.2390
  265MPD2    C3 4009   1.599   0.663  15.445 -0.3974 -0.0244 -0.0078
  265MPD2    C4 4010   1.541   0.548  15.492 -0.6854 -0.2060  0.1812
  265MPD2    C5 4011   1.459   0.549  15.597 -0.5150  0.4926  1.1401
  265MPD2     H 4012   1.642   0.867  15.487 -0.6804 -0.0833 -0.3927
  265MPD2    H1 4013   1.557   0.455  15.439  1.2095  0.6153 -0.7041
  265MPD2    H2 4014   1.387   0.676  15.763  1.0043  1.2277  0.5424
  265MPD2    H3 4015   1.415   0.461  15.643 -1.8349  0.9682  0.8018
  265MPD2     N 4016   1.675   0.646  15.328 -0.1563 -0.0352  0.1259
  265MPD2    H5 4017   1.696   0.547  15.316 -0.1248  0.1025 -0.9664
  265MPD2    N1 4018   1.509   0.907  15.699 -0.5644 -0.2654  0.4097
  265MPD2    H7 4019   1.527   0.990  15.643  0.0959 -1.0628 -0.5402
  266TMC3    C1 4020   1.411   1.051  15.862 -0.3310  0.1967  0.6297
  266TMC3    C2 4021   1.396   1.072  15.998 -0.1051 -0.0316  0.2169
  266TMC3    C3 4022   1.376   1.200  16.038 -0.0960 -0.2388  0.0780
  266TMC3    C4 4023   1.388   1.149  15.774 -0.5260 -0.2144  0.3601
  266TMC3    C5 4024   1.348   1.274  15.815 -0.8013  0.8045 -0.0011
  266TMC3    C6 4025   1.341   1.299  15.950  0.2703  0.4671 -0.7305
  266TMC3     C 4026   1.462   0.921  15.824 -0.3460  0.2534 -0.2493
  266TMC3     O 4027   1.469   0.840  15.914 -0.0357  0.3963 -0.4346
  266TMC3     H 4028   1.406   0.988  16.065  0.7673 -0.2658 -0.1930
  266TMC3    H1 4029   1.370   1.115  15.673  1.2164 -1.5730  0.5063
  266TMC3    H2 4030   1.295   1.393  15.977  0.0469 -0.0459  0.7051
  266TMC3    C7 4031   1.323   1.365  15.714 -0.2598 -0.1847 -0.1977
  266TMC3    C8 4032   1.359   1.219  16.182  0.2998  0.4797  1.0017
  266TMC3    O1 4033   1.321   1.317  15.600  0.3772  0.0535  0.0510
  266TMC3    O2 4034   1.332   1.120  16.250 -0.2103  0.5201  0.2246
  267MPD2     C 4035   3.831   1.903  17.038  0.7919 -0.0751  0.2910
  267MPD2    C1 4036   3.806   2.039  17.020 -0.1358 -0.9017 -0.9131
  267MPD2    C2 4037   3.760   2.089  16.901 -0.3117 -0.6484 -0.6615
  267MPD2    C3 4038   3.746   1.998  16.795  0.1164  0.9209  0.1580
  267MPD2    C4 4039   3.778   1.867  16.807 -0.1024  0.3312  0.2250
  267MPD2    C5 4040   3.805   1.824  16.933 -0.5983  0.4766  0.3476
  267MPD2     H 4041   3.743   2.196  16.889  0.4854 -0.6052 -1.4473
  267MPD2    H1 4042   3.768   1.797  16.726  2.1047 -0.2554  0.4598
  267MPD2    H2 4043   3.865   1.863  17.133 -1.5555 -0.6730  0.8725
  267MPD2    H3 4044   3.817   1.720  16.958 -2.4795  0.2369  0.2470
  267MPD2     N 4045   3.699   2.039  16.669 -0.0054 -0.3351 -0.3377
  267MPD2    H5 4046   3.689   1.963  16.602  1.3464  0.1636 -1.1037
  267MPD2    N1 4047   3.823   2.124  17.137 -0.4510  0.7004 -0.3670
  267MPD2    H7 4048   3.837   2.084  17.229  0.4688 -0.9506 -1.2285
  268TMC3    C1 4049   3.831   2.327  17.280 -0.1000  0.2843  0.4595
  268TMC3    C2 4050   3.795   2.459  17.292  0.3831  0.5331 -0.7126
  268TMC3    C3 4051   3.726   2.492  17.405  0.1701 -0.2357 -0.0778
  268TMC3    C4 4052   3.838   2.237  17.391 -1.0595 -0.2875  0.5280
  268TMC3    C5 4053   3.783   2.289  17.508  0.2776 -0.2377 -0.1630
  268TMC3    C6 4054   3.716   2.409  17.511 -0.3701 -0.0980 -0.2169
  268TMC3     C 4055   3.821   2.265  17.146  0.2420  0.6265  0.2975
  268TMC3     O 4056   3.803   2.338  17.053  0.9665 -0.7201 -0.2485
  268TMC3     H 4057   3.807   2.520  17.203  2.4423  1.2642  0.0677
  268TMC3    H1 4058   3.901   2.149  17.387 -1.5609 -0.6219  0.0040
  268TMC3    H2 4059   3.668   2.451  17.599  3.8619  1.5420  1.3653
  268TMC3    C7 4060   3.782   2.207  17.629 -0.3442  0.1721 -0.1662
  268TMC3    C8 4061   3.657   2.617  17.425 -0.4658  0.3483  0.1543
  268TMC3    O1 4062   3.872   2.133  17.654 -0.0168  0.0155 -0.1750
  268TMC3    O2 4063   3.540   2.613  17.468  0.5410 -0.3953 -0.0568
  269MPD2     C 4064   4.251   1.448  15.839 -0.2363 -0.3545  0.6410
  269MPD2    C1 4065   4.121   1.477  15.879  0.4639 -0.4927  0.1821
  269MPD2    C2 4066   4.073   1.602  15.850  0.4391  0.4343 -0.5741
  269MPD2    C3 4067   4.146   1.690  15.769 -0.0895  0.4247  0.4375
  269MPD2    C4 4068   4.267   1.648  15.718  0.1164  0.5346  0.7637
  269MPD2    C5 4069   4.320   1.531  15.761  0.1903 -0.0790  0.5048
  269MPD2     H 4070   3.976   1.640  15.880  1.0685  1.0835  0.6543
  269MPD2    H1 4071   4.336   1.721  15.677 -0.8361  0.4174 -1.0533
  269MPD2    H2 4072   4.298   1.354  15.867  1.3011  0.6622  1.4258
  269MPD2    H3 4073   4.418   1.506  15.721  0.8387  1.3392  1.2341
  269MPD2     N 4074   4.098   1.819  15.746  0.3585 -0.1526 -0.1071
  269MPD2    H5 4075   4.012   1.850  15.790  1.1761  1.0933  0.6056
  269MPD2    N1 4076   4.049   1.375  15.947  0.2191 -0.2672  0.5225
  269MPD2    H7 4077   4.109   1.300  15.979 -1.0066 -1.2411  0.5181
  270TMC3    C1 4078   3.877   1.227  15.995  0.0371  0.6508  0.2604
  270TMC3    C2 4079   3.746   1.199  15.967  0.3642  0.6284 -0.5490
  270TMC3    C3 4080   3.707   1.066  15.965  0.0293 -0.0990  0.2631
  270TMC3    C4 4081   3.968   1.129  16.009  0.2267  0.3067  0.2571
  270TMC3    C5 4082   3.924   0.997  16.008 -0.2619  0.3982  0.8830
  270TMC3    C6 4083   3.793   0.966  15.983 -0.1479  0.0625 -0.4621
  270TMC3     C 4084   3.917   1.359  15.974  0.1285 -0.5072  0.2791
  270TMC3     O 4085   3.827   1.446  15.970  0.0865  0.1962  0.6066
  270TMC3     H 4086   3.681   1.281  15.942 -0.2484 -0.1108 -1.3844
  270TMC3    H1 4087   4.074   1.140  16.028 -0.0130  0.6411  1.3731
  270TMC3    H2 4088   3.768   0.868  15.944 -1.4619  0.2252 -0.0512
  270TMC3    C7 4089   4.034   0.900  15.999 -0.0014  1.1376 -0.1887
  270TMC3    C8 4090   3.617   1.035  15.853 -1.1334 -0.5738 -0.7155
  270TMC3    O1 4091   4.140   0.940  15.960 -0.5649  0.0629  0.1889
  270TMC3    O2 4092   3.531   0.950  15.872  0.2580  0.0659 -0.1250
  271MPD2     C 4093   2.991   1.316  14.085  0.6413 -0.4755  0.1736
  271MPD2    C1 4094   2.948   1.321  14.221  0.1364 -0.6136 -0.9944
  271MPD2    C2 4095   2.813   1.362  14.236  0.2218 -0.1208 -0.6421
  271MPD2    C3 4096   2.721   1.396  14.136 -0.0933 -0.3351  1.4928
  271MPD2    C4 4097   2.773   1.388  14.007  0.0108 -0.9223  0.0737
  271MPD2    C5 4098   2.898   1.343  13.988 -0.8425  0.5565 -0.1691
  271MPD2     H 4099   2.777   1.378  14.337  0.0172 -2.8933 -0.2837
  271MPD2    H1 4100   2.709   1.420  13.926  2.0221  1.0924 -0.7310
  271MPD2    H2 4101   3.087   1.286  14.045  1.4011  1.4875  0.5298
  271MPD2    H3 4102   2.928   1.327  13.885 -1.5804 -2.2211  0.0552
  271MPD2     N 4103   2.596   1.451  14.161  0.0850  0.8751 -0.2191
  271MPD2    H5 4104   2.548   1.469  14.074  0.5604  0.7810 -0.5017
  271MPD2    N1 4105   3.024   1.296  14.337  0.9165  0.3181  0.2468
  271MPD2    H7 4106   2.976   1.281  14.425  1.3502 -1.9391  0.1038
  272TMC3    C1 4107   3.231   1.240  14.454  0.4822  0.2373  0.2468
  272TMC3    C2 4108   3.350   1.173  14.441  0.1601 -0.0170  0.6807
  272TMC3    C3 4109   3.409   1.112  14.551  0.0065  0.0395  0.9770
  272TMC3    C4 4110   3.172   1.249  14.576 -0.4556 -0.2291  0.7272
  272TMC3    C5 4111   3.236   1.201  14.686  0.5274 -0.0284 -0.0763
  272TMC3    C6 4112   3.356   1.135  14.678 -0.1466 -0.0587 -0.1487
  272TMC3     C 4113   3.158   1.284  14.331  0.3578 -0.4575  0.5240
  272TMC3     O 4114   3.230   1.286  14.230  0.0107  0.0456 -0.0582
  272TMC3     H 4115   3.404   1.172  14.348 -1.0125 -0.7616  0.0013
  272TMC3    H1 4116   3.072   1.290  14.581 -0.3715  0.2101 -1.2326
  272TMC3    H2 4117   3.397   1.087  14.766 -1.5434 -2.1203 -0.6392
  272TMC3    C7 4118   3.188   1.221  14.814  0.6921  0.2773 -0.3077
  272TMC3    C8 4119   3.525   1.029  14.526 -0.2385  0.1723  0.0275
  272TMC3    O1 4120   3.067   1.237  14.824 -0.3872  0.1396  0.0259
  272TMC3    O2 4121   3.549   1.010  14.406 -0.0320 -0.3420 -0.3758
  273MPD2     C 4122   4.463   3.784  11.477 -0.4254 -0.6820  0.6757
  273MPD2    C1 4123   4.593   3.790  11.424  0.2252 -0.3348  0.2420
  273MPD2    C2 4124   4.611   3.757  11.291  0.6778  0.1876 -0.5654
  273MPD2    C3 4125   4.510   3.708  11.207 -0.4316  0.4558  0.5452
  273MPD2    C4 4126   4.385   3.708  11.261 -0.1302 -0.2729  0.0144
  273MPD2    C5 4127   4.360   3.754  11.388  0.0359 -0.8496  0.2331
  273MPD2     H 4128   4.713   3.756  11.254  1.9780  2.8230  2.9348
  273MPD2    H1 4129   4.291   3.691  11.210 -0.6101 -0.4760  0.9694
  273MPD2    H2 4130   4.439   3.809  11.579  1.3191 -1.0366  1.1736
  273MPD2    H3 4131   4.257   3.767  11.418  0.3189 -0.3835  0.9894
  273MPD2     N 4132   4.533   3.677  11.072  0.1476 -0.4533  1.0053
  273MPD2    H5 4133   4.448   3.672  11.017  0.5782  1.8182  0.1334
  273MPD2    N1 4134   4.687   3.854  11.504  0.0504 -0.1219 -0.4709
  273MPD2    H7 4135   4.652   3.900  11.587 -0.4128 -1.8540  0.3044
  274TMC3    C1 4136   4.669   3.653  10.878  0.8133  0.6162 -0.3795
  274TMC3    C2 4137   4.561   3.712  10.818  0.4355  0.0663  0.9279
  274TMC3    C3 4138   4.578   3.829  10.747  0.0948 -0.1742 -0.2238
  274TMC3    C4 4139   0.072   3.709  10.872  0.0881 -0.1631 -0.1848
  274TMC3    C5 4140   0.088   3.820  10.803  0.0400  0.5455  0.2852
  274TMC3    C6 4141   4.706   3.886  10.745  0.4853 -0.3529 -0.2948
  274TMC3     C 4142   4.656   3.635  11.021 -0.3779  0.4481 -0.3962
  274TMC3     O 4143   0.027   3.597  11.088 -0.0231 -0.2213  0.2439
  274TMC3     H 4144   4.464   3.664  10.811  0.1010  0.7177  1.1519
  274TMC3    H1 4145   0.155   3.646  10.902  1.0161  1.5187  0.8217
  274TMC3    H2 4146   4.721   3.974  10.684 -1.1767 -0.7347 -1.2292
  274TMC3    C7 4147   0.194   3.897  10.868  0.1780  0.8382  0.0031
  274TMC3    C8 4148   4.476   3.913  10.689 -0.9179 -0.1481 -0.8652
  274TMC3    O1 4149   0.301   3.839  10.889  0.2248 -0.0074 -0.2039
  274TMC3    O2 4150   4.503   3.978  10.594 -0.6973  0.0310  0.5823
  275MPD2     C 4151   4.525   2.549  14.649 -0.0265  0.8824 -0.0738
  275MPD2    C1 4152   4.484   2.435  14.718 -0.3301  0.3323  0.2933
  275MPD2    C2 4153   4.370   2.360  14.682  0.5278  0.1026 -0.6499
  275MPD2    C3 4154   4.288   2.411  14.588 -0.4387 -0.0253 -0.0528
  275MPD2    C4 4155   4.324   2.523  14.519  0.5081  0.0775  0.1290
  275MPD2    C5 4156   4.439   2.593  14.550 -0.1786  0.2146  0.2592
  275MPD2     H 4157   4.333   2.276  14.740 -0.1642 -0.7977 -2.4174
  275MPD2    H1 4158   4.275   2.561  14.430 -0.9742  0.0816  0.9581
  275MPD2    H2 4159   4.616   2.602  14.678 -0.2648  2.2759 -1.8782
  275MPD2    H3 4160   4.472   2.676  14.488 -1.4007 -1.9564 -3.2704
  275MPD2     N 4161   4.168   2.358  14.543 -0.6875 -0.2590  0.7421
  275MPD2    H5 4162   4.114   2.421  14.485 -2.2727 -1.9822  0.3255
  275MPD2    N1 4163   4.546   2.395  14.838 -0.0376 -0.2973 -0.1522
  275MPD2    H7 4164   4.503   2.317  14.886  0.6456  0.0796  1.1008
  276TMC3    C1 4165   4.681   2.416  15.034 -0.6680  0.0484  0.3472
  276TMC3    C2 4166   4.579   2.349  15.102  0.5611  0.3987 -0.0436
  276TMC3    C3 4167   4.602   2.346  15.238 -0.2956  0.5004 -1.0792
  276TMC3    C4 4168   0.072   2.476  15.087  0.2669 -0.4855  0.3953
  276TMC3    C5 4169   0.089   2.459  15.217  0.0222  0.3672 -0.3549
  276TMC3    C6 4170   4.712   2.395  15.297  0.2249 -0.5869  0.4194
  276TMC3     C 4171   4.665   2.443  14.888 -0.1972  0.1366  0.2675
  276TMC3     O 4172   0.025   2.511  14.828  0.0627  0.0554 -0.0528
  276TMC3     H 4173   4.481   2.324  15.064  0.7120  0.1469 -0.2667
  276TMC3    H1 4174   0.132   2.548  15.032  1.0871 -0.8734  0.7839
  276TMC3    H2 4175   0.004   2.361  15.398  2.6463 -0.6689  0.0239
  276TMC3    C7 4176   0.217   2.472  15.280 -0.3189  0.2760 -0.3974
  276TMC3    C8 4177   4.553   2.234  15.308 -0.6100 -0.8132 -0.8705
  276TMC3    O1 4178   0.223   2.466  15.400 -0.0334 -0.3642  0.0955
  276TMC3    O2 4179   4.510   2.253  15.421 -0.7530 -0.1120 -0.2431
  277MPD2     C 4180   1.385   1.571  13.648  0.6303 -0.3730 -0.2182
  277MPD2    C1 4181   1.256   1.603  13.660  0.2997  0.2282  0.2113
  277MPD2    C2 4182   1.184   1.526  13.751  0.5148 -0.7148 -0.3510
  277MPD2    C3 4183   1.240   1.417  13.817  0.7505  0.0205  0.2959
  277MPD2    C4 4184   1.373   1.389  13.793  0.6574 -0.3502 -0.9330
  277MPD2    C5 4185   1.444   1.472  13.715 -0.9572 -0.0280  0.1786
  277MPD2     H 4186   1.077   1.530  13.764  0.5579 -0.1765 -0.1458
  277MPD2    H1 4187   1.428   1.309  13.840  2.3815  0.5158 -1.4782
  277MPD2    H2 4188   1.444   1.637  13.586 -0.8235  0.4232 -0.7747
  277MPD2    H3 4189   1.551   1.457  13.709 -0.7623  0.2104  3.3139
  277MPD2     N 4190   1.161   1.330  13.896 -0.1444 -0.4224  0.3710
  277MPD2    H5 4191   1.061   1.346  13.895  0.0060  0.4969  0.7001
  277MPD2    N1 4192   1.201   1.718  13.591  0.0485 -0.3671  0.1415
  277MPD2    H7 4193   1.253   1.750  13.510  1.8935 -0.9819  1.0708
  278TMC3    C1 4194   1.082   1.134  14.007  0.0400 -0.6962  1.3121
  278TMC3    C2 4195   1.085   1.000  13.981 -0.2225  0.2301  0.2781
  278TMC3    C3 4196   0.958   0.943  13.990 -0.6653  0.0182 -0.0460
  278TMC3    C4 4197   0.989   1.208  14.076 -0.6664  0.5174 -0.0106
  278TMC3    C5 4198   0.877   1.134  14.113 -0.1645 -0.0080  0.4760
  278TMC3    C6 4199   0.856   1.006  14.065  0.4168  0.4243  0.1742
  278TMC3     C 4200   1.194   1.201  13.945  0.6772  0.4869 -0.4566
  278TMC3     O 4201   1.301   1.140  13.942  0.5829  0.4381  0.2512
  278TMC3     H 4202   1.163   0.962  13.916  1.3850  2.0458  1.1278
  278TMC3    H1 4203   0.992   1.310  14.111 -1.8604 -0.1146  1.9261
  278TMC3    H2 4204   0.768   0.949  14.094 -0.0172  0.6852 -0.6276
  278TMC3    C7 4205   0.761   1.197  14.172  1.2436  0.0531 -0.1413
  278TMC3    C8 4206   0.928   0.813  13.942 -0.4739 -0.2964  0.5295
  278TMC3    O1 4207   0.782   1.298  14.239 -0.1344 -0.4509  0.1196
  278TMC3    O2 4208   0.862   0.740  14.017 -0.2420  0.1998 -0.1165
  279MPD2     C 4209   1.045   1.022   0.776  0.4117  0.1217 -0.5726
  279MPD2    C1 4210   0.936   1.111   0.808 -0.0998  0.3160 -0.3650
  279MPD2    C2 4211   0.868   1.167   0.696  0.2123  0.7695  0.1913
  279MPD2    C3 4212   0.901   1.141   0.562  0.1505  0.0312 -0.1690
  279MPD2    C4 4213   1.004   1.054   0.540  0.7383  0.0843  0.2715
  279MPD2    C5 4214   1.072   0.996   0.644 -0.1850  0.1908  0.0245
  279MPD2     H 4215   0.792   1.242   0.717  1.1935  1.6873  0.4853
  279MPD2    H1 4216   1.026   1.024   0.438 -0.6910  1.3408 -0.3959
  279MPD2    H2 4217   1.115   0.976   0.844  0.2042  0.0052 -0.4390
  279MPD2    H3 4218   1.154   0.932   0.614 -1.0033 -0.9369  0.1950
  279MPD2     N 4219   0.830   1.193   0.451  0.0571  0.1423  0.1149
  279MPD2    H5 4220   0.877   1.192   0.362 -0.5963 -0.2059 -0.2299
  279MPD2    N1 4221   0.918   1.140   0.948  0.3756 -0.4911  0.2550
  279MPD2    H7 4222   0.993   1.105   1.006  0.1357  1.0152  1.4743
  280TMC3    C1 4223   0.698   1.245   0.949 -0.5706  0.0293 -0.3561
  280TMC3    C2 4224   0.639   1.137   0.891  0.1087  0.7728 -0.2543
  280TMC3    C3 4225   0.514   1.155   0.835 -0.0100 -0.5881  0.0770
  280TMC3    C4 4226   0.633   1.364   0.953  0.4866 -0.1204 -0.4734
  280TMC3    C5 4227   0.507   1.379   0.904  0.0891  0.8358 -0.3176
  280TMC3    C6 4228   0.450   1.274   0.842 -0.8960 -0.3611  0.1348
  280TMC3     C 4229   0.829   1.232   1.008  0.5220  0.0293  0.2521
  280TMC3     O 4230   0.863   1.303   1.102  0.0928 -0.1556 -0.5181
  280TMC3     H 4231   0.677   1.037   0.905  0.1307  1.1744  2.4901
  280TMC3    H1 4232   0.690   1.447   0.993 -0.4643 -0.2762  1.2118
  280TMC3    H2 4233   0.352   1.280   0.797 -0.2067  1.7086 -1.1205
  280TMC3    C7 4234   0.422   1.481   0.944  0.8942  1.1515 -0.0473
  280TMC3    C8 4235   0.476   1.060   0.730  0.5900 -0.3133 -0.9597
  280TMC3    O1 4236   0.426   1.505   1.062 -0.0743  0.4034 -0.5169
  280TMC3    O2 4237   0.364   1.060   0.682  0.2585  0.1299 -0.0521
  281TMC3    C1 4238   4.113   1.961  12.864  0.5787 -1.1798 -0.3965
  281TMC3    C2 4239   3.988   1.945  12.806  0.4352 -0.5693  0.3883
  281TMC3    C3 4240   3.941   1.821  12.790  0.0489 -0.4533  0.3901
  281TMC3    C4 4241   4.188   1.859  12.908  0.4154 -0.2065 -0.3463
  281TMC3    C5 4242   4.135   1.731  12.884  0.3354 -0.1913 -0.0538
  281TMC3    C6 4243   4.009   1.712  12.832 -0.1121  0.2048  0.2852
  281TMC3     C 4244   4.134   2.086  12.935  0.1171 -0.5575  0.1417
  281TMC3     O 4245   4.252   2.104  12.963  0.6102  0.3758  0.0686
  281TMC3     H 4246   3.940   2.029  12.757 -0.0157 -0.0089  1.7906
  281TMC3    H1 4247   4.277   1.871  12.969 -0.0593 -1.1008  0.5123
  281TMC3    H2 4248   3.976   1.609  12.819 -3.8866  1.2589  1.5636
  281TMC3    C7 4249   4.196   1.632  12.974  1.3463  0.0869 -0.1966
  281TMC3    C8 4250   3.797   1.814  12.768 -0.8889  0.1500 -0.0166
  281TMC3    O1 4251   4.314   1.640  12.989 -0.4131 -0.1000  0.4538
  281TMC3    O2 4252   3.733   1.915  12.803  0.2674 -0.3612  0.2682
  282MPD2     C 4253   1.296   2.610  15.299 -0.1823  0.5424  0.8124
  282MPD2    C1 4254   1.218   2.720  15.338 -1.2682  0.4635  0.5418
  282MPD2    C2 4255   1.136   2.777  15.245 -0.0037 -0.2109 -0.1852
  282MPD2    C3 4256   1.113   2.716  15.120 -0.3337 -0.4720 -0.2389
  282MPD2    C4 4257   1.181   2.599  15.087 -0.3970  0.2819  0.0659
  282MPD2    C5 4258   1.266   2.548  15.180 -0.3609 -0.3645 -0.0591
  282MPD2     H 4259   1.068   2.857  15.274  1.4246  1.0415 -0.3118
  282MPD2    H1 4260   1.162   2.543  14.997 -2.3384  0.4510  0.3680
  282MPD2    H2 4261   1.376   2.573  15.361 -1.4921 -0.3308  1.9680
  282MPD2    H3 4262   1.341   2.471  15.166 -1.4251 -1.3914 -0.1155
  282MPD2     N 4263   1.018   2.766  15.031 -0.4861  0.3765  0.5359
  282MPD2    H5 4264   0.994   2.863  15.048 -1.2897  0.1612  0.6413
  282MPD2    N1 4265   1.212   2.757  15.474  0.4597 -0.1544  0.5758
  282MPD2    H7 4266   1.150   2.831  15.505 -1.8583 -1.2171 -1.6117
  283TMC3    C1 4267   1.239   2.721  15.705  0.8213 -0.9273  0.3945
  283TMC3    C2 4268   1.271   2.855  15.726 -0.4539  0.7165 -0.7881
  283TMC3    C3 4269   1.228   2.906  15.840 -0.0643  0.5296 -0.4669
  283TMC3    C4 4270   1.192   2.629  15.797 -0.0155 -0.8736 -0.0485
  283TMC3    C5 4271   1.162   2.693  15.921 -0.5742 -1.3145 -0.4057
  283TMC3    C6 4272   1.170   2.832  15.931 -0.0401  1.0430 -0.0116
  283TMC3     C 4273   1.261   2.674  15.578 -0.2025  0.7355 -0.0396
  283TMC3     O 4274   1.308   2.559  15.578 -0.3445 -0.1040 -0.0118
  283TMC3     H 4275   1.339   2.906  15.659  1.4302 -1.1952 -0.3522
  283TMC3    H1 4276   1.159   2.528  15.776 -1.2668 -0.4360 -0.2105
  283TMC3    H2 4277   1.135   2.886  16.017  2.0242  0.3169  1.2820
  283TMC3    C7 4278   1.094   2.625  16.025  0.2584 -0.3049 -0.4048
  283TMC3    C8 4279   1.269   3.040  15.882  0.4866 -0.2487  0.4721
  283TMC3    O1 4280   1.036   2.700  16.105  0.3801 -0.4370  0.4126
  283TMC3    O2 4281   1.270   3.068  15.998  0.2344 -0.1796 -0.3490
  284MPD2     C 4282   4.322   2.105  11.537 -0.4082 -0.2740  0.5738
  284MPD2    C1 4283   4.410   2.011  11.567  0.5992  0.0847  0.1013
  284MPD2    C2 4284   4.383   1.919  11.661  0.3733 -0.0753 -0.6735
  284MPD2    C3 4285   4.272   1.929  11.744  0.5160  0.3180  0.9041
  284MPD2    C4 4286   4.182   2.030  11.717 -0.3938 -0.5292  0.6228
  284MPD2    C5 4287   4.211   2.119  11.613 -0.4493 -0.5162 -0.2227
  284MPD2     H 4288   4.452   1.841  11.691  0.8445  0.0188 -1.5178
  284MPD2    H1 4289   4.095   2.038  11.780  0.3854 -0.7961  1.7326
  284MPD2    H2 4290   4.332   2.179  11.459  1.5894 -0.5183  0.6127
  284MPD2    H3 4291   4.139   2.199  11.601  3.7580  3.0908 -1.2198
  284MPD2     N 4292   4.252   1.851  11.853 -0.1736  0.3744 -0.7573
  284MPD2    H5 4293   4.180   1.883  11.916 -0.2288 -3.5699  1.1841
  284MPD2    N1 4294   4.534   2.023  11.499 -0.6054 -0.1306  0.1673
  284MPD2    H7 4295   4.555   2.092  11.427  4.1083 -0.4846  1.1949
  285TMC3    C1 4296   0.038   1.989  11.449 -0.5166 -0.7910  0.1094
  285TMC3    C2 4297   0.119   1.898  11.391 -0.3017  0.0239  0.6472
  285TMC3    C3 4298   0.237   1.937  11.330 -0.1260  1.1510  0.5693
  285TMC3    C4 4299   0.086   2.112  11.475 -0.1413 -0.3350  0.0146
  285TMC3    C5 4300   0.204   2.145  11.413  0.0626  0.0129  0.3923
  285TMC3    C6 4301   0.271   2.067  11.335  0.8630 -0.0468 -0.2230
  285TMC3     C 4302   4.638   1.941  11.514 -0.7105  0.1568 -0.7660
  285TMC3     O 4303   4.636   1.834  11.569 -0.1844 -0.0964 -0.7622
  285TMC3     H 4304   0.070   1.803  11.373 -1.0579  0.1306  2.1874
  285TMC3    H1 4305   0.029   2.184  11.532  0.5117  1.5438 -1.7185
  285TMC3    H2 4306   0.340   2.109  11.263 -0.8301  2.6375 -0.2643
  285TMC3    C7 4307   0.257   2.271  11.455 -0.3503 -0.1068  0.4273
  285TMC3    C8 4308   0.277   1.841  11.229  0.7312  0.7401 -0.0539
  285TMC3    O1 4309   0.169   2.351  11.490  0.1321 -0.3454 -0.4767
  285TMC3    O2 4310   0.204   1.744  11.209  0.4935  0.1228 -0.6796
  286MPD2     C 4311   0.180   1.334   1.909  0.8936  0.1039 -0.1857
  286MPD2    C1 4312   0.080   1.247   1.867 -0.5133 -0.4462  0.2989
  286MPD2    C2 4313   0.111   1.117   1.863 -0.4905  0.4980 -0.1285
  286MPD2    C3 4314   0.237   1.065   1.883  0.0649  0.3093 -0.0081
  286MPD2    C4 4315   0.334   1.148   1.932 -0.6581  0.3590  0.5621
  286MPD2    C5 4316   0.299   1.283   1.953  0.5720 -0.6299  0.4748
  286MPD2     H 4317   0.032   1.058   1.818  1.7391 -1.8281 -1.0270
  286MPD2    H1 4318   0.426   1.104   1.969 -0.9309 -1.0101 -0.3872
  286MPD2    H2 4319   0.174   1.440   1.932 -0.9089 -0.2172  0.7948
  286MPD2    H3 4320   0.378   1.349   1.983 -0.9536  0.2947  2.4212
  286MPD2     N 4321   0.269   0.924   1.872  0.3368  0.0125  0.3984
  286MPD2    H5 4322   0.360   0.890   1.902  0.7729  0.3942 -0.4930
  286MPD2    N1 4323   4.671   1.283   1.816  0.1404  0.2811  0.1752
  286MPD2    H7 4324   4.612   1.213   1.773  0.1654 -1.2018  2.5437
  287TMC3    C1 4325   0.251   0.703   1.789  0.4545 -0.2571  0.2719
  287TMC3    C2 4326   0.217   0.643   1.672  0.4330 -0.2261 -0.1532
  287TMC3    C3 4327   0.275   0.521   1.632 -0.4575  0.0772  0.7794
  287TMC3    C4 4328   0.337   0.646   1.880 -0.4384 -0.7109 -0.3417
  287TMC3    C5 4329   0.382   0.520   1.844 -0.1669  0.2765  0.0165
  287TMC3    C6 4330   0.363   0.465   1.722 -0.6773 -0.2103  0.0933
  287TMC3     C 4331   0.183   0.830   1.819 -0.9687 -0.8267 -0.1908
  287TMC3     O 4332   0.078   0.839   1.757 -0.4035 -0.0094 -0.0263
  287TMC3     H 4333   0.158   0.697   1.599 -1.8035  0.4840  2.2047
  287TMC3    H1 4334   0.346   0.690   1.978  0.7420 -0.4413 -0.5699
  287TMC3    H2 4335   0.410   0.374   1.686  0.7644  0.4277  0.3848
  287TMC3    C7 4336   0.502   0.479   1.914  0.5468  0.2769  0.2121
  287TMC3    C8 4337   0.259   0.471   1.493 -0.3013 -1.1905 -0.3987
  287TMC3    O1 4338   0.566   0.571   1.965 -0.4465 -0.1369 -0.1023
  287TMC3    O2 4339   0.311   0.363   1.468 -0.2446 -0.5877 -0.5998
  288TMC3    C1 4340   1.687   0.776  14.319 -0.4256 -0.5200 -0.2935
  288TMC3    C2 4341   1.711   0.701  14.434 -0.5693 -0.1160 -0.0703
  288TMC3    C3 4342   1.774   0.765  14.537 -0.2741 -0.4190  0.3028
  288TMC3    C4 4343   1.713   0.910  14.311 -0.5227 -0.2453 -0.2186
  288TMC3    C5 4344   1.787   0.964  14.415  0.7159 -0.4666  0.4808
  288TMC3    C6 4345   1.827   0.892  14.524  0.1556  0.3487 -0.7327
  288TMC3     C 4346   1.664   0.705  14.193  0.0166 -0.2597 -0.1229
  288TMC3     O 4347   1.714   0.590  14.184 -0.0634  0.1421 -0.2222
  288TMC3     H 4348   1.695   0.594  14.427  0.2945 -0.2852  0.5350
  288TMC3    H1 4349   1.691   0.967  14.221 -1.1347  1.2057  0.8362
  288TMC3    H2 4350   1.884   0.942  14.602  0.6607  0.5754 -1.2461
  288TMC3    C7 4351   1.787   1.111  14.424 -0.5594  0.0356 -0.5016
  288TMC3    C8 4352   1.713   0.738  14.663 -0.2471 -0.2703  0.2687
  288TMC3    O1 4353   1.787   1.160  14.539  0.4518  0.2209  0.1866
  288TMC3    O2 4354   1.740   0.819  14.747 -0.5260  0.0552 -0.4626
  289MPD2     C 4355   2.233   0.436  14.191 -0.0544 -0.1277 -0.2311
  289MPD2    C1 4356   2.188   0.352  14.286 -0.4384 -0.2462  1.1915
  289MPD2    C2 4357   2.073   0.279  14.258 -0.3728 -0.3286  0.5622
  289MPD2    C3 4358   1.999   0.297  14.139 -0.3300 -0.4226 -0.1236
  289MPD2    C4 4359   2.047   0.390  14.045 -0.3864 -0.3585 -0.3174
  289MPD2    C5 4360   2.167   0.452  14.066 -0.0723  0.6030  0.5819
  289MPD2     H 4361   2.032   0.211  14.331  1.4665 -2.2127 -0.1521
  289MPD2    H1 4362   1.985   0.412  13.959  1.2677  1.7895 -0.9567
  289MPD2    H2 4363   2.320   0.498  14.208 -2.5031  3.2122  0.0888
  289MPD2    H3 4364   2.204   0.523  13.992  0.0273  1.1255  1.1295
  289MPD2     N 4365   1.874   0.234  14.125 -0.3517 -0.1729  0.3050
  289MPD2    H5 4366   1.822   0.274  14.048  1.2602 -3.1252 -2.3325
  289MPD2    N1 4367   2.261   0.341  14.401  0.2516 -0.4292 -0.3023
  289MPD2    H7 4368   2.356   0.375  14.403  0.0944 -0.0314  0.3097
  290TMC3    C1 4369   1.695   0.096  14.159  0.0423 -0.1868 -0.3631
  290TMC3    C2 4370   1.599   0.191  14.129 -0.2800 -0.4369  0.2571
  290TMC3    C3 4371   1.469   0.148  14.136 -0.1493 -0.0550 -0.3412
  290TMC3    C4 4372   1.660   4.689  14.182 -0.6300 -0.5120  0.5515
  290TMC3    C5 4373   1.522   4.646  14.184 -0.3371  0.3030 -0.2300
  290TMC3    C6 4374   1.424   0.015  14.152  0.5739 -0.6893  0.5222
  290TMC3     C 4375   1.829   0.128  14.190  0.2158  0.0511  0.2014
  290TMC3     O 4376   1.898   0.051  14.256  0.0527  0.4556 -0.3995
  290TMC3     H 4377   1.622   0.289  14.090 -2.3117  0.5264  1.4570
  290TMC3    H1 4378   1.727   4.606  14.204  2.2431  1.7437  0.2889
  290TMC3    H2 4379   1.319   4.711  14.163  1.0357 -1.8322  2.1078
  290TMC3    C7 4380   1.500   4.544  14.290 -0.3568  0.3055  0.5276
  290TMC3    C8 4381   1.371   0.258  14.116 -0.3486 -0.1566 -0.3399
  290TMC3    O1 4382   1.587   4.543  14.376 -0.1192  0.2403 -0.0172
  290TMC3    O2 4383   1.275   0.233  14.041 -0.3950  0.3417 -0.2935
  291MPD2     C 4384   0.483   4.636   0.582  0.3711  0.4707 -0.1097
  291MPD2    C1 4385   0.604   4.568   0.592  0.0740 -1.0804 -0.0027
  291MPD2    C2 4386   0.719   4.641   0.563 -0.2206  0.9031  0.2244
  291MPD2    C3 4387   0.726   0.050   0.535  0.1679  0.2923  0.0473
  291MPD2    C4 4388   0.602   0.114   0.531 -0.4147  0.2329 -0.5050
  291MPD2    C5 4389   0.487   0.044   0.553 -0.1700 -0.7113 -0.7792
  291MPD2     H 4390   0.818   4.595   0.564 -0.9734 -0.7506 -0.7519
  291MPD2    H1 4391   0.591   0.215   0.495  0.3651  0.7907  0.8052
  291MPD2    H2 4392   0.387   4.598   0.612  0.6661 -0.2858 -0.1320
  291MPD2    H3 4393   0.392   0.096   0.548  1.2965  2.0349  0.3265
  291MPD2     N 4394   0.836   0.124   0.484 -0.3083  0.2942  0.1236
  291MPD2    H5 4395   0.815   0.223   0.476  2.2579  0.4929 -4.1432
  291MPD2    N1 4396   0.607   4.432   0.628 -0.5982  0.0220  0.0205
  291MPD2    H7 4397   0.689   4.389   0.668 -1.1781 -1.6956 -0.5970
  292TMC3    C1 4398   0.539   4.213   0.637 -0.3685  0.0532 -0.0992
  292TMC3    C2 4399   0.630   4.189   0.737 -0.7296 -0.0144  0.3682
  292TMC3    C3 4400   0.693   4.070   0.726  0.5764 -0.2991  0.1365
  292TMC3    C4 4401   0.501   4.133   0.533 -0.1198  0.5802  0.6801
  292TMC3    C5 4402   0.577   4.015   0.524  0.1824 -0.4318  0.2042
  292TMC3    C6 4403   0.668   3.984   0.622  0.5497 -0.3092 -0.1927
  292TMC3     C 4404   0.508   4.350   0.601 -0.9425 -0.2910 -0.2586
  292TMC3     O 4405   0.410   4.359   0.524  0.3439 -0.0104  0.6827
  292TMC3     H 4406   0.645   4.263   0.815 -0.6585  0.1758  0.1747
  292TMC3    H1 4407   0.422   4.150   0.460  0.5273 -0.4977 -0.2679
  292TMC3    H2 4408   0.708   3.883   0.624 -1.9817 -1.2850  0.5424
  292TMC3    C7 4409   0.550   3.910   0.429 -1.3056  0.2364 -0.0218
  292TMC3    C8 4410   0.779   4.033   0.843 -0.3682 -0.0357 -0.8638
  292TMC3    O1 4411   0.640   3.823   0.419  0.5962  0.4453  0.4906
  292TMC3    O2 4412   0.861   3.942   0.831 -0.3057 -0.3632 -1.0854
  293MPD2     C 4413   2.486   1.438  12.483  0.3076  0.4386 -0.4952
  293MPD2    C1 4414   2.505   1.323  12.557  0.0435 -0.2738 -0.5610
  293MPD2    C2 4415   2.522   1.326  12.691 -0.0706 -1.0775 -0.2566
  293MPD2    C3 4416   2.508   1.451  12.750  0.4869  0.0998  0.1336
  293MPD2    C4 4417   2.504   1.564  12.670  0.0725  0.6507 -0.7627
  293MPD2    C5 4418   2.496   1.562  12.539 -0.5671 -0.2380 -0.1254
  293MPD2     H 4419   2.529   1.241  12.758  0.9499  2.2625  3.9041
  293MPD2    H1 4420   2.504   1.666  12.707  2.2175  0.4562 -0.2153
  293MPD2    H2 4421   2.463   1.435  12.377 -1.0978  1.8233 -0.2357
  293MPD2    H3 4422   2.472   1.644  12.473  1.2522  1.2030  1.0065
  293MPD2     N 4423   2.501   1.451  12.893  0.6741  0.3166 -0.0753
  293MPD2    H5 4424   2.515   1.362  12.939 -3.5986 -0.2224  0.1505
  293MPD2    N1 4425   2.504   1.202  12.479 -0.3694  0.7210 -0.1038
  293MPD2    H7 4426   2.501   1.213  12.378  0.9738  0.8245 -0.1311
  294TMC3    C1 4427   2.524   0.976  12.412  0.7256  0.1397 -0.3457
  294TMC3    C2 4428   2.485   0.847  12.438  0.2805 -1.4180  0.3920
  294TMC3    C3 4429   2.510   0.758  12.338 -0.1958  0.2120  0.0651
  294TMC3    C4 4430   2.582   1.022  12.297 -0.2265 -0.5925  0.2826
  294TMC3    C5 4431   2.588   0.931  12.199 -1.0470 -0.3050  0.4139
  294TMC3    C6 4432   2.549   0.798  12.208 -0.6726  0.3896  0.3103
  294TMC3     C 4433   2.511   1.074  12.524 -0.1920 -0.4992 -0.5836
  294TMC3     O 4434   2.502   1.031  12.638  0.6335 -0.2064 -0.3630
  294TMC3     H 4435   2.466   0.808  12.538  0.7836 -0.1335  0.9857
  294TMC3    H1 4436   2.612   1.126  12.286 -0.4821 -0.3579  1.8234
  294TMC3    H2 4437   2.562   0.737  12.120  1.3858  0.7737  0.3570
  294TMC3    C7 4438   2.637   0.982  12.068  1.1448 -0.7071 -0.2435
  294TMC3    C8 4439   2.442   0.630  12.350 -0.0709 -0.7609 -0.1736
  294TMC3    O1 4440   2.687   1.094  12.062  0.3940  0.1917 -0.1400
  294TMC3    O2 4441   2.371   0.616  12.449 -0.3367 -0.1703 -0.3613
  295MPD2     C 4442   4.128   4.030   0.306 -0.0387 -0.1681  0.2024
  295MPD2    C1 4443   4.038   4.132   0.339  0.5305  0.0041 -0.0568
  295MPD2    C2 4444   4.034   4.168   0.474 -0.8106  0.2533 -0.3375
  295MPD2    C3 4445   4.123   4.109   0.564 -0.1709 -0.5495 -0.2293
  295MPD2    C4 4446   4.219   4.015   0.521 -0.0130 -0.0543  0.1714
  295MPD2    C5 4447   4.219   3.979   0.388 -0.4568 -0.1452  0.1633
  295MPD2     H 4448   3.960   4.232   0.520 -0.6954  0.1930 -0.0664
  295MPD2    H1 4449   4.292   3.971   0.588  1.2760  2.6613  0.5646
  295MPD2    H2 4450   4.141   3.990   0.205  0.8358  1.0577 -0.1698
  295MPD2    H3 4451   4.285   3.898   0.360  1.2189  1.4585 -0.5627
  295MPD2     N 4452   4.119   4.141   0.700  0.1000  0.4309  0.8707
  295MPD2    H5 4453   4.189   4.088   0.752  0.2350  0.9855  1.2592
  295MPD2    N1 4454   3.939   4.180   0.245 -0.3008  0.5010 -0.1838
  295MPD2    H7 4455   3.866   4.241   0.280  0.8968  1.5337  0.5533
  296TMC3    C1 4456   4.038   4.228   0.902  0.0903  0.2199 -0.1881
  296TMC3    C2 4457   3.981   4.337   0.961 -0.1223 -0.0123 -0.2995
  296TMC3    C3 4458   3.937   4.326   1.087  0.3337  0.5526 -0.0781
  296TMC3    C4 4459   4.046   4.110   0.966  0.0198 -0.9539  1.1164
  296TMC3    C5 4460   4.010   4.106   1.096  0.0816 -0.3419  0.2754
  296TMC3    C6 4461   3.941   4.211   1.159 -0.0263  0.8301  0.5949
  296TMC3     C 4462   4.037   4.235   0.758  0.7585 -0.2012  0.2501
  296TMC3     O 4463   3.971   4.325   0.713 -0.3120  0.4988  0.0462
  296TMC3     H 4464   3.977   4.432   0.908 -2.4098  0.6787  1.1086
  296TMC3    H1 4465   4.094   4.024   0.920 -0.7011  0.2527 -1.8903
  296TMC3    H2 4466   3.914   4.213   1.264  0.6813  1.2311  0.7709
  296TMC3    C7 4467   4.003   3.970   1.151 -0.0970  0.0607 -0.4364
  296TMC3    C8 4468   3.880   4.447   1.147  0.0001  0.2745 -0.8609
  296TMC3    O1 4469   4.084   3.888   1.106  0.4281 -0.3700 -0.0881
  296TMC3    O2 4470   3.879   4.546   1.071  0.0032  0.3627 -0.0023
  297MPD2     C 4471   0.610   1.586  16.978 -0.1764 -0.2656  0.2407
  297MPD2    C1 4472   0.541   1.661  16.884 -0.7397 -0.2093 -0.4474
  297MPD2    C2 4473   0.597   1.783  16.843 -0.1472 -0.3979 -0.4185
  297MPD2    C3 4474   0.726   1.812  16.867  0.0037  0.6021 -0.1840
  297MPD2    C4 4475   0.790   1.739  16.962 -0.8246 -0.4632  0.1552
  297MPD2    C5 4476   0.732   1.629  17.013  0.0259 -0.2227  0.2166
  297MPD2     H 4477   0.541   1.830  16.763 -0.5242 -1.3188 -0.6975
  297MPD2    H1 4478   0.894   1.747  16.994 -1.2488 -1.2461  1.7210
  297MPD2    H2 4479   0.576   1.491  17.016 -0.2102 -0.3508 -0.0006
  297MPD2    H3 4480   0.793   1.581  17.089 -1.0362  1.4896  2.1351
  297MPD2     N 4481   0.771   1.932  16.803  0.2472  0.0308  0.3938
  297MPD2    H5 4482   0.702   1.965  16.736  0.4320  2.0557  1.1964
  297MPD2    N1 4483   0.415   1.628  16.840 -0.5998  0.1110 -0.2309
  297MPD2    H7 4484   0.372   1.699  16.782  0.1137  0.9386  0.2598
  298TMC3    C1 4485   0.217   1.516  16.813  0.0082 -0.3386 -0.6692
  298TMC3    C2 4486   0.173   1.435  16.708  0.2610  0.1669 -0.0219
  298TMC3    C3 4487   0.052   1.451  16.651 -0.3037 -0.4120  0.2394
  298TMC3    C4 4488   0.147   1.622  16.854 -0.0497  0.5451 -0.2113
  298TMC3    C5 4489   0.025   1.644  16.793 -0.2890  0.3972 -0.3600
  298TMC3    C6 4490   4.701   1.563  16.691  0.6650 -0.0524  0.1943
  298TMC3     C 4491   0.356   1.504  16.854  0.4990 -0.4979  0.1544
  298TMC3     O 4492   0.399   1.399  16.894  0.3985  0.3563  1.0057
  298TMC3     H 4493   0.238   1.351  16.684  0.9450  0.5447  0.4961
  298TMC3    H1 4494   0.182   1.679  16.939 -0.0098 -0.9677  0.7804
  298TMC3    H2 4495   4.599   1.578  16.655  0.2973 -0.4227  1.0706
  298TMC3    C7 4496   4.679   1.768  16.827  0.1160  0.5073 -0.2005
  298TMC3    C8 4497   0.013   1.362  16.542 -0.2757  0.1731 -0.6019
  298TMC3    O1 4498   4.703   1.837  16.924  0.2026 -0.2271  0.4314
  298TMC3    O2 4499   0.088   1.263  16.527 -0.3695  0.0963  0.0838
  299MPD2     C 4500   1.439   0.783  10.889  0.3244  0.3173 -0.5499
  299MPD2    C1 4501   1.467   0.909  10.844 -0.0349 -0.5730  0.0199
  299MPD2    C2 4502   1.425   0.950  10.716 -0.1682 -0.2047 -0.3222
  299MPD2    C3 4503   1.368   0.854  10.637 -0.0938  0.0820  0.3515
  299MPD2    C4 4504   1.327   0.733  10.689  0.0632 -0.9441  0.8030
  299MPD2    C5 4505   1.370   0.695  10.812 -0.3874 -0.2984  0.0541
  299MPD2     H 4506   1.434   1.051  10.678 -3.2636  0.4757  0.6813
  299MPD2    H1 4507   1.266   0.663  10.634 -0.9137  0.0193  0.6753
  299MPD2    H2 4508   1.481   0.748  10.982  1.4059 -1.2331 -1.6244
  299MPD2    H3 4509   1.340   0.599  10.851 -1.2275  1.3488  3.5411
  299MPD2     N 4510   1.340   0.872  10.498 -0.0187  0.3997 -0.4645
  299MPD2    H5 4511   1.302   0.793  10.448 -1.2816  0.0230  1.1027
  299MPD2    N1 4512   1.531   0.990  10.946 -0.6582  0.6593 -0.3534
  299MPD2    H7 4513   1.544   0.943  11.035 -1.4823  0.3024 -0.4234
  300TMC3    C1 4514   1.311   0.969  10.285 -0.5008  0.4048 -0.2687
  300TMC3    C2 4515   1.316   1.095  10.229 -0.5152 -0.2130  0.7543
  300TMC3    C3 4516   1.197   1.135  10.170 -0.6934 -0.1449  0.0510
  300TMC3    C4 4517   1.207   0.883  10.270  0.0924 -0.3953 -0.1000
  300TMC3    C5 4518   1.101   0.920  10.196  0.0280 -0.1765 -0.2683
  300TMC3    C6 4519   1.090   1.051  10.149  0.2931  0.4282  0.1463
  300TMC3     C 4520   1.373   0.980  10.417  0.2542 -0.1406 -0.4191
  300TMC3     O 4521   1.409   1.086  10.455  0.1750  0.1844  0.1522
  300TMC3     H 4522   1.401   1.157  10.256 -1.2200  0.7274  0.8438
  300TMC3    H1 4523   1.218   0.778  10.296 -0.7283 -0.8966 -1.7241
  300TMC3    H2 4524   0.990   1.072  10.114 -0.8233  2.4781  4.6649
  300TMC3    C7 4525   0.979   0.837  10.207  0.3926 -0.0125 -0.0073
  300TMC3    C8 4526   1.175   1.283  10.191 -0.3248  1.0468 -0.4496
  300TMC3    O1 4527   0.986   0.717  10.174 -0.3088  0.3552 -0.0600
  300TMC3    O2 4528   1.275   1.344  10.219 -0.2031 -0.0690  0.1733
  301MPD2     C 4529   2.999   2.110   1.465  0.1835  0.3132 -0.2696
  301MPD2    C1 4530   2.913   2.097   1.350 -0.0722 -0.0549 -0.2748
  301MPD2    C2 4531   2.947   2.004   1.253 -0.1937 -0.5942  0.0599
  301MPD2    C3 4532   3.068   1.933   1.263 -0.4281 -0.4500 -0.1506
  301MPD2    C4 4533   3.148   1.949   1.376  0.3777  0.2870  0.9079
  301MPD2    C5 4534   3.118   2.036   1.477  0.5098 -0.2710  0.1765
  301MPD2     H 4535   2.875   1.998   1.173  0.0686  0.7439 -0.2635
  301MPD2    H1 4536   3.236   1.888   1.389  0.9489  1.1404  1.0251
  301MPD2    H2 4537   2.977   2.184   1.540 -0.2517  0.0740 -0.1606
  301MPD2    H3 4538   3.183   2.039   1.564 -0.1166 -2.1469  0.7172
  301MPD2     N 4539   3.110   1.842   1.165  0.9727 -0.2444  0.0303
  301MPD2    H5 4540   3.193   1.785   1.176  0.0436 -1.2430  1.9567
  301MPD2    N1 4541   2.793   2.167   1.329 -0.2991 -0.0671  0.2586
  301MPD2    H7 4542   2.734   2.134   1.254 -0.3642  0.9516 -0.1306
  302TMC3    C1 4543   3.146   1.778   0.940 -0.0940  0.1099  0.9673
  302TMC3    C2 4544   3.207   1.670   0.974 -0.0991 -0.0205 -0.1729
  302TMC3    C3 4545   3.285   1.601   0.882  0.0585  0.4937 -0.3827
  302TMC3    C4 4546   3.134   1.828   0.814  0.3204 -0.2616 -0.3111
  302TMC3    C5 4547   3.205   1.756   0.718  0.4759  0.2079  0.3038
  302TMC3    C6 4548   3.284   1.643   0.754 -0.2113 -0.3497 -0.0499
  302TMC3     C 4549   3.061   1.848   1.035  0.1590 -0.4660 -1.3229
  302TMC3     O 4550   2.978   1.923   0.988 -0.0249  0.4822  0.0679
  302TMC3     H 4551   3.199   1.621   1.070  2.8315 -1.0426 -0.4361
  302TMC3    H1 4552   3.071   1.913   0.789 -0.4109 -1.7410 -3.4817
  302TMC3    H2 4553   3.348   1.591   0.683 -1.2805  0.5690 -1.6982
  302TMC3    C7 4554   3.151   1.740   0.580  0.6272 -0.4339 -0.1554
  302TMC3    C8 4555   3.383   1.508   0.928  1.1632  0.3691  0.9917
  302TMC3    O1 4556   3.175   1.631   0.531  0.4473 -0.0069  0.0176
  302TMC3    O2 4557   3.484   1.506   0.862  0.8178 -0.2057  0.7337
  303MPD2     C 4558   3.508   0.246   9.938 -0.1917  1.1288 -0.1194
  303MPD2    C1 4559   3.376   0.249   9.957  0.8987  0.0776 -0.0011
  303MPD2    C2 4560   3.303   0.191   9.859  0.0455  0.2536  0.7492
  303MPD2    C3 4561   3.352   0.144   9.739  0.2189 -0.7377 -0.5094
  303MPD2    C4 4562   3.487   0.159   9.716  0.7790 -0.2590 -0.1679
  303MPD2    C5 4563   3.565   0.208   9.819 -0.0505 -0.4178 -0.5844
  303MPD2     H 4564   3.197   0.183   9.883  0.5045  1.7463  3.3460
  303MPD2    H1 4565   3.529   0.120   9.624 -2.2481 -0.5980 -1.4118
  303MPD2    H2 4566   3.576   0.285  10.013  0.3835  1.4302 -0.8032
  303MPD2    H3 4567   3.670   0.219   9.798 -0.3842  2.9869 -0.5610
  303MPD2     N 4568   3.280   0.073   9.647  0.2142  0.0133 -0.0172
  303MPD2    H5 4569   3.326   0.028   9.568 -0.0099 -0.9371  0.3849
  303MPD2    N1 4570   3.326   0.306  10.079  0.1075  0.3725 -0.2963
  303MPD2    H7 4571   3.397   0.340  10.143 -0.7175  0.3533  0.6261
  304TMC3    C1 4572   3.164   0.360  10.239  0.1385 -0.1176  0.9996
  304TMC3    C2 4573   3.041   0.425  10.247  0.0833 -0.4241 -0.0991
  304TMC3    C3 4574   2.971   0.411  10.365  0.3916  0.4089 -0.2853
  304TMC3    C4 4575   3.211   0.282  10.338  0.2665 -0.4439 -0.2883
  304TMC3    C5 4576   3.142   0.277  10.457 -0.3795  0.3229 -0.8308
  304TMC3    C6 4577   3.026   0.341  10.469 -0.2400 -0.1474  0.1384
  304TMC3     C 4578   3.192   0.326  10.101 -0.2269 -0.2487 -0.1665
  304TMC3     O 4579   3.103   0.350  10.020  0.0586  0.2536 -0.0236
  304TMC3     H 4580   3.006   0.494  10.170 -1.1565  0.8803  1.6358
  304TMC3    H1 4581   3.295   0.216  10.321  1.9811  1.9801 -1.3403
  304TMC3    H2 4582   2.967   0.330  10.559  2.6543 -0.2321  2.0200
  304TMC3    C7 4583   3.148   0.154  10.538 -0.4951  0.3202 -0.3517
  304TMC3    C8 4584   2.836   0.371  10.337  0.2377 -0.3050  0.3113
  304TMC3    O1 4585   3.255   0.114  10.576  0.1062 -0.6643 -0.2476
  304TMC3    O2 4586   2.822   0.309  10.232  0.1469  0.3404  0.6607
  305MPD2     C 4587   1.390   3.401  14.055  0.1760  0.4437  0.5501
  305MPD2    C1 4588   1.516   3.344  14.053  0.5395  0.0314 -0.3076
  305MPD2    C2 4589   1.560   3.290  13.930 -0.1671 -0.7013 -1.1898
  305MPD2    C3 4590   1.474   3.285  13.817  0.3774 -0.3943  0.0113
  305MPD2    C4 4591   1.345   3.312  13.840 -0.8039  0.0223  0.3323
  305MPD2    C5 4592   1.303   3.386  13.953 -0.0342 -0.1733  0.2422
  305MPD2     H 4593   1.659   3.246  13.919  1.8512  3.6688 -0.4808
  305MPD2    H1 4594   1.268   3.302  13.764 -1.8635  2.1343  1.1336
  305MPD2    H2 4595   1.369   3.469  14.137 -1.0356 -0.0708  0.6719
  305MPD2    H3 4596   1.205   3.431  13.955 -0.1649 -0.3733 -1.9371
  305MPD2     N 4597   1.502   3.231  13.692 -0.6352  0.1671  0.3680
  305MPD2    H5 4598   1.425   3.217  13.628  1.1251  2.3633 -2.2425
  305MPD2    N1 4599   1.591   3.347  14.173  0.6189 -0.3638  0.3151
  305MPD2    H7 4600   1.542   3.372  14.257 -1.8747  0.3864 -1.3706
  306TMC3    C1 4601   1.720   3.224  14.337  0.0078 -0.0249 -0.8290
  306TMC3    C2 4602   1.843   3.191  14.381  0.3786  0.2865 -0.1884
  306TMC3    C3 4603   1.862   3.153  14.513  0.1216 -0.1703  0.2557
  306TMC3    C4 4604   1.612   3.224  14.417  0.2212  0.1496 -0.0582
  306TMC3    C5 4605   1.635   3.197  14.547 -0.4317  0.0699 -0.2013
  306TMC3    C6 4606   1.758   3.160  14.596  0.5884  0.3465  0.5739
  306TMC3     C 4607   1.703   3.269  14.193 -1.1540  0.7388  0.6251
  306TMC3     O 4608   1.799   3.257  14.121 -0.5276  0.2458  0.4661
  306TMC3     H 4609   1.928   3.187  14.315  1.2485  1.9997  0.8470
  306TMC3    H1 4610   1.517   3.257  14.376  0.0078 -0.1858  0.1716
  306TMC3    H2 4611   1.766   3.129  14.699  0.4280 -0.6466  0.2927
  306TMC3    C7 4612   1.522   3.191  14.632 -0.3872 -0.4806 -0.1596
  306TMC3    C8 4613   1.943   3.032  14.534  0.6512 -0.5480 -0.0331
  306TMC3    O1 4614   1.416   3.163  14.581 -0.4094 -0.3868  0.3957
  306TMC3    O2 4615   2.067   3.030  14.523 -0.2433  0.1373 -0.4110
  307MPD2     C 4616   4.258   0.641   0.361 -0.4103 -0.0666  0.0278
  307MPD2    C1 4617   4.219   0.716   0.254  0.4449  0.2617  0.7903
  307MPD2    C2 4618   4.118   0.811   0.275 -0.7749  0.4291  0.3420
  307MPD2    C3 4619   4.060   0.830   0.400 -0.0599 -0.1467  0.2692
  307MPD2    C4 4620   4.101   0.751   0.506 -0.0357 -0.5029  0.8842
  307MPD2    C5 4621   4.197   0.659   0.485 -0.3163  0.3153 -0.0651
  307MPD2     H 4622   4.089   0.878   0.196 -0.1212  2.5242  1.8852
  307MPD2    H1 4623   4.067   0.761   0.608 -2.6891 -0.8796  0.0183
  307MPD2    H2 4624   4.331   0.562   0.359 -1.5462 -1.1772  2.2737
  307MPD2    H3 4625   4.238   0.599   0.565  0.9048  0.4745 -0.5767
  307MPD2     N 4626   3.951   0.919   0.408  0.3601 -0.0364 -0.1807
  307MPD2    H5 4627   3.932   0.994   0.341  0.6928 -1.2089 -1.5741
  307MPD2    N1 4628   4.270   0.708   0.132 -0.1282 -0.3503 -0.5508
  307MPD2    H7 4629   4.237   0.776   0.065 -1.5283  0.6149  1.1216
  308TMC3    C1 4630   3.580   1.094   0.627 -0.4847  0.3806  0.2133
  308TMC3    C2 4631   3.619   1.225   0.615 -0.3719 -0.7510 -0.5763
  308TMC3    C3 4632   3.735   1.253   0.557 -0.3961 -0.3458  0.6710
  308TMC3    C4 4633   3.655   0.988   0.579  0.5212  0.6153  0.0639
  308TMC3    C5 4634   3.764   1.022   0.517  0.0671  0.5860  0.0541
  308TMC3    C6 4635   3.804   1.149   0.496  0.1151  0.1991  0.1903
  308TMC3     C 4636   3.444   1.066   0.661 -0.0642 -0.3202 -0.0017
  308TMC3     O 4637   3.420   0.956   0.715  0.3370 -0.6792  0.2199
  308TMC3     H 4638   3.570   1.306   0.668 -2.6089 -1.6236 -1.3113
  308TMC3    H1 4639   3.631   0.884   0.594  0.4981  0.4627 -1.0475
  308TMC3    H2 4640   3.895   1.175   0.442 -0.2323 -0.7039 -0.8200
  308TMC3    C7 4641   3.858   0.910   0.508  0.3338  0.0036 -0.1609
  308TMC3    C8 4642   3.755   1.396   0.523 -0.1322 -0.4369 -0.8726
  308TMC3    O1 4643   3.845   0.813   0.582 -0.2201 -0.7564 -0.0909
  308TMC3    O2 4644   3.719   1.484   0.606  0.2807 -0.5828  0.3293
  309MPD2     C 4645   3.021   1.048  17.171 -0.0832  0.1827  0.3092
  309MPD2    C1 4646   3.065   1.166  17.119 -0.0252  1.4838 -0.1201
  309MPD2    C2 4647   3.007   1.288  17.161  0.2278 -0.0338 -0.1890
  309MPD2    C3 4648   2.900   1.286  17.247  0.1586  0.6979  0.1571
  309MPD2    C4 4649   2.866   1.172  17.313  0.2325 -0.3226  0.9343
  309MPD2    C5 4650   2.928   1.058  17.276  0.0181  0.2936  0.9512
  309MPD2     H 4651   3.055   1.377  17.121  0.8885 -0.3088 -0.0100
  309MPD2    H1 4652   2.777   1.165  17.374  0.0608  0.7882  0.8152
  309MPD2    H2 4653   3.059   0.956  17.129 -2.3641 -0.5389 -0.2006
  309MPD2    H3 4654   2.888   0.961  17.306 -1.0875  0.4722  0.0446
  309MPD2     N 4655   2.827   1.400  17.272  0.6929  0.2378 -0.3821
  309MPD2    H5 4656   2.754   1.380  17.340 -0.9728  1.4943 -1.7773
  309MPD2    N1 4657   3.155   1.168  17.014  0.3048 -0.7313 -0.2214
  309MPD2    H7 4658   3.171   1.257  16.968  0.8172 -0.6898  0.0292
  310TMC3    C1 4659   3.289   1.095  16.840  0.2657  0.2846  0.5889
  310TMC3    C2 4660   3.213   1.160  16.746  0.3049 -0.3991  0.0933
  310TMC3    C3 4661   3.246   1.133  16.610 -0.5921  1.0217  0.1926
  310TMC3    C4 4662   3.395   1.023  16.803 -0.0701 -0.3198  0.1777
  310TMC3    C5 4663   3.419   0.999  16.673 -0.2766 -0.2918  0.0513
  310TMC3    C6 4664   3.349   1.057  16.571  0.0924  0.1423 -0.2256
  310TMC3     C 4665   3.235   1.063  16.974  0.4176 -0.3614  0.1804
  310TMC3     O 4666   3.271   0.958  17.023  0.1533  0.8753  0.2751
  310TMC3     H 4667   3.117   1.206  16.767  1.2395  1.0892  1.0837
  310TMC3    H1 4668   3.468   0.986  16.874  3.1987 -0.6724 -3.3655
  310TMC3    H2 4669   3.384   1.039  16.470  0.4044 -1.3298  0.1409
  310TMC3    C7 4670   3.544   0.949  16.626 -0.3541 -0.3405  0.0970
  310TMC3    C8 4671   3.157   1.178  16.509  0.8271 -0.6498  0.5953
  310TMC3    O1 4672   3.579   0.851  16.682  0.1194  0.4890 -0.6378
  310TMC3    O2 4673   3.089   1.275  16.530  0.3181  0.0703  0.4491
  311MPD2     C 4674   0.614   2.555  12.897  0.2510 -0.1738 -0.6766
  311MPD2    C1 4675   0.609   2.691  12.917  0.4024 -0.4380  0.4788
  311MPD2    C2 4676   0.491   2.747  12.963  0.3111 -0.1017  0.1085
  311MPD2    C3 4677   0.377   2.676  12.981  0.2303  0.4132  0.6283
  311MPD2    C4 4678   0.388   2.536  12.960 -0.1203  0.6819 -0.0836
  311MPD2    C5 4679   0.505   2.481  12.926  0.6376  0.3073 -0.4537
  311MPD2     H 4680   0.485   2.851  12.993 -0.7741 -0.1655  0.1366
  311MPD2    H1 4681   0.309   2.464  12.976  0.2528  0.5367  1.0986
  311MPD2    H2 4682   0.708   2.503  12.878  1.0149  0.5131  1.2097
  311MPD2    H3 4683   0.521   2.375  12.911  2.2875  0.6242 -0.9293
  311MPD2     N 4684   0.258   2.735  13.032  0.1284 -0.0443  0.2526
  311MPD2    H5 4685   0.258   2.835  13.052 -2.5765 -0.0139  0.0836
  311MPD2    N1 4686   0.724   2.767  12.910  0.2023 -0.1322  0.1105
  311MPD2    H7 4687   0.714   2.867  12.924 -2.5601  0.0921 -3.5113
  312TMC3    C1 4688   0.021   2.747  13.071 -0.3988 -0.3544 -0.6787
  312TMC3    C2 4689   4.628   2.690  13.029  0.2211 -0.0576 -0.0540
  312TMC3    C3 4690   4.525   2.777  13.014  0.4620 -0.6078 -0.5834
  312TMC3    C4 4691   0.041   2.874  13.113 -0.1611 -0.1434 -0.6026
  312TMC3    C5 4692   4.655   2.952  13.108  0.0602 -0.8428 -0.0828
  312TMC3    C6 4693   4.535   2.907  13.062  0.4778  0.9695  0.7240
  312TMC3     C 4694   0.139   2.672  13.041 -0.0048  0.1166  0.5630
  312TMC3     O 4695   0.113   2.563  12.988 -0.2639  0.3697  0.7334
  312TMC3     H 4696   4.627   2.591  12.986  0.7110 -0.5919  1.1687
  312TMC3    H1 4697   0.135   2.909  13.155 -1.2566 -2.2644  3.5951
  312TMC3    H2 4698   4.454   2.979  13.064 -0.5320 -0.1160 -0.8618
  312TMC3    C7 4699   4.664   3.087  13.160  0.5486  0.0014 -0.5325
  312TMC3    C8 4700   4.401   2.737  12.957 -0.2231  0.1978 -0.0766
  312TMC3    O1 4701   4.633   3.176  13.082 -0.2302  0.3450 -0.2980
  312TMC3    O2 4702   4.392   2.621  12.935 -0.3054 -0.1577 -0.6376
  313MPD2     C 4703   0.395   1.651  10.302 -0.5977 -0.1997 -0.0995
  313MPD2    C1 4704   0.273   1.614  10.366 -0.3782 -0.1153  0.4031
  313MPD2    C2 4705   0.174   1.547  10.301 -0.1868 -0.5064  0.1377
  313MPD2    C3 4706   0.197   1.491  10.179 -0.2621 -0.1759 -0.0328
  313MPD2    C4 4707   0.317   1.524  10.116  0.2750  0.7147  0.1367
  313MPD2    C5 4708   0.408   1.608  10.176 -0.4308  0.3561  0.6850
  313MPD2     H 4709   0.076   1.534  10.345 -0.4199  1.8148  0.2805
  313MPD2    H1 4710   0.326   1.498  10.011  3.1755 -0.2119  0.6137
  313MPD2    H2 4711   0.484   1.697  10.343  1.0664 -1.5870 -2.1929
  313MPD2    H3 4712   0.486   1.646  10.111  1.1341  1.7340  3.3651
  313MPD2     N 4713   0.094   1.425  10.112  0.5169  0.7406 -0.0859
  313MPD2    H5 4714   0.006   1.414  10.161  0.3985 -0.3363 -0.5349
  313MPD2    N1 4715   0.234   1.650  10.501  0.3740  0.7236 -0.7746
  313MPD2    H7 4716   0.139   1.625  10.528  0.8791 -0.5077 -0.1686
  314TMC3    C1 4717   0.240   1.771  10.708 -0.2103 -0.6478  0.4876
  314TMC3    C2 4718   0.305   1.864  10.782  0.5605  0.3158  0.5324
  314TMC3    C3 4719   0.227   1.955  10.851 -0.3982 -0.0415 -1.0596
  314TMC3    C4 4720   0.106   1.758  10.708  0.0738 -0.5137 -0.2900
  314TMC3    C5 4721   0.029   1.854  10.770  0.3687 -0.8877  0.3536
  314TMC3    C6 4722   0.088   1.950  10.847 -0.4546  0.6944 -0.6016
  314TMC3     C 4723   0.312   1.721  10.588  0.0320  1.1993 -0.5607
  314TMC3     O 4724   0.430   1.757  10.580  0.4504 -0.0722  1.1237
  314TMC3     H 4725   0.413   1.856  10.786  0.3361 -2.2771  0.9276
  314TMC3    H1 4726   0.057   1.666  10.679  0.2836 -0.0177 -2.2215
  314TMC3    H2 4727   0.021   2.031  10.874  1.6240  2.9176 -2.1275
  314TMC3    C7 4728   4.642   1.891  10.674  0.1819  0.0797 -0.4136
  314TMC3    C8 4729   0.291   2.056  10.930 -0.3440 -0.3146 -0.4190
  314TMC3    O1 4730   4.531   1.908  10.720 -0.1240 -0.0672  0.1564
  314TMC3    O2 4731   0.207   2.121  10.995  0.5452  0.0887  0.6031
  315MPD2     C 4732   4.316   1.302   0.109 -0.6989  0.9977 -0.3064
  315MPD2    C1 4733   4.412   1.309   0.211 -0.7145  0.0164  0.1019
  315MPD2    C2 4734   4.450   1.435   0.259 -0.1156 -0.6629 -0.9807
  315MPD2    C3 4735   4.399   1.551   0.203  0.5812 -0.3220 -0.3701
  315MPD2    C4 4736   4.304   1.541   0.108 -0.9222  0.0438 -0.1844
  315MPD2    C5 4737   4.264   1.420   0.064  0.4549  0.8303  0.0514
  315MPD2     H 4738   4.528   1.440   0.335  0.2914  0.6907 -1.4872
  315MPD2    H1 4739   4.245   1.625   0.073 -0.2937 -0.8180 -3.2738
  315MPD2    H2 4740   4.267   1.208   0.084 -0.7527  0.4363  1.9396
  315MPD2    H3 4741   4.184   1.419  17.685 -0.6302  0.9754  1.2409
  315MPD2     N 4742   4.453   1.674   0.253 -0.2488  0.4541 -0.5375
  315MPD2    H5 4743   4.521   1.672   0.328  1.2960 -0.2516 -1.9792
  315MPD2    N1 4744   4.451   1.194   0.285 -0.3860 -0.1628 -0.6305
  315MPD2    H7 4745   4.512   1.215   0.363  2.0601 -2.6032 -1.8787
  316TMC3    C1 4746   4.505   1.904   0.286  0.2952  0.4950 -0.7725
  316TMC3    C2 4747   4.574   1.867   0.399  0.1521 -0.0718  0.1293
  316TMC3    C3 4748   4.633   1.966   0.468 -0.4601 -0.1594  0.3728
  316TMC3    C4 4749   4.521   2.025   0.228  0.2138  0.0207  0.5120
  316TMC3    C5 4750   4.587   2.121   0.299  0.2355 -0.4631  0.0385
  316TMC3    C6 4751   4.634   2.094   0.424  0.7350 -0.2711  0.2595
  316TMC3     C 4752   4.440   1.804   0.207  0.8006  0.3904 -0.9642
  316TMC3     O 4753   4.396   1.837   0.100 -0.1947  0.4801  0.1572
  316TMC3     H 4754   4.561   1.770   0.445 -1.3655 -0.9154 -2.0946
  316TMC3    H1 4755   4.488   2.038   0.126  1.5694  1.4025  0.2429
  316TMC3    H2 4756   4.667   2.182   0.478  0.9951  1.2751 -2.4535
  316TMC3    C7 4757   4.548   2.258   0.264 -0.1397  0.2139 -0.0744
  316TMC3    C8 4758   4.701   1.936   0.593  0.6158  0.1772 -0.2648
  316TMC3    O1 4759   4.515   2.326   0.360 -0.1143  0.2621  0.2660
  316TMC3    O2 4760   0.016   2.029   0.664 -0.5107  0.1373  0.5620
  317MPD2     C 4761   1.768   4.649  12.747  0.0698  0.1883  0.6410
  317MPD2    C1 4762   1.834   4.536  12.774 -0.1037 -0.0206 -0.4503
  317MPD2    C2 4763   1.862   4.500  12.905 -0.9602 -1.1330 -0.6289
  317MPD2    C3 4764   1.843   4.588  13.007 -0.0221  0.4600  0.3520
  317MPD2    C4 4765   1.799   4.714  12.979  0.0845 -0.1391 -0.2031
  317MPD2    C5 4766   1.772   0.025  12.848  0.2186  0.4324  0.6304
  317MPD2     H 4767   1.897   4.399  12.925 -0.4407 -0.6642  0.7674
  317MPD2    H1 4768   1.794   0.074  13.049  0.7200 -0.8499  0.6871
  317MPD2    H2 4769   1.738   4.690  12.651 -2.2776 -1.4288  0.6894
  317MPD2    H3 4770   1.741   0.125  12.822 -0.1588  0.6513  1.9028
  317MPD2     N 4771   1.875   4.544  13.143 -0.5440 -0.1731 -0.6061
  317MPD2    H5 4772   1.901   4.449  13.164  1.8941  0.8273  0.9058
  317MPD2    N1 4773   1.875   4.443  12.670  0.0216  0.2221  0.1951
  317MPD2    H7 4774   1.929   4.361  12.694  0.0794  0.0439 -0.5443
  318TMC3    C1 4775   1.865   4.557  13.376  0.0329 -0.3336  0.0982
  318TMC3    C2 4776   1.819   4.430  13.372  0.0657 -0.0688 -0.2925
  318TMC3    C3 4777   1.870   4.335  13.457  0.6733 -0.5246  1.0008
  318TMC3    C4 4778   1.968   4.595  13.454  0.4181 -0.9490 -0.5292
  318TMC3    C5 4779   2.030   4.492  13.528  0.9419 -0.8817 -0.3139
  318TMC3    C6 4780   1.982   4.359  13.534  0.3114 -0.0389 -0.2545
  318TMC3     C 4781   1.859   4.624  13.254 -0.0046 -0.7904 -0.1383
  318TMC3     O 4782   1.847   0.024  13.267  0.4882 -0.4333 -0.2879
  318TMC3     H 4783   1.731   4.413  13.310 -0.2094 -0.2536  0.1525
  318TMC3    H1 4784   2.016   4.692  13.448 -1.3951 -0.0338 -0.2179
  318TMC3    H2 4785   2.014   4.279  13.600 -0.6529  0.5094  0.8967
  318TMC3    C7 4786   2.156   4.526  13.596  0.1566  1.1258 -0.0529
  318TMC3    C8 4787   1.788   4.228  13.500 -0.2370 -0.8408  0.5489
  318TMC3    O1 4788   2.172   4.645  13.627  0.2939  0.4403  0.4751
  318TMC3    O2 4789   1.813   4.195  13.615  0.4071  0.3126  0.3928
  319MPD2     C 4790   2.542   1.285  17.083  0.8314  0.0880  0.3514
  319MPD2    C1 4791   2.431   1.206  17.118 -0.5807  0.0312 -0.1126
  319MPD2    C2 4792   2.338   1.149  17.029 -0.6686  0.4908 -0.0878
  319MPD2    C3 4793   2.358   1.177  16.894 -0.0720  0.0146 -0.1898
  319MPD2    C4 4794   2.465   1.258  16.866 -1.2168 -0.9284 -0.0733
  319MPD2    C5 4795   2.555   1.305  16.953 -0.0102 -0.3994 -0.4120
  319MPD2     H 4796   2.261   1.084  17.069  1.0349 -0.6984  1.2859
  319MPD2    H1 4797   2.491   1.284  16.764 -1.5410 -2.2096 -0.4850
  319MPD2    H2 4798   2.606   1.335  17.154  0.2410 -0.4376  1.2537
  319MPD2    H3 4799   2.627   1.381  16.925 -1.6957  0.5392 -2.2242
  319MPD2     N 4800   2.276   1.138  16.779 -0.0654 -0.2239 -0.3249
  319MPD2    H5 4801   2.306   1.161  16.685 -2.2721  0.5348 -0.8537
  319MPD2    N1 4802   2.418   1.160  17.254  0.1885 -0.7877 -0.0978
  319MPD2    H7 4803   2.342   1.094  17.266 -0.8453  0.4726  0.1713
  320TMC3    C1 4804   2.118   1.020  16.654  0.1474 -0.2393  0.3132
  320TMC3    C2 4805   2.138   1.103  16.549  0.0003 -0.4095 -1.1432
  320TMC3    C3 4806   2.115   1.057  16.420 -0.2542  0.6053  0.1159
  320TMC3    C4 4807   2.062   0.896  16.641 -0.0163 -0.3568 -0.8278
  320TMC3    C5 4808   2.047   0.855  16.510  0.0808 -0.8744 -0.6294
  320TMC3    C6 4809   2.064   0.930  16.396 -0.1972  0.1035  0.5717
  320TMC3     C 4810   2.160   1.065  16.787 -0.0810  0.8018  0.0639
  320TMC3     O 4811   2.113   1.005  16.882 -0.0234 -0.5225 -0.4455
  320TMC3     H 4812   2.162   1.207  16.567  0.2725 -0.4824 -1.0756
  320TMC3    H1 4813   2.039   0.832  16.726  0.1149  0.1437 -0.4193
  320TMC3    H2 4814   2.032   0.899  16.298 -2.5867  0.2721  1.2912
  320TMC3    C7 4815   1.989   0.721  16.484 -0.0484 -0.1646 -0.7153
  320TMC3    C8 4816   2.097   1.163  16.317 -0.0971  0.0510 -0.2276
  320TMC3    O1 4817   2.001   0.663  16.372 -0.2839  0.4244  0.3448
  320TMC3    O2 4818   2.114   1.280  16.354 -0.0783 -0.3397 -0.3880
  321TMC3    C1 4819   2.471   1.120  17.481 -0.2273  0.5271  0.3082
  321TMC3    C2 4820   2.434   0.988  17.455 -0.0650  0.2994 -0.2327
  321TMC3    C3 4821   2.434   0.902  17.561  0.5719 -0.6497  0.0005
  321TMC3    C4 4822   2.519   1.162  17.600 -0.1147  0.0533 -0.3791
  321TMC3    C5 4823   2.517   1.068   0.003 -1.0531  0.3677 -0.3749
  321TMC3    C6 4824   2.454   0.955  17.686 -0.1646 -0.0258  0.2780
  321TMC3     C 4825   2.490   1.203  17.358 -0.0538 -0.0619  0.3571
  321TMC3     O 4826   2.569   1.294  17.380 -0.0127  0.6662 -0.6738
  321TMC3     H 4827   2.444   0.942  17.357  1.0323 -0.2353  0.1254
  321TMC3    H1 4828   2.558   1.263  17.600 -2.1359  0.8390  1.8493
  321TMC3    H2 4829   2.470   0.871   0.058  1.0785 -0.6143 -0.7726
  321TMC3    C7 4830   2.657   1.037   0.048 -0.8687  1.0555  0.3916
  321TMC3    C8 4831   2.508   0.789  17.523  0.2765 -0.3054  0.2976
  321TMC3    O1 4832   2.681   0.934   0.109  0.1758  0.6918  0.1499
  321TMC3    O2 4833   2.593   0.802  17.437 -0.0352  0.4732 -0.6081
  322MPD2     C 4834   1.143   2.696  13.925  0.3529 -0.1280 -0.8889
  322MPD2    C1 4835   1.145   2.607  14.039 -0.1061 -0.3013  0.0358
  322MPD2    C2 4836   1.157   2.467  14.018  0.7580 -0.6012  0.4141
  322MPD2    C3 4837   1.158   2.415  13.894  0.2411  1.5710 -0.3602
  322MPD2    C4 4838   1.164   2.499  13.782 -0.1170 -0.0563 -0.2289
  322MPD2    C5 4839   1.146   2.637  13.795  0.2425 -0.2429 -0.4519
  322MPD2     H 4840   1.165   2.404  14.106  0.6018  0.4394  1.1804
  322MPD2    H1 4841   1.186   2.468  13.680  0.1324 -0.9256  0.0987
  322MPD2    H2 4842   1.158   2.802  13.942 -1.4660  0.2775 -1.7846
  322MPD2    H3 4843   1.149   2.692  13.702  0.7189 -0.9043 -0.8263
  322MPD2     N 4844   1.158   2.275  13.886 -0.1695 -0.2882 -0.5787
  322MPD2    H5 4845   1.140   2.225  13.973  0.4781  1.6849  0.6993
  322MPD2    N1 4846   1.144   2.672  14.166  0.1986 -0.8013 -0.3027
  322MPD2    H7 4847   1.152   2.773  14.173 -1.4758 -0.6985 -0.0376
  323TMC3    C1 4848   1.218   2.678  14.385  0.2185  0.0916  0.3705
  323TMC3    C2 4849   1.320   2.761  14.340  0.3393  0.6352 -0.6325
  323TMC3    C3 4850   1.382   2.839  14.429 -0.0766  0.1124 -0.8152
  323TMC3    C4 4851   1.190   2.671  14.518 -0.2368 -0.5781 -0.4746
  323TMC3    C5 4852   1.261   2.752  14.607  0.1287  0.7821 -0.3630
  323TMC3    C6 4853   1.359   2.838  14.558 -0.7479 -0.0695  0.2674
  323TMC3     C 4854   1.136   2.605  14.292 -0.2604  0.1535 -0.5017
  323TMC3     O 4855   1.104   2.486  14.313  0.1657  0.5306  0.3949
  323TMC3     H 4856   1.359   2.753  14.239 -1.2086 -0.3032 -1.1483
  323TMC3    H1 4857   1.105   2.613  14.553 -0.6084  0.4565  0.3545
  323TMC3    H2 4858   1.431   2.899  14.612  0.2532 -0.4560 -0.6427
  323TMC3    C7 4859   1.282   2.699  14.742 -0.3537 -0.1296  0.1474
  323TMC3    C8 4860   1.516   2.874  14.393 -0.6437  0.2573 -0.1800
  323TMC3    O1 4861   1.231   2.588  14.753  0.0482 -0.5412  0.2728
  323TMC3    O2 4862   1.597   2.890  14.485 -0.1297 -0.7452  0.2015
  324MPD2     C 4863   3.343   3.939  14.756 -0.0896 -0.2278  0.0928
  324MPD2    C1 4864   3.358   3.979  14.624 -0.0607  0.4264 -0.6019
  324MPD2    C2 4865   3.259   3.976  14.533  0.0528 -0.4347  0.3691
  324MPD2    C3 4866   3.131   3.933  14.565  0.3573  0.3475  0.2736
  324MPD2    C4 4867   3.112   3.893  14.699  0.2521  0.0838 -0.4513
  324MPD2    C5 4868   3.213   3.904  14.793  0.1856 -0.3271 -0.3428
  324MPD2     H 4869   3.286   4.005  14.433 -0.6928 -1.5481 -0.1610
  324MPD2    H1 4870   3.015   3.857  14.732  1.3828 -1.5899  1.0130
  324MPD2    H2 4871   3.428   3.939  14.824  1.8513  0.2354 -2.3543
  324MPD2    H3 4872   3.200   3.869  14.894 -1.1780  0.7314 -0.1474
  324MPD2     N 4873   3.016   3.932  14.485 -0.2788  0.5799  0.1148
  324MPD2    H5 4874   2.933   3.895  14.529  0.1663 -0.5211  0.0241
  324MPD2    N1 4875   3.493   4.007  14.574  0.0556 -0.1442  0.0361
  324MPD2    H7 4876   3.508   4.007  14.473 -1.9906 -2.0816 -0.2617
  325TMC3    C1 4877   2.876   3.935  14.299  0.4318  0.0407  0.0797
  325TMC3    C2 4878   2.800   3.835  14.357 -0.1224  0.3656  0.5754
  325TMC3    C3 4879   2.699   3.787  14.276 -0.2168  0.3603  0.0388
  325TMC3    C4 4880   2.835   4.002  14.185  0.1809 -0.0192  0.7437
  325TMC3    C5 4881   2.727   3.961  14.120 -0.5175 -0.8019  0.3084
  325TMC3    C6 4882   2.656   3.851  14.159 -0.3515  0.7879  0.0247
  325TMC3     C 4883   3.013   3.971  14.355  0.2368  0.2429  0.1885
  325TMC3     O 4884   3.105   4.019  14.293 -0.5502  0.3940  0.5180
  325TMC3     H 4885   2.847   3.774  14.433  1.1601  0.2539 -0.3003
  325TMC3    H1 4886   2.891   4.087  14.149  2.4121 -2.0346 -0.5514
  325TMC3    H2 4887   2.561   3.823  14.114  2.2634 -2.4498 -3.5315
  325TMC3    C7 4888   2.646   4.059  14.064  0.1921  0.2133 -0.8911
  325TMC3    C8 4889   2.597   3.698  14.329  0.0625  0.1661  0.5140
  325TMC3    O1 4890   2.546   4.026  14.006 -0.0147 -0.3089 -0.4594
  325TMC3    O2 4891   2.516   3.640  14.251 -0.4299 -0.4828 -0.3579
  326MPD2     C 4892   4.623   4.660  10.094 -0.7371 -0.0879 -0.4633
  326MPD2    C1 4893   4.616   4.621  10.230  0.1028 -0.0113 -0.2152
  326MPD2    C2 4894   0.001   4.586  10.300  0.3691  0.5245  0.2032
  326MPD2    C3 4895   0.126   4.576  10.239  0.6237 -0.2834  0.0146
  326MPD2    C4 4896   0.133   4.603  10.101 -0.4651  0.4233  0.1853
  326MPD2    C5 4897   0.020   4.651  10.033 -0.1728  0.3037 -0.7151
  326MPD2     H 4898   4.711   4.563  10.405  3.4911  1.5716  0.8115
  326MPD2    H1 4899   0.227   4.599  10.046  0.5599  0.5890  1.9282
  326MPD2    H2 4900   4.537   4.690  10.036 -1.6861 -1.1837  0.3689
  326MPD2    H3 4901   0.037   4.670   9.928  0.6609 -0.2119 -0.6747
  326MPD2     N 4902   0.247   4.560  10.311  0.5550  0.0072  0.1680
  326MPD2    H5 4903   0.328   4.565  10.251 -0.7000  0.6941 -1.4783
  326MPD2    N1 4904   4.491   4.621  10.294  0.3771 -0.2771 -0.3565
  326MPD2    H7 4905   4.493   4.602  10.393  1.7226 -1.0731 -0.5402
  327TMC3    C1 4906   4.274   4.654  10.333 -0.3999 -0.5572 -0.4439
  327TMC3    C2 4907   4.174   0.020  10.293 -0.5555  0.6520  0.4986
  327TMC3    C3 4908   4.052   0.001  10.341  0.0234  0.1078  0.0359
  327TMC3    C4 4909   4.237   4.534  10.377  0.5818 -0.4644  0.4467
  327TMC3    C5 4910   4.107   4.507  10.412  0.2878  0.1096  0.2908
  327TMC3    C6 4911   4.011   4.601  10.392 -0.7501  0.2324  0.7782
  327TMC3     C 4912   4.377   4.663  10.239 -0.6610 -0.4238 -0.3878
  327TMC3     O 4913   4.340   4.692  10.128 -0.0749 -0.1029 -0.0674
  327TMC3     H 4914   4.216   0.112  10.254 -1.3527 -0.2221 -2.5067
  327TMC3    H1 4915   4.316   4.465  10.404  0.3415 -1.0929 -0.4899
  327TMC3    H2 4916   3.912   4.595  10.437 -0.4859 -0.9171  1.1879
  327TMC3    C7 4917   4.067   4.383  10.483 -0.4094 -0.1249 -0.4125
  327TMC3    C8 4918   3.951   0.103  10.311 -0.2712 -0.2137  0.4683
  327TMC3    O1 4919   3.947   4.368  10.491  0.1089 -0.3576  0.0608
  327TMC3    O2 4920   3.981   0.191  10.230 -0.5684  0.0997 -0.1755
  328MPD2     C 4921   2.161   4.309  17.386 -0.1645  0.1227 -0.3269
  328MPD2    C1 4922   2.029   4.276  17.375 -0.1722  0.3594  0.2170
  328MPD2    C2 4923   1.964   4.342  17.274 -0.6272  0.3114  0.7892
  328MPD2    C3 4924   2.016   4.433  17.194  0.0394 -0.1374  1.0006
  328MPD2    C4 4925   2.138   4.477  17.210  0.0260  0.0151  0.2893
  328MPD2    C5 4926   2.212   4.414  17.306 -0.0609  0.2285 -0.3504
  328MPD2     H 4927   1.860   4.316  17.259 -0.5795  0.3055  0.4602
  328MPD2    H1 4928   2.174   4.566  17.160 -1.0421 -1.2539 -2.7602
  328MPD2    H2 4929   2.212   4.277  17.476 -0.3841 -1.6773 -0.8458
  328MPD2    H3 4930   2.307   4.451  17.343  0.3864  0.6367 -1.9247
  328MPD2     N 4931   1.943   4.490  17.088  0.7346  0.4816 -0.1303
  328MPD2    H5 4932   1.989   4.566  17.039 -1.3006  1.5491 -0.3696
  328MPD2    N1 4933   1.954   4.194  17.461 -0.8002  0.4919  0.5912
  328MPD2    H7 4934   1.856   4.186  17.437 -0.2479 -1.4858 -0.9940
  329TMC3    C1 4935   1.904   4.128  17.681 -0.2313 -0.1424 -0.1707
  329TMC3    C2 4936   1.790   4.203  17.672 -0.3541 -0.5571 -0.0709
  329TMC3    C3 4937   1.727   4.224   0.099 -0.1845 -0.7888 -0.8980
  329TMC3    C4 4938   1.952   4.062   0.103  0.5913  0.8717  0.3747
  329TMC3    C5 4939   1.889   4.100   0.220  0.4758  0.4984  0.0521
  329TMC3    C6 4940   1.783   4.192   0.219 -0.0683 -0.4470 -0.5740
  329TMC3     C 4941   2.005   4.150  17.583  0.3239  0.2906 -0.8823
  329TMC3     O 4942   2.120   4.131  17.616 -0.1889 -0.0868  0.0691
  329TMC3     H 4943   1.769   4.265  17.584  1.8606 -0.8751 -0.8117
  329TMC3    H1 4944   2.043   4.004   0.100  2.0714  3.1657  0.3717
  329TMC3    H2 4945   1.731   4.208   0.313  0.6114 -0.4126 -0.2052
  329TMC3    C7 4946   1.965   4.102   0.341 -0.5936 -0.4501  0.4043
  329TMC3    C8 4947   1.620   4.318   0.099  0.6485 -0.0498 -0.2341
  329TMC3    O1 4948   1.931   4.189   0.423 -0.1364 -0.2162  0.3383
  329TMC3    O2 4949   1.606   4.394   0.194  0.3881  0.3018  0.4491
  330TMC3    C1 4950   3.699   2.665   9.895 -0.1304  0.1536  0.3744
  330TMC3    C2 4951   3.628   2.549   9.890 -0.0638 -1.0151 -0.2681
  330TMC3    C3 4952   3.688   2.434   9.860  0.9707 -0.3759 -0.4468
  330TMC3    C4 4953   3.834   2.656   9.903 -0.5929 -0.3471  0.6435
  330TMC3    C5 4954   3.893   2.532   9.900  0.0533 -0.4081  0.3637
  330TMC3    C6 4955   3.822   2.420   9.881  0.0658  0.1338 -0.4487
  330TMC3     C 4956   3.635   2.790   9.868  0.4464  0.1401 -0.2886
  330TMC3     O 4957   3.668   2.892   9.922 -0.2441 -0.3627  0.9242
  330TMC3     H 4958   3.520   2.550   9.897  0.1293 -0.6998  2.5134
  330TMC3    H1 4959   3.889   2.747   9.921  0.4639 -0.9308  0.3812
  330TMC3    H2 4960   3.876   2.326   9.876  0.1944  0.1553  0.5956
  330TMC3    C7 4961   4.033   2.528   9.937 -0.7079 -0.0441  0.0398
  330TMC3    C8 4962   3.607   2.321   9.803  0.2691 -0.4344 -0.4471
  330TMC3    O1 4963   4.073   2.611  10.016  0.4022 -0.1740 -0.2890
  330TMC3    O2 4964   3.486   2.332   9.826  0.3087 -0.4530  0.2080
  331MPD2     C 4965   2.034   2.905  12.575 -0.1744  0.4045  0.0288
  331MPD2    C1 4966   2.162   2.954  12.550 -0.1779  0.0556 -0.2076
  331MPD2    C2 4967   2.277   2.883  12.568 -0.0672 -0.6883 -0.2987
  331MPD2    C3 4968   2.275   2.759  12.628 -0.1136 -0.1249 -0.1309
  331MPD2    C4 4969   2.153   2.713  12.660 -0.2032  0.0524  0.1760
  331MPD2    C5 4970   2.030   2.780  12.640 -0.5039 -0.4597 -0.5933
  331MPD2     H 4971   2.374   2.921  12.537 -0.4408  1.1850  0.8276
  331MPD2    H1 4972   2.139   2.621  12.715 -2.2701 -0.8268 -1.8806
  331MPD2    H2 4973   1.941   2.958  12.560  0.0369  0.7950  0.1208
  331MPD2    H3 4974   1.943   2.735  12.687 -0.9027  0.5213 -0.3776
  331MPD2     N 4975   2.390   2.686  12.623 -0.3703 -0.1862  0.3197
  331MPD2    H5 4976   2.474   2.722  12.578  1.1796 -2.6841  1.1372
  331MPD2    N1 4977   2.165   3.068  12.474  0.9957 -0.3459 -0.4237
  331MPD2    H7 4978   2.073   3.101  12.448  0.7987 -0.0264  0.6773
  332TMC3    C1 4979   2.528   2.497  12.647  0.1117  0.5298 -0.0562
  332TMC3    C2 4980   2.572   2.526  12.523 -1.1635  0.0009  0.2292
  332TMC3    C3 4981   2.697   2.476  12.486  0.2996 -0.2131  0.4941
  332TMC3    C4 4982   2.598   2.419  12.736 -0.1944  0.0143  0.1111
  332TMC3    C5 4983   2.717   2.369  12.699  0.1763 -0.4789 -0.1460
  332TMC3    C6 4984   2.771   2.400  12.577 -0.2409  0.2491 -0.2580
  332TMC3     C 4985   2.400   2.560  12.674 -0.1827  0.1365  0.2051
  332TMC3     O 4986   2.330   2.502  12.757  0.6730 -0.5032  0.4871
  332TMC3     H 4987   2.528   2.593  12.449  3.4821  0.7404 -1.8759
  332TMC3    H1 4988   2.543   2.405  12.828  2.6742  0.3644  1.8757
  332TMC3    H2 4989   2.864   2.360  12.537 -1.1023 -0.4722 -1.5055
  332TMC3    C7 4990   2.802   2.326  12.806 -0.2818 -0.5619 -0.4012
  332TMC3    C8 4991   2.745   2.478  12.355  0.7723  0.5482 -0.1870
  332TMC3    O1 4992   2.748   2.332  12.913  0.5699 -0.3932  0.7835
  332TMC3    O2 4993   2.866   2.487  12.340 -0.4792  0.2053  0.1302
  333MPD2     C 4994   2.413   2.459  11.186  0.6818  0.2549 -0.2825
  333MPD2    C1 4995   2.524   2.381  11.180 -0.0667 -0.4083  0.3608
  333MPD2    C2 4996   2.505   2.246  11.218  0.2784 -0.1743 -0.8014
  333MPD2    C3 4997   2.381   2.186  11.245 -1.0016  0.3418 -0.4370
  333MPD2    C4 4998   2.277   2.269  11.251  0.0537  0.0841 -0.2826
  333MPD2    C5 4999   2.293   2.401  11.227 -0.0575 -0.1974 -0.0736
  333MPD2     H 5000   2.588   2.176  11.222  0.5133 -0.0375 -3.4066
  333MPD2    H1 5001   2.177   2.237  11.279 -0.3795  1.2903 -0.4526
  333MPD2    H2 5002   2.412   2.566  11.166  1.2089 -0.0856 -2.1304
  333MPD2    H3 5003   2.206   2.462  11.245  0.8016  1.0034  0.0434
  333MPD2     N 5004   2.373   2.057  11.290 -0.2009 -0.4871 -0.1395
  333MPD2    H5 5005   2.465   2.016  11.277 -0.0951 -0.1653 -0.4028
  333MPD2    N1 5006   2.650   2.431  11.158 -0.1068  0.0595 -0.7181
  333MPD2    H7 5007   2.647   2.531  11.141 -0.0905 -0.2449 -2.5139
  334TMC3    C1 5008   2.864   2.461  11.087 -0.2906  0.3222 -0.2112
  334TMC3    C2 5009   2.974   2.399  11.032 -0.1802 -0.3571  0.5730
  334TMC3    C3 5010   3.077   2.478  10.981  0.5452 -0.3363  0.1286
  334TMC3    C4 5011   2.856   2.599  11.099 -0.1312 -0.1244 -0.1080
  334TMC3    C5 5012   2.955   2.670  11.046 -0.2490 -0.2928  0.0662
  334TMC3    C6 5013   3.062   2.612  10.981 -0.0552  0.4093  0.3677
  334TMC3     C 5014   2.765   2.365  11.124 -0.1018 -0.2149  0.0077
  334TMC3     O 5015   2.789   2.241  11.126  0.2228  0.0818  0.6279
  334TMC3     H 5016   2.975   2.294  11.008  0.8394 -0.5560  1.4916
  334TMC3    H1 5017   2.781   2.645  11.162  1.0122  0.3416  0.8907
  334TMC3    H2 5018   3.136   2.675  10.931 -1.3206  0.3527 -1.5719
  334TMC3    C7 5019   2.941   2.817  11.023  0.4070 -0.0160 -0.1453
  334TMC3    C8 5020   3.208   2.417  10.984  0.4778 -0.7899  0.8426
  334TMC3    O1 5021   3.042   2.879  11.008 -0.2420 -0.9458 -0.0612
  334TMC3    O2 5022   3.208   2.302  10.950 -0.1248 -0.4892 -0.0659
  335TMC3    C1 5023   2.633   0.225  17.224 -0.1073 -0.2356 -0.0927
  335TMC3    C2 5024   2.637   0.100  17.285  0.3815 -0.3596  0.0544
  335TMC3    C3 5025   2.748   0.069  17.358  0.0336  0.0198  0.9779
  335TMC3    C4 5026   2.741   0.304  17.222 -0.1735  0.0658  0.6142
  335TMC3    C5 5027   2.850   0.266  17.300  0.2225 -0.0981  0.4386
  335TMC3    C6 5028   2.859   0.147  17.362  0.4538 -0.1524 -0.2479
  335TMC3     C 5029   2.500   0.279  17.178 -0.0989 -0.1732 -0.4000
  335TMC3     O 5030   2.402   0.217  17.218 -0.2530  0.2111  0.6172
  335TMC3     H 5031   2.542   0.049  17.296  0.7024 -0.6315  1.4736
  335TMC3    H1 5032   2.745   0.405  17.182  2.0230 -0.1757  0.2401
  335TMC3    H2 5033   2.947   0.124  17.420 -0.5061 -1.1816  0.8183
  335TMC3    C7 5034   2.971   0.338  17.264  0.6623  0.7167 -0.3059
  335TMC3    C8 5035   2.746   4.673  17.435  0.3840  0.1779 -0.4624
  335TMC3    O1 5036   2.962   0.455  17.241  0.0073  0.0312 -0.5533
  335TMC3    O2 5037   2.812   4.671  17.542  0.6480  0.5216  0.0437
  336MPD2     C 5038   2.459   2.072  15.803 -0.1338  0.1894  0.2723
  336MPD2    C1 5039   2.338   2.007  15.793 -0.2434  0.5227 -0.6312
  336MPD2    C2 5040   2.313   1.899  15.875  0.1192 -0.3334 -0.4856
  336MPD2    C3 5041   2.398   1.853  15.969  0.5601 -0.3793 -0.7177
  336MPD2    C4 5042   2.516   1.916  15.977 -0.4776 -0.2070  0.2330
  336MPD2    C5 5043   2.544   2.030  15.900  0.0421 -0.9513 -0.8850
  336MPD2     H 5044   2.217   1.848  15.863 -0.1095  0.0598 -0.3348
  336MPD2    H1 5045   2.599   1.897  16.045 -0.9786 -1.0321  0.6192
  336MPD2    H2 5046   2.497   2.149  15.737 -1.7013 -0.1161 -0.9712
  336MPD2    H3 5047   2.639   2.082  15.909 -0.5555  0.2085 -1.2830
  336MPD2     N 5048   2.388   1.732  16.047  0.4862  0.6542 -0.2350
  336MPD2    H5 5049   2.445   1.715  16.129  1.6871 -4.1494 -2.0450
  336MPD2    N1 5050   2.233   2.057  15.713  0.2657 -0.6978 -0.1029
  336MPD2    H7 5051   2.145   2.005  15.717 -1.0519  1.6253  1.2770
  337TMC3    C1 5052   2.106   2.178  15.565 -0.9956 -0.8599  0.6236
  337TMC3    C2 5053   1.995   2.153  15.636  0.1250  0.2512  0.0280
  337TMC3    C3 5054   1.872   2.206  15.609  0.7969  0.3997 -0.4725
  337TMC3    C4 5055   2.101   2.263  15.453  0.1807  0.4037 -0.6249
  337TMC3    C5 5056   1.978   2.315  15.426 -0.2282 -0.5009  0.7690
  337TMC3    C6 5057   1.859   2.283  15.496  0.1781 -0.3338  0.6060
  337TMC3     C 5058   2.238   2.159  15.621 -0.8149  0.1029 -0.1491
  337TMC3     O 5059   2.327   2.233  15.580 -0.1662 -0.0117 -0.1247
  337TMC3     H 5060   2.004   2.096  15.728 -1.0628  0.6394  0.3852
  337TMC3    H1 5061   2.191   2.298  15.404 -0.8573  0.4452 -2.5340
  337TMC3    H2 5062   1.770   2.337  15.469  2.0167  1.9948 -0.8272
  337TMC3    C7 5063   1.979   2.432  15.340  0.5116 -0.5997  0.1274
  337TMC3    C8 5064   1.757   2.177  15.698  0.4811 -0.1889 -0.4038
  337TMC3    O1 5065   2.065   2.446  15.252 -0.0319  0.3060 -0.5112
  337TMC3    O2 5066   1.783   2.126  15.807 -0.0802  0.2184 -0.2068
  338MPD2     C 5067   2.354   1.944   1.036  0.4120 -0.6557  0.6132
  338MPD2    C1 5068   2.333   1.907   0.907  0.4399 -0.1260 -0.1032
  338MPD2    C2 5069   2.201   1.896   0.866 -0.0947 -0.2120  0.1144
  338MPD2    C3 5070   2.094   1.924   0.951 -0.1793 -0.4032  0.0510
  338MPD2    C4 5071   2.117   1.970   1.079  0.2162 -0.5222 -0.0114
  338MPD2    C5 5072   2.251   1.981   1.117 -0.5167  0.3401 -0.0977
  338MPD2     H 5073   2.171   1.870   0.765 -2.7928  0.7513  0.6699
  338MPD2    H1 5074   2.038   1.987   1.151  1.4437  0.4039  1.1073
  338MPD2    H2 5075   2.453   1.936   1.080  1.0208 -1.0339 -0.8295
  338MPD2    H3 5076   2.274   1.991   1.223  0.7060  1.5089 -0.4791
  338MPD2     N 5077   1.966   1.922   0.886  0.8798 -0.3907 -0.7099
  338MPD2    H5 5078   1.967   1.891   0.790 -2.5061 -2.4821 -0.0393
  338MPD2    N1 5079   2.433   1.852   0.821 -0.2185 -0.5244 -0.4087
  338MPD2    H7 5080   2.402   1.837   0.725  0.1316  1.1192 -0.7797
  339TMC3    C1 5081   1.729   1.911   0.881 -0.2984 -0.5540  0.3814
  339TMC3    C2 5082   1.644   1.826   0.947 -1.0102  0.1611 -0.2680
  339TMC3    C3 5083   1.563   1.751   0.860  0.3755 -0.2354  0.0532
  339TMC3    C4 5084   1.733   1.912   0.742  0.1887  0.0091 -0.4024
  339TMC3    C5 5085   1.659   1.824   0.663 -0.2295 -0.2764 -1.3387
  339TMC3    C6 5086   1.575   1.739   0.727 -0.0649 -0.0082  0.3966
  339TMC3     C 5087   1.851   1.941   0.959 -0.4774  0.0896  0.6578
  339TMC3     O 5088   1.840   1.949   1.084 -0.0825 -0.4448 -0.3576
  339TMC3     H 5089   1.628   1.822   1.054 -1.1754  1.0287 -0.2624
  339TMC3    H1 5090   1.812   1.970   0.694 -1.2876  2.1835 -0.1846
  339TMC3    H2 5091   1.524   1.657   0.678 -0.1915 -0.0789  0.6496
  339TMC3    C7 5092   1.708   1.800   0.525 -0.6344 -0.4322 -0.1992
  339TMC3    C8 5093   1.476   1.654   0.917  0.2328 -0.0239 -0.4358
  339TMC3    O1 5094   1.829   1.822   0.519  0.1971  0.2805  0.3008
  339TMC3    O2 5095   1.362   1.645   0.876 -0.2015  0.6565  0.1266
  340MPD2     C 5096   3.117   3.470   9.769 -0.1859 -0.3512  1.1523
  340MPD2    C1 5097   3.052   3.421   9.878  0.6891 -0.5289  0.3365
  340MPD2    C2 5098   2.982   3.510   9.960  0.0199  0.0134  0.8785
  340MPD2    C3 5099   2.980   3.648   9.930  0.3336 -0.5561  0.0871
  340MPD2    C4 5100   3.036   3.692   9.807 -0.0328  0.4574  0.4825
  340MPD2    C5 5101   3.108   3.598   9.733  0.0398 -0.5606 -0.5332
  340MPD2     H 5102   2.926   3.463  10.039  0.2766 -2.0189 -0.1539
  340MPD2    H1 5103   3.038   3.797   9.783  1.1190  0.3299  0.0023
  340MPD2    H2 5104   3.172   3.409   9.698 -0.6658  1.5473 -0.8694
  340MPD2    H3 5105   3.155   3.622   9.638 -2.7506  0.3082 -1.7063
  340MPD2     N 5106   2.920   3.747  10.014  0.0072 -0.4661 -0.5130
  340MPD2    H5 5107   2.929   3.844   9.985  0.5940  0.5878  3.1775
  340MPD2    N1 5108   3.048   3.280   9.894 -0.2721  0.2260 -0.0072
  340MPD2    H7 5109   3.103   3.223   9.830  0.4759 -0.0121  0.8431
  341TMC3    C1 5110   3.006   3.069   9.975 -0.1695  0.0453 -0.1692
  341TMC3    C2 5111   2.907   2.978  10.011 -0.2662 -0.5509  1.0130
  341TMC3    C3 5112   2.938   2.850  10.022  0.3365 -0.6906 -0.0005
  341TMC3    C4 5113   3.139   3.029   9.976  0.2717 -0.0069  0.6223
  341TMC3    C5 5114   3.167   2.896   9.997 -0.1363  0.1059 -0.1427
  341TMC3    C6 5115   3.065   2.807  10.007  0.2831 -0.3836  0.3330
  341TMC3     C 5116   2.982   3.211   9.989 -0.0325 -0.1647 -0.5135
  341TMC3     O 5117   2.903   3.244  10.074 -0.2974  0.1122 -0.0379
  341TMC3     H 5118   2.803   3.010  10.015  0.0965  0.5811  1.5597
  341TMC3    H1 5119   3.222   3.099   9.969  1.1528 -1.1697 -0.5074
  341TMC3    H2 5120   3.081   2.700  10.005  0.3188 -0.3691 -0.1336
  341TMC3    C7 5121   3.280   2.866  10.086 -0.0931  0.1967 -0.0739
  341TMC3    C8 5122   2.832   2.752  10.008  0.4535  0.6242  0.0947
  341TMC3    O1 5123   3.307   2.960  10.161 -0.7483 -0.8105  0.1078
  341TMC3    O2 5124   2.722   2.800   9.989  0.3082  0.2033  0.7344
  342MPD2     C 5125   0.464   2.576   0.116 -0.0192 -0.2817  0.0637
  342MPD2    C1 5126   0.562   2.600   0.019 -0.3804 -0.3502  0.4183
  342MPD2    C2 5127   0.602   2.731  17.684  1.0926 -0.0856  0.3023
  342MPD2    C3 5128   0.554   2.837   0.060  0.0099 -0.0578  0.6644
  342MPD2    C4 5129   0.467   2.810   0.167 -0.4209 -0.4838 -0.1195
  342MPD2    C5 5130   0.420   2.683   0.195  0.4341  0.7551  0.1808
  342MPD2     H 5131   0.661   2.745  17.594 -0.8312  0.0434 -0.9550
  342MPD2    H1 5132   0.418   2.887   0.225 -2.0216 -1.4064 -0.2372
  342MPD2    H2 5133   0.424   2.479   0.144  2.1422 -0.9213  0.9402
  342MPD2    H3 5134   0.344   2.665   0.270 -0.1038 -0.4408 -0.6438
  342MPD2     N 5135   0.574   2.974   0.031 -0.0394  0.6511  0.0664
  342MPD2    H5 5136   0.534   3.043   0.093 -0.8535  1.3129 -1.1833
  342MPD2    N1 5137   0.621   2.502  17.633 -0.8871 -0.3980 -0.0295
  342MPD2    H7 5138   0.693   2.533  17.569 -0.1939  0.6767  1.2733
  343TMC3    C1 5139   0.663   2.283  17.554 -0.3424  1.1817 -0.3647
  343TMC3    C2 5140   0.797   2.311  17.515  0.2407 -0.0138 -0.4531
  343TMC3    C3 5141   0.880   2.211  17.481 -0.9701 -0.4516 -0.8569
  343TMC3    C4 5142   0.617   2.152  17.562  0.1986 -0.3925  0.3345
  343TMC3    C5 5143   0.710   2.056  17.532 -0.3288  0.8140 -0.9022
  343TMC3    C6 5144   0.841   2.083  17.496  0.2623 -0.1160  0.1191
  343TMC3     C 5145   0.584   2.371  17.635 -0.3097 -0.1961  0.6147
  343TMC3     O 5146   0.473   2.327  17.672 -0.3206 -0.2609 -0.0912
  343TMC3     H 5147   0.832   2.412  17.500  1.2263 -0.2853  0.0219
  343TMC3    H1 5148   0.514   2.125  17.582 -0.6420  0.4458 -2.7885
  343TMC3    H2 5149   0.913   2.003  17.482  0.1705 -0.2523  0.4160
  343TMC3    C7 5150   0.662   1.919  17.542  0.3201 -0.2507 -0.0735
  343TMC3    C8 5151   1.019   2.246  17.470  0.2372 -0.4454 -0.1517
  343TMC3    O1 5152   0.728   1.833  17.480  0.3064  0.1017  0.1034
  343TMC3    O2 5153   1.052   2.345  17.532 -0.1411 -0.5488  0.8079
  344MPD2     C 5154   2.072   1.591  11.071 -0.2400  0.1501  0.0210
  344MPD2    C1 5155   1.964   1.594  10.987  0.7771 -0.1764 -0.0638
  344MPD2    C2 5156   1.971   1.656  10.862  0.3650  0.0492  0.8784
  344MPD2    C3 5157   2.089   1.718  10.820 -0.0487 -0.4738  0.6922
  344MPD2    C4 5158   2.191   1.722  10.913  0.2021 -0.3139  0.0428
  344MPD2    C5 5159   2.185   1.662  11.040  0.2478 -0.6007 -0.2543
  344MPD2     H 5160   1.894   1.650  10.786  1.1207 -2.7437  0.3492
  344MPD2    H1 5161   2.289   1.758  10.883 -0.4907  2.5747  1.3450
  344MPD2    H2 5162   2.080   1.525  11.156  1.9887  0.8390  0.3523
  344MPD2    H3 5163   2.271   1.664  11.106 -0.1795  2.1936  0.2173
  344MPD2     N 5164   2.106   1.792  10.696  0.1657  0.0694 -0.5926
  344MPD2    H5 5165   2.186   1.855  10.702  1.9295 -2.4524  2.2775
  344MPD2    N1 5166   1.845   1.522  11.020  0.1761  0.0043  0.3665
  344MPD2    H7 5167   1.784   1.494  10.944  1.5964  1.5300 -1.3483
  345TMC3    C1 5168   2.045   1.924  10.509  0.5047 -0.0516 -0.5148
  345TMC3    C2 5169   2.176   1.951  10.479  0.2300  0.0665  0.0795
  345TMC3    C3 5170   2.186   2.065  10.407  0.0513 -0.1064  0.0328
  345TMC3    C4 5171   1.934   1.986  10.463 -0.4529 -0.0752 -0.4599
  345TMC3    C5 5172   1.959   2.095  10.391  0.3692  0.0968  0.8799
  345TMC3    C6 5173   2.083   2.137  10.365 -0.6019  0.5038 -0.4611
  345TMC3     C 5174   2.012   1.810  10.594  0.1782  0.6839 -1.0562
  345TMC3     O 5175   1.896   1.768  10.588 -0.1070 -0.1119 -0.6974
  345TMC3     H 5176   2.262   1.889  10.503  0.7667 -0.2483 -2.6628
  345TMC3    H1 5177   1.833   1.968  10.499 -0.1687 -0.4037  0.1655
  345TMC3    H2 5178   2.094   2.232  10.314  2.9282 -0.5700 -1.6795
  345TMC3    C7 5179   1.875   2.213  10.409 -0.0014 -0.4217  0.4083
  345TMC3    C8 5180   2.317   2.116  10.370 -0.1152  0.5344  1.3299
  345TMC3    O1 5181   1.933   2.311  10.462  0.4881  0.2319  0.3914
  345TMC3    O2 5182   2.319   2.185  10.275 -0.0631 -0.3707  0.4033
  346MPD2     C 5183   1.593   3.952  14.574 -0.3435 -0.5908  0.0549
  346MPD2    C1 5184   1.661   4.032  14.483  0.3950  0.1972  0.1440
  346MPD2    C2 5185   1.767   4.111  14.529 -0.2595  0.1321  0.4088
  346MPD2    C3 5186   1.817   4.107  14.656 -0.3528  0.4189 -0.0835
  346MPD2    C4 5187   1.754   4.017  14.741 -0.0680  0.8006 -0.1306
  346MPD2    C5 5188   1.640   3.949  14.700  0.6281 -0.0248  0.0014
  346MPD2     H 5189   1.799   4.174  14.447 -1.7052 -0.0953 -0.3163
  346MPD2    H1 5190   1.779   4.015  14.846  2.8023 -0.8558 -0.8403
  346MPD2    H2 5191   1.508   3.893  14.544  0.4777 -1.1727 -1.1433
  346MPD2    H3 5192   1.580   3.905  14.779  0.6506  0.4328  0.2748
  346MPD2     N 5193   1.938   4.174  14.679 -0.2679  0.9040 -0.0499
  346MPD2    H5 5194   1.981   4.214  14.596 -0.2410  2.8137  0.8962
  346MPD2    N1 5195   1.607   4.040  14.350 -0.1227 -0.3977  0.8009
  346MPD2    H7 5196   1.633   4.122  14.296 -2.2237  0.2396  0.7820
  347TMC3    C1 5197   2.139   4.214  14.793  0.4023 -0.3561  0.2767
  347TMC3    C2 5198   2.188   4.275  14.673 -0.5401 -0.6603 -0.4184
  347TMC3    C3 5199   2.326   4.307  14.685 -0.4855 -0.1125  0.5166
  347TMC3    C4 5200   2.212   4.204  14.910  0.1067  0.4203  0.0129
  347TMC3    C5 5201   2.345   4.237  14.906 -0.1078  0.3773 -0.7275
  347TMC3    C6 5202   2.400   4.282  14.796 -0.2560 -0.0571 -0.1073
  347TMC3     C 5203   2.003   4.169  14.798  0.0117 -0.0689  0.7387
  347TMC3     O 5204   1.983   4.110  14.903 -0.0314  0.0613 -0.1512
  347TMC3     H 5205   2.141   4.281  14.575 -0.6722 -0.1667 -0.3253
  347TMC3    H1 5206   2.163   4.183  15.005  2.9207 -1.3550  1.0589
  347TMC3    H2 5207   2.505   4.308  14.793  0.0337 -1.4803 -2.1043
  347TMC3    C7 5208   2.428   4.219  15.025  0.1002 -0.1239  0.2250
  347TMC3    C8 5209   2.401   4.301  14.565 -0.2156 -0.0961 -0.7839
  347TMC3    O1 5210   2.519   4.296  15.028 -0.2057  0.4278  0.2896
  347TMC3    O2 5211   2.514   4.258  14.572 -0.2840  0.7008 -0.1464
  348MPD2     C 5212   0.335   3.258  12.368 -0.1554  0.5392 -0.1752
  348MPD2    C1 5213   0.417   3.298  12.265  0.4018 -0.4813 -0.0367
  348MPD2    C2 5214   0.362   3.350  12.151 -0.1010  0.3044  0.0627
  348MPD2    C3 5215   0.229   3.344  12.129 -0.7671  0.5056  0.3535
  348MPD2    C4 5216   0.150   3.291  12.228  0.6770 -0.6710  0.1556
  348MPD2    C5 5217   0.204   3.244  12.348 -0.2141  0.1372 -0.6551
  348MPD2     H 5218   0.424   3.381  12.068  0.1192  0.1404  0.1659
  348MPD2    H1 5219   0.047   3.265  12.207  0.2025  0.5474  0.9704
  348MPD2    H2 5220   0.382   3.206  12.451  3.0103  1.1730 -1.5373
  348MPD2    H3 5221   0.139   3.195  12.419 -1.1526 -1.4894 -2.6137
  348MPD2     N 5222   0.183   3.387  12.002  0.0688  0.2389  0.3255
  348MPD2    H5 5223   0.251   3.415  11.933  0.7589 -0.1156  0.8652
  348MPD2    N1 5224   0.561   3.297  12.267 -0.1523  0.0076  0.3437
  348MPD2    H7 5225   0.601   3.326  12.178 -0.2787  0.9599  0.5985
  349TMC3    C1 5226   0.764   3.185  12.320  0.0901 -0.4203 -1.0933
  349TMC3    C2 5227   0.812   3.083  12.393  0.1063 -0.2238  0.4708
  349TMC3    C3 5228   0.912   3.002  12.342 -0.4295  1.0797  0.4748
  349TMC3    C4 5229   0.823   3.213  12.201  0.3674  0.2430  0.3873
  349TMC3    C5 5230   0.922   3.140  12.151 -0.3372  0.8504 -0.4093
  349TMC3    C6 5231   0.963   3.026  12.216  0.0763  0.3435  0.2176
  349TMC3     C 5232   0.641   3.246  12.369  0.3705  0.4574 -0.4627
  349TMC3     O 5233   0.610   3.220  12.487 -0.3647 -1.0386 -0.1653
  349TMC3     H 5234   0.772   3.050  12.489 -2.9395  0.7927 -0.4351
  349TMC3    H1 5235   0.797   3.301  12.143 -0.2637  2.1432  3.5881
  349TMC3    H2 5236   1.030   2.958  12.164  0.8295  1.1270  0.1781
  349TMC3    C7 5237   0.912   3.122  12.016  0.2606 -0.7882 -0.6443
  349TMC3    C8 5238   0.929   2.869  12.401 -0.1631 -0.4088 -0.3572
  349TMC3    O1 5239   0.870   3.016  11.972  0.1124 -0.1215 -0.4378
  349TMC3    O2 5240   0.861   2.848  12.500  1.0482  0.0281  0.5236
  350MPD2     C 5241   4.515   0.556   9.516  0.4809 -0.6309 -0.1384
  350MPD2    C1 5242   4.407   0.601   9.589 -0.3129  0.6326  0.7878
  350MPD2    C2 5243   4.405   0.722   9.658 -0.0823  0.7204 -0.3151
  350MPD2    C3 5244   4.520   0.808   9.649  0.4009  0.4857  0.4441
  350MPD2    C4 5245   4.618   0.774   9.563 -0.3287 -0.4633 -0.1210
  350MPD2    C5 5246   4.620   0.650   9.498  0.0210  0.2799  0.2491
  350MPD2     H 5247   4.324   0.746   9.726 -0.8230  0.4095 -1.0886
  350MPD2    H1 5248   4.705   0.837   9.548 -1.0091  0.7562  0.9796
  350MPD2    H2 5249   4.516   0.462   9.461  1.0275 -1.0594  0.5915
  350MPD2    H3 5250   4.697   0.625   9.427 -0.6855 -1.0767 -0.0406
  350MPD2     N 5251   4.523   0.912   9.736 -0.1467  0.6009  0.0781
  350MPD2    H5 5252   4.442   0.930   9.795  0.3656  0.6788  0.7618
  350MPD2    N1 5253   4.290   0.529   9.607 -0.0059  0.1647  0.7590
  350MPD2    H7 5254   4.210   0.566   9.658 -0.7619 -2.0861  1.2237
  351TMC3    C1 5255   4.138   0.349   9.587  0.3116  0.0977  0.2375
  351TMC3    C2 5256   4.161   0.221   9.630  0.5260  0.4189 -0.4326
  351TMC3    C3 5257   4.082   0.115   9.589  0.0595 -0.8510  0.0139
  351TMC3    C4 5258   4.027   0.374   9.512  0.0077  0.3395 -0.4383
  351TMC3    C5 5259   3.934   0.265   9.499 -0.4644 -1.3323  0.6023
  351TMC3    C6 5260   3.958   0.138   9.534 -0.0106  0.1172 -0.1652
  351TMC3     C 5261   4.265   0.409   9.545  0.2200  0.9588 -0.4921
  351TMC3     O 5262   4.336   0.328   9.487  0.1886  0.0281 -0.3596
  351TMC3     H 5263   4.241   0.208   9.703 -0.7269 -0.6637  0.7395
  351TMC3    H1 5264   4.012   0.470   9.465  2.4873  0.9419  0.0385
  351TMC3    H2 5265   3.885   0.062   9.512  0.0467  0.4026 -1.3691
  351TMC3    C7 5266   3.837   0.278   9.392 -0.4027  0.3704 -0.2412
  351TMC3    C8 5267   4.108   4.708   9.634  0.3655  1.1544  0.2173
  351TMC3    O1 5268   3.762   0.184   9.358  0.2067 -0.1150  0.3324
  351TMC3    O2 5269   4.015   4.633   9.617 -0.0026  0.2450  0.2485
  352MPD2     C 5270   2.639   3.106   1.358  0.2325  0.5611 -0.0958
  352MPD2    C1 5271   2.553   3.047   1.270  0.0111 -0.6352 -0.7922
  352MPD2    C2 5272   2.518   2.914   1.290  0.3488  0.4012 -0.5865
  352MPD2    C3 5273   2.566   2.845   1.404  0.2676 -0.4987  0.1460
  352MPD2    C4 5274   2.649   2.906   1.492  0.6255 -0.5550 -0.2397
  352MPD2    C5 5275   2.686   3.036   1.468 -0.0357 -0.2684  0.1030
  352MPD2     H 5276   2.462   2.851   1.222 -1.4724  1.4795 -0.0876
  352MPD2    H1 5277   2.697   2.845   1.567 -1.0618 -0.9437  0.5179
  352MPD2    H2 5278   2.677   3.207   1.343  0.2304  0.6464  0.4520
  352MPD2    H3 5279   2.757   3.076   1.539 -0.8317  2.8159 -0.8176
  352MPD2     N 5280   2.546   2.703   1.428 -0.5222 -0.3493  0.7277
  352MPD2    H5 5281   2.612   2.656   1.489 -1.5584 -1.1065  1.2548
  352MPD2    N1 5282   2.512   3.126   1.158 -0.2423 -0.3187 -0.1547
  352MPD2    H7 5283   2.567   3.209   1.136  1.0746 -1.5605 -1.5038
  353TMC3    C1 5284   2.445   2.491   1.381  0.7521  0.1100  0.0909
  353TMC3    C2 5285   2.556   2.427   1.435  0.1709 -0.1726  0.0469
  353TMC3    C3 5286   2.609   2.316   1.367  0.1622  0.2131  0.2736
  353TMC3    C4 5287   2.367   2.426   1.290  0.3675 -0.7062  0.5022
  353TMC3    C5 5288   2.421   2.320   1.224 -0.2123 -0.1996 -0.5734
  353TMC3    C6 5289   2.546   2.265   1.256 -0.3084  0.0045  0.0750
  353TMC3     C 5290   2.429   2.633   1.383 -0.8392 -0.5129 -0.9002
  353TMC3     O 5291   2.334   2.681   1.325  0.3521  0.1067 -0.2915
  353TMC3     H 5292   2.608   2.459   1.525  1.0456 -0.4532 -0.3622
  353TMC3    H1 5293   2.283   2.477   1.244 -0.2585 -1.6055  0.6401
  353TMC3    H2 5294   2.582   2.186   1.191 -0.7719 -0.8890  0.8936
  353TMC3    C7 5295   2.383   2.304   1.086 -1.0029 -0.2113 -0.5693
  353TMC3    C8 5296   2.742   2.262   1.413 -0.1932 -0.4622  0.2705
  353TMC3    O1 5297   2.473   2.292   1.001  0.2834 -0.6122  0.1823
  353TMC3    O2 5298   2.805   2.319   1.500  0.2659  0.1681 -0.4761
  354TMC3    C1 5299   4.233   4.711  12.851  0.3777 -0.8479  0.1273
  354TMC3    C2 5300   4.180   0.108  12.800  0.0744  0.0389  0.0970
  354TMC3    C3 5301   4.158   0.121  12.666 -0.0343  0.3939  0.4546
  354TMC3    C4 5302   4.252   4.600  12.775  0.3448 -0.2964  0.0959
  354TMC3    C5 5303   4.212   4.614  12.650 -0.1532  0.6162  0.6906
  354TMC3    C6 5304   4.176   0.009  12.593  0.4454  0.1170 -0.0782
  354TMC3     C 5305   4.224   4.689  12.993 -0.0726  0.5104  0.7601
  354TMC3     O 5306   4.216   4.571  13.021 -0.1822  0.2201 -0.3545
  354TMC3     H 5307   4.158   0.188  12.870  1.8019 -0.3573  1.0837
  354TMC3    H1 5308   4.258   4.503  12.824  1.9253  0.4477  1.3426
  354TMC3    H2 5309   4.150   0.003  12.488  2.4004  0.6916 -0.5859
  354TMC3    C7 5310   4.257   4.520  12.555 -0.7952  0.2474 -0.3173
  354TMC3    C8 5311   4.153   0.243  12.598  0.6816 -0.0281  0.0712
  354TMC3    O1 5312   4.184   4.492  12.461 -0.4469  0.0924 -0.3193
  354TMC3    O2 5313   4.159   0.220  12.474 -0.4848  0.0200 -0.6505
  355MPD2     C 5314   4.275   0.513  11.119 -0.2740  0.0613 -0.4084
  355MPD2    C1 5315   4.397   0.556  11.059 -0.0805 -0.4678 -0.1817
  355MPD2    C2 5316   4.511   0.550  11.137  0.7826 -0.1155  0.3958
  355MPD2    C3 5317   4.514   0.521  11.271  0.0476 -0.5934 -0.2727
  355MPD2    C4 5318   4.396   0.471  11.325  0.3562 -0.1858 -1.1320
  355MPD2    C5 5319   4.279   0.459  11.249  0.3775  0.0536 -0.1682
  355MPD2     H 5320   4.605   0.577  11.089  1.3070 -0.2097  1.3766
  355MPD2    H1 5321   4.394   0.435  11.428  1.3538  0.9270 -0.7220
  355MPD2    H2 5322   4.179   0.516  11.068 -0.0488 -0.4697 -0.8613
  355MPD2    H3 5323   4.186   0.437  11.299 -1.7492  1.9175 -3.2669
  355MPD2     N 5324   4.624   0.541  11.353  0.2128  0.0542 -0.1052
  355MPD2    H5 5325   4.603   0.544  11.452 -0.4475 -0.2929 -0.2295
  355MPD2    N1 5326   4.396   0.590  10.924  1.0653 -0.1721  0.4814
  355MPD2    H7 5327   4.307   0.570  10.879  0.9000  1.3206  0.1599
  356TMC3    C1 5328   0.120   0.644  11.397  0.1989  0.4836  0.4276
  356TMC3    C2 5329   0.234   0.678  11.336  0.7913  0.0283  1.0200
  356TMC3    C3 5330   0.312   0.776  11.384  0.1552 -0.1791 -0.0418
  356TMC3    C4 5331   0.091   0.712  11.510  0.0321  0.3122 -0.1103
  356TMC3    C5 5332   0.177   0.798  11.572  0.3510  0.1161 -0.2063
  356TMC3    C6 5333   0.292   0.836  11.506  0.3080 -0.6785 -0.0593
  356TMC3     C 5334   0.024   0.587  11.302  0.9167  0.0579 -0.4107
  356TMC3     O 5335   0.064   0.569  11.187  1.1815  0.3032 -0.2476
  356TMC3     H 5336   0.263   0.632  11.243 -1.2932 -0.6198  0.6909
  356TMC3    H1 5337   4.720   0.688  11.558 -0.2654  0.0897 -0.8027
  356TMC3    H2 5338   0.373   0.886  11.557 -0.9350  0.5651  0.7198
  356TMC3    C7 5339   0.163   0.851  11.712 -0.3208  0.5321  0.0095
  356TMC3    C8 5340   0.435   0.815  11.307 -0.1918 -0.5764 -0.2777
  356TMC3    O1 5341   0.080   0.794  11.783  0.3659  0.7491  0.0953
  356TMC3    O2 5342   0.458   0.745  11.207 -0.6558 -0.4896 -0.0282
  357MPD2     C 5343   4.420   1.067   0.955 -0.4044 -0.7900 -1.0256
  357MPD2    C1 5344   4.374   0.964   1.041  0.1685  0.0611  1.0717
  357MPD2    C2 5345   4.256   0.978   1.118 -0.0097 -0.9787 -0.1952
  357MPD2    C3 5346   4.182   1.090   1.115 -0.0079  0.6159  0.2866
  357MPD2    C4 5347   4.229   1.195   1.043  0.0204  0.1122 -0.5438
  357MPD2    C5 5348   4.339   1.176   0.957 -0.8579  0.2396  0.0101
  357MPD2     H 5349   4.217   0.893   1.174  2.5216 -1.1511  1.3340
  357MPD2    H1 5350   4.177   1.291   1.041  1.0059  0.7008  1.5259
  357MPD2    H2 5351   4.496   1.062   0.878 -0.4603 -0.1036 -1.1298
  357MPD2    H3 5352   4.369   1.254   0.888  0.0679  0.4759  0.6709
  357MPD2     N 5353   4.079   1.114   1.202  0.0962  0.7677  0.4078
  357MPD2    H5 5354   4.045   1.210   1.203 -0.0942  0.7038 -2.5222
  357MPD2    N1 5355   4.450   0.843   1.037  0.1220  0.0922 -0.6274
  357MPD2    H7 5356   4.529   0.830   0.975 -0.8627 -1.0519 -1.6637
  358TMC3    C1 5357   4.517   0.622   1.120  0.2700 -0.3888  0.3804
  358TMC3    C2 5358   4.515   0.538   1.010 -0.1117 -0.1563  0.0959
  358TMC3    C3 5359   4.527   0.404   1.037  0.3663  0.4984  0.0443
  358TMC3    C4 5360   4.543   0.578   1.244  0.2391 -0.4995 -0.2201
  358TMC3    C5 5361   4.554   0.442   1.267  0.1613  0.3705 -0.3929
  358TMC3    C6 5362   4.536   0.352   1.161  0.3139 -0.2246 -0.8354
  358TMC3     C 5363   4.425   0.740   1.139  0.8115 -0.3523  0.1353
  358TMC3     O 5364   4.370   0.758   1.246  0.4989 -0.5053  0.1749
  358TMC3     H 5365   4.480   0.579   0.916 -1.0212  0.1131  0.5465
  358TMC3    H1 5366   4.564   0.645   1.326  4.4901 -0.9529 -0.9270
  358TMC3    H2 5367   4.560   0.247   1.178  1.4110  0.3564  1.1363
  358TMC3    C7 5368   4.567   0.385   1.405 -0.4971 -0.5432  0.3033
  358TMC3    C8 5369   4.471   0.322   0.937  0.2164  0.8844 -0.4931
  358TMC3    O1 5370   4.561   0.260   1.420  0.3158 -0.7987  0.5387
  358TMC3    O2 5371   4.448   0.364   0.824 -0.4426 -0.4202  0.2979
  359MPD2     C 5372   0.309   3.736  12.115 -0.4621 -0.0305  0.0660
  359MPD2    C1 5373   0.202   3.746  12.029  0.5479  0.1195  0.1645
  359MPD2    C2 5374   0.081   3.696  12.077 -0.2834 -0.6555  0.1190
  359MPD2    C3 5375   0.057   3.652  12.203  0.4186  0.3555  0.5115
  359MPD2    C4 5376   0.157   3.671  12.292 -0.1128  0.6140  0.3363
  359MPD2    C5 5377   0.283   3.706  12.247 -0.8035  0.3335 -0.1441
  359MPD2     H 5378   4.721   3.689  12.008  1.3323 -1.3681 -1.7599
  359MPD2    H1 5379   0.144   3.635  12.393  2.8292  2.2766  1.3034
  359MPD2    H2 5380   0.411   3.765  12.095 -0.8763  2.3688  1.5236
  359MPD2    H3 5381   0.359   3.697  12.324 -0.3602  0.6144 -0.5452
  359MPD2     N 5382   4.653   3.596  12.233 -0.6876 -0.0639  0.0527
  359MPD2    H5 5383   4.587   3.584  12.156 -0.4375 -0.7405 -0.0567
  359MPD2    N1 5384   0.215   3.810  11.905 -0.2337 -0.4241  0.6782
  359MPD2    H7 5385   0.132   3.801  11.846  0.5486 -2.2005 -0.1613
  360TMC3    C1 5386   0.283   3.962  11.745 -0.2399  0.2560  0.1167
  360TMC3    C2 5387   0.372   4.055  11.691  0.3956 -0.4920 -0.4388
  360TMC3    C3 5388   0.333   4.113  11.581  0.7283 -0.5028  0.2843
  360TMC3    C4 5389   0.173   3.919  11.676 -0.1941 -0.0433 -0.5071
  360TMC3    C5 5390   0.148   3.977  11.553  0.3713  0.1807 -1.2485
  360TMC3    C6 5391   0.232   4.068  11.498 -0.4124 -0.1024 -0.5735
  360TMC3     C 5392   0.312   3.900  11.870 -0.6233  0.3045 -0.0117
  360TMC3     O 5393   0.404   3.945  11.935  0.2899  0.3579 -0.1404
  360TMC3     H 5394   0.433   4.113  11.759  0.6714 -1.0396 -0.2191
  360TMC3    H1 5395   0.107   3.836  11.698 -1.0645  0.8799  0.3478
  360TMC3    H2 5396   0.213   4.108  11.399  0.0077  0.2123 -0.5260
  360TMC3    C7 5397   0.076   3.902  11.460 -0.5431  0.3182 -0.3251
  360TMC3    C8 5398   0.426   4.201  11.509 -0.2067  0.3625  1.4806
  360TMC3    O1 5399   0.136   3.905  11.351 -0.2060 -0.0829  0.0094
  360TMC3    O2 5400   0.371   4.284  11.442  0.6185  0.7025 -0.4334
  361MPD2     C 5401   1.359   2.830  16.642  0.4630  0.2627  0.4162
  361MPD2    C1 5402   1.360   2.862  16.776 -0.7195  0.1830 -0.0069
  361MPD2    C2 5403   1.448   2.804  16.866 -0.2285  0.2165  0.1388
  361MPD2    C3 5404   1.541   2.720  16.807 -0.1393 -0.0442 -0.0876
  361MPD2    C4 5405   1.522   2.668  16.684 -0.0968 -0.1112 -0.0578
  361MPD2    C5 5406   1.434   2.724  16.595 -0.2646 -0.6538 -0.0614
  361MPD2     H 5407   1.464   2.831  16.970  0.1644 -0.8652  0.3608
  361MPD2    H1 5408   1.585   2.582  16.665 -0.3618 -0.3831  0.2915
  361MPD2    H2 5409   1.293   2.877  16.569  1.8168 -1.4716 -1.8986
  361MPD2    H3 5410   1.423   2.678  16.498  0.1637 -0.2160 -0.3163
  361MPD2     N 5411   1.648   2.660  16.875 -0.1830 -0.5324  0.4094
  361MPD2    H5 5412   1.693   2.583  16.828  0.5734 -0.8180  1.6234
  361MPD2    N1 5413   1.256   2.948  16.819 -0.3062  0.2546  0.3332
  361MPD2    H7 5414   1.188   2.986  16.754 -1.2266 -2.7780 -0.4786
  362TMC3    C1 5415   1.134   3.095  16.964  0.1606  0.9234  0.2968
  362TMC3    C2 5416   1.035   3.098  17.057  0.3046 -0.0222  0.5390
  362TMC3    C3 5417   0.944   3.199  17.057 -0.2879 -0.2781 -0.0347
  362TMC3    C4 5418   1.139   3.191  16.866  0.3182 -0.7345 -0.3789
  362TMC3    C5 5419   1.032   3.276  16.855 -0.8197  0.2659  0.0570
  362TMC3    C6 5420   0.938   3.286  16.951  0.2806  0.5047 -0.2334
  362TMC3     C 5421   1.231   2.986  16.952 -0.1264  0.0106  0.8401
  362TMC3     O 5422   1.267   2.931  17.058  0.7263 -0.7180  0.1462
  362TMC3     H 5423   1.025   3.013  17.124 -1.0884 -0.1436  0.1785
  362TMC3    H1 5424   1.218   3.196  16.792 -0.8677 -1.6503 -1.7003
  362TMC3    H2 5425   0.855   3.355  16.946  0.8954  1.2822  0.2935
  362TMC3    C7 5426   1.021   3.359  16.738  0.9348 -0.7277  0.2808
  362TMC3    C8 5427   0.825   3.182  17.143 -0.5129 -0.1412 -0.6206
  362TMC3    O1 5428   1.120   3.408  16.690 -0.0146 -0.3418 -0.0816
  362TMC3    O2 5429   0.791   3.072  17.177  0.5744 -0.5960  0.3838
  363TMC3    C1 5430   3.986   4.108   8.993 -0.1407  0.2613  0.6593
  363TMC3    C2 5431   4.041   4.042   9.101 -0.0704 -0.0447 -0.1481
  363TMC3    C3 5432   4.134   4.113   9.167 -0.5325 -0.3533  0.1843
  363TMC3    C4 5433   4.027   4.231   8.945 -0.5222  0.2728  0.0278
  363TMC3    C5 5434   4.133   4.289   9.010 -0.0537  0.1262 -0.6340
  363TMC3    C6 5435   4.192   4.237   9.124  0.4251 -0.4212 -0.4458
  363TMC3     C 5436   3.879   4.038   8.916  0.2786 -0.2853 -0.3641
  363TMC3     O 5437   3.796   4.108   8.865  0.5398 -0.4735 -0.0798
  363TMC3     H 5438   4.009   3.945   9.137 -2.4856  0.6426 -0.3965
  363TMC3    H1 5439   3.975   4.274   8.860  0.3050 -0.2904 -0.7696
  363TMC3    H2 5440   4.240   4.303   9.196  1.1427 -1.6806  0.2337
  363TMC3    C7 5441   4.162   4.429   8.982  0.3497 -0.2900 -0.2773
  363TMC3    C8 5442   4.159   4.077   9.305  0.0912 -0.4623  0.5083
  363TMC3    O1 5443   4.072   4.498   8.938  0.1693 -0.7300 -0.0889
  363TMC3    O2 5444   4.162   4.162   9.396  0.8760  0.4612 -0.6431
  364MPD2     C 5445   3.529   0.378  10.421 -0.2534 -0.0110 -0.2066
  364MPD2    C1 5446   3.629   0.398  10.335 -0.3097  0.2590 -0.0986
  364MPD2    C2 5447   3.732   0.307  10.331  0.5611 -0.4954 -0.5691
  364MPD2    C3 5448   3.733   0.189  10.402 -0.3371 -0.2751  0.5031
  364MPD2    C4 5449   3.624   0.165  10.486 -0.0956  0.1175  0.4504
  364MPD2    C5 5450   3.521   0.261  10.492 -0.1583  0.2608  0.4793
  364MPD2     H 5451   3.821   0.340  10.280  1.2200 -0.4801  0.5894
  364MPD2    H1 5452   3.628   0.073  10.543 -1.8311 -0.1971  0.0633
  364MPD2    H2 5453   3.451   0.452  10.435 -1.6003 -1.4487  0.0173
  364MPD2    H3 5454   3.431   0.251  10.551 -0.4585  1.2320  0.1915
  364MPD2     N 5455   3.838   0.093  10.395  0.2825 -0.4841 -0.5686
  364MPD2    H5 5456   3.838   0.014  10.459 -1.8728 -0.9533 -1.1182
  364MPD2    N1 5457   3.644   0.530  10.285  0.3128  0.5834  0.2692
  364MPD2    H7 5458   3.596   0.599  10.342 -1.3681 -2.4859  2.5381
  365TMC3    C1 5459   3.760   0.709  10.176  0.0364  0.5090  0.5785
  365TMC3    C2 5460   3.842   0.731  10.067  0.1031 -0.4554  0.3166
  365TMC3    C3 5461   3.950   0.816  10.069 -0.3393 -0.4054  0.6332
  365TMC3    C4 5462   3.801   0.772  10.292 -0.1759  0.3217  0.2721
  365TMC3    C5 5463   3.904   0.860  10.293 -0.2583 -0.3677  0.1576
  365TMC3    C6 5464   3.983   0.883  10.186  0.6853 -0.0732  0.2940
  365TMC3     C 5465   3.730   0.572  10.188  0.0964 -0.0016 -0.1368
  365TMC3     O 5466   3.790   0.499  10.112 -0.0955  0.3646  0.3953
  365TMC3     H 5467   3.819   0.677   9.976 -0.4354  0.4450 -0.0881
  365TMC3    H1 5468   3.745   0.747  10.381 -1.7273 -0.4903 -0.9244
  365TMC3    H2 5469   4.078   0.934  10.200  0.8858 -0.3600 -0.0543
  365TMC3    C7 5470   3.932   0.933  10.419  0.1837 -0.5028 -0.3575
  365TMC3    C8 5471   4.065   0.753  10.024  0.0857  0.6920  0.3222
  365TMC3    O1 5472   3.965   1.050  10.407  0.2257 -0.0692 -0.2696
  365TMC3    O2 5473   4.163   0.818   9.993 -0.7847  0.5400 -0.0111
  366MPD2     C 5474   1.708   1.242  15.695  0.7297  0.0634  0.0195
  366MPD2    C1 5475   1.731   1.311  15.580 -0.3058 -0.5605  0.0532
  366MPD2    C2 5476   1.797   1.246  15.475 -0.3983  0.2288  0.2808
  366MPD2    C3 5477   1.847   1.113  15.496 -0.4826 -0.0927 -0.1004
  366MPD2    C4 5478   1.815   1.045  15.610  0.1066 -0.5259 -0.0411
  366MPD2    C5 5479   1.748   1.108  15.709  0.1523  0.3563 -0.2958
  366MPD2     H 5480   1.815   1.304  15.386  1.3372 -1.4876 -0.4920
  366MPD2    H1 5481   1.853   0.944  15.619  0.3580 -0.4094  0.2180
  366MPD2    H2 5482   1.643   1.274  15.775 -2.0011  0.5630 -2.3885
  366MPD2    H3 5483   1.739   1.068  15.809  1.0583 -1.7230 -1.0530
  366MPD2     N 5484   1.935   1.059  15.397  0.1625  0.1650 -0.5369
  366MPD2    H5 5485   1.973   1.124  15.329  0.6242  1.2503  0.7510
  366MPD2    N1 5486   1.686   1.441  15.561 -0.3190 -0.3011  0.0444
  366MPD2    H7 5487   1.694   1.490  15.472  1.4677  1.6216  1.2669
  367TMC3    C1 5488   1.661   1.664  15.616  0.0368 -0.2747  0.2502
  367TMC3    C2 5489   1.763   1.739  15.671 -0.2877  0.6430  0.2467
  367TMC3    C3 5490   1.830   1.829  15.604  0.0461  0.3442 -0.7096
  367TMC3    C4 5491   1.614   1.688  15.491  0.5229  1.2945  0.3427
  367TMC3    C5 5492   1.681   1.789  15.422 -0.6914  0.3373 -0.8154
  367TMC3    C6 5493   1.783   1.859  15.477 -0.1130  0.2326  0.3114
  367TMC3     C 5494   1.663   1.527  15.667  0.0007 -0.1955 -0.5405
  367TMC3     O 5495   1.679   1.517  15.784  0.2217  0.0180 -0.1259
  367TMC3     H 5496   1.806   1.703  15.764 -1.9490 -0.2840  0.6419
  367TMC3    H1 5497   1.515   1.657  15.458  0.8138 -0.5171  1.1712
  367TMC3    H2 5498   1.830   1.942  15.425  0.2605 -0.8687 -1.1095
  367TMC3    C7 5499   1.589   1.862  15.339 -0.2950 -1.1903 -1.3414
  367TMC3    C8 5500   1.971   1.800  15.615  0.3851 -0.5515  0.6983
  367TMC3    O1 5501   1.591   1.983  15.357  0.0002  0.2343 -0.0541
  367TMC3    O2 5502   2.020   1.837  15.713 -0.6791  0.1177  0.2713
  368MPD2     C 5503   3.174   3.226  13.552  0.3148 -0.3315  0.5975
  368MPD2    C1 5504   3.128   3.254  13.425  0.0541 -0.0328 -0.8073
  368MPD2    C2 5505   3.226   3.300  13.333  0.0438  0.2099 -0.1077
  368MPD2    C3 5506   3.356   3.328  13.369 -0.0979 -0.2315  0.0959
  368MPD2    C4 5507   3.392   3.303  13.499  0.0779  0.1279  0.2158
  368MPD2    C5 5508   3.300   3.247  13.583  0.0981  0.6542 -0.1837
  368MPD2     H 5509   3.199   3.314  13.229  1.2128  2.0151 -0.1707
  368MPD2    H1 5510   3.491   3.326  13.535 -1.5890  0.8556  4.3712
  368MPD2    H2 5511   3.103   3.195  13.627 -1.8327  1.5736 -0.6471
  368MPD2    H3 5512   3.324   3.226  13.687  3.3716  0.8527 -0.9058
  368MPD2     N 5513   3.456   3.385  13.281 -0.0409 -0.1039  0.3082
  368MPD2    H5 5514   3.554   3.380  13.310  0.0150  0.2425  0.1823
  368MPD2    N1 5515   2.992   3.236  13.404  0.4747  0.3630  0.5301
  368MPD2    H7 5516   2.937   3.198  13.481  0.4864  0.1347  0.4256
  369TMC3    C1 5517   2.788   3.285  13.282  0.5704 -0.3792 -0.4633
  369TMC3    C2 5518   2.732   3.361  13.181 -0.3780  0.2412  0.4497
  369TMC3    C3 5519   2.599   3.387  13.197 -0.4821 -0.4006  0.5631
  369TMC3    C4 5520   2.718   3.231  13.382  0.0853 -0.7174 -0.8902
  369TMC3    C5 5521   2.582   3.260  13.384 -0.3375  0.9219  0.4528
  369TMC3    C6 5522   2.516   3.346  13.294  0.3571 -0.2323  0.3073
  369TMC3     C 5523   2.928   3.281  13.286 -0.6734  0.3432 -0.6401
  369TMC3     O 5524   2.981   3.318  13.187 -0.0498 -0.0539 -0.4713
  369TMC3     H 5525   2.791   3.415  13.107  0.1376 -1.5212 -0.4179
  369TMC3    H1 5526   2.763   3.169  13.458  3.5341  1.8088 -0.8823
  369TMC3    H2 5527   2.409   3.362  13.302  0.4624  0.6068 -0.0817
  369TMC3    C7 5528   2.521   3.228  13.506  0.2560 -0.8706  0.5671
  369TMC3    C8 5529   2.555   3.493  13.112  0.2471  0.0461  0.0359
  369TMC3    O1 5530   2.591   3.184  13.599  0.6205 -0.1869 -0.7573
  369TMC3    O2 5531   2.617   3.508  13.013  0.1495  0.2490 -0.3926
  370TMC3    C1 5532   2.994   3.973  16.299 -0.5685  0.4746 -0.9470
  370TMC3    C2 5533   2.897   3.929  16.390 -1.1229 -0.7125 -0.3314
  370TMC3    C3 5534   2.875   3.795  16.392  0.8806  0.2284  0.2252
  370TMC3    C4 5535   3.054   3.885  16.212  0.5738  0.0620  0.4972
  370TMC3    C5 5536   3.021   3.756  16.218 -0.2501 -0.0771 -0.2392
  370TMC3    C6 5537   2.929   3.707  16.302 -0.4874 -0.4201 -0.0621
  370TMC3     C 5538   3.033   4.114  16.308  0.5187 -0.0071  0.2067
  370TMC3     O 5539   3.081   4.156  16.204 -0.2335 -0.2001  0.5042
  370TMC3     H 5540   2.857   3.995  16.466  1.1759 -0.3547  0.5603
  370TMC3    H1 5541   3.136   3.918  16.148 -2.2052  0.2543 -2.9510
  370TMC3    H2 5542   2.918   3.601  16.320 -1.1670  0.2635  3.5657
  370TMC3    C7 5543   3.093   3.668  16.133 -0.3880 -0.0414 -0.0237
  370TMC3    C8 5544   2.802   3.724  16.499 -0.7587 -0.3103  0.1042
  370TMC3    O1 5545   3.206   3.695  16.089 -0.1182 -0.7661 -0.2246
  370TMC3    O2 5546   2.775   3.606  16.489 -0.1832  0.4875 -0.3638
  371TMC3    C1 5547   4.116   2.049  15.656 -1.2653  0.1096 -0.0561
  371TMC3    C2 5548   4.082   2.095  15.778 -0.6319  0.1710  0.3730
  371TMC3    C3 5549   4.064   2.224  15.807  0.4952 -0.4634 -0.6315
  371TMC3    C4 5550   4.161   2.131  15.555  0.0878 -0.3139  0.2269
  371TMC3    C5 5551   4.141   2.264  15.585 -0.1152 -0.5897  0.0409
  371TMC3    C6 5552   4.096   2.309  15.710  0.1123 -0.1231 -0.7855
  371TMC3     C 5553   4.150   1.902  15.647  0.0933  0.8404  0.0265
  371TMC3     O 5554   4.242   1.879  15.567  0.1335  0.5693  0.2537
  371TMC3     H 5555   4.079   2.027  15.862 -2.3452  1.6517  1.5291
  371TMC3    H1 5556   4.196   2.090  15.461  1.7440 -1.5444  1.3791
  371TMC3    H2 5557   4.093   2.416  15.731 -0.3525 -0.0799 -1.0700
  371TMC3    C7 5558   4.169   2.369  15.495  0.0597 -0.0418  0.6180
  371TMC3    C8 5559   4.091   2.268  15.945 -0.4374  0.0640 -0.7050
  371TMC3    O1 5560   4.191   2.481  15.543  0.1615  0.1313  0.3797
  371TMC3    O2 5561   4.155   2.193  16.016 -0.5317 -0.2179  0.2331
  372MPD2     C 5562   2.861   3.506  13.599  0.0774  0.1291 -1.2743
  372MPD2    C1 5563   2.989   3.512  13.649  0.9555 -0.3908  0.3133
  372MPD2    C2 5564   3.019   3.439  13.766  0.3488 -0.2013 -0.2200
  372MPD2    C3 5565   2.918   3.356  13.827  0.3564 -0.4947 -0.6063
  372MPD2    C4 5566   2.791   3.359  13.774  0.5677  0.3918  0.3312
  372MPD2    C5 5567   2.765   3.442  13.668 -0.0239  0.4539 -0.2868
  372MPD2     H 5568   3.121   3.433  13.801 -0.3464  1.9293  2.1586
  372MPD2    H1 5569   2.705   3.304  13.809  0.2534 -0.9935 -2.6439
  372MPD2    H2 5570   2.827   3.566  13.515  0.5899 -1.0238 -2.3155
  372MPD2    H3 5571   2.661   3.456  13.642 -0.6044 -3.6558 -0.1881
  372MPD2     N 5572   2.957   3.260  13.931  0.0413  0.1601  0.3913
  372MPD2    H5 5573   3.054   3.258  13.958  0.5060  2.9727 -1.0847
  372MPD2    N1 5574   3.094   3.571  13.578 -0.0614  0.4155 -0.0993
  372MPD2    H7 5575   3.186   3.568  13.619  1.4121 -0.4118 -3.4640
  373TMC3    C1 5576   2.963   3.068  14.051 -0.2407 -0.6173  0.3813
  373TMC3    C2 5577   3.023   3.120  14.167  0.8209 -0.1130 -0.4277
  373TMC3    C3 5578   3.132   3.057  14.216 -0.0358 -0.7084 -0.1977
  373TMC3    C4 5579   3.030   2.967  13.987  0.0865 -0.6315  0.0491
  373TMC3    C5 5580   3.155   2.924  14.029 -0.0603 -0.1004  0.2158
  373TMC3    C6 5581   3.207   2.971  14.152  0.3243  0.3067  0.4150
  373TMC3     C 5582   2.877   3.157  13.975 -0.5245  0.4193  0.7445
  373TMC3     O 5583   2.768   3.113  13.943 -0.4842 -0.0820 -0.1677
  373TMC3     H 5584   2.987   3.206  14.223  2.7038 -0.8193  1.8659
  373TMC3    H1 5585   2.988   2.930  13.894 -2.1111  0.2418  0.6905
  373TMC3    H2 5586   3.302   2.932  14.188  0.1234 -1.2306 -0.7166
  373TMC3    C7 5587   3.235   2.859  13.929 -0.2150  0.1959 -0.4387
  373TMC3    C8 5588   3.213   3.149  14.298 -0.0550 -0.0171  0.3768
  373TMC3    O1 5589   3.179   2.820  13.825  0.1378  0.5365 -0.1477
  373TMC3    O2 5590   3.322   3.181  14.253  0.1098  0.1078 -0.4180
  374TMC3    C1 5591   4.407   2.306  10.242  0.5170  0.3046  0.2296
  374TMC3    C2 5592   4.392   2.425  10.302  0.1409  0.3638  0.3210
  374TMC3    C3 5593   4.262   2.475  10.305 -0.4000 -0.6822  0.6911
  374TMC3    C4 5594   4.301   2.232  10.199 -0.7659 -0.1800 -0.0051
  374TMC3    C5 5595   4.174   2.289  10.198  0.3673  0.4191 -0.5872
  374TMC3    C6 5596   4.154   2.415  10.246 -0.5493  0.4693  0.4413
  374TMC3     C 5597   4.536   2.243  10.256 -0.6971  0.4481 -0.2899
  374TMC3     O 5598   4.582   2.189  10.160  0.2165 -0.0102  0.6079
  374TMC3     H 5599   4.473   2.476  10.354  0.5709 -0.1053  0.1120
  374TMC3    H1 5600   4.326   2.130  10.175  0.1169 -0.4145  1.8923
  374TMC3    H2 5601   4.055   2.460  10.251 -0.7273  0.1175  0.1087
  374TMC3    C7 5602   4.072   2.215  10.128  0.5001  0.4157 -0.6608
  374TMC3    C8 5603   4.254   2.613  10.337 -0.6439  0.3343 -0.0359
  374TMC3    O1 5604   3.958   2.262  10.144 -0.0311 -0.7021  0.2972
  374TMC3    O2 5605   4.336   2.650  10.418  0.0354 -0.2391  0.1481
  375MPD2     C 5606   4.330   4.474  17.249 -0.1619 -0.1949  0.0979
  375MPD2    C1 5607   4.230   4.466  17.159  0.0101 -0.0635 -0.0599
  375MPD2    C2 5608   4.251   4.411  17.036 -0.7602  0.1148 -0.2248
  375MPD2    C3 5609   4.375   4.363  17.000  0.0253 -0.5358 -0.8886
  375MPD2    C4 5610   4.473   4.362  17.097  0.0489  0.4667 -0.2933
  375MPD2    C5 5611   4.454   4.426  17.220 -0.4215  0.6668 -0.3378
  375MPD2     H 5612   4.164   4.400  16.971  0.9794  1.6127 -2.8313
  375MPD2    H1 5613   4.568   4.314  17.073  0.0618  0.6329 -0.5714
  375MPD2    H2 5614   4.321   4.519  17.348  2.8770  0.8359 -0.0718
  375MPD2    H3 5615   4.530   4.424  17.298 -1.1122 -1.9679  0.2883
  375MPD2     N 5616   4.408   4.307  16.879 -0.1926  0.2721 -0.0319
  375MPD2    H5 5617   4.504   4.278  16.864  0.4783  2.9580 -1.0532
  375MPD2    N1 5618   4.102   4.512  17.193 -0.2785 -0.0432  0.7456
  375MPD2    H7 5619   4.026   4.497  17.128  0.1002 -0.4950  0.4046
  376TMC3    C1 5620   4.395   4.256  16.655 -0.1839 -0.3757 -0.0544
  376TMC3    C2 5621   4.533   4.232  16.658 -0.0621 -0.3546 -0.3272
  376TMC3    C3 5622   4.587   4.173  16.540 -0.3067  0.0333 -0.0589
  376TMC3    C4 5623   4.319   4.245  16.543  0.3919 -0.2416 -0.0380
  376TMC3    C5 5624   4.379   4.183  16.434 -0.1425 -0.5081  0.5665
  376TMC3    C6 5625   4.510   4.147  16.433 -0.4373  0.0506 -0.3255
  376TMC3     C 5626   4.319   4.281  16.772 -0.4713 -0.2602 -0.0162
  376TMC3     O 5627   4.197   4.282  16.766  0.5950 -0.2729  0.0968
  376TMC3     H 5628   4.598   4.239  16.744  0.0115  0.4124 -0.4522
  376TMC3    H1 5629   4.216   4.278  16.534  0.5264 -0.7550 -3.4644
  376TMC3    H2 5630   4.560   4.128  16.339 -2.0507 -1.2364 -0.9382
  376TMC3    C7 5631   4.315   4.199  16.310 -0.2228  0.4996 -0.8187
  376TMC3    C8 5632   0.008   4.171  16.527 -0.2281  0.0464  0.6569
  376TMC3    O1 5633   4.212   4.258  16.300  0.1645  1.0154  0.2527
  376TMC3    O2 5634   0.065   4.189  16.419 -0.3165 -0.1299  0.6273
  377MPD2     C 5635   1.920   3.878  11.971  0.0597 -0.2217 -1.1041
  377MPD2    C1 5636   2.009   3.809  12.046 -0.3588 -0.1451 -0.0853
  377MPD2    C2 5637   1.970   3.776  12.174  0.1345 -1.3976  0.3918
  377MPD2    C3 5638   1.846   3.796  12.221 -0.2153  0.4828  0.5028
  377MPD2    C4 5639   1.754   3.869  12.145  0.4934 -0.1355 -0.3195
  377MPD2    C5 5640   1.799   3.910  12.022  0.4661 -0.0301 -0.0212
  377MPD2     H 5641   2.033   3.718  12.240 -0.0139 -0.3429  1.4387
  377MPD2    H1 5642   1.650   3.887  12.168  0.8873  1.0099  0.5661
  377MPD2    H2 5643   1.942   3.906  11.869  1.0706 -2.4284 -1.4783
  377MPD2    H3 5644   1.718   3.945  11.959  1.9240 -0.7768 -2.2720
  377MPD2     N 5645   1.809   3.763  12.352  0.2240 -0.0566  0.9362
  377MPD2    H5 5646   1.712   3.782  12.374 -0.2304 -0.9124 -0.3194
  377MPD2    N1 5647   2.121   3.746  11.978  0.2116  0.1446  0.0709
  377MPD2    H7 5648   2.138   3.766  11.880  0.4020  0.0044  0.0756
  378TMC3    C1 5649   2.364   3.549  11.734  0.0126 -0.0594  0.0444
  378TMC3    C2 5650   2.271   3.576  11.833  0.2578  0.6400  0.1213
  378TMC3    C3 5651   2.320   3.619  11.955 -0.4765  0.1107 -0.5870
  378TMC3    C4 5652   2.501   3.561  11.759  0.5080  0.0348 -0.8888
  378TMC3    C5 5653   2.540   3.604  11.882  0.0998 -0.8064  0.1917
  378TMC3    C6 5654   2.456   3.636  11.985  0.3998  0.4637 -0.0484
  378TMC3     C 5655   2.316   3.469  11.626 -0.1746  0.2590 -0.7272
  378TMC3     O 5656   2.193   3.465  11.619  0.2316 -0.0188  0.1195
  378TMC3     H 5657   2.169   3.545  11.815  1.0137 -1.2017 -1.0730
  378TMC3    H1 5658   2.572   3.567  11.677  0.4757 -3.8409 -1.1641
  378TMC3    H2 5659   2.494   3.663  12.083  0.1452  1.5681 -0.2510
  378TMC3    C7 5660   2.675   3.641  11.912 -0.0532  0.5999 -0.3551
  378TMC3    C8 5661   2.222   3.677  12.045  0.1521  0.7864  0.2934
  378TMC3    O1 5662   2.696   3.702  12.016  0.2834 -0.5360  0.0075
  378TMC3    O2 5663   2.243   3.673  12.164  0.2029 -0.2578  0.1636
  379MPD2     C 5664   2.886   1.082  16.087 -0.9969  0.5154 -1.0252
  379MPD2    C1 5665   2.922   1.208  16.135 -0.3205 -0.5570  0.2441
  379MPD2    C2 5666   2.995   1.215  16.257  0.4991 -0.1066 -0.2107
  379MPD2    C3 5667   3.049   1.096  16.305  0.1388  0.3490 -0.0596
  379MPD2    C4 5668   3.021   0.973  16.244  0.5989  0.3276 -0.2757
  379MPD2    C5 5669   2.931   0.966  16.144  0.1354 -0.3779 -0.3205
  379MPD2     H 5670   3.014   1.310  16.307  1.6700 -1.5698  2.1575
  379MPD2    H1 5671   3.059   0.882  16.288  0.4088  0.5570  0.3749
  379MPD2    H2 5672   2.823   1.074  15.999 -0.1180  1.3430 -1.7204
  379MPD2    H3 5673   2.895   0.869  16.111  0.4797 -1.1607  1.6181
  379MPD2     N 5674   3.129   1.079  16.416  0.0175  0.4594  0.9780
  379MPD2    H5 5675   3.157   0.983  16.435 -1.4353 -0.5668 -1.9498
  379MPD2    N1 5676   2.867   1.322  16.066 -0.7832 -0.1859 -0.0784
  379MPD2    H7 5677   2.813   1.297  15.984 -2.1568 -0.9595  1.0767
  380TMC3    C1 5678   2.808   1.546  16.028 -0.0970  0.2362 -0.6553
  380TMC3    C2 5679   2.868   1.665  15.994 -0.6989 -0.4211 -0.2314
  380TMC3    C3 5680   2.806   1.743  15.898 -0.3037  0.2260  0.1424
  380TMC3    C4 5681   2.699   1.498  15.961  0.6952 -0.4128  0.3561
  380TMC3    C5 5682   2.643   1.575  15.860  0.2084  0.4851  0.2088
  380TMC3    C6 5683   2.692   1.694  15.833 -0.4661 -0.0212  0.5779
  380TMC3     C 5684   2.895   1.451  16.095 -0.3044 -0.5044  0.3054
  380TMC3     O 5685   2.995   1.501  16.153 -0.3470 -0.2213 -0.0871
  380TMC3     H 5686   2.952   1.695  16.056 -0.7056 -1.0451  0.0731
  380TMC3    H1 5687   2.643   1.412  15.997 -1.7955  1.0360 -0.0776
  380TMC3    H2 5688   2.641   1.748  15.754  3.7368  3.5909  0.2822
  380TMC3    C7 5689   2.534   1.513  15.789 -0.5530  0.1237  0.3240
  380TMC3    C8 5690   2.888   1.829  15.824  0.0120  0.4825 -0.4736
  380TMC3    O1 5691   2.523   1.390  15.818 -0.3400  1.3082  0.4488
  380TMC3    O2 5692   2.838   1.869  15.722 -0.2761  0.3418  0.2102
  381TMC3    C1 5693   2.779   3.063  16.296  0.2588  0.5555 -0.8863
  381TMC3    C2 5694   2.901   3.111  16.344  0.4912 -0.1565  0.0757
  381TMC3    C3 5695   2.906   3.213  16.427 -0.2664  0.0487  1.0749
  381TMC3    C4 5696   2.662   3.125  16.331  0.6167 -0.2751 -0.0816
  381TMC3    C5 5697   2.676   3.239  16.400  0.1709  0.6352 -0.0589
  381TMC3    C6 5698   2.794   3.283  16.452  0.1898 -0.2496  0.0675
  381TMC3     C 5699   2.775   2.986  16.167 -0.1215 -0.0372  0.5450
  381TMC3     O 5700   2.663   2.970  16.124 -0.0609  0.2342 -0.4786
  381TMC3     H 5701   2.989   3.058  16.310  1.7099  1.7882  0.2324
  381TMC3    H1 5702   2.568   3.103  16.282 -0.2157  1.1308  0.8759
  381TMC3    H2 5703   2.797   3.378  16.505  5.0746 -0.4882  0.2588
  381TMC3    C7 5704   2.555   3.320  16.399  0.3622 -0.0571 -0.5402
  381TMC3    C8 5705   3.036   3.263  16.452 -0.1193  0.9729  0.6943
  381TMC3    O1 5706   2.494   3.328  16.292 -0.0815 -0.2028 -0.2288
  381TMC3    O2 5707   3.133   3.206  16.401  0.1750 -0.1695 -0.1608
  382MPD2     C 5708   2.243   0.675  17.369 -0.1086 -0.4537 -0.4246
  382MPD2    C1 5709   2.112   0.700  17.380 -0.3734 -0.2311  0.0292
  382MPD2    C2 5710   2.028   0.593  17.407  0.0981  0.2034 -0.6273
  382MPD2    C3 5711   2.071   0.461  17.410  0.3593  0.6644  0.4323
  382MPD2    C4 5712   2.207   0.438  17.390 -0.1281 -0.2085 -0.4828
  382MPD2    C5 5713   2.289   0.543  17.376 -0.3236 -0.3667 -0.7902
  382MPD2     H 5714   1.923   0.617  17.409 -0.3319 -1.8533  1.9085
  382MPD2    H1 5715   2.253   0.342  17.411  1.0323  0.5956  0.6632
  382MPD2    H2 5716   2.309   0.755  17.338 -1.1434  0.3259 -0.6499
  382MPD2    H3 5717   2.396   0.527  17.368 -0.1836  0.6095 -0.8853
  382MPD2     N 5718   1.993   0.342  17.421 -0.3742  0.3338  0.1520
  382MPD2    H5 5719   2.044   0.254  17.418 -0.9442  0.0015  0.1845
  382MPD2    N1 5720   2.051   0.827  17.378  0.3040  0.5225 -0.3808
  382MPD2    H7 5721   1.954   0.833  17.410  0.0207 -0.3136 -1.0712
  383TMC3    C1 5722   1.825   0.195  17.422 -0.0675  0.0885  0.9789
  383TMC3    C2 5723   1.707   0.155  17.363 -0.4420  0.0568 -0.6611
  383TMC3    C3 5724   1.667   0.021  17.375 -0.0488 -0.2240 -0.4647
  383TMC3    C4 5725   1.909   0.105  17.483  0.3707  0.0393  0.1476
  383TMC3    C5 5726   1.865   4.696  17.479  0.9738  0.3659  0.9890
  383TMC3    C6 5727   1.746   4.650  17.431  0.1186 -0.5122  0.1340
  383TMC3     C 5728   1.857   0.334  17.421  0.1422  0.2631  0.4275
  383TMC3     O 5729   1.771   0.421  17.417  0.8951 -1.0310  0.5129
  383TMC3     H 5730   1.630   0.225  17.331 -0.5817  1.0842  1.9939
  383TMC3    H1 5731   2.002   0.133  17.531  0.3590 -0.9334  0.7388
  383TMC3    H2 5732   1.724   4.544  17.438  0.8043 -0.6538  0.0649
  383TMC3    C7 5733   1.951   4.592  17.536  0.2531 -0.4993  0.4236
  383TMC3    C8 5734   1.550   4.699  17.309  0.5693  0.5413 -0.5428
  383TMC3    O1 5735   1.888   4.504  17.594  0.2660 -0.3220 -0.4589
  383TMC3    O2 5736   1.460   0.053  17.286 -0.4756 -0.5483 -0.3886
  384MPD2     C 5737   3.358   1.635  12.045  0.1499 -0.1987 -0.1042
  384MPD2    C1 5738   3.306   1.563  12.148 -0.3163  0.5627 -0.5900
  384MPD2    C2 5739   3.341   1.431  12.170 -0.0617  0.5733  0.0812
  384MPD2    C3 5740   3.427   1.367  12.080  0.4500 -0.0287  0.1769
  384MPD2    C4 5741   3.465   1.430  11.965 -0.6433  0.7318  1.0936
  384MPD2    C5 5742   3.432   1.565  11.949 -0.8113  0.3605 -0.3887
  384MPD2     H 5743   3.299   1.379  12.255 -0.2786 -0.5671 -0.7254
  384MPD2    H1 5744   3.532   1.386  11.891 -0.0327  1.4893  1.1972
  384MPD2    H2 5745   3.339   1.742  12.035  0.8328 -0.0397  0.3463
  384MPD2    H3 5746   3.454   1.622  11.860  0.1345 -1.6317 -1.4296
  384MPD2     N 5747   3.463   1.228  12.093 -0.4936  0.3661 -0.5955
  384MPD2    H5 5748   3.522   1.180  12.026  1.0153 -0.0175  0.9800
  384MPD2    N1 5749   3.236   1.618  12.258  0.1454 -0.3675  0.0625
  384MPD2    H7 5750   3.218   1.551  12.331 -1.0940 -0.5627 -0.4125
  385TMC3    C1 5751   3.486   1.014  12.202 -0.1922 -0.1797 -0.0132
  385TMC3    C2 5752   3.441   0.935  12.101 -0.1994  0.2215  0.0620
  385TMC3    C3 5753   3.378   0.813  12.137  0.2298  0.6600  0.3502
  385TMC3    C4 5754   3.487   0.972  12.333 -0.1274  0.4122 -1.2744
  385TMC3    C5 5755   3.438   0.850  12.361 -0.3850  0.5024 -0.1973
  385TMC3    C6 5756   3.385   0.774  12.264 -0.1852 -0.4568 -0.0402
  385TMC3     C 5757   3.434   1.152  12.205  0.4308  0.1830 -0.1057
  385TMC3     O 5758   3.357   1.171  12.299 -0.3573 -0.0198 -0.0306
  385TMC3     H 5759   3.441   0.973  11.999  0.9494 -1.4608 -0.5726
  385TMC3    H1 5760   3.530   1.047  12.399  1.0983 -1.4276  0.0151
  385TMC3    H2 5761   3.337   0.686  12.304  0.4078 -0.9629 -0.4567
  385TMC3    C7 5762   3.349   0.844  12.480  0.2667  0.4387 -0.2288
  385TMC3    C8 5763   3.335   0.712  12.041 -0.1326  0.5206 -0.6415
  385TMC3    O1 5764   3.319   0.734  12.531  0.4434 -0.0107 -0.0288
  385TMC3    O2 5765   3.275   0.624  12.097  0.6765 -0.7542 -0.2313
  386TMC3    C1 5766   3.608   3.605  12.155 -0.1403  0.2075  0.1303
  386TMC3    C2 5767   3.632   3.592  12.016  0.4959  0.1355 -0.5709
  386TMC3    C3 5768   3.576   3.693  11.948  0.3572  0.5381 -0.2154
  386TMC3    C4 5769   3.542   3.702  12.226  0.2419  0.6201 -0.2421
  386TMC3    C5 5770   3.493   3.802  12.143 -1.5579  0.1999  0.4502
  386TMC3    C6 5771   3.507   3.794  12.007 -0.5888 -1.0839 -0.5201
  386TMC3     C 5772   3.632   3.483  12.239 -0.4598 -0.2922  0.3263
  386TMC3     O 5773   3.539   3.459  12.317 -0.1638  0.2168  0.6472
  386TMC3     H 5774   3.665   3.502  11.966 -3.5262 -1.9064  0.4432
  386TMC3    H1 5775   3.518   3.705  12.332 -0.1014  2.3286 -0.3709
  386TMC3    H2 5776   3.471   3.874  11.944  1.1665  0.4360  0.4262
  386TMC3    C7 5777   3.383   3.884  12.211 -0.2120 -0.2689 -0.0719
  386TMC3    C8 5778   3.536   3.658  11.812  0.2357 -0.4222 -0.1557
  386TMC3    O1 5779   3.347   3.846  12.324 -0.4527 -0.2667 -0.5074
  386TMC3    O2 5780   3.441   3.725  11.768 -0.1511 -0.0772 -0.1722
  387MPD2     C 5781   1.854   3.679   9.866  0.1238  0.0949 -0.8916
  387MPD2    C1 5782   1.934   3.576   9.833  0.3758 -0.6623 -0.3353
  387MPD2    C2 5783   1.909   3.453   9.892  0.0443 -0.1895  0.0180
  387MPD2    C3 5784   1.815   3.440   9.988  0.6012 -0.4370  0.1689
  387MPD2    C4 5785   1.742   3.544  10.036 -0.4321  0.2315 -0.3952
  387MPD2    C5 5786   1.764   3.662   9.968 -0.4115 -0.8755  0.0435
  387MPD2     H 5787   1.962   3.366   9.855  1.4692  1.2454 -1.3490
  387MPD2    H1 5788   1.663   3.536  10.109 -0.0016 -1.0141 -0.0767
  387MPD2    H2 5789   1.858   3.773   9.812  1.4549 -0.0106 -0.9907
  387MPD2    H3 5790   1.701   3.750   9.980  1.6633  0.5983  0.1175
  387MPD2     N 5791   1.803   3.306  10.040 -0.0091 -0.3961  1.0780
  387MPD2    H5 5792   1.881   3.245  10.018 -0.5660 -1.0742  0.9906
  387MPD2    N1 5793   2.034   3.574   9.733  0.1176 -0.4510 -0.2675
  387MPD2    H7 5794   2.081   3.486   9.716 -0.4693 -0.6885 -0.6505
  388TMC3    C1 5795   2.212   3.622   9.590  0.0056  0.2031 -0.3753
  388TMC3    C2 5796   2.306   3.704   9.541 -0.3855 -0.4966  0.6731
  388TMC3    C3 5797   2.406   3.646   9.462 -0.9372 -0.4243  0.3590
  388TMC3    C4 5798   2.212   3.486   9.563 -0.6820  0.4952  0.3715
  388TMC3    C5 5799   2.311   3.434   9.487 -0.0212  0.4226 -0.3029
  388TMC3    C6 5800   2.408   3.509   9.429 -0.1323  0.7722 -0.3569
  388TMC3     C 5801   2.094   3.675   9.659  0.5893  0.7630  0.3562
  388TMC3     O 5802   2.086   3.802   9.668 -0.0167 -0.5006  0.6663
  388TMC3     H 5803   2.301   3.810   9.564  3.3695  0.1719 -1.5448
  388TMC3    H1 5804   2.130   3.416   9.578 -0.0346  0.0275  1.6515
  388TMC3    H2 5805   2.485   3.451   9.379 -0.0848  0.3783  0.1704
  388TMC3    C7 5806   2.325   3.285   9.489 -0.5597 -0.0671  0.0562
  388TMC3    C8 5807   2.524   3.731   9.444 -0.4486  1.0709  0.3541
  388TMC3    O1 5808   2.373   3.225   9.395  0.3787  0.1992 -0.5183
  388TMC3    O2 5809   2.508   3.849   9.468  0.0672 -0.3815  0.5835
  389MPD2     C 5810   1.053   2.010  11.234 -0.0227  0.5587  0.1200
  389MPD2    C1 5811   1.022   1.892  11.173  0.7149  0.4498  0.3313
  389MPD2    C2 5812   0.925   1.810  11.232 -0.5196  0.0717 -0.1174
  389MPD2    C3 5813   0.880   1.830  11.358  0.1177 -0.1861 -0.1596
  389MPD2    C4 5814   0.937   1.932  11.423 -0.0344  0.7272 -0.0967
  389MPD2    C5 5815   1.017   2.024  11.365  0.7233  0.4735 -0.3765
  389MPD2     H 5816   0.914   1.712  11.186 -0.7232 -0.6910  1.5703
  389MPD2    H1 5817   0.903   1.960  11.522 -1.9111  1.1794 -0.8641
  389MPD2    H2 5818   1.116   2.082  11.184  1.5784 -0.2118  1.0014
  389MPD2    H3 5819   1.068   2.102  11.421  3.8052 -1.6157 -0.2147
  389MPD2     N 5820   0.777   1.760  11.433  0.4097 -0.3608  0.1894
  389MPD2    H5 5821   0.757   1.809  11.520 -0.9199 -2.1823  0.9258
  389MPD2    N1 5822   1.070   1.853  11.044  0.0541  0.0043 -0.0866
  389MPD2    H7 5823   1.048   1.759  11.013  2.6821 -1.5480  2.8547
  390TMC3    C1 5824   0.571   1.646  11.455  0.1218  0.2504  0.8734
  390TMC3    C2 5825   0.472   1.579  11.393 -0.3172  0.0821  0.1809
  390TMC3    C3 5826   0.356   1.548  11.457 -0.1949  0.5450  0.2315
  390TMC3    C4 5827   0.552   1.704  11.581 -0.2064 -0.2445  0.3682
  390TMC3    C5 5828   0.433   1.678  11.642 -0.1573 -0.1021 -0.2536
  390TMC3    C6 5829   0.333   1.602  11.580  1.0821  0.0290  0.7880
  390TMC3     C 5830   0.694   1.662  11.383 -0.1148  0.0244 -0.8139
  390TMC3     O 5831   0.707   1.595  11.282 -0.1748 -0.1702 -0.1187
  390TMC3     H 5832   0.489   1.533  11.296 -2.4022 -1.3232  0.4619
  390TMC3    H1 5833   0.630   1.769  11.620  1.0077 -1.9212  0.7470
  390TMC3    H2 5834   0.235   1.589  11.625  0.3603  0.4986 -0.6570
  390TMC3    C7 5835   0.405   1.756  11.757 -0.1325  0.1835  0.2911
  390TMC3    C8 5836   0.278   1.435  11.402 -0.2523 -0.2765 -0.3944
  390TMC3    O1 5837   0.480   1.849  11.776 -0.1197 -0.5508  0.2181
  390TMC3    O2 5838   0.315   1.377  11.297 -0.3651  0.1866 -0.0968
  391MPD2     C 5839   4.255   3.404  11.387  0.0629 -0.2033 -0.0737
  391MPD2    C1 5840   4.385   3.368  11.373  0.1520 -0.3407  0.1396
  391MPD2    C2 5841   4.429   3.333  11.252 -0.7462 -0.4707 -0.0439
  391MPD2    C3 5842   4.359   3.336  11.138 -0.8683  0.3770 -0.9138
  391MPD2    C4 5843   4.223   3.366  11.153  0.3373 -0.0282  0.5913
  391MPD2    C5 5844   4.180   3.406  11.273 -0.2914  0.5307 -0.0487
  391MPD2     H 5845   4.535   3.310  11.243 -0.8834 -1.7520  1.5461
  391MPD2    H1 5846   4.158   3.379  11.067  0.7439  2.0510  0.5998
  391MPD2    H2 5847   4.199   3.441  11.472 -0.8394 -0.2447 -0.6520
  391MPD2    H3 5848   4.077   3.432  11.292 -0.8012 -0.6688 -1.2119
  391MPD2     N 5849   4.416   3.307  11.014  0.0444  0.1399  0.6336
  391MPD2    H5 5850   4.507   3.261  11.014 -0.0809 -0.0977  1.1988
  391MPD2    N1 5851   4.488   3.368  11.470  0.0820  0.0402 -0.4712
  391MPD2    H7 5852   4.580   3.326  11.457 -0.2753 -1.0270  0.4989
  392TMC3    C1 5853   4.453   3.297  10.791  0.5581  0.2201  0.2461
  392TMC3    C2 5854   4.406   3.261  10.671  0.3383  0.6937 -0.2196
  392TMC3    C3 5855   4.487   3.216  10.573 -0.5785  0.6432 -0.2962
  392TMC3    C4 5856   4.585   3.319  10.813 -0.0603 -0.4185  0.4169
  392TMC3    C5 5857   4.675   3.284  10.710 -0.6818  0.4185 -0.3397
  392TMC3    C6 5858   4.622   3.226  10.594  0.3838  0.3434 -0.5114
  392TMC3     C 5859   4.356   3.329  10.895  0.0386  0.8665  0.4490
  392TMC3     O 5860   4.258   3.399  10.863  0.7553  0.7284 -0.9782
  392TMC3     H 5861   4.301   3.253  10.645  0.2888  1.0706 -0.1398
  392TMC3    H1 5862   4.636   3.347  10.904 -2.9534  0.8410  1.6422
  392TMC3    H2 5863   4.694   3.185  10.524 -2.2740  0.8352 -3.5372
  392TMC3    C7 5864   0.077   3.356  10.694 -0.5760  0.8501  0.0218
  392TMC3    C8 5865   4.436   3.102  10.498  0.1750  0.1636  0.2395
  392TMC3    O1 5866   0.131   3.385  10.798  0.3743 -0.3110  0.5406
  392TMC3    O2 5867   4.504   2.999  10.502  0.8720  0.8319 -0.2205
  393TMC3    C1 5868   3.579   1.079  10.354  0.5230 -0.2564  0.8757
  393TMC3    C2 5869   3.524   1.076  10.481 -0.2391  0.2019  0.9639
  393TMC3    C3 5870   3.567   1.163  10.570 -0.0588 -0.1107  0.7327
  393TMC3    C4 5871   3.677   1.166  10.319 -0.1090  0.2373  0.3813
  393TMC3    C5 5872   3.708   1.262  10.407 -0.0069  0.5199 -0.5182
  393TMC3    C6 5873   3.650   1.266  10.532 -0.8298  0.2826  0.1443
  393TMC3     C 5874   3.516   1.012  10.242  0.1878 -0.1251 -0.0011
  393TMC3     O 5875   3.588   1.003  10.144 -0.5218 -0.4965 -0.5420
  393TMC3     H 5876   3.459   0.995  10.512 -0.3460  0.3934  1.2385
  393TMC3    H1 5877   3.721   1.166  10.220 -0.6692  0.8949  0.1334
  393TMC3    H2 5878   3.681   1.341  10.604  0.7580 -0.1352 -0.1022
  393TMC3    C7 5879   3.785   1.376  10.369 -0.2447  0.0838 -0.0565
  393TMC3    C8 5880   3.529   1.147  10.711 -0.2068 -0.4975  0.3863
  393TMC3    O1 5881   3.777   1.477  10.439 -0.3977 -0.9745 -0.2600
  393TMC3    O2 5882   3.428   1.083  10.733 -0.4628  0.1449 -0.5594
  394TMC3    C1 5883   1.189   1.875  10.836  0.2750 -0.5096  0.0034
  394TMC3    C2 5884   1.074   1.859  10.761  0.3048 -0.5711 -0.2592
  394TMC3    C3 5885   1.093   1.862  10.629  0.2638  0.1000  0.3072
  394TMC3    C4 5886   1.311   1.898  10.790  0.0001  0.0233 -0.5140
  394TMC3    C5 5887   1.319   1.918  10.653  0.8770  0.2029 -0.0399
  394TMC3    C6 5888   1.210   1.909  10.574  0.1440 -0.3482 -0.3039
  394TMC3     C 5889   1.168   1.925  10.971  0.4145  0.5084 -0.6726
  394TMC3     O 5890   1.225   2.029  11.003 -0.1859 -0.3120  0.2443
  394TMC3     H 5891   0.980   1.826  10.805 -0.0038 -0.2278 -0.6534
  394TMC3    H1 5892   1.403   1.902  10.848 -0.7268 -2.9797  0.8649
  394TMC3    H2 5893   1.213   1.918  10.466 -2.9429  1.6431 -0.2069
  394TMC3    C7 5894   1.424   2.013  10.611  0.2658  0.7815  0.3556
  394TMC3    C8 5895   0.996   1.809  10.540 -0.2339  0.9208 -0.3219
  394TMC3    O1 5896   1.377   2.127  10.611  0.3245  0.0570 -0.9199
  394TMC3    O2 5897   0.879   1.809  10.576  0.2947 -0.3109 -0.2254
  395TMC3    C1 5898   0.207   4.380  14.351  0.3594 -0.1616  0.2165
  395TMC3    C2 5899   0.109   4.464  14.400  0.2120  0.0724  0.3385
  395TMC3    C3 5900   0.150   4.561  14.495 -0.4639  0.1972 -0.4228
  395TMC3    C4 5901   0.335   4.391  14.398  0.3300  0.6337 -0.3356
  395TMC3    C5 5902   0.371   4.487  14.484  0.3980 -0.7836  0.3331
  395TMC3    C6 5903   0.278   4.579  14.527 -0.8943  0.2653  0.3995
  395TMC3     C 5904   0.157   4.248  14.355  0.3433 -0.4239 -0.3538
  395TMC3     O 5905   0.060   4.231  14.284  0.5810 -0.1565  0.2585
  395TMC3     H 5906   0.006   4.460  14.365  0.8960 -0.3488 -1.6047
  395TMC3    H1 5907   0.414   4.319  14.381  0.8022  0.4758  2.4203
  395TMC3    H2 5908   0.299   4.652  14.605  1.2351 -0.2679  0.3237
  395TMC3    C7 5909   0.508   4.504  14.531  0.8803  0.6333 -0.3588
  395TMC3    C8 5910   0.065   4.570  14.614  0.6316 -0.1790 -0.0199
  395TMC3    O1 5911   0.535   4.620  14.555 -0.2284  0.1831  0.0705
  395TMC3    O2 5912   0.064   4.670  14.681 -0.0827  0.5709 -0.3821
  396MPD2     C 5913   0.175   0.408  17.202  0.4558 -0.0609 -0.6606
  396MPD2    C1 5914   0.265   0.465  17.287  0.0082  0.3668  0.5384
  396MPD2    C2 5915   0.307   0.597  17.268 -0.2595  0.1681  0.2414
  396MPD2    C3 5916   0.268   0.664  17.153  0.4259  0.9334 -0.2973
  396MPD2    C4 5917   0.182   0.600  17.067  0.7567 -0.6625  0.5278
  396MPD2    C5 5918   0.133   0.479  17.095  0.4010  0.0653  0.5664
  396MPD2     H 5919   0.382   0.639  17.335 -0.5820  0.6069  0.3255
  396MPD2    H1 5920   0.144   0.640  16.973  1.5365  1.7598  1.2581
  396MPD2    H2 5921   0.139   0.307  17.219  1.6006 -0.4160 -0.4031
  396MPD2    H3 5922   0.070   0.430  17.021 -1.8300  3.0113  0.4996
  396MPD2     N 5923   0.337   0.785  17.122 -0.2775 -0.3494 -0.6436
  396MPD2    H5 5924   0.412   0.804  17.188 -2.1783  2.1749  0.7700
  396MPD2    N1 5925   0.302   0.378  17.393  0.1415 -0.0794  0.3996
  396MPD2    H7 5926   0.267   0.283  17.385 -0.2328  0.1455 -0.7154
  397TMC3    C1 5927   0.449   0.297  17.551 -0.5064 -0.1780  0.2506
  397TMC3    C2 5928   0.543   0.263  17.456 -0.0131  0.0055  0.2290
  397TMC3    C3 5929   0.543   0.141  17.398 -0.6121  0.1483 -0.4970
  397TMC3    C4 5930   0.371   0.200  17.603  0.9532 -0.0876  0.5361
  397TMC3    C5 5931   0.385   0.075  17.559 -0.2890 -0.1631  0.3077
  397TMC3    C6 5932   0.469   0.044  17.453  0.3005 -0.1293 -0.0127
  397TMC3     C 5933   0.379   0.412  17.501  0.1488 -0.4165  0.0817
  397TMC3     O 5934   0.440   0.518  17.517 -0.1089  0.4023  0.7282
  397TMC3     H 5935   0.574   0.350  17.399 -1.9958  0.6702  0.1494
  397TMC3    H1 5936   0.294   0.225  17.675 -2.5144  0.8203 -3.4374
  397TMC3    H2 5937   0.457   4.669  17.408  0.7870 -0.1900 -0.0091
  397TMC3    C7 5938   0.316   4.683  17.624 -0.2000 -0.2093 -0.3063
  397TMC3    C8 5939   0.570   0.128  17.258 -0.6149 -0.9257  0.2549
  397TMC3    O1 5940   0.304   4.576  17.562  0.9114 -0.1201 -0.1562
  397TMC3    O2 5941   0.498   0.070  17.182 -0.3111 -0.4032  0.0004
  398MPD2     C 5942   3.115   1.589  17.462  0.0703  0.0721  0.1153
  398MPD2    C1 5943   3.211   1.571  17.557  0.5805  0.3052  0.4777
  398MPD2    C2 5944   3.342   1.613  17.535  0.1409  1.2029  0.1803
  398MPD2    C3 5945   3.381   1.639  17.407 -0.2552  0.3484  0.5761
  398MPD2    C4 5946   3.293   1.649  17.307 -0.3502 -0.1638  0.1206
  398MPD2    C5 5947   3.157   1.620  17.334  0.3344 -0.7349  0.3490
  398MPD2     H 5948   3.417   1.602  17.613  0.4478  4.0903  0.2862
  398MPD2    H1 5949   3.314   1.671  17.203 -2.0097  0.6738 -0.0296
  398MPD2    H2 5950   3.011   1.568  17.480  0.2033 -2.1446 -1.6474
  398MPD2    H3 5951   3.086   1.628  17.253  0.4610  2.3001  0.5589
  398MPD2     N 5952   3.524   1.640  17.380  0.3179  0.3920 -0.4542
  398MPD2    H5 5953   3.581   1.608  17.458 -0.8540 -0.1236  0.1797
  398MPD2    N1 5954   3.187   1.535  17.687 -0.2078 -0.5938  0.3272
  398MPD2    H7 5955   3.272   1.530   0.049  0.2807  0.3249 -0.3580
  399TMC3    C1 5956   3.092   1.455   0.187  0.4314 -0.1475 -0.6502
  399TMC3    C2 5957   3.192   1.360   0.192 -0.6362  0.2983  0.5893
  399TMC3    C3 5958   3.189   1.258   0.278 -0.0226  0.0233  0.0191
  399TMC3    C4 5959   2.981   1.437   0.268 -0.3537 -0.5899 -0.2577
  399TMC3    C5 5960   2.976   1.319   0.350  0.0605 -0.3570 -0.5889
  399TMC3    C6 5961   3.089   1.233   0.362  0.0908 -0.3846  0.3672
  399TMC3     C 5962   3.066   1.517   0.056 -0.6344 -0.5058  0.0664
  399TMC3     O 5963   2.955   1.528   0.005  0.1480 -0.0757 -0.2171
  399TMC3     H 5964   3.272   1.357   0.118 -1.5798  1.3580 -0.4586
  399TMC3    H1 5965   2.891   1.494   0.248 -0.9875 -1.3046  0.5492
  399TMC3    H2 5966   3.087   1.154   0.435 -1.6954 -0.2023  0.5117
  399TMC3    C7 5967   2.853   1.256   0.392  0.1003  0.3592  0.1080
  399TMC3    C8 5968   3.303   1.169   0.275 -0.6050  0.3569 -1.2078
  399TMC3    O1 5969   2.861   1.155   0.462  0.0565  0.0747 -0.2052
  399TMC3    O2 5970   3.404   1.224   0.233  0.4314  0.1252  0.1832
  400TMC3    C1 5971   1.752   4.575  16.987  0.3424  0.7758 -0.1825
  400TMC3    C2 5972   1.648   4.542  16.907  1.1289 -0.0832  0.2714
  400TMC3    C3 5973   1.572   4.644  16.865  0.0734 -0.3130  0.0789
  400TMC3    C4 5974   1.801   4.705  16.997  0.7909 -0.0384 -0.5382
  400TMC3    C5 5975   1.722   0.080  16.958 -0.0592  0.0074  0.7129
  400TMC3    C6 5976   1.605   0.056  16.891  0.1884 -0.1607  0.0553
  400TMC3     C 5977   1.812   4.465  17.060 -0.1331  0.5490  0.7514
  400TMC3     O 5978   1.745   4.362  17.071 -0.6949  0.0168 -0.6700
  400TMC3     H 5979   1.615   4.439  16.911  1.3533 -0.0046  4.8544
  400TMC3    H1 5980   1.893   0.006  17.050  1.5191 -0.1978 -1.7246
  400TMC3    H2 5981   1.528   0.125  16.855 -1.3170 -3.2756 -2.6824
  400TMC3    C7 5982   1.739   0.213  17.030 -0.2410 -0.3366 -0.2655
  400TMC3    C8 5983   1.455   4.617  16.784  0.4979  0.1994 -0.3142
  400TMC3    O1 5984   1.854   0.246  17.054  0.4451  0.2078 -0.5341
  400TMC3    O2 5985   1.364   4.703  16.773 -0.4098  0.5370  0.4833
  401MPD2     C 5986   4.488   3.838   1.377 -0.2712  0.1340 -1.2889
  401MPD2    C1 5987   4.598   3.756   1.413 -0.5990 -0.1206 -0.0060
  401MPD2    C2 5988   4.588   3.626   1.380 -0.6662  0.2366  0.8524
  401MPD2    C3 5989   4.498   3.580   1.293 -0.9385  0.9727 -0.1886
  401MPD2    C4 5990   4.390   3.660   1.259 -0.3918  0.4562  0.0486
  401MPD2    C5 5991   4.381   3.787   1.305 -0.6726 -0.0091 -0.3832
  401MPD2     H 5992   4.673   3.563   1.404  0.1256  0.4096 -1.3970
  401MPD2    H1 5993   4.310   3.617   1.201 -0.3930 -0.1893  0.5276
  401MPD2    H2 5994   4.483   3.938   1.417  0.5321 -0.5404  0.4608
  401MPD2    H3 5995   4.299   3.852   1.277 -0.6430 -0.6290 -1.9061
  401MPD2     N 5996   4.516   3.451   1.229 -0.1649 -0.1242 -0.3566
  401MPD2    H5 5997   4.590   3.388   1.260 -0.1328  0.6854  1.2387
  401MPD2    N1 5998   4.717   3.791   1.481 -0.0481  0.3136 -0.5686
  401MPD2    H7 5999   0.064   3.723   1.507 -0.7216  0.3286  1.2861
  402TMC3    C1 6000   4.462   3.263   1.100  0.5580 -0.2899  0.6626
  402TMC3    C2 6001   4.497   3.177   1.194 -0.2389 -0.3631 -0.5701
  402TMC3    C3 6002   4.560   3.060   1.149  0.2128 -0.2437 -0.1334
  402TMC3    C4 6003   4.482   3.244   0.962 -0.0499  0.3331  0.2532
  402TMC3    C5 6004   4.544   3.130   0.924 -0.0908 -0.4581  0.0906
  402TMC3    C6 6005   4.593   3.037   1.011  0.1552  0.2256  0.6196
  402TMC3     C 6006   4.432   3.398   1.137  0.3167  0.4688  0.9088
  402TMC3     O 6007   4.361   3.457   1.057 -0.8065  0.2780  0.6420
  402TMC3     H 6008   4.490   3.207   1.298  1.3307  0.4539 -0.6868
  402TMC3    H1 6009   4.447   3.322   0.897  2.1457  0.8108 -0.3485
  402TMC3    H2 6010   4.644   2.946   0.981  1.2300  1.1631 -0.4290
  402TMC3    C7 6011   4.609   3.144   0.793  0.0648  0.0582  0.0618
  402TMC3    C8 6012   4.599   2.962   1.245 -0.0776  0.5923  0.1245
  402TMC3    O1 6013   4.548   3.220   0.720 -0.1213  0.2187  0.2132
  402TMC3    O2 6014   4.688   2.881   1.215  0.1802 -0.2358 -0.1850
  403MPD2     C 6015   2.680   2.098  13.354  1.1161 -0.4876  0.5051
  403MPD2    C1 6016   2.686   1.970  13.403  0.4938  0.5535 -0.2059
  403MPD2    C2 6017   2.765   1.961  13.519  0.8434 -0.0660 -0.4710
  403MPD2    C3 6018   2.830   2.067  13.569 -0.3282 -0.2648 -0.2076
  403MPD2    C4 6019   2.815   2.185  13.518 -0.0609 -0.7028  0.2478
  403MPD2    C5 6020   2.743   2.206  13.410 -0.0784 -0.2047  0.2892
  403MPD2     H 6021   2.778   1.865  13.567 -1.0653  0.5180  1.1873
  403MPD2    H1 6022   2.873   2.272  13.548  0.3941 -0.8637 -0.1678
  403MPD2    H2 6023   2.622   2.100  13.263 -1.4554 -0.4341  2.1573
  403MPD2    H3 6024   2.750   2.308  13.374 -1.2602 -0.3008 -0.2268
  403MPD2     N 6025   2.923   2.036  13.676  0.0053  0.2498 -0.0803
  403MPD2    H5 6026   2.927   1.938  13.701  0.2642  0.4592  0.6991
  403MPD2    N1 6027   2.606   1.867  13.342 -0.0759 -0.5618  0.1301
  403MPD2    H7 6028   2.553   1.889  13.258 -2.3169  3.0759  2.4855
  404TMC3    C1 6029   2.504   1.655  13.318 -0.3909  0.7497 -0.8276
  404TMC3    C2 6030   2.494   1.537  13.387 -0.1592  0.3893 -0.0496
  404TMC3    C3 6031   2.472   1.425  13.316  0.1879  0.2410  0.2326
  404TMC3    C4 6032   2.494   1.662  13.179 -0.2693  0.0104 -0.5376
  404TMC3    C5 6033   2.475   1.547  13.112  0.1943 -0.1850 -0.2983
  404TMC3    C6 6034   2.454   1.430  13.179  0.1659 -0.3303  0.1780
  404TMC3     C 6035   2.593   1.742  13.393 -0.6650 -0.1114  0.3589
  404TMC3     O 6036   2.625   1.706  13.506  0.1845 -0.0994 -0.2852
  404TMC3     H 6037   2.498   1.536  13.496 -1.8493  1.4080  0.0186
  404TMC3    H1 6038   2.512   1.753  13.122  1.7762 -0.7503 -1.0990
  404TMC3    H2 6039   2.417   1.351  13.115  0.8497 -2.0819  1.9667
  404TMC3    C7 6040   2.465   1.559  12.967  0.1448  0.3448 -0.2828
  404TMC3    C8 6041   2.517   1.298  13.370 -0.4145  0.1812 -0.1353
  404TMC3    O1 6042   2.440   1.672  12.924  0.2527 -0.1489 -0.0218
  404TMC3    O2 6043   2.511   1.206  13.292 -0.5804 -0.2971 -0.5456
  405MPD2     C 6044   3.471   1.906  15.414  0.9858  0.5129 -0.2786
  405MPD2    C1 6045   3.439   1.893  15.280  0.3025  0.0155  0.1494
  405MPD2    C2 6046   3.445   2.009  15.205 -0.9220  0.5890  0.3464
  405MPD2    C3 6047   3.489   2.134  15.246  0.1931 -0.2734 -0.6958
  405MPD2    C4 6048   3.511   2.146  15.379  0.3484 -0.4902  0.4857
  405MPD2    C5 6049   3.506   2.033  15.456  0.0620  0.7166  0.3670
  405MPD2     H 6050   3.416   2.012  15.100  0.5426 -0.2534 -0.0919
  405MPD2    H1 6051   3.519   2.235  15.440 -0.7259  0.0907 -0.2322
  405MPD2    H2 6052   3.454   1.822  15.480 -1.0869 -0.2296 -1.7576
  405MPD2    H3 6053   3.519   2.044  15.563 -1.3601 -2.3623  0.8524
  405MPD2     N 6054   3.475   2.246  15.155 -0.5592  0.5703  0.7093
  405MPD2    H5 6055   3.425   2.233  15.068 -1.8934 -0.3395  1.6107
  405MPD2    N1 6056   3.400   1.774  15.224  0.2754  0.0639 -0.3424
  405MPD2    H7 6057   3.366   1.695  15.280 -2.1562  0.5094 -1.2092
  406TMC3    C1 6058   3.349   2.646  15.003  0.4012 -0.7256  0.3724
  406TMC3    C2 6059   3.329   2.592  14.881  0.1236  0.0417  0.0293
  406TMC3    C3 6060   3.396   2.475  14.856 -0.6598  0.3410 -0.3578
  406TMC3    C4 6061   3.419   2.584  15.103 -0.3490  0.9009  0.1863
  406TMC3    C5 6062   3.466   2.463  15.075  0.2000 -0.5016 -0.2495
  406TMC3    C6 6063   3.456   2.407  14.955  0.2318  0.0942  0.7480
  406TMC3     C 6064   3.245   2.736  15.052  1.1671 -0.0168  0.5322
  406TMC3     O 6065   3.251   2.778  15.168 -0.1504  0.3176 -0.0913
  406TMC3     H 6066   3.291   2.647  14.795 -3.1369  0.4255  1.7325
  406TMC3    H1 6067   3.412   2.631  15.200  0.2329 -1.3163  1.3089
  406TMC3    H2 6068   3.516   2.321  14.928 -1.6640 -0.8488 -0.5051
  406TMC3    C7 6069   3.503   2.378  15.188 -0.4572 -0.2181  0.6190
  406TMC3    C8 6070   3.344   2.401  14.741 -0.1534 -0.1449  0.5576
  406TMC3    O1 6071   3.518   2.433  15.298  0.7017 -0.2457  0.2382
  406TMC3    O2 6072   3.274   2.457  14.656  0.1270  0.3316  0.1167
  407MPD2     C 6073   1.002   2.373   9.752 -0.4456  0.2867 -0.5435
  407MPD2    C1 6074   1.044   2.487   9.814  0.4210  0.3208  0.0639
  407MPD2    C2 6075   0.960   2.555   9.899 -0.4206 -0.0162 -0.7808
  407MPD2    C3 6076   0.825   2.513   9.922 -0.3843  0.2121 -0.8131
  407MPD2    C4 6077   0.785   2.410   9.854 -0.3465 -0.4150  0.0976
  407MPD2    C5 6078   0.876   2.333   9.777 -0.6142  0.6044  0.5805
  407MPD2     H 6079   1.007   2.633   9.957  0.5555 -0.3093 -1.1740
  407MPD2    H1 6080   0.679   2.386   9.864 -0.6881  1.2399  0.4741
  407MPD2    H2 6081   1.068   2.311   9.692 -3.2891 -1.0468 -2.2726
  407MPD2    H3 6082   0.848   2.239   9.730 -0.0463  1.1207 -0.7955
  407MPD2     N 6083   0.734   2.591  10.003  0.1422 -0.2097  0.1383
  407MPD2    H5 6084   0.634   2.580   9.996 -0.3632  1.4416  4.3194
  407MPD2    N1 6085   1.174   2.535   9.809 -0.1626 -0.1575  0.2950
  407MPD2    H7 6086   1.193   2.610   9.873  2.4949 -1.7696  1.3985
  408TMC3    C1 6087   1.397   2.552   9.737  0.1141 -0.4670 -0.3320
  408TMC3    C2 6088   1.504   2.473   9.703  0.0431  0.7853  0.0776
  408TMC3    C3 6089   1.627   2.542   9.704  0.3845  0.8215 -0.2400
  408TMC3    C4 6090   1.392   2.684   9.749 -0.3048  0.6448  0.3631
  408TMC3    C5 6091   1.515   2.750   9.738 -0.7107  0.5716  0.1199
  408TMC3    C6 6092   1.631   2.679   9.712 -0.1894  0.1592  0.1703
  408TMC3     C 6093   1.269   2.500   9.713  1.3853  0.3764 -0.2702
  408TMC3     O 6094   1.246   2.431   9.618  0.3654  0.2561 -0.0198
  408TMC3     H 6095   1.496   2.372   9.664  0.4002  0.3660  1.1060
  408TMC3    H1 6096   1.295   2.734   9.746 -0.3582  0.5744  1.0099
  408TMC3    H2 6097   1.727   2.727   9.701 -0.2073  0.0067 -0.7214
  408TMC3    C7 6098   1.517   2.891   9.767  0.1302  0.5067 -0.4289
  408TMC3    C8 6099   1.745   2.455   9.672 -0.8080  0.7514  0.2921
  408TMC3    O1 6100   1.606   2.958   9.716 -0.3702  0.0215  0.6051
  408TMC3    O2 6101   1.715   2.361   9.598 -0.0090 -0.1761 -0.0080
  409MPD2     C 6102   0.148   4.343  16.995  0.9059  0.1441  0.7848
  409MPD2    C1 6103   0.266   4.289  17.035 -0.0203 -0.0233  0.2589
  409MPD2    C2 6104   0.388   4.343  17.005 -0.2382 -0.8943  0.7350
  409MPD2    C3 6105   0.387   4.467  16.948  0.1568 -0.3683  0.2353
  409MPD2    C4 6106   0.272   4.530  16.923  0.3264  0.2645  0.0519
  409MPD2    C5 6107   0.152   4.466  16.938 -0.2219  0.3138 -0.5328
  409MPD2     H 6108   0.479   4.286  17.020  0.6574  0.9163  2.1841
  409MPD2    H1 6109   0.280   4.622  16.865  0.2780  1.2767  1.6529
  409MPD2    H2 6110   0.054   4.291  17.011 -0.4849  2.4716  0.3226
  409MPD2    H3 6111   0.070   4.527  16.903  2.5724  2.4177 -3.4033
  409MPD2     N 6112   0.502   4.541  16.913 -0.4475  0.0793  0.4170
  409MPD2    H5 6113   0.486   4.623  16.856  0.4206 -0.7036 -0.9546
  409MPD2    N1 6114   0.258   4.160  17.099  0.4521  0.1067  0.1369
  409MPD2    H7 6115   0.343   4.105  17.108 -0.6537 -1.7084 -0.5486
  410TMC3    C1 6116   0.741   4.576  16.913  0.3073  0.1335 -0.0997
  410TMC3    C2 6117   0.855   4.564  16.990  0.4066  0.2747 -0.5849
  410TMC3    C3 6118   0.952   4.659  16.961 -0.1541  0.2551 -0.0212
  410TMC3    C4 6119   0.727   4.651  16.803 -0.0069 -0.2859 -0.0333
  410TMC3    C5 6120   0.835   4.723  16.767  0.0276 -0.7595 -0.7425
  410TMC3    C6 6121   0.943   0.020  16.852  0.0442  1.1276  0.2780
  410TMC3     C 6122   0.624   4.515  16.975  0.1757  0.3479 -0.6101
  410TMC3     O 6123   0.653   4.434  17.065 -0.2417  0.3221 -0.9613
  410TMC3     H 6124   0.868   4.509  17.083  2.2521  1.6410 -0.0373
  410TMC3    H1 6125   0.636   4.652  16.745 -0.2424  1.0548  0.3593
  410TMC3    H2 6126   1.009   0.106  16.846 -0.5134  1.5584  0.3495
  410TMC3    C7 6127   0.831   0.025  16.625  0.5159  0.4628  0.1529
  410TMC3    C8 6128   1.083   4.649  17.027  0.2625 -0.7303 -0.4623
  410TMC3    O1 6129   0.762   4.665  16.565  0.2755 -0.5800 -0.8615
  410TMC3    O2 6130   1.150   0.030  17.031 -0.1583  0.0228  0.2754
  411MPD2     C 6131   1.335   0.349  14.563  0.6366  0.2956 -0.0613
  411MPD2    C1 6132   1.201   0.368  14.534  0.3913 -0.3663  0.8865
  411MPD2    C2 6133   1.131   0.252  14.506  0.1240  0.0235 -0.6396
  411MPD2    C3 6134   1.187   0.120  14.502 -0.2763 -0.5951  0.0200
  411MPD2    C4 6135   1.324   0.112  14.517 -0.6557  0.2007  0.0318
  411MPD2    C5 6136   1.396   0.221  14.545 -0.3130 -0.4831 -0.8513
  411MPD2     H 6137   1.025   0.259  14.484  0.0884 -0.1714 -0.5313
  411MPD2    H1 6138   1.386   0.023  14.516 -2.3190 -0.9611  0.1936
  411MPD2    H2 6139   1.385   0.438  14.599  1.1170 -0.5324  1.3003
  411MPD2    H3 6140   1.498   0.211  14.577 -0.8337  1.0537  1.3007
  411MPD2     N 6141   1.118   0.001  14.458 -0.8905 -0.5961 -0.3423
  411MPD2    H5 6142   1.176   4.642  14.447  0.4651  0.3544 -0.1842
  411MPD2    N1 6143   1.141   0.501  14.519  0.1583  0.2522 -0.4036
  411MPD2    H7 6144   1.199   0.581  14.545  0.3985  0.2459 -0.9103
  412TMC3    C1 6145   0.936   4.613  14.377 -0.0205  0.2898 -0.5178
  412TMC3    C2 6146   0.803   4.612  14.353  0.8774  0.2036  0.2646
  412TMC3    C3 6147   0.752   4.526  14.255  0.0176  0.2450  0.1551
  412TMC3    C4 6148   1.025   4.533  14.313  0.1698 -0.8112  0.1246
  412TMC3    C5 6149   0.980   4.466  14.206  0.1214 -0.0251 -0.1147
  412TMC3    C6 6150   0.839   4.449  14.183 -0.0782 -0.2820  0.0527
  412TMC3     C 6151   0.983   0.001  14.447  0.5553  0.1991  0.9322
  412TMC3     O 6152   0.901   0.080  14.484 -0.4427 -0.1086  0.1580
  412TMC3     H 6153   0.737   4.669  14.418  1.2238  1.4526 -0.4645
  412TMC3    H1 6154   1.128   4.511  14.338  0.0155 -0.7836  0.7714
  412TMC3    H2 6155   0.805   4.385  14.102  3.1087  1.1698 -2.4382
  412TMC3    C7 6156   1.053   4.508  14.079 -0.4284 -0.1033 -0.6655
  412TMC3    C8 6157   0.660   4.592  14.166  0.6915 -0.7956  0.2110
  412TMC3    O1 6158   1.177   4.517  14.071 -0.4234  0.6698 -0.2035
  412TMC3    O2 6159   0.674   4.574  14.041  0.1199  0.2478 -0.5892
  413MPD2     C 6160   2.089   3.466  15.903  0.1025  0.2929 -0.0211
  413MPD2    C1 6161   2.081   3.406  15.783 -0.2423  1.4089 -0.4085
  413MPD2    C2 6162   2.204   3.397  15.710 -0.6988  0.1418  0.3049
  413MPD2    C3 6163   2.323   3.436  15.757  0.3639  0.4672  0.9426
  413MPD2    C4 6164   2.328   3.484  15.883 -0.3302  0.2000 -0.7563
  413MPD2    C5 6165   2.212   3.503  15.955  0.4967 -0.0947 -1.3630
  413MPD2     H 6166   2.213   3.340  15.618 -3.7957  0.5012 -0.2249
  413MPD2    H1 6167   2.415   3.536  15.921 -3.1421  3.3800  1.2742
  413MPD2    H2 6168   1.995   3.481  15.956  0.5999  0.7271  0.7327
  413MPD2    H3 6169   2.205   3.570  16.040  3.5982 -0.6037 -0.7056
  413MPD2     N 6170   2.430   3.439  15.671  0.9336  0.2456 -0.4283
  413MPD2    H5 6171   2.407   3.414  15.576  0.6801 -1.1909  0.0058
  413MPD2    N1 6172   1.957   3.363  15.732 -0.1190 -0.2568 -0.1254
  413MPD2    H7 6173   1.876   3.359  15.794  1.8298  0.6865  2.4897
  414TMC3    C1 6174   2.639   3.425  15.591 -0.4373  0.8059  0.5904
  414TMC3    C2 6175   2.697   3.308  15.607  0.7826 -0.3137  0.9274
  414TMC3    C3 6176   2.680   3.214  15.518  0.2622 -0.3321 -0.3195
  414TMC3    C4 6177   2.588   3.456  15.464  0.0605 -0.2993 -0.8122
  414TMC3    C5 6178   2.581   3.361  15.370  0.0274  0.7210  0.4042
  414TMC3    C6 6179   2.630   3.233  15.397  1.1545 -0.2188  0.1384
  414TMC3     C 6180   2.565   3.471  15.706 -0.6276 -0.2720  0.5778
  414TMC3     O 6181   2.609   3.475  15.820  0.3798  0.4306 -0.2800
  414TMC3     H 6182   2.727   3.295  15.711 -0.7068  1.9002  1.6256
  414TMC3    H1 6183   2.574   3.561  15.440 -0.6694 -0.1669  0.1697
  414TMC3    H2 6184   2.650   3.155  15.324  0.8002 -0.9326  0.8070
  414TMC3    C7 6185   2.618   3.416  15.245 -0.0162 -0.8249 -0.4445
  414TMC3    C8 6186   2.763   3.092  15.531  0.4618 -0.9702 -0.5119
  414TMC3    O1 6187   2.716   3.485  15.259 -0.3317  0.0131 -0.4522
  414TMC3    O2 6188   2.721   2.996  15.471  0.3806 -0.1157 -0.0259
  415TMC3    C1 6189   3.097   4.701   9.529 -0.0534  0.9748 -0.2808
  415TMC3    C2 6190   3.172   4.692   9.412  0.3372 -0.0344  0.0497
  415TMC3    C3 6191   3.129   4.601   9.317  0.3548  0.0660 -0.1099
  415TMC3    C4 6192   2.997   4.622   9.555  0.1020 -0.0839 -0.3740
  415TMC3    C5 6193   2.976   4.514   9.473  0.8255 -0.8316  0.1614
  415TMC3    C6 6194   3.036   4.508   9.353 -0.6935  0.1617 -0.2142
  415TMC3     C 6195   3.144   0.055   9.646  0.2289  0.8616  0.5733
  415TMC3     O 6196   3.068   0.076   9.737 -0.6364  0.1335  0.1439
  415TMC3     H 6197   3.244   0.048   9.399 -0.6120  0.4555 -2.1828
  415TMC3    H1 6198   2.947   4.636   9.651 -0.5702  0.2077 -0.7686
  415TMC3    H2 6199   2.992   4.449   9.273 -1.8488  1.3034 -0.4258
  415TMC3    C7 6200   2.887   4.411   9.505  0.2975 -0.0641 -0.3019
  415TMC3    C8 6201   3.239   4.536   9.248 -0.3110 -0.2444 -0.3385
  415TMC3    O1 6202   2.850   4.332   9.422 -0.4344 -0.4233 -0.0855
  415TMC3    O2 6203   3.208   4.432   9.188  0.0712 -0.5034  0.4392
  416MPD2     C 6204   0.401   4.319  11.074  0.6169 -0.4981 -0.5304
  416MPD2    C1 6205   0.266   4.342  11.060 -0.7356  0.5139  0.3104
  416MPD2    C2 6206   0.187   4.242  11.012  0.3765 -0.3215  1.1549
  416MPD2    C3 6207   0.242   4.119  10.977  0.1752 -0.9949 -0.3142
  416MPD2    C4 6208   0.379   4.101  10.984  0.3805 -0.3846  0.4902
  416MPD2    C5 6209   0.454   4.202  11.030 -0.4190 -0.4058 -0.3874
  416MPD2     H 6210   0.081   4.262  11.002  0.2856 -1.7334 -0.7482
  416MPD2    H1 6211   0.438   4.037  10.920 -0.3344 -1.4398  0.8682
  416MPD2    H2 6212   0.466   4.393  11.118  0.1827  0.4045 -1.4021
  416MPD2    H3 6213   0.561   4.194  11.017 -0.5728  0.4015 -2.3430
  416MPD2     N 6214   0.156   4.022  10.914 -0.2225  0.0916  0.1568
  416MPD2    H5 6215   0.059   4.052  10.908 -0.1609  0.4348  0.7968
  416MPD2    N1 6216   0.216   4.465  11.106  0.4289  0.5806  0.4168
  416MPD2    H7 6217   0.284   4.530  11.145  1.2884  0.0086 -0.1412
  417TMC3    C1 6218   0.076   4.654  11.113 -0.5572  0.0045 -0.3537
  417TMC3    C2 6219   0.144   4.707  11.223  1.3262 -0.4253 -0.4302
  417TMC3    C3 6220   0.114   0.113  11.250 -0.2320 -0.4111  0.1240
  417TMC3    C4 6221   4.702   4.721  11.050  0.1160 -0.2777 -0.0851
  417TMC3    C5 6222   4.675   0.128  11.083  0.6260 -0.2692  0.7134
  417TMC3    C6 6223   0.027   0.192  11.176  0.2724 -0.2629  0.5452
  417TMC3     C 6224   0.091   4.517  11.083 -0.0413  0.5035  0.0602
  417TMC3     O 6225   0.003   4.475  11.000 -0.0908 -0.0733  0.4922
  417TMC3     H 6226   0.194   4.645  11.297 -1.2711 -0.3465  1.3954
  417TMC3    H1 6227   4.662   4.681  10.958  2.3416 -3.0445  0.1429
  417TMC3    H2 6228   4.719   0.292  11.203  0.0737  0.3478 -1.8943
  417TMC3    C7 6229   4.584   0.198  11.007  0.0605  0.1230 -0.1367
  417TMC3    C8 6230   0.164   0.158  11.377  0.7226 -0.0573  0.4895
  417TMC3    O1 6231   4.618   0.311  10.982  0.1441 -0.6103 -0.0952
  417TMC3    O2 6232   0.274   0.113  11.416 -0.0956  0.7377 -0.3733
  418TMC3    C1 6233   3.894   1.461  17.245 -0.3550 -0.4498  0.6507
  418TMC3    C2 6234   3.787   1.536  17.201  0.4355 -0.0912 -0.2455
  418TMC3    C3 6235   3.732   1.619  17.290 -0.7665  0.5162  0.3779
  418TMC3    C4 6236   3.951   1.463  17.374 -0.5502  0.1805 -0.1439
  418TMC3    C5 6237   3.893   1.551  17.455 -0.1963  0.5590 -0.0124
  418TMC3    C6 6238   3.786   1.628  17.417  0.1800  0.0771  0.0360
  418TMC3     C 6239   3.948   1.378  17.143  0.1369 -0.3929  0.3609
  418TMC3     O 6240   3.944   1.423  17.032 -0.3565  0.4334 -0.2280
  418TMC3     H 6241   3.733   1.510  17.111 -1.2753  2.5007  0.0554
  418TMC3    H1 6242   4.033   1.401  17.407 -1.5496 -1.0385  0.0499
  418TMC3    H2 6243   3.753   1.709  17.482  1.5361  0.3623  0.3634
  418TMC3    C7 6244   3.925   1.528  17.594  0.1196  0.0881 -0.0580
  418TMC3    C8 6245   3.593   1.658  17.267  0.1196  0.4776  0.3941
  418TMC3    O1 6246   3.936   1.411  17.618  0.0432 -0.2094  0.0404
  418TMC3    O2 6247   3.557   1.693  17.155 -0.3283  0.1627 -0.0804
  419MPD2     C 6248   2.323   4.233  12.374  0.6046 -0.1587 -0.3000
  419MPD2    C1 6249   2.324   4.370  12.358 -0.5259 -0.1800 -0.7985
  419MPD2    C2 6250   2.288   4.457  12.455 -0.1480 -0.7772  0.4644
  419MPD2    C3 6251   2.260   4.405  12.582  0.0407 -0.2808 -0.3125
  419MPD2    C4 6252   2.265   4.270  12.601  0.5444 -0.8390  0.9264
  419MPD2    C5 6253   2.298   4.181  12.497  0.2967  0.3537 -0.3597
  419MPD2     H 6254   2.284   4.561  12.425 -0.6015 -0.5826  1.2077
  419MPD2    H1 6255   2.226   4.234  12.695 -1.2076  1.3057  1.0148
  419MPD2    H2 6256   2.330   4.164  12.291 -3.5455 -1.0841  0.1420
  419MPD2    H3 6257   2.297   4.074  12.516 -0.6142  0.1339 -1.6830
  419MPD2     N 6258   2.236   4.504  12.686  0.4709 -0.0488 -0.4442
  419MPD2    H5 6259   2.222   4.601  12.659  0.1846 -0.1108 -0.5219
  419MPD2    N1 6260   2.340   4.427  12.229 -0.3962 -0.5998  0.1994
  419MPD2    H7 6261   2.325   4.528  12.228  0.5903 -0.4950 -2.4096
  420TMC3    C1 6262   2.168   4.605  12.884  0.0681  0.2641  0.1233
  420TMC3    C2 6263   2.131   4.708  12.803  1.2747 -0.2180 -0.0321
  420TMC3    C3 6264   2.125   0.110  12.859 -0.3537  0.5699  0.1249
  420TMC3    C4 6265   2.202   4.616  13.022  0.1128  0.3606 -0.0918
  420TMC3    C5 6266   2.202   0.024  13.063 -0.1992 -0.4896 -0.4722
  420TMC3    C6 6267   2.169   0.135  12.991  0.4979  0.3132 -0.0414
  420TMC3     C 6268   2.212   4.481  12.817 -0.8262 -0.0807 -0.1030
  420TMC3     O 6269   2.218   4.376  12.879  0.1941 -0.9872 -0.1208
  420TMC3     H 6270   2.078   4.690  12.710  2.0724  0.2941 -0.5819
  420TMC3    H1 6271   2.214   4.526  13.081  1.9092  0.5741 -0.1517
  420TMC3    H2 6272   2.155   0.234  13.032 -0.6544  0.2798 -0.3689
  420TMC3    C7 6273   2.240   0.047  13.200  0.1227 -0.3015 -0.6179
  420TMC3    C8 6274   2.044   0.209  12.803 -0.4721 -0.4240 -0.5459
  420TMC3    O1 6275   2.235   4.676  13.276 -0.4983  0.0548  0.3191
  420TMC3    O2 6276   2.023   0.196  12.685 -0.0657  0.7464 -0.6132
  421TMC3    C1 6277   3.087   2.051  13.832  0.2742  0.3103 -0.5319
  421TMC3    C2 6278   3.146   2.133  13.926 -0.3068 -0.1289 -0.4820
  421TMC3    C3 6279   3.264   2.092  13.970 -0.6377  0.2016 -0.2902
  421TMC3    C4 6280   3.145   1.938  13.778  0.6429 -0.2557 -0.3712
  421TMC3    C5 6281   3.273   1.905  13.823  0.2930 -0.6138  1.1510
  421TMC3    C6 6282   3.335   1.982  13.919 -0.4812 -0.1823 -0.1519
  421TMC3     C 6283   3.009   2.126  13.737  0.2618  0.2980 -0.4340
  421TMC3     O 6284   3.030   2.248  13.739 -0.3603 -0.0347  0.3501
  421TMC3     H 6285   3.095   2.222  13.962  1.3926  0.3208  0.7846
  421TMC3    H1 6286   3.101   1.874  13.702 -0.3300  0.1377 -0.1348
  421TMC3    H2 6287   3.418   1.934  13.969 -1.4710 -0.5703  1.1277
  421TMC3    C7 6288   3.328   1.775  13.793 -0.3221 -0.5344 -0.6762
  421TMC3    C8 6289   3.318   2.169  14.082  0.1809  0.5147 -0.0028
  421TMC3    O1 6290   3.447   1.759  13.823  0.0090  0.1591  0.4724
  421TMC3    O2 6291   3.234   2.222  14.156 -0.2211  0.4710  0.3511
  422TMC3    C1 6292   1.150   2.911  12.760 -0.7406  0.4147  0.0765
  422TMC3    C2 6293   1.127   3.040  12.776 -0.6927 -0.0642 -0.3342
  422TMC3    C3 6294   0.998   3.066  12.819 -0.8244  0.3301 -0.0704
  422TMC3    C4 6295   1.058   2.813  12.772 -0.3284 -0.6205 -0.6479
  422TMC3    C5 6296   0.944   2.842  12.829  0.3025  0.4361 -0.3638
  422TMC3    C6 6297   0.908   2.972  12.846 -0.2991 -0.0600  0.3658
  422TMC3     C 6298   1.257   2.882  12.666 -0.4148 -0.4109  1.0514
  422TMC3     O 6299   1.309   2.968  12.600 -0.1674 -0.1418  0.0717
  422TMC3     H 6300   1.189   3.121  12.739  0.9945 -0.3894  1.8252
  422TMC3    H1 6301   1.083   2.708  12.757  1.1263 -0.4592  0.6178
  422TMC3    H2 6302   0.820   3.000  12.902 -1.0942 -1.0769 -0.3654
  422TMC3    C7 6303   0.838   2.736  12.837 -0.0326 -0.3985  0.0347
  422TMC3    C8 6304   0.979   3.210  12.849 -0.2683  0.4615 -0.5567
  422TMC3    O1 6305   0.862   2.627  12.785  0.1307 -0.2950  0.7813
  422TMC3    O2 6306   1.076   3.282  12.858  0.4684 -0.3083  0.1451
  423MPD2     C 6307   2.429   3.022   0.334  0.2142 -0.0166  0.0164
  423MPD2    C1 6308   2.409   3.156   0.364 -0.1374 -0.1943  0.4745
  423MPD2    C2 6309   2.413   3.245   0.255  0.2773 -0.0747  0.0675
  423MPD2    C3 6310   2.456   3.211   0.127 -0.2828 -0.5157 -0.0731
  423MPD2    C4 6311   2.483   3.079   0.103 -0.0405 -1.2772 -0.3071
  423MPD2    C5 6312   2.476   2.988   0.209  0.0723 -1.1928 -0.6915
  423MPD2     H 6313   2.366   3.341   0.273  1.7250  0.4805  0.8304
  423MPD2    H1 6314   2.505   3.032   0.007 -0.9357 -1.0297 -0.6321
  423MPD2    H2 6315   2.408   2.938   0.398  1.1580 -0.5134 -0.3217
  423MPD2    H3 6316   2.506   2.884   0.194 -0.0606 -1.3061 -0.1614
  423MPD2     N 6317   2.452   3.293   0.009  0.0147 -0.5604 -0.1102
  423MPD2    H5 6318   2.485   3.247  17.618  1.2057 -0.0330  0.0637
  423MPD2    N1 6319   2.366   3.196   0.494  0.5278  0.3380  0.0251
  423MPD2    H7 6320   2.347   3.295   0.500  2.9729  0.8163 -0.0248
  424TMC3    C1 6321   2.366   3.195   0.724 -0.3578 -0.0352  0.0298
  424TMC3    C2 6322   2.364   3.114   0.838  0.5998 -0.3248 -0.7983
  424TMC3    C3 6323   2.416   3.169   0.953 -0.4207 -0.0197  0.2287
  424TMC3    C4 6324   2.419   3.318   0.722  0.2954  0.2509 -0.1171
  424TMC3    C5 6325   2.467   3.366   0.835  0.8839  0.1708  0.1945
  424TMC3    C6 6326   2.466   3.298   0.960  0.0827 -0.2259 -0.4207
  424TMC3     C 6327   2.386   3.120   0.601 -0.5774 -0.0631  0.5212
  424TMC3     O 6328   2.407   2.999   0.611 -0.4341  0.3136 -0.0976
  424TMC3     H 6329   2.319   3.016   0.835 -1.9069  0.6235  4.2902
  424TMC3    H1 6330   2.422   3.372   0.628 -0.1974 -0.1020 -0.3395
  424TMC3    H2 6331   2.506   3.338   1.053 -1.8531  2.2848 -0.6916
  424TMC3    C7 6332   2.522   3.504   0.845  0.0011  0.7496  0.1263
  424TMC3    C8 6333   2.414   3.085   1.065  1.3215  0.2485 -0.1116
  424TMC3    O1 6334   2.458   3.592   0.787  0.6588  0.4522 -0.4186
  424TMC3    O2 6335   2.354   2.980   1.072 -0.2893  0.3157  0.6132
  425MPD2     C 6336   1.289   3.256  17.182  0.1432 -0.8795 -0.3055
  425MPD2    C1 6337   1.273   3.179  17.299  0.4478  0.4631 -0.0978
  425MPD2    C2 6338   1.190   3.214  17.404 -0.6894 -1.0042  0.1180
  425MPD2    C3 6339   1.101   3.316  17.385 -0.8300  0.2547 -0.0734
  425MPD2    C4 6340   1.104   3.395  17.271 -0.6885 -0.4157 -0.0625
  425MPD2    C5 6341   1.196   3.358  17.171  0.5900 -0.4980 -0.3530
  425MPD2     H 6342   1.185   3.161  17.498  1.1922 -0.2796  0.6162
  425MPD2    H1 6343   1.037   3.479  17.254 -1.9801 -1.3600  0.3944
  425MPD2    H2 6344   1.360   3.241  17.101 -0.8169  2.2598 -1.7313
  425MPD2    H3 6345   1.191   3.411  17.077  0.8672  0.1939  0.0203
  425MPD2     N 6346   1.009   3.327  17.490  0.4276 -0.1682  0.4771
  425MPD2    H5 6347   1.021   3.264  17.569  1.3784 -0.2975  0.2212
  425MPD2    N1 6348   1.366   3.074  17.320  0.7548 -0.2426  0.4588
  425MPD2    H7 6349   1.426   3.041  17.246  1.6232  1.2874  0.4841
  426TMC3    C1 6350   1.473   2.890  17.437 -0.5275  0.0188  0.3040
  426TMC3    C2 6351   1.472   2.812  17.323  0.8754 -0.2651 -0.2254
  426TMC3    C3 6352   1.513   2.682  17.342  0.6874 -0.3894  0.0664
  426TMC3    C4 6353   1.504   2.841  17.560 -1.1681  0.3781 -0.0484
  426TMC3    C5 6354   1.538   2.709  17.571 -0.0459 -0.1578  0.4142
  426TMC3    C6 6355   1.556   2.630  17.460  0.1883  0.2285 -0.3651
  426TMC3     C 6356   1.399   3.018  17.441  0.1144 -0.2141  0.5643
  426TMC3     O 6357   1.372   3.057  17.553  0.1280  0.9350  0.7466
  426TMC3     H 6358   1.443   2.845  17.224  2.1438 -2.5263 -1.3542
  426TMC3    H1 6359   1.507   2.908  17.645 -0.6735 -1.5361  1.4634
  426TMC3    H2 6360   1.587   2.526  17.463  0.6898  0.4379  1.6733
  426TMC3    C7 6361   1.511   2.633  17.691 -0.6972 -0.7423 -0.7697
  426TMC3    C8 6362   1.491   2.595  17.236  0.4023 -0.2467 -0.2209
  426TMC3    O1 6363   1.555   2.521  17.690  0.0547 -0.4544 -0.8962
  426TMC3    O2 6364   1.570   2.508  17.214 -0.0453 -0.2511  0.2478
  427MPD2     C 6365   4.721   0.484  14.807  0.0865 -0.4576 -0.0196
  427MPD2    C1 6366   0.006   0.510  14.942  0.6439 -0.1965  0.0590
  427MPD2    C2 6367   4.623   0.583  15.001 -0.1330 -0.7188  0.9495
  427MPD2    C3 6368   4.516   0.631  14.928  0.5830  0.0053  0.4763
  427MPD2    C4 6369   4.515   0.605  14.794 -0.4029 -0.0131 -0.0772
  427MPD2    C5 6370   4.619   0.531  14.739 -0.0073  0.0099 -0.1655
  427MPD2     H 6371   4.633   0.607  15.107 -0.0864 -1.3116  1.0825
  427MPD2    H1 6372   4.434   0.651  14.739 -0.5799  0.2380  0.3955
  427MPD2    H2 6373   0.062   0.415  14.753  2.2489  0.7263  1.0411
  427MPD2    H3 6374   4.616   0.510  14.632  0.1869  0.2092 -0.2104
  427MPD2     N 6375   4.411   0.703  14.987  0.4216 -0.0333 -0.0103
  427MPD2    H5 6376   4.320   0.702  14.943  0.8980  4.1959 -1.1431
  427MPD2    N1 6377   0.109   0.463  15.026 -0.5213  0.7083  0.4203
  427MPD2    H7 6378   0.086   0.435  15.121  2.6470 -0.9282  0.6883
  428TMC3    C1 6379   0.299   0.338  15.070  0.2720  0.2097  0.1066
  428TMC3    C2 6380   0.238   0.240  15.137  0.3698 -0.3685  0.2502
  428TMC3    C3 6381   0.323   0.139  15.177 -0.3941 -0.5778  0.8207
  428TMC3    C4 6382   0.433   0.347  15.047 -0.7148 -0.0187 -0.0350
  428TMC3    C5 6383   0.511   0.236  15.078  0.1159  0.1520  0.8848
  428TMC3    C6 6384   0.460   0.133  15.148 -0.0835  0.2600 -0.0753
  428TMC3     C 6385   0.226   0.418  14.973  0.0274 -0.1495 -0.5417
  428TMC3     O 6386   0.277   0.427  14.861  0.7348  0.0648 -0.1408
  428TMC3     H 6387   0.131   0.240  15.152  0.3364  1.5667  0.0451
  428TMC3    H1 6388   0.475   0.434  14.999 -1.1272  0.1632 -0.0709
  428TMC3    H2 6389   0.516   0.045  15.177  2.7815  1.1727 -2.7409
  428TMC3    C7 6390   0.653   0.255  15.118 -0.0767  0.5302  0.3317
  428TMC3    C8 6391   0.251   0.018  15.214  0.2084  0.3161 -0.3582
  428TMC3    O1 6392   0.684   0.223  15.232  0.0024  0.3144 -0.4625
  428TMC3    O2 6393   0.325   4.643  15.210 -0.5703 -0.2095  0.5298
  429MPD2     C 6394   0.601   0.303   0.177 -0.0420 -0.0003  0.8473
  429MPD2    C1 6395   0.692   0.227   0.107 -0.1851  0.1236  0.5370
  429MPD2    C2 6396   0.776   0.291   0.016  1.0107  0.0970 -0.1095
  429MPD2    C3 6397   0.749   0.417  17.664 -0.3587 -0.2785 -0.4977
  429MPD2    C4 6398   0.656   0.492   0.037  0.3781 -0.4459  0.0453
  429MPD2    C5 6399   0.591   0.432   0.144  0.3848  0.0642  0.2187
  429MPD2     H 6400   0.854   0.233  17.662  0.1379 -0.4555 -0.8536
  429MPD2    H1 6401   0.629   0.593   0.008 -0.0070 -0.4803  0.2821
  429MPD2    H2 6402   0.523   0.262   0.239 -1.8368  0.6214 -1.0165
  429MPD2    H3 6403   0.514   0.492   0.191  0.7234  2.2793 -2.0611
  429MPD2     N 6404   0.821   0.453  17.549  0.0934  0.4339 -0.3057
  429MPD2    H5 6405   0.878   0.381  17.505 -0.0511  0.6505 -0.8399
  429MPD2    N1 6406   0.702   0.085   0.135  0.5829  0.8808  0.2820
  429MPD2    H7 6407   0.773   0.030   0.088 -0.3467 -0.1639  0.0946
  430TMC3    C1 6408   0.884   0.584  17.365 -0.5593  0.3010 -0.1243
  430TMC3    C2 6409   0.861   0.697  17.294 -0.6162  0.5679  0.3467
  430TMC3    C3 6410   0.963   0.758  17.221 -0.2262 -0.6642  0.0316
  430TMC3    C4 6411   1.010   0.531  17.374  0.0088 -0.9336  0.3107
  430TMC3    C5 6412   1.115   0.600  17.305  0.5647  0.0200  0.3816
  430TMC3    C6 6413   1.085   0.706  17.227 -0.3782  0.0147 -0.4762
  430TMC3     C 6414   0.789   0.563  17.472  0.7672 -0.0947  0.1597
  430TMC3     O 6415   0.694   0.641  17.475  0.3307 -0.0350 -0.6736
  430TMC3     H 6416   0.764   0.745  17.285 -0.6168  0.4007 -0.5832
  430TMC3    H1 6417   1.034   0.441  17.429  3.1047 -0.9283 -1.0351
  430TMC3    H2 6418   1.166   0.749  17.168  1.3081 -0.1751  1.6769
  430TMC3    C7 6419   1.242   0.537  17.282  0.0069  0.2910  0.7861
  430TMC3    C8 6420   0.933   0.823  17.094  0.0093  1.0074 -0.2855
  430TMC3    O1 6421   1.242   0.415  17.290 -0.5377  0.4261 -0.2977
  430TMC3    O2 6422   1.027   0.870  17.031  0.1765  0.9171 -0.1757
  431MPD2     C 6423   2.226   0.453  12.254  0.1740  0.0232 -0.7098
  431MPD2    C1 6424   2.353   0.457  12.202  0.4268  0.2220  0.2317
  431MPD2    C2 6425   2.396   0.354  12.124  0.0548  0.5549 -0.0245
  431MPD2    C3 6426   2.311   0.249  12.080  0.1543  0.9754  0.4500
  431MPD2    C4 6427   2.182   0.262  12.112 -1.2100  0.4201 -0.0090
  431MPD2    C5 6428   2.139   0.363  12.198  0.1580 -0.7763  0.3610
  431MPD2     H 6429   2.501   0.346  12.100  0.1353  1.0346  0.1538
  431MPD2    H1 6430   2.107   0.188  12.086 -0.5782 -0.7691  1.5434
  431MPD2    H2 6431   2.192   0.540  12.309 -1.0158 -2.1282  2.0091
  431MPD2    H3 6432   2.036   0.384  12.226  0.5433 -1.1237  2.0604
  431MPD2     N 6433   2.348   0.132  12.022  0.0820  0.1050 -0.3600
  431MPD2    H5 6434   2.276   0.060  12.019  1.8909 -1.7376  0.9264
  431MPD2    N1 6435   2.454   0.544  12.242 -0.1609  0.1880 -0.1520
  431MPD2    H7 6436   2.534   0.548  12.179 -0.0710  3.4083  0.1998
  432TMC3    C1 6437   2.496   4.678  11.963 -0.2212 -0.6329  0.7489
  432TMC3    C2 6438   2.597   4.645  11.879 -0.2036  0.1044 -0.8380
  432TMC3    C3 6439   2.602   4.506  11.853 -1.3503 -0.0791  1.9172
  432TMC3    C4 6440   2.412   4.594  12.029 -0.3950  0.1069  0.3952
  432TMC3    C5 6441   2.437   4.463  12.015  0.1540  0.9878 -0.0904
  432TMC3    C6 6442   2.527   4.412  11.924  0.4320  0.3347 -0.4503
  432TMC3     C 6443   2.476   0.098  11.978 -1.0170  0.6881 -0.6382
  432TMC3     O 6444   2.572   0.168  11.942  0.7101 -0.1440  0.2277
  432TMC3     H 6445   2.654   4.711  11.814  0.5918  0.9264  0.6717
  432TMC3    H1 6446   2.322   4.624  12.082 -2.0864 -0.7990 -1.9758
  432TMC3    H2 6447   2.557   4.308  11.917  0.5471  0.2421  1.4711
  432TMC3    C7 6448   2.397   4.369  12.119 -0.3852 -0.6988  0.5004
  432TMC3    C8 6449   2.729   4.467  11.800  0.0480  0.1556  0.3487
  432TMC3    O1 6450   2.459   4.264  12.115 -0.6066  0.0150 -0.3074
  432TMC3    O2 6451   2.734   4.355  11.751 -0.4771  0.0871  0.1965
  433MPD2     C 6452   0.929   3.598  10.634  0.6713 -0.0843 -0.0755
  433MPD2    C1 6453   0.889   3.541  10.754 -0.5271  0.4736 -0.6375
  433MPD2    C2 6454   0.939   3.590  10.874  0.5408  0.0993 -0.1874
  433MPD2    C3 6455   1.033   3.693  10.881 -1.0569 -0.2322 -0.4382
  433MPD2    C4 6456   1.086   3.738  10.758  0.4661 -0.3029 -0.0107
  433MPD2    C5 6457   1.027   3.690  10.641 -0.3760  0.1759 -0.1478
  433MPD2     H 6458   0.893   3.558  10.967  1.4824 -1.2478 -0.1822
  433MPD2    H1 6459   1.157   3.819  10.754 -0.7328  0.6001 -2.8619
  433MPD2    H2 6460   0.897   3.575  10.534 -0.7455 -1.3186  0.6581
  433MPD2    H3 6461   1.065   3.728  10.547 -2.7903  0.6123 -0.9520
  433MPD2     N 6462   1.073   3.731  11.012  0.0029 -0.1063  0.1652
  433MPD2    H5 6463   1.032   3.683  11.091 -1.2350  0.8987  0.1257
  433MPD2    N1 6464   0.781   3.449  10.751 -0.3368 -0.1652 -0.3180
  433MPD2    H7 6465   0.725   3.445  10.667  2.3441 -0.4429 -2.0880
  434TMC3    C1 6466   0.676   3.245  10.806  0.3069 -0.4092 -0.1062
  434TMC3    C2 6467   0.691   3.147  10.893  0.0447 -0.5172  0.5430
  434TMC3    C3 6468   0.766   3.033  10.858 -0.6226 -0.0043 -0.4755
  434TMC3    C4 6469   0.693   3.224  10.673 -0.7008  0.4879  0.9811
  434TMC3    C5 6470   0.755   3.112  10.637 -1.3006  0.4477 -0.1574
  434TMC3    C6 6471   0.813   3.021  10.729 -0.0911  0.2997 -0.0382
  434TMC3     C 6472   0.738   3.364  10.856  0.0202 -0.1337 -0.0080
  434TMC3     O 6473   0.778   3.361  10.973  0.3214 -0.2410  0.2159
  434TMC3     H 6474   0.680   3.167  10.999  1.7766 -1.9780  1.0057
  434TMC3    H1 6475   0.646   3.283  10.595  2.5803  1.8130  0.0153
  434TMC3    H2 6476   0.853   2.928  10.690  1.6223  0.7904  0.5295
  434TMC3    C7 6477   0.701   3.036  10.527 -0.4413 -0.0572  0.3018
  434TMC3    C8 6478   0.846   2.961  10.959 -0.3025  0.2661 -0.2320
  434TMC3    O1 6479   0.777   2.956  10.478  0.1108  0.2784  0.3266
  434TMC3    O2 6480   0.805   2.934  11.071  0.5092 -0.4909 -0.1910
  435MPD2     C 6481   3.101   3.891  15.549  0.0657 -0.3720 -0.1645
  435MPD2    C1 6482   3.053   3.858  15.678  0.3750  0.1820 -1.0855
  435MPD2    C2 6483   3.142   3.797  15.762 -0.4433  0.8015 -0.0105
  435MPD2    C3 6484   3.271   3.773  15.728  0.3047 -0.0060 -0.3910
  435MPD2    C4 6485   3.317   3.802  15.597  0.5172 -0.2815 -0.0144
  435MPD2    C5 6486   3.229   3.862  15.511  0.4191  0.5905  0.2481
  435MPD2     H 6487   3.110   3.762  15.859  3.7863 -2.3944  0.2369
  435MPD2    H1 6488   3.420   3.795  15.565 -0.1401  0.3506 -2.2972
  435MPD2    H2 6489   3.027   3.923  15.476  0.9521 -1.0286 -1.3594
  435MPD2    H3 6490   3.265   3.880  15.411  1.8574 -2.2480  0.2645
  435MPD2     N 6491   3.358   3.708  15.823 -0.5976  0.0963  0.1867
  435MPD2    H5 6492   3.324   3.693  15.917 -2.0865 -1.4767 -0.6224
  435MPD2    N1 6493   2.913   3.856  15.709 -0.1775 -0.3844  0.2872
  435MPD2    H7 6494   2.883   3.836  15.804 -0.8259 -2.5708 -0.3713
  436TMC3    C1 6495   2.555   3.846  15.892  0.0990  0.8722  0.6200
  436TMC3    C2 6496   2.676   3.870  15.835  0.8106  0.8652  0.1380
  436TMC3    C3 6497   2.681   3.849  15.700  0.7407  0.6242  0.0833
  436TMC3    C4 6498   2.436   3.825  15.825  0.0208  0.0627 -0.2987
  436TMC3    C5 6499   2.447   3.817  15.687 -0.5239  0.4100  0.0395
  436TMC3    C6 6500   2.569   3.834  15.622 -0.3772 -0.5599  0.1684
  436TMC3     C 6501   2.555   3.849  16.039  0.5468  0.3390 -0.4088
  436TMC3     O 6502   2.649   3.804  16.105 -0.1319 -0.1479 -0.0404
  436TMC3     H 6503   2.764   3.887  15.895  0.6578 -0.5179  0.7505
  436TMC3    H1 6504   2.352   3.781  15.878  0.8533  0.2198  1.1411
  436TMC3    H2 6505   2.584   3.829  15.515  0.8418 -1.3986  0.3770
  436TMC3    C7 6506   2.328   3.781  15.607 -0.2374  0.9488  0.0782
  436TMC3    C8 6507   2.806   3.875  15.623 -0.4952 -0.1308 -0.0896
  436TMC3    O1 6508   2.355   3.752  15.492  0.3475  0.0291  0.4179
  436TMC3    O2 6509   2.799   3.882  15.499 -0.0455  0.2889  0.0402
  437TMC3    C1 6510   2.182   0.618  12.805  0.2364 -0.4298 -0.4767
  437TMC3    C2 6511   2.150   0.683  12.922 -0.2423 -0.0063  0.1280
  437TMC3    C3 6512   2.089   0.805  12.902 -0.1168  0.5251  0.2982
  437TMC3    C4 6513   2.162   0.672  12.681 -0.0464  0.2117  0.6003
  437TMC3    C5 6514   2.096   0.789  12.670  0.5639  0.8921 -0.5440
  437TMC3    C6 6515   2.052   0.854  12.779  0.0540  0.2788 -0.2792
  437TMC3     C 6516   2.267   0.505  12.825 -0.3888 -0.4908  0.8944
  437TMC3     O 6517   2.282   0.463  12.939  0.2868 -0.6540  0.1358
  437TMC3     H 6518   2.169   0.644  13.021 -3.0210 -0.6059  0.4117
  437TMC3    H1 6519   2.175   0.617  12.589 -0.1721  2.4011 -0.7398
  437TMC3    H2 6520   1.982   0.936  12.769  1.1824  0.8639 -3.3580
  437TMC3    C7 6521   2.133   0.874  12.555 -0.0670  0.1199  0.3989
  437TMC3    C8 6522   2.053   0.894  13.008 -0.8400  0.2769 -0.2072
  437TMC3    O1 6523   2.133   0.822  12.445  0.1206  0.3424  0.5593
  437TMC3    O2 6524   2.038   1.012  12.982  1.2867  0.1895  0.5128
  438MPD2     C 6525   4.056   1.494  16.260 -0.3143 -0.1220  0.0177
  438MPD2    C1 6526   4.028   1.415  16.371  1.4284 -0.1742  1.1398
  438MPD2    C2 6527   3.922   1.452  16.452  0.1993 -0.5903 -0.4521
  438MPD2    C3 6528   3.850   1.569  16.430 -0.2952  0.1620 -0.4014
  438MPD2    C4 6529   3.886   1.646  16.322  0.0511  0.2725  0.7008
  438MPD2    C5 6530   3.993   1.609  16.241 -0.0271 -1.0137 -0.5451
  438MPD2     H 6531   3.899   1.386  16.535 -0.0529  2.2442  1.7095
  438MPD2    H1 6532   3.840   1.741  16.296  1.0450 -0.2326 -2.8996
  438MPD2    H2 6533   4.141   1.476  16.196 -0.7865 -0.7237 -0.4381
  438MPD2    H3 6534   4.019   1.670  16.155  3.2540 -1.9955 -0.2301
  438MPD2     N 6535   3.735   1.592  16.512 -0.2156 -0.1443  0.0106
  438MPD2    H5 6536   3.709   1.514  16.572 -0.5694  0.3524  0.4966
  438MPD2    N1 6537   4.119   1.313  16.420  0.1277  0.2055 -0.6034
  438MPD2    H7 6538   4.096   1.278  16.513 -0.5741 -0.3741 -0.9967
  439TMC3    C1 6539   4.285   1.159  16.431  0.7676 -0.1207 -0.1749
  439TMC3    C2 6540   4.341   1.053  16.368 -0.4357  0.5821  0.8150
  439TMC3    C3 6541   4.416   0.979  16.442  0.4495  0.5945 -0.0508
  439TMC3    C4 6542   4.317   1.199  16.558 -0.1930 -0.2500  0.3371
  439TMC3    C5 6543   4.409   1.126  16.626 -0.1284  0.0045  0.4308
  439TMC3    C6 6544   4.446   1.006  16.573 -0.1064 -0.6157  0.1833
  439TMC3     C 6545   4.199   1.238  16.339  0.5062 -0.8037  0.2910
  439TMC3     O 6546   4.212   1.240  16.218 -0.0191  0.3924 -0.3612
  439TMC3     H 6547   4.326   1.021  16.265 -1.2705 -2.6699  1.9414
  439TMC3    H1 6548   4.276   1.288  16.604 -2.0635 -1.7487  1.5597
  439TMC3    H2 6549   4.514   0.937  16.621 -0.5823 -1.1108  0.1444
  439TMC3    C7 6550   4.445   1.154  16.762 -0.4440  0.4513  0.3422
  439TMC3    C8 6551   4.513   0.895  16.368  0.1414 -0.0560 -0.7004
  439TMC3    O1 6552   4.494   1.062  16.827  0.8014 -0.0958  0.5309
  439TMC3    O2 6553   4.627   0.910  16.405 -0.0750 -0.0983  0.1845
  440MPD2     C 6554   2.344   2.265  15.122 -0.1017 -0.2700 -0.1035
  440MPD2    C1 6555   2.393   2.391  15.142  0.3680 -0.4211 -0.4754
  440MPD2    C2 6556   2.531   2.414  15.162 -0.5353 -0.1901 -0.0586
  440MPD2    C3 6557   2.617   2.312  15.149  0.3848  0.1869  0.4851
  440MPD2    C4 6558   2.575   2.197  15.098  0.0548  0.7014 -0.4773
  440MPD2    C5 6559   2.439   2.171  15.094  0.1447 -0.1226  0.6846
  440MPD2     H 6560   2.566   2.513  15.190  0.5894 -0.6810  0.2732
  440MPD2    H1 6561   2.640   2.112  15.079  0.6387  1.9179 -3.9586
  440MPD2    H2 6562   2.240   2.245  15.101 -0.2960 -0.0098  0.6052
  440MPD2    H3 6563   2.408   2.068  15.082  4.0156 -1.2086  0.0055
  440MPD2     N 6564   2.755   2.329  15.160  0.4742 -0.3022  0.0825
  440MPD2    H5 6565   2.814   2.255  15.124  0.3809 -0.8130  1.0066
  440MPD2    N1 6566   2.307   2.501  15.157 -0.5815 -0.0220 -0.2593
  440MPD2    H7 6567   2.210   2.486  15.181 -0.5325 -1.5071 -0.9225
  441TMC3    C1 6568   2.956   2.410  15.230  0.3223  0.0701 -0.5012
  441TMC3    C2 6569   3.030   2.515  15.276  0.0038 -1.0043 -0.0343
  441TMC3    C3 6570   3.146   2.496  15.343  0.4423 -0.1243  0.6262
  441TMC3    C4 6571   2.983   2.285  15.274  0.2276 -0.3917  0.3288
  441TMC3    C5 6572   3.096   2.267  15.347  0.3840  0.1177  0.0807
  441TMC3    C6 6573   3.187   2.367  15.372  0.1199 -0.0985 -0.3976
  441TMC3     C 6574   2.815   2.439  15.208  0.0675  0.1212  0.0561
  441TMC3     O 6575   2.776   2.546  15.252  0.1101  0.0495  0.1339
  441TMC3     H 6576   3.006   2.614  15.240 -3.3804 -1.8936 -0.2338
  441TMC3    H1 6577   2.925   2.195  15.263  0.8745 -1.0967  2.7265
  441TMC3    H2 6578   3.288   2.345  15.406 -0.8208  2.6166  4.0970
  441TMC3    C7 6579   3.084   2.169  15.453 -0.8018 -0.1320  0.0905
  441TMC3    C8 6580   3.187   2.601  15.443 -0.3236 -0.2899  0.0654
  441TMC3    O1 6581   2.986   2.102  15.456  0.2770 -0.4458 -0.0554
  441TMC3    O2 6582   3.274   2.582  15.525 -0.5050 -0.5414 -0.4217
  442MPD2     C 6583   0.901   2.966  16.684 -0.2238  0.0845 -0.9340
  442MPD2    C1 6584   0.794   2.891  16.727 -0.3347  0.2897  0.7353
  442MPD2    C2 6585   0.798   2.756  16.702  0.1207 -0.0777 -0.3023
  442MPD2    C3 6586   0.910   2.691  16.649 -0.0625  1.1031  0.8313
  442MPD2    C4 6587   1.009   2.764  16.601 -0.0999 -0.5694 -0.2492
  442MPD2    C5 6588   1.008   2.903  16.618 -0.0775  0.6896  0.0735
  442MPD2     H 6589   0.718   2.691  16.734 -0.1816  0.9401  1.0310
  442MPD2    H1 6590   1.102   2.728  16.560 -0.2890  2.3812 -3.2694
  442MPD2    H2 6591   0.905   3.073  16.699  1.0949 -0.2303  0.9058
  442MPD2    H3 6592   1.098   2.957  16.592 -1.1631  2.4008 -0.1348
  442MPD2     N 6593   0.926   2.553  16.629  0.2711  0.3694  0.5340
  442MPD2    H5 6594   1.016   2.531  16.587  0.3953  1.3437  0.2830
  442MPD2    N1 6595   0.678   2.948  16.790  0.1049  0.2208  0.1428
  442MPD2    H7 6596   0.605   2.883  16.817  1.0879 -0.2766  1.6008
  443TMC3    C1 6597   0.548   3.110  16.892 -0.1328  0.1126  0.0946
  443TMC3    C2 6598   0.474   3.205  16.822  0.0918  0.1042 -0.3153
  443TMC3    C3 6599   0.340   3.218  16.846  0.7602 -0.0221  0.4488
  443TMC3    C4 6600   0.478   3.034  16.979 -0.7301 -0.1936 -0.0475
  443TMC3    C5 6601   0.342   3.045  16.989  0.7821 -0.5903  0.1776
  443TMC3    C6 6602   0.267   3.140  16.930 -0.7058 -0.2654 -0.1632
  443TMC3     C 6603   0.669   3.076  16.831  0.1767 -1.2475 -0.0583
  443TMC3     O 6604   0.733   3.170  16.792 -0.2469 -0.0143  0.3358
  443TMC3     H 6605   0.516   3.269  16.745  0.3744  1.4570  0.9596
  443TMC3    H1 6606   0.526   2.966  17.048 -2.4913 -2.1183 -0.6956
  443TMC3    H2 6607   0.159   3.145  16.924 -0.6220 -0.5758 -1.9501
  443TMC3    C7 6608   0.277   2.978  17.106 -0.4361  0.1420 -0.2022
  443TMC3    C8 6609   0.252   3.295  16.769  0.6025  0.1307  0.5995
  443TMC3    O1 6610   0.333   2.886  17.157  0.3362 -0.3590 -0.3769
  443TMC3    O2 6611   0.157   3.343  16.830  0.2463  0.0378  0.0900
  444MPD2     C 6612   1.308   2.256  17.392 -0.6234  0.2333 -0.2976
  444MPD2    C1 6613   1.216   2.167  17.337 -0.8083 -1.0338  0.1585
  444MPD2    C2 6614   1.262   2.067  17.252  0.2685  0.0094 -0.0736
  444MPD2    C3 6615   1.395   2.052  17.226 -0.3591  0.5945  0.7507
  444MPD2    C4 6616   1.481   2.145  17.273 -0.0785  0.3192  0.3576
  444MPD2    C5 6617   1.431   2.244  17.354  0.2102 -0.3092 -0.2294
  444MPD2     H 6618   1.197   1.996  17.204  0.0304  1.0440 -1.2944
  444MPD2    H1 6619   1.579   2.152  17.228 -0.9190 -2.4368 -1.8951
  444MPD2    H2 6620   1.284   2.343  17.452  1.9832  0.3667  0.5412
  444MPD2    H3 6621   1.498   2.322  17.389  1.2404 -1.0772 -0.4679
  444MPD2     N 6622   1.444   1.954  17.131  0.1251  0.4378  0.1339
  444MPD2    H5 6623   1.375   1.899  17.081  2.4365 -2.6824  0.4132
  444MPD2    N1 6624   1.079   2.165  17.377 -0.2201  0.6065  0.0136
  444MPD2    H7 6625   1.014   2.109  17.323 -0.7275 -0.6560  1.9385
  445TMC3    C1 6626   1.598   1.828  17.001 -0.3154  0.3025 -0.6534
  445TMC3    C2 6627   1.504   1.730  16.993 -0.3884 -0.4824 -0.5480
  445TMC3    C3 6628   1.519   1.612  16.924 -0.3234  0.1275 -0.4933
  445TMC3    C4 6629   1.714   1.818  16.930 -0.3178  0.2253  0.1030
  445TMC3    C5 6630   1.723   1.702  16.859 -0.1227  0.4480  0.9122
  445TMC3    C6 6631   1.631   1.603  16.850 -0.0468  0.1145  0.1283
  445TMC3     C 6632   1.578   1.938  17.088 -0.9532 -0.3975 -0.2640
  445TMC3     O 6633   1.683   2.000  17.099  0.0211 -0.0756  0.3353
  445TMC3     H 6634   1.424   1.736  17.066  0.5482 -0.7230  0.4991
  445TMC3    H1 6635   1.795   1.888  16.941 -0.2220 -0.2639  2.3781
  445TMC3    H2 6636   1.654   1.511  16.797 -2.0004 -1.5168  2.0960
  445TMC3    C7 6637   1.846   1.679  16.782  0.6773  0.0753 -0.6497
  445TMC3    C8 6638   1.414   1.526  16.903  0.8266  0.2428  0.4410
  445TMC3    O1 6639   1.841   1.603  16.683  0.1956 -0.2625  0.1061
  445TMC3    O2 6640   1.298   1.564  16.926  0.7226  0.1192 -0.1391
  446MPD2     C 6641   0.859   3.105  11.466 -0.4367 -0.4873 -1.3239
  446MPD2    C1 6642   0.802   3.114  11.345 -0.6882  0.3162  0.9475
  446MPD2    C2 6643   0.863   3.193  11.246  0.1650 -0.2271 -0.3276
  446MPD2    C3 6644   1.000   3.225  11.253  1.0541 -0.3278  0.1471
  446MPD2    C4 6645   1.061   3.206  11.378 -0.9200 -0.6196  0.0294
  446MPD2    C5 6646   0.987   3.152  11.480 -0.4678 -0.3453 -0.3775
  446MPD2     H 6647   0.809   3.213  11.154  0.2610  0.8649 -0.1567
  446MPD2    H1 6648   1.159   3.241  11.410 -0.9995  0.5061 -0.9589
  446MPD2    H2 6649   0.805   3.061  11.548 -0.0733 -0.9747 -1.3486
  446MPD2    H3 6650   1.029   3.144  11.579 -3.5277 -0.8075  0.8628
  446MPD2     N 6651   1.065   3.271  11.135  0.1895 -0.0157  0.0599
  446MPD2    H5 6652   1.010   3.290  11.052 -1.3694 -0.0929  1.0598
  446MPD2    N1 6653   0.687   3.051  11.306 -0.5659  0.0018  0.3998
  446MPD2    H7 6654   0.646   3.071  11.215  1.2620  1.4723 -0.0999
  447TMC3    C1 6655   1.246   3.331  10.992  0.3606 -0.2420 -0.3913
  447TMC3    C2 6656   1.174   3.307  10.877 -0.2905 -0.1064 -0.1692
  447TMC3    C3 6657   1.239   3.329  10.760  0.5176 -0.3220  0.2967
  447TMC3    C4 6658   1.380   3.355  10.987  0.3625  0.0416  0.6570
  447TMC3    C5 6659   1.436   3.362  10.862  0.4814 -0.4235 -0.3427
  447TMC3    C6 6660   1.371   3.355  10.746  0.0078  0.2977  0.2012
  447TMC3     C 6661   1.203   3.276  11.120  0.4886  0.5017 -0.9566
  447TMC3     O 6662   1.293   3.232  11.192 -0.1617  0.7821 -0.1460
  447TMC3     H 6663   1.069   3.283  10.887 -0.6426  1.7562  0.6435
  447TMC3    H1 6664   1.442   3.363  11.076  0.8158  1.7885  0.1981
  447TMC3    H2 6665   1.418   3.363  10.649 -0.2217  1.2080  0.1669
  447TMC3    C7 6666   1.568   3.302  10.854 -0.9373  0.1770 -0.2511
  447TMC3    C8 6667   1.161   3.277  10.643 -0.2460 -0.3243 -0.7106
  447TMC3    O1 6668   1.636   3.312  10.754 -0.4528  0.3780 -0.0417
  447TMC3    O2 6669   1.094   3.176  10.652 -0.0198 -0.2306 -0.0991
  448TMC3    C1 6670   4.076   3.582  17.259 -0.1935 -0.2417  0.1270
  448TMC3    C2 6671   4.136   3.529  17.148  0.7772  1.0959 -0.2594
  448TMC3    C3 6672   4.084   3.407  17.111 -0.1694  0.1116  0.2939
  448TMC3    C4 6673   3.966   3.527  17.318 -0.2985  0.1147 -0.0690
  448TMC3    C5 6674   3.925   3.402  17.283 -0.0892 -0.4636  0.0127
  448TMC3    C6 6675   3.982   3.343  17.176 -0.0844 -0.3856 -0.0946
  448TMC3     C 6676   4.126   3.696  17.321  0.8865  0.8823  0.3801
  448TMC3     O 6677   4.043   3.767  17.376  0.3634  0.2555  1.0310
  448TMC3     H 6678   4.222   3.573  17.098  2.2537  0.2063  1.4912
  448TMC3    H1 6679   3.934   3.577  17.408  2.2886  1.0281  0.3333
  448TMC3    H2 6680   3.948   3.247  17.139 -0.4315 -0.9145  1.5755
  448TMC3    C7 6681   3.848   3.330  17.376 -0.0988 -0.2872 -0.2718
  448TMC3    C8 6682   4.184   3.306  17.085  0.1050  0.0607  0.6287
  448TMC3    O1 6683   3.780   3.397  17.448  0.1586 -0.5891 -0.5142
  448TMC3    O2 6684   4.157   3.200  17.139 -0.4904  0.3759 -0.5483
  449MPD2     C 6685   0.276   1.841  14.217 -0.6270 -0.6929  0.3943
  449MPD2    C1 6686   0.162   1.906  14.170  0.7578  0.0613  0.4347
  449MPD2    C2 6687   0.046   1.831  14.176  0.2494 -0.4884 -0.3386
  449MPD2    C3 6688   0.035   1.705  14.231 -1.1185 -0.5882 -0.9072
  449MPD2    C4 6689   0.154   1.649  14.282 -0.1234  0.2760 -0.0416
  449MPD2    C5 6690   0.272   1.717  14.270 -0.3278 -0.5869  0.6403
  449MPD2     H 6691   4.682   1.865  14.120  1.0882  2.5684  0.2057
  449MPD2    H1 6692   0.153   1.558  14.341 -2.7351  1.5003  1.7540
  449MPD2    H2 6693   0.371   1.888  14.193  0.2794 -1.8767  1.6687
  449MPD2    H3 6694   0.363   1.665  14.296  0.3549 -0.2486 -1.0576
  449MPD2     N 6695   4.633   1.650  14.230 -0.0574  0.2850  0.2247
  449MPD2    H5 6696   4.564   1.698  14.174 -0.2897  0.2834  0.5120
  449MPD2    N1 6697   0.152   2.038  14.119 -0.0240 -0.3247  0.1621
  449MPD2    H7 6698   0.059   2.068  14.091  0.5672  1.3376 -0.0167
  450TMC3    C1 6699   0.192   2.244  14.035  0.5801 -0.3637 -0.9679
  450TMC3    C2 6700   0.236   2.277  13.905  0.3543  0.4967 -1.0275
  450TMC3    C3 6701   0.141   2.313  13.814  0.5666  0.5541  0.0557
  450TMC3    C4 6702   0.063   2.248  14.075 -0.2799 -0.3783 -0.3793
  450TMC3    C5 6703   4.692   2.279  13.977  0.2071 -1.0160  0.3493
  450TMC3    C6 6704   0.007   2.315  13.848 -0.7283 -0.1239 -0.5573
  450TMC3     C 6705   0.250   2.118  14.079 -0.3592  0.0200  0.5179
  450TMC3     O 6706   0.374   2.121  14.096  0.8359 -0.0388  0.1795
  450TMC3     H 6707   0.341   2.290  13.884  0.1140  0.4546 -2.2900
  450TMC3    H1 6708   0.028   2.240  14.177 -1.5300  2.2278 -0.6085
  450TMC3    H2 6709   4.661   2.354  13.775  0.1947 -1.0196 -1.8955
  450TMC3    C7 6710   4.587   2.185  13.975 -0.2364 -0.6555 -0.1693
  450TMC3    C8 6711   0.166   2.333  13.670  0.2097  0.4634 -0.1394
  450TMC3    O1 6712   4.613   2.082  14.044 -0.3121 -0.3056 -0.3793
  450TMC3    O2 6713   0.083   2.353  13.581  0.0071 -0.7253 -0.1516
  451MPD2     C 6714   1.749   0.071   1.466 -0.8229 -0.0835  0.4199
  451MPD2    C1 6715   1.816   0.190   1.462  0.4297  0.4187 -0.1172
  451MPD2    C2 6716   1.955   0.187   1.440  0.1416 -0.8350 -0.2259
  451MPD2    C3 6717   2.017   0.066   1.426 -0.5401 -0.1268 -0.1171
  451MPD2    C4 6718   1.948   4.670   1.436 -0.1535 -0.3277  0.6094
  451MPD2    C5 6719   1.812   4.671   1.456 -0.2736 -0.1563 -0.0412
  451MPD2     H 6720   2.013   0.279   1.435  1.0446 -1.4273 -0.7025
  451MPD2    H1 6721   1.991   4.573   1.419 -0.1893 -0.0444 -1.0845
  451MPD2    H2 6722   1.642   0.061   1.474 -0.5838 -1.1105  2.2888
  451MPD2    H3 6723   1.749   4.583   1.466  2.7638 -2.3540 -0.3417
  451MPD2     N 6724   2.150   0.057   1.385  0.2254  0.0713  0.3921
  451MPD2    H5 6725   2.181   4.689   1.353 -0.6424 -0.4125  0.9304
  451MPD2    N1 6726   1.746   0.307   1.489  0.0340 -0.3472  0.3676
  451MPD2    H7 6727   1.649   0.294   1.516  0.3685 -1.8247  0.8760
  452TMC3    C1 6728   2.361   0.108   1.321 -0.6457 -0.1671  0.2160
  452TMC3    C2 6729   2.482   0.159   1.351 -0.2909  0.3476 -0.1713
  452TMC3    C3 6730   2.585   0.123   1.275  0.8464  0.6644 -0.4626
  452TMC3    C4 6731   2.335   0.040   1.200  0.4119  0.5494  0.6390
  452TMC3    C5 6732   2.445   0.017   1.117 -0.4732  0.3917 -0.0510
  452TMC3    C6 6733   2.569   0.054   1.160  0.2776  0.5523 -0.1864
  452TMC3     C 6734   2.244   0.152   1.390  0.0943 -0.6770 -0.6828
  452TMC3     O 6735   2.238   0.253   1.460  0.2102 -0.4759  0.0920
  452TMC3     H 6736   2.495   0.223   1.438 -0.2956  0.6592 -0.3989
  452TMC3    H1 6737   2.232   0.037   1.167  0.3608 -3.3356  1.1788
  452TMC3    H2 6738   2.655   0.036   1.097  0.0213  0.2449 -0.4508
  452TMC3    C7 6739   2.433   0.056   0.980 -0.4950 -0.0109  0.3145
  452TMC3    C8 6740   2.728   0.148   1.305 -0.0746  0.4650  0.9433
  452TMC3    O1 6741   2.529   0.112   0.928  0.2043  0.5469 -0.3481
  452TMC3    O2 6742   2.810   0.058   1.276  0.3536  0.3507  0.0628
  453TMC3    C1 6743   3.069   2.370  12.048  0.3366 -0.1613  0.1815
  453TMC3    C2 6744   2.998   2.285  12.127  0.5601  0.2231 -0.3167
  453TMC3    C3 6745   2.931   2.181  12.069  0.1163 -0.0635  0.2775
  453TMC3    C4 6746   3.096   2.335  11.914 -0.6063 -0.9730  0.0746
  453TMC3    C5 6747   3.023   2.230  11.866 -0.4873  0.1340 -0.3231
  453TMC3    C6 6748   2.931   2.161  11.936 -0.0693 -0.0994  0.0693
  453TMC3     C 6749   3.180   2.444  12.103 -0.2102  0.5037  0.1253
  453TMC3     O 6750   3.285   2.437  12.045  0.1862 -0.3001  0.5347
  453TMC3     H 6751   2.980   2.306  12.232  2.0973  0.9315 -0.1908
  453TMC3    H1 6752   3.158   2.400  11.854 -1.6962  1.8850  2.0754
  453TMC3    H2 6753   2.886   2.078  11.883  0.7350 -2.0152  2.3587
  453TMC3    C7 6754   3.077   2.178  11.743 -0.7519  0.5241 -0.1065
  453TMC3    C8 6755   2.883   2.081  12.155 -0.0612  1.0506 -0.2798
  453TMC3    O1 6756   2.995   2.111  11.679 -0.3592 -0.0368 -0.1710
  453TMC3    O2 6757   2.881   2.122  12.272  0.7004  0.2064 -0.1947
  454MPD2     C 6758   2.054   2.332  16.233  0.6553 -0.1373  1.0315
  454MPD2    C1 6759   2.031   2.199  16.222  0.1471 -0.0165  0.1954
  454MPD2    C2 6760   1.970   2.131  16.335 -0.4102  0.5579  0.2025
  454MPD2    C3 6761   1.940   2.204  16.449  0.4742 -0.4423  0.7998
  454MPD2    C4 6762   1.955   2.336  16.447 -0.5486 -0.0288 -0.2342
  454MPD2    C5 6763   2.017   2.402  16.346  0.0642 -0.9417  0.1246
  454MPD2     H 6764   1.961   2.023  16.335  1.2753  0.4196 -0.1128
  454MPD2    H1 6765   1.935   2.401  16.531 -0.9623  0.7509 -0.9405
  454MPD2    H2 6766   2.116   2.383  16.160  0.6549  1.1448  1.9308
  454MPD2    H3 6767   2.037   2.509  16.348 -0.8108 -0.7759  0.0506
  454MPD2     N 6768   1.860   2.149  16.548 -0.0315  0.2884  0.2250
  454MPD2    H5 6769   1.814   2.214  16.611  3.5142  2.1331  0.9040
  454MPD2    N1 6770   2.052   2.129  16.100  0.0641  0.2735 -0.5763
  454MPD2    H7 6771   2.050   2.184  16.015 -0.3722 -2.1081 -2.1076
  455TMC3    C1 6772   1.688   2.019  16.633  0.1949  0.3504  0.3160
  455TMC3    C2 6773   1.655   2.115  16.726  0.0385  0.9009 -0.1431
  455TMC3    C3 6774   1.526   2.098  16.777 -0.1693  0.4109 -0.1161
  455TMC3    C4 6775   1.613   1.909  16.587  0.3084 -0.1784 -0.3852
  455TMC3    C5 6776   1.491   1.910  16.643  0.5805  0.2348 -0.2266
  455TMC3    C6 6777   1.438   2.005  16.733  0.7149 -0.4779  0.3951
  455TMC3     C 6778   1.817   2.019  16.560 -0.0399 -0.3899  0.8154
  455TMC3     O 6779   1.866   1.912  16.527  0.1336  0.1413 -0.3163
  455TMC3     H 6780   1.729   2.186  16.761  1.4386 -0.2268 -0.8170
  455TMC3    H1 6781   1.648   1.832  16.520  0.0096  0.8949 -1.7791
  455TMC3    H2 6782   1.338   1.988  16.773  0.2140 -1.2134 -1.1226
  455TMC3    C7 6783   1.399   1.800  16.613 -0.2911  0.4674 -0.1282
  455TMC3    C8 6784   1.482   2.210  16.856 -0.1881 -0.8160 -0.7707
  455TMC3    O1 6785   1.302   1.791  16.691  0.5796 -0.1914 -0.1053
  455TMC3    O2 6786   1.558   2.307  16.857  0.8676 -0.3193 -0.2376
  456MPD2     C 6787   4.486   1.974  16.585 -0.0662  0.2841 -0.1157
  456MPD2    C1 6788   4.554   1.945  16.702  0.0638 -0.1918  0.3792
  456MPD2    C2 6789   4.567   2.053  16.791  0.5154  0.6902 -0.1380
  456MPD2    C3 6790   4.524   2.182  16.760  0.4319  0.5850 -0.7244
  456MPD2    C4 6791   4.472   2.207  16.633  0.3092  0.1373 -0.4219
  456MPD2    C5 6792   4.445   2.097  16.552 -0.8165 -0.4412 -0.4084
  456MPD2     H 6793   4.616   2.037  16.886  0.0994  0.3466  0.0219
  456MPD2    H1 6794   4.436   2.304  16.602 -1.9869 -1.1300 -1.7308
  456MPD2    H2 6795   4.457   1.891  16.521  1.8272  0.4041 -1.1268
  456MPD2    H3 6796   4.392   2.121  16.461  0.4040  0.4529 -0.8713
  456MPD2     N 6797   4.545   2.281  16.853 -0.2456  0.7832  0.3630
  456MPD2    H5 6798   4.605   2.256  16.931  0.2234 -0.3680 -0.3669
  456MPD2    N1 6799   4.613   1.813  16.712  0.0157  0.0750 -0.5018
  456MPD2    H7 6800   4.599   1.746  16.636 -1.1832 -1.0621  0.7061
  457TMC3    C1 6801   4.567   2.486  16.963  0.1374 -0.5482 -0.5133
  457TMC3    C2 6802   4.557   2.624  16.944 -0.6076  0.5779 -0.1264
  457TMC3    C3 6803   4.526   2.700  17.053 -0.8408 -0.0340 -0.2024
  457TMC3    C4 6804   4.537   2.424  17.081  0.0893  0.4472  1.6281
  457TMC3    C5 6805   4.494   2.496  17.187 -0.4275 -0.0659 -0.4765
  457TMC3    C6 6806   4.484   2.636  17.169  0.9050  0.2292  0.0301
  457TMC3     C 6807   4.526   2.419  16.837 -0.2563  0.1567  0.1286
  457TMC3     O 6808   4.442   2.479  16.773  0.4530 -0.0346  0.0467
  457TMC3     H 6809   4.570   2.668  16.846  0.0280  1.1393  0.2060
  457TMC3    H1 6810   4.541   2.317  17.098  0.9960  0.3339  0.6816
  457TMC3    H2 6811   4.466   2.706  17.250  0.7238  0.4583 -0.2089
  457TMC3    C7 6812   4.495   2.442  17.326  0.2575 -0.3723 -0.0337
  457TMC3    C8 6813   4.466   2.830  17.044  0.3315 -0.4562  0.0280
  457TMC3    O1 6814   4.527   2.324  17.344  0.4236  0.1844 -0.1381
  457TMC3    O2 6815   4.383   2.867  17.124  0.2705  0.6909 -0.3207
  458MPD2     C 6816   2.128   1.373  12.397 -0.5288  0.2738 -0.3609
  458MPD2    C1 6817   2.130   1.363  12.539  0.1868 -0.3606 -0.1971
  458MPD2    C2 6818   2.131   1.241  12.596  0.5396 -0.4852 -0.1558
  458MPD2    C3 6819   2.143   1.126  12.525  0.8394 -0.7224  0.4384
  458MPD2    C4 6820   2.147   1.134  12.391 -0.5501 -0.2140 -0.3790
  458MPD2    C5 6821   2.142   1.255  12.327 -0.9614 -0.4374 -0.0491
  458MPD2     H 6822   2.137   1.239  12.704  0.8877  3.6241 -0.1138
  458MPD2    H1 6823   2.158   1.040  12.338  0.6969 -0.2834 -0.0152
  458MPD2    H2 6824   2.121   1.471  12.352  2.2137 -0.1040 -1.6082
  458MPD2    H3 6825   2.153   1.257  12.219  2.2110  0.2462  0.2881
  458MPD2     N 6826   2.152   1.004  12.603 -1.3200  0.3899  0.1327
  458MPD2    H5 6827   2.159   1.017  12.704 -4.6790  1.9233  0.1892
  458MPD2    N1 6828   2.122   1.489  12.611  0.1528 -0.1507  0.3603
  458MPD2    H7 6829   2.124   1.570  12.550  0.1596  0.3580  1.0369
  459TMC3    C1 6830   2.068   1.631  12.794 -0.0075  0.1468 -0.2627
  459TMC3    C2 6831   2.164   1.722  12.775  0.2254  0.5620 -0.8685
  459TMC3    C3 6832   2.167   1.833  12.854  0.3836  0.1140 -0.1593
  459TMC3    C4 6833   1.979   1.641  12.898  0.1666 -0.4056 -0.4115
  459TMC3    C5 6834   2.001   1.733  12.993  0.4364  0.1150  0.4595
  459TMC3    C6 6835   2.087   1.839  12.965 -0.1808  0.1390  0.6669
  459TMC3     C 6836   2.096   1.499  12.747  0.1005 -0.6550 -0.0190
  459TMC3     O 6837   2.065   1.413  12.829  0.2577 -0.4034  0.1897
  459TMC3     H 6838   2.243   1.708  12.702 -0.6028 -0.6729 -1.5009
  459TMC3    H1 6839   1.901   1.567  12.912 -1.3489  0.9690 -1.5781
  459TMC3    H2 6840   2.094   1.926  13.029 -1.3544  0.7596 -0.0477
  459TMC3    C7 6841   1.997   1.685  13.131  0.0372  0.1635  0.4768
  459TMC3    C8 6842   2.253   1.949  12.833 -0.2054  0.4255 -0.5414
  459TMC3    O1 6843   1.937   1.584  13.159 -0.0179  0.4784 -0.2213
  459TMC3    O2 6844   2.210   2.058  12.827  0.1059 -0.1523 -0.3594
  460MPD2     C 6845   1.122   3.457  10.320 -0.4287 -0.1854 -0.0921
  460MPD2    C1 6846   1.094   3.354  10.412 -0.6486 -0.3136 -0.3074
  460MPD2    C2 6847   0.992   3.268  10.385  0.6784 -0.3861  0.1763
  460MPD2    C3 6848   0.919   3.269  10.266  0.4613 -0.8244  0.0841
  460MPD2    C4 6849   0.959   3.364  10.169  0.5149 -0.1253  0.0101
  460MPD2    C5 6850   1.054   3.461  10.201  0.3735  0.0017  0.0166
  460MPD2     H 6851   0.976   3.182  10.448  2.0585 -0.4529  0.4367
  460MPD2    H1 6852   0.918   3.373  10.069 -1.3263 -2.8202  0.5213
  460MPD2    H2 6853   1.204   3.527  10.329  1.3975 -2.0251 -2.1526
  460MPD2    H3 6854   1.084   3.525  10.119 -0.3706  1.0240  0.5292
  460MPD2     N 6855   0.831   3.159  10.234  0.2770  0.1995  0.0580
  460MPD2    H5 6856   0.822   3.082  10.300  1.6715 -0.9611 -1.0929
  460MPD2    N1 6857   1.173   3.355  10.529  0.4369  0.1120 -0.1321
  460MPD2    H7 6858   1.250   3.422  10.529  0.7683 -0.2805 -0.7228
  461TMC3    C1 6859   0.659   3.038  10.122 -0.4872 -0.7215 -0.1419
  461TMC3    C2 6860   0.732   2.925  10.142  0.4335 -0.1432  0.1581
  461TMC3    C3 6861   0.684   2.805  10.094  0.6411  0.8284 -0.7462
  461TMC3    C4 6862   0.559   3.039  10.032 -0.1599  0.1429 -0.3551
  461TMC3    C5 6863   0.517   2.919   9.982  0.6683 -0.5265 -0.0928
  461TMC3    C6 6864   0.572   2.804  10.015 -0.2251 -0.0749 -0.2814
  461TMC3     C 6865   0.748   3.156  10.120  0.2947 -0.0834  0.5015
  461TMC3     O 6866   0.736   3.236  10.026  0.2121 -0.3994  0.2874
  461TMC3     H 6867   0.823   2.918  10.199  1.4349 -0.7915 -1.5141
  461TMC3    H1 6868   0.501   3.127  10.008  0.8773  0.6154 -1.1472
  461TMC3    H2 6869   0.517   2.715   9.989  1.4549 -1.0590 -0.4570
  461TMC3    C7 6870   0.393   2.919   9.905  0.3956  1.0646 -0.9180
  461TMC3    C8 6871   0.780   2.696  10.080  0.4174  0.8227  0.0789
  461TMC3    O1 6872   0.316   3.010   9.928 -0.2760  0.0465 -0.5716
  461TMC3    O2 6873   0.881   2.704  10.148  0.7445  0.4618  0.6706
  462TMC3    C1 6874   1.046   0.349   0.229  0.4413  0.1326  0.8353
  462TMC3    C2 6875   1.122   0.282   0.137  0.3090 -0.0230 -0.1260
  462TMC3    C3 6876   1.163   0.160   0.171 -0.4885  0.0913  0.9983
  462TMC3    C4 6877   0.998   0.292   0.344 -0.4045  0.1308  0.2728
  462TMC3    C5 6878   1.039   0.167   0.372  0.0113 -0.2227 -0.2240
  462TMC3    C6 6879   1.135   0.104   0.293  0.3415  0.0764  0.0949
  462TMC3     C 6880   1.020   0.492   0.216  0.1491 -0.7966  0.1452
  462TMC3     O 6881   0.943   0.540   0.298  0.3941 -0.3215 -0.4820
  462TMC3     H 6882   1.146   0.318   0.038  2.6629 -0.7047  0.1931
  462TMC3    H1 6883   0.933   0.341   0.415 -0.5031 -0.1924  0.4071
  462TMC3    H2 6884   1.159   4.722   0.302 -3.4405 -0.7487  0.5422
  462TMC3    C7 6885   0.952   0.075   0.439  0.2137 -0.1055 -0.6767
  462TMC3    C8 6886   1.177   0.074   0.049  0.0818  0.7357 -0.1760
  462TMC3    O1 6887   0.993   4.682   0.439 -0.2075 -0.7146 -0.0226
  462TMC3    O2 6888   1.124   0.110  17.637 -0.1625  0.6636 -0.0636
  463MPD2     C 6889   2.883   3.228   2.196  0.8534 -0.2332  0.3659
  463MPD2    C1 6890   2.888   3.246   2.058 -0.6674  0.2367  0.3466
  463MPD2    C2 6891   3.000   3.309   2.004 -0.3621 -0.0923 -0.2996
  463MPD2    C3 6892   3.101   3.358   2.085  0.0233 -0.2294 -0.1510
  463MPD2    C4 6893   3.093   3.336   2.223 -0.5866  0.4300 -0.3816
  463MPD2    C5 6894   2.993   3.256   2.269  0.0744 -0.3164  0.5938
  463MPD2     H 6895   3.004   3.331   1.898  1.0250  1.5442  0.1048
  463MPD2    H1 6896   3.160   3.384   2.294 -0.8877 -1.6851  1.3357
  463MPD2    H2 6897   2.800   3.181   2.248  0.0315 -0.8126 -1.4613
  463MPD2    H3 6898   2.989   3.224   2.373 -0.0091 -2.0406  0.0602
  463MPD2     N 6899   3.199   3.449   2.045 -0.2020 -0.1581 -0.0045
  463MPD2    H5 6900   3.243   3.498   2.122 -1.4630 -1.8278  1.7788
  463MPD2    N1 6901   2.794   3.195   1.964  0.6251 -0.6167  0.4038
  463MPD2    H7 6902   2.813   3.223   1.868 -1.7759  3.1790  1.0416
  464TMC3    C1 6903   2.586   3.101   1.892  0.4181 -0.4111 -0.2810
  464TMC3    C2 6904   2.583   3.187   1.785  0.0002 -0.0384  0.1456
  464TMC3    C3 6905   2.485   3.179   1.692 -0.3574 -0.8208  0.6512
  464TMC3    C4 6906   2.494   3.005   1.902  0.1599  0.3218 -0.3686
  464TMC3    C5 6907   2.400   2.993   1.802  0.1520 -0.4187 -0.1482
  464TMC3    C6 6908   2.396   3.075   1.692  0.4807  0.5359 -0.4322
  464TMC3     C 6909   2.688   3.117   1.997  0.7079 -0.8073  0.3643
  464TMC3     O 6910   2.663   3.053   2.097 -0.0245 -0.2618 -0.6322
  464TMC3     H 6911   2.639   3.279   1.799 -1.1180  0.5101  1.0485
  464TMC3    H1 6912   2.489   2.939   1.988 -1.1966 -0.1981 -0.8380
  464TMC3    H2 6913   2.316   3.065   1.620  2.5013 -0.6370 -2.4993
  464TMC3    C7 6914   2.347   2.861   1.775  0.8517  0.0026  0.0676
  464TMC3    C8 6915   2.474   3.281   1.589 -0.5703  0.3721 -0.0864
  464TMC3    O1 6916   2.416   2.762   1.810  0.4259 -0.7009 -0.3264
  464TMC3    O2 6917   2.371   3.276   1.520  0.0271  0.0120 -0.4750
  465MPD2     C 6918   4.037   2.070  16.428  0.0042  0.2466  0.2702
  465MPD2    C1 6919   4.004   2.179  16.513  0.0494 -0.0980 -0.2347
  465MPD2    C2 6920   3.916   2.280  16.472  0.6893  0.0365  0.4896
  465MPD2    C3 6921   3.856   2.283  16.345 -0.4511 -0.3278 -0.3052
  465MPD2    C4 6922   3.895   2.176  16.261 -0.0903  0.4691 -0.3629
  465MPD2    C5 6923   3.986   2.074  16.304 -0.7547  0.6870 -0.9388
  465MPD2     H 6924   3.892   2.367  16.533  1.0808  0.3641  0.1718
  465MPD2    H1 6925   3.858   2.167  16.159  0.1461  2.7244 -0.6626
  465MPD2    H2 6926   4.117   2.000  16.448  0.4978 -0.1868 -3.1342
  465MPD2    H3 6927   4.025   2.004  16.230  0.2415 -0.3435  0.5511
  465MPD2     N 6928   3.762   2.381  16.306  0.2580 -0.2111 -0.7512
  465MPD2    H5 6929   3.742   2.451  16.377  0.1855  0.1866 -1.1576
  465MPD2    N1 6930   4.053   2.186  16.642 -0.0916  0.1693 -0.4135
  465MPD2    H7 6931   4.023   2.268  16.693 -0.3582  0.3536 -0.8736
  466TMC3    C1 6932   3.325   2.515  16.203 -0.9383 -0.1452  0.7441
  466TMC3    C2 6933   3.341   2.628  16.278 -0.1700 -0.1813 -0.8530
  466TMC3    C3 6934   3.468   2.661  16.320 -0.3015 -0.6777  0.2452
  466TMC3    C4 6935   3.437   2.433  16.165 -0.4452 -0.9209 -0.0172
  466TMC3    C5 6936   3.561   2.472  16.210  0.2419  0.2407  0.2461
  466TMC3    C6 6937   3.576   2.582  16.289  0.4188  0.4220  0.4433
  466TMC3     C 6938   3.191   2.472  16.171 -0.3083 -0.0074 -0.4436
  466TMC3     O 6939   3.097   2.509  16.246 -0.3380  0.0796  0.0114
  466TMC3     H 6940   3.249   2.682  16.298 -1.0612 -1.5034 -1.3480
  466TMC3    H1 6941   3.432   2.343  16.105 -3.7068  0.0121 -1.1605
  466TMC3    H2 6942   3.671   2.627  16.312  0.5328  1.0234 -1.2200
  466TMC3    C7 6943   3.672   2.372  16.204  0.1521 -0.0452  0.4358
  466TMC3    C8 6944   3.487   2.755  16.421 -0.0047  0.3826  0.2078
  466TMC3    O1 6945   3.664   2.293  16.113  0.0415  0.1300  0.4684
  466TMC3    O2 6946   3.603   2.764  16.464 -0.1885 -0.3266 -0.4478
  467TMC3    C1 6947   3.724   1.134  13.706  0.5794  0.1276 -0.0761
  467TMC3    C2 6948   3.792   1.209  13.616 -0.2686  0.3776 -0.2897
  467TMC3    C3 6949   3.739   1.211  13.485  0.1551  0.3453  0.0164
  467TMC3    C4 6950   3.612   1.065  13.677 -0.1374  0.2742 -0.4991
  467TMC3    C5 6951   3.556   1.081  13.550 -0.9639 -0.0374  0.1914
  467TMC3    C6 6952   3.623   1.150  13.447 -0.8879 -0.9278  0.2955
  467TMC3     C 6953   3.818   1.102  13.818 -0.0145 -0.3231  0.5302
  467TMC3     O 6954   3.826   0.987  13.856 -0.3952 -0.2807 -0.0701
  467TMC3     H 6955   3.887   1.259  13.624  0.6714 -1.4326 -0.0704
  467TMC3    H1 6956   3.567   1.022  13.765 -0.4287  1.5571 -0.0143
  467TMC3    H2 6957   3.579   1.158  13.348  0.5590 -0.1306 -0.2753
  467TMC3    C7 6958   3.418   1.034  13.530 -0.0407 -0.4575 -0.0874
  467TMC3    C8 6959   3.811   1.281  13.385  0.3224  0.3396 -0.1251
  467TMC3    O1 6960   3.351   1.095  13.447 -0.0394 -0.3496  0.0972
  467TMC3    O2 6961   3.747   1.352  13.310  0.8425  0.3747  0.3162
  468MPD2     C 6962   2.693   3.267  11.008  0.4109  0.2875 -0.2626
  468MPD2    C1 6963   2.826   3.235  11.026 -0.3191 -0.7094  0.2604
  468MPD2    C2 6964   2.866   3.104  11.034  0.3493 -0.0186  0.8917
  468MPD2    C3 6965   2.772   2.995  11.023 -0.2489  0.1904 -0.6870
  468MPD2    C4 6966   2.638   3.031  11.024  0.3684 -0.4780  0.5532
  468MPD2    C5 6967   2.601   3.160  11.018  0.2157  0.1771  0.1099
  468MPD2     H 6968   2.969   3.072  11.049  0.6240  0.1465 -0.6349
  468MPD2    H1 6969   2.562   2.954  11.031 -0.5502  0.2344 -1.5815
  468MPD2    H2 6970   2.651   3.367  11.001 -0.0713 -0.0127 -1.6024
  468MPD2    H3 6971   2.495   3.180  11.027  0.2371  0.6797 -0.6900
  468MPD2     N 6972   2.812   2.862  11.038  0.0076  0.3184 -0.1600
  468MPD2    H5 6973   2.737   2.794  11.045 -0.9826  1.3523 -0.6485
  468MPD2    N1 6974   2.924   3.333  11.032  0.1763 -0.2698 -0.1574
  468MPD2    H7 6975   3.021   3.302  11.033  0.2552 -0.0046  1.2051
  469TMC3    C1 6976   3.038   3.530  11.072  0.4566 -0.5553 -0.9978
  469TMC3    C2 6977   3.146   3.454  11.099  0.2115  0.1192  0.9393
  469TMC3    C3 6978   3.261   3.529  11.127  0.7300  0.0780 -0.7623
  469TMC3    C4 6979   3.033   3.669  11.079  0.4304  0.1418 -0.2139
  469TMC3    C5 6980   3.149   3.732  11.084 -0.2311 -0.4934 -0.0744
  469TMC3    C6 6981   3.270   3.663  11.113 -0.2367 -0.8281  0.5136
  469TMC3     C 6982   2.909   3.468  11.057  0.3889  0.1105 -0.0943
  469TMC3     O 6983   2.807   3.533  11.039 -0.5344  0.2506  0.2325
  469TMC3     H 6984   3.138   3.346  11.111 -1.1643  0.2460  1.2277
  469TMC3    H1 6985   2.946   3.725  11.048  0.5422  1.0445  1.1251
  469TMC3    H2 6986   3.360   3.709  11.154  0.1942 -2.9653  1.9737
  469TMC3    C7 6987   3.148   3.867  11.041  0.6520  0.4137 -0.1730
  469TMC3    C8 6988   3.368   3.470  11.205 -0.6244 -0.1204 -0.6604
  469TMC3    O1 6989   3.039   3.907  11.000 -0.2718  0.2507  0.1753
  469TMC3    O2 6990   3.398   3.358  11.174  0.3228 -0.2869  0.4065
  470TMC3    C1 6991   0.299   4.430   1.141  0.5464  1.1789 -0.3122
  470TMC3    C2 6992   0.387   4.532   1.142 -0.2600  0.4100 -0.3531
  470TMC3    C3 6993   0.412   4.593   1.258  0.2438  0.2891  0.2054
  470TMC3    C4 6994   0.223   4.389   1.247 -0.4193  0.3966  0.3313
  470TMC3    C5 6995   0.249   4.446   1.368 -0.7510  0.1517 -0.2048
  470TMC3    C6 6996   0.352   4.546   1.370  0.3959  0.1036 -0.3139
  470TMC3     C 6997   0.302   4.351   1.021 -0.0534  0.0581  1.1227
  470TMC3     O 6998   0.301   4.407   0.907 -0.5070 -0.1924 -0.1025
  470TMC3     H 6999   0.448   4.543   1.053  1.6869  0.6444  1.0036
  470TMC3    H1 7000   0.151   4.311   1.227 -1.5418  1.9595 -1.6950
  470TMC3    H2 7001   0.379   4.594   1.463 -1.2067 -0.1404  0.2795
  470TMC3    C7 7002   0.172   4.427   1.489 -0.4141  0.5684  0.2077
  470TMC3    C8 7003   0.488   4.714   1.267  0.4754 -0.1362  0.2066
  470TMC3    O1 7004   0.224   4.472   1.595 -0.0018 -0.3243  0.5710
  470TMC3    O2 7005   0.517   0.029   1.381 -0.0262 -0.3475  0.4107
  471MPD2     C 7006   0.685   0.827  16.639  0.3609 -0.2432 -0.0747
  471MPD2    C1 7007   0.821   0.841  16.671 -0.8260 -0.8150  0.9420
  471MPD2    C2 7008   0.862   0.837  16.800 -0.2840 -0.3906  0.7155
  471MPD2    C3 7009   0.773   0.812  16.903  0.2522  0.2429  0.2918
  471MPD2    C4 7010   0.639   0.795  16.873  0.3238 -0.3454  0.1683
  471MPD2    C5 7011   0.596   0.797  16.741 -0.2941 -1.2216  0.3709
  471MPD2     H 7012   0.969   0.837  16.821 -0.3264 -2.4784  1.0340
  471MPD2    H1 7013   0.566   0.765  16.947  1.1751 -1.1864  0.6683
  471MPD2    H2 7014   0.639   0.828  16.540  1.9317  3.5185 -0.7671
  471MPD2    H3 7015   0.490   0.781  16.721 -0.6968  2.7374 -0.6714
  471MPD2     N 7016   0.806   0.794  17.043  0.0905  0.0143  0.4043
  471MPD2    H5 7017   0.746   0.739  17.104 -0.0489  0.7409  0.9188
  471MPD2    N1 7018   0.921   0.878  16.577 -0.5548 -0.0893  0.8752
  471MPD2    H7 7019   1.015   0.885  16.615 -1.1690  0.6552  2.2505
  472TMC3    C1 7020   1.028   0.889  16.374  0.3708 -0.3993  0.2006
  472TMC3    C2 7021   1.011   0.921  16.240  0.0402  0.0102 -0.1307
  472TMC3    C3 7022   1.062   0.839  16.142 -0.0096  0.1630 -0.3729
  472TMC3    C4 7023   1.104   0.781  16.414 -0.3864  0.0089  0.6496
  472TMC3    C5 7024   1.150   0.702  16.308  0.1983 -0.1330  0.9982
  472TMC3    C6 7025   1.129   0.726  16.179 -0.0922  0.5421  1.0771
  472TMC3     C 7026   0.901   0.897  16.445  0.6009 -0.4708 -0.2815
  472TMC3     O 7027   0.813   0.873  16.368 -0.2715 -0.1479 -0.6372
  472TMC3     H 7028   0.954   1.011  16.222 -0.3867 -0.5945 -1.7718
  472TMC3    H1 7029   1.106   0.753  16.519 -2.5134 -0.9767  0.4241
  472TMC3    H2 7030   1.163   0.663  16.097 -0.5060  0.2622  1.1207
  472TMC3    C7 7031   1.130   0.558  16.345 -0.0987 -0.3346  0.3777
  472TMC3    C8 7032   0.968   0.813  16.045  0.7474  0.0471 -0.5290
  472TMC3    O1 7033   1.162   0.524  16.456  0.3311  0.2989 -0.6716
  472TMC3    O2 7034   0.997   0.812  15.927 -0.0964  0.0671 -0.9283
  473MPD2     C 7035   0.618   3.247  14.161  0.0326 -0.6685 -0.2724
  473MPD2    C1 7036   0.660   3.345  14.079  0.2851 -0.8866 -0.1606
  473MPD2    C2 7037   0.770   3.415  14.110 -0.0615  0.5784 -0.0114
  473MPD2    C3 7038   0.838   3.396  14.226  0.5374  0.3594 -0.2276
  473MPD2    C4 7039   0.796   3.296  14.313 -0.2111 -0.0305  0.0029
  473MPD2    C5 7040   0.682   3.226  14.281 -0.6427 -1.0987 -0.0767
  473MPD2     H 7041   0.796   3.494  14.041  1.6040  1.0047  1.1045
  473MPD2    H1 7042   0.833   3.270  14.411 -0.5578  0.6145  0.3061
  473MPD2    H2 7043   0.523   3.195  14.150 -1.6827  2.2495  0.8214
  473MPD2    H3 7044   0.648   3.150  14.350  1.1958 -0.3570  1.6693
  473MPD2     N 7045   0.953   3.470  14.264 -0.2571 -0.3853  0.0379
  473MPD2    H5 7046   1.013   3.431  14.336  0.6084 -0.2663 -0.6161
  473MPD2    N1 7047   0.597   3.373  13.953 -0.3078 -0.0954 -0.1474
  473MPD2    H7 7048   0.618   3.457  13.900  0.8667 -0.3119 -0.0423
  474TMC3    C1 7049   1.094   3.670  14.283 -0.1772  0.1423  0.6876
  474TMC3    C2 7050   1.081   3.799  14.324 -0.6887 -0.0118 -0.1879
  474TMC3    C3 7051   1.140   3.826  14.444  0.5698 -0.0661 -0.2443
  474TMC3    C4 7052   1.190   3.586  14.334  0.2734 -0.1840 -0.6515
  474TMC3    C5 7053   1.248   3.623  14.452 -0.1713  0.1284 -0.5785
  474TMC3    C6 7054   1.220   3.738  14.512  0.4139 -1.0161 -0.0042
  474TMC3     C 7055   0.977   3.605  14.222 -0.1115  0.0598 -0.5416
  474TMC3     O 7056   0.898   3.679  14.171  0.1178 -0.6932 -0.4371
  474TMC3     H 7057   0.993   3.858  14.300 -0.8773 -1.2070 -2.4509
  474TMC3    H1 7058   1.208   3.485  14.300 -0.7114 -0.3079 -0.8258
  474TMC3    H2 7059   1.277   3.765  14.600  0.1667 -0.6311  0.0399
  474TMC3    C7 7060   1.378   3.557  14.473  0.2489  0.2424  0.5549
  474TMC3    C8 7061   1.158   3.953  14.506 -0.1464 -0.7465  0.7800
  474TMC3    O1 7062   1.436   3.492  14.385 -0.4763 -0.7638  0.6251
  474TMC3    O2 7063   1.152   3.952  14.627  0.6368 -0.3591  0.2646
  475MPD2     C 7064   4.196   1.572  10.106 -0.2248 -0.1989 -0.0805
  475MPD2    C1 7065   4.208   1.436  10.109  0.4515  0.2665 -0.8784
  475MPD2    C2 7066   4.102   1.366  10.169  0.3372  0.4315  0.8298
  475MPD2    C3 7067   3.980   1.420  10.218  0.5361  0.1638  0.4778
  475MPD2    C4 7068   3.978   1.558  10.215 -0.3850 -0.3602 -0.6255
  475MPD2    C5 7069   4.087   1.633  10.165 -0.6681  0.2091  0.7459
  475MPD2     H 7070   4.126   1.263  10.195 -1.4321 -0.2523 -0.3111
  475MPD2    H1 7071   3.893   1.615  10.249 -0.9755 -1.0402 -0.9496
  475MPD2    H2 7072   4.265   1.643  10.060 -1.1350  0.3415 -0.5991
  475MPD2    H3 7073   4.088   1.741  10.158  1.2836  0.2769  1.7509
  475MPD2     N 7074   3.883   1.339  10.283 -0.0839 -0.5309 -0.1615
  475MPD2    H5 7075   3.899   1.239  10.283 -0.3376 -0.5891 -2.8963
  475MPD2    N1 7076   4.330   1.386  10.058  0.0490  0.0817 -0.2336
  475MPD2    H7 7077   4.401   1.452  10.029 -1.7704  1.0123 -2.6128
  476TMC3    C1 7078   4.481   1.231   9.971  0.5471  0.9217  0.1827
  476TMC3    C2 7079   4.496   1.114   9.906 -0.1326 -0.5523 -0.2599
  476TMC3    C3 7080   4.623   1.079   9.859  0.7885 -0.6066 -0.6306
  476TMC3    C4 7081   4.581   1.314  10.010 -0.3239  0.2194 -0.1780
  476TMC3    C5 7082   4.706   1.270   9.970 -0.3136  0.1688 -0.1037
  476TMC3    C6 7083   0.011   1.154   9.902 -0.0298 -0.0640  0.2538
  476TMC3     C 7084   4.346   1.256  10.022 -0.1966 -0.8822  0.4536
  476TMC3     O 7085   4.262   1.173  10.010  0.0810  0.3656 -0.3930
  476TMC3     H 7086   4.408   1.058   9.878 -0.0234 -0.8391 -0.0186
  476TMC3    H1 7087   4.564   1.413  10.050 -0.3769  0.8360 -1.7264
  476TMC3    H2 7088   0.109   1.115   9.874  0.9792  0.9779  2.3344
  476TMC3    C7 7089   0.108   1.342  10.005 -0.2220  0.4664 -0.3897
  476TMC3    C8 7090   4.641   0.975   9.767  0.2445 -0.4271 -0.9083
  476TMC3    O1 7091   0.208   1.320   9.941 -0.3754 -0.2052 -0.0845
  476TMC3    O2 7092   0.029   0.935   9.748  0.5404  0.0528 -0.2630
  477MPD2     C 7093   1.316   2.217  11.835 -0.9983 -0.2168  0.2084
  477MPD2    C1 7094   1.358   2.339  11.880 -0.4639 -0.0961 -0.0358
  477MPD2    C2 7095   1.453   2.352  11.981  0.3318  0.4246 -0.1510
  477MPD2    C3 7096   1.522   2.243  12.028 -0.7404  0.0661 -0.3237
  477MPD2    C4 7097   1.488   2.118  11.977 -0.3249  0.6800 -0.2470
  477MPD2    C5 7098   1.387   2.107  11.880 -0.5879 -0.0065 -0.4485
  477MPD2     H 7099   1.475   2.450  12.021 -1.9009  0.7837  0.2233
  477MPD2    H1 7100   1.530   2.026  12.015 -1.4490  0.8036  1.2822
  477MPD2    H2 7101   1.240   2.203  11.758  0.6786 -1.5911 -1.2049
  477MPD2    H3 7102   1.352   2.012  11.842  1.4887 -1.3540  0.9637
  477MPD2     N 7103   1.623   2.275  12.120 -0.6695  0.1105 -0.3742
  477MPD2    H5 7104   1.638   2.375  12.135 -0.1590  0.1275 -1.0029
  477MPD2    N1 7105   1.304   2.452  11.817 -0.1810 -0.6390  0.1843
  477MPD2    H7 7106   1.258   2.440  11.728  2.1695 -0.9994 -0.9734
  478TMC3    C1 7107   1.292   2.687  11.770 -0.6059 -0.8707  0.1246
  478TMC3    C2 7108   1.270   2.805  11.821 -0.0447 -0.4369 -0.2163
  478TMC3    C3 7109   1.253   2.913  11.743 -0.1021  0.2988  0.9008
  478TMC3    C4 7110   1.292   2.673  11.633  0.0653 -0.0231 -0.4614
  478TMC3    C5 7111   1.252   2.785  11.556  0.2138 -0.4395  0.4717
  478TMC3    C6 7112   1.227   2.909  11.608 -0.2517 -0.0904 -0.6088
  478TMC3     C 7113   1.325   2.584  11.866  0.3443 -0.7317 -0.3837
  478TMC3     O 7114   1.357   2.618  11.978 -0.2469  0.3215 -0.1988
  478TMC3     H 7115   1.273   2.821  11.928  0.2079  0.0983 -0.3017
  478TMC3    H1 7116   1.313   2.582  11.577  2.2275  1.3046 -1.8067
  478TMC3    H2 7117   1.220   2.996  11.544  0.8446 -0.6622 -1.5017
  478TMC3    C7 7118   1.284   2.781  11.418 -0.0758  0.0617 -0.1089
  478TMC3    C8 7119   1.247   3.030  11.820  0.0745  0.3781 -0.3035
  478TMC3    O1 7120   1.371   2.706  11.378  0.1126  0.6812 -0.1917
  478TMC3    O2 7121   1.228   3.026  11.943  0.4419 -0.3340 -0.0350
  479MPD2     C 7122   0.896   0.417  14.896  0.8961 -0.4769 -0.3529
  479MPD2    C1 7123   0.851   0.357  15.014  0.3214  0.0186  0.5520
  479MPD2    C2 7124   0.932   0.352  15.123  0.5629  0.4707 -0.3976
  479MPD2    C3 7125   1.050   0.426  15.129  0.4702  0.1051  0.0627
  479MPD2    C4 7126   1.094   0.491  15.015  0.5636 -1.1103 -0.0855
  479MPD2    C5 7127   1.019   0.486  14.902 -0.6858  0.4561 -0.7553
  479MPD2     H 7128   0.911   0.296  15.214  1.3388 -1.2664 -1.2951
  479MPD2    H1 7129   1.190   0.542  15.015  0.4495 -0.8938 -0.3880
  479MPD2    H2 7130   0.847   0.408  14.800 -0.5752  2.1614  0.1275
  479MPD2    H3 7131   1.053   0.536  14.812  1.5368 -0.4185 -0.4069
  479MPD2     N 7132   1.129   0.441  15.250  0.2164  0.3712 -0.5657
  479MPD2    H5 7133   1.222   0.477  15.228  0.8924 -1.2945 -0.4171
  479MPD2    N1 7134   0.724   0.310  15.014  0.5213  0.4202  0.0904
  479MPD2    H7 7135   0.667   0.320  14.931 -0.7942 -2.0242  0.7118
  480TMC3    C1 7136   0.801   0.346  15.556  0.0399  0.0067 -1.2763
  480TMC3    C2 7137   0.714   0.434  15.496  0.1325 -0.9333 -0.0446
  480TMC3    C3 7138   0.758   0.518  15.397  0.5586  0.2608 -0.8938
  480TMC3    C4 7139   0.931   0.338  15.522  0.7780 -0.1481 -0.3381
  480TMC3    C5 7140   0.969   0.425  15.426 -0.4137 -0.7605  0.3480
  480TMC3    C6 7141   0.892   0.522  15.371 -1.0964 -0.3918 -0.6637
  480TMC3     C 7142   0.770   0.277  15.685 -0.2026  0.1055 -0.2575
  480TMC3     O 7143   0.864   0.240  15.750  0.0222  0.0137  0.2599
  480TMC3     H 7144   0.619   0.449  15.545 -0.9877  1.5530 -2.9624
  480TMC3    H1 7145   1.000   0.262  15.559  1.3401  0.4671 -0.1177
  480TMC3    H2 7146   0.933   0.597  15.305 -0.0130 -0.2620  0.1563
  480TMC3    C7 7147   1.104   0.408  15.383 -0.3222  0.0217  0.0057
  480TMC3    C8 7148   0.657   0.580  15.306  0.4798  0.1643  0.6292
  480TMC3    O1 7149   1.180   0.386  15.472  0.0843  0.1426  0.2087
  480TMC3    O2 7150   0.543   0.559  15.338  0.1492  0.3599 -1.0644
  481MPD2     C 7151   2.659   4.623  14.394 -0.3672  0.6227 -0.3271
  481MPD2    C1 7152   2.533   4.663  14.409  0.0162  0.2468  0.2350
  481MPD2    C2 7153   2.484   4.658  14.533 -0.2617  0.3951 -0.2347
  481MPD2    C3 7154   2.557   4.619  14.645 -0.4002  0.0714  0.3011
  481MPD2    C4 7155   2.685   4.578  14.621  0.1039  0.6866 -0.8316
  481MPD2    C5 7156   2.734   4.581  14.496 -0.1162  0.1530  0.0747
  481MPD2     H 7157   2.380   4.682  14.553 -0.1243  1.0662 -0.3473
  481MPD2    H1 7158   2.754   4.544  14.697 -1.1142 -0.5004 -0.2648
  481MPD2    H2 7159   2.714   4.631  14.301 -1.0011  0.2070 -0.7425
  481MPD2    H3 7160   2.841   4.568  14.485 -0.2644 -0.5970 -0.4525
  481MPD2     N 7161   2.495   4.588  14.771 -0.3650 -0.3732  1.0072
  481MPD2    H5 7162   2.556   4.556  14.846 -2.5968 -5.5040  0.6569
  481MPD2    N1 7163   2.460   0.000  14.296  0.0947  0.0605  0.3641
  481MPD2    H7 7164   2.497   4.714  14.202  0.8217 -2.1115  0.8701
  482TMC3    C1 7165   2.275   0.042  14.158 -0.2547  0.1129 -0.2831
  482TMC3    C2 7166   2.160   4.695  14.136  0.1701 -0.2077 -0.0213
  482TMC3    C3 7167   2.107   4.696  14.014  0.2414  0.2985  0.0338
  482TMC3    C4 7168   2.342   0.110  14.065 -0.0394  0.1258 -0.0722
  482TMC3    C5 7169   2.283   0.110  13.940 -0.4896 -0.0798  0.2819
  482TMC3    C6 7170   2.163   0.050  13.915 -0.8440  0.7678  0.0300
  482TMC3     C 7171   2.317   0.029  14.298  0.6210  0.1112 -0.1586
  482TMC3     O 7172   2.232   4.722  14.384  0.0630  0.1499 -0.5561
  482TMC3     H 7173   2.120   4.631  14.214  0.8278 -1.1008 -0.4280
  482TMC3    H1 7174   2.448   0.127  14.071 -0.5470  1.9908  3.6337
  482TMC3    H2 7175   2.110   0.031  13.822  0.8486 -1.0950 -0.5484
  482TMC3    C7 7176   2.356   0.189  13.837 -0.3677  0.2136 -0.6592
  482TMC3    C8 7177   2.012   4.591  13.988 -0.2566  0.2205 -0.1791
  482TMC3    O1 7178   2.444   0.273  13.868  0.5844 -0.1405  0.4078
  482TMC3    O2 7179   2.002   4.494  14.063  0.3669 -0.0972 -0.6041
  483TMC3    C1 7180   0.168   3.932   1.548 -0.1630  0.3821  0.3606
  483TMC3    C2 7181   0.247   4.028   1.496 -1.0145 -0.7155 -0.4492
  483TMC3    C3 7182   0.379   4.042   1.529 -0.2602 -0.6931  0.5154
  483TMC3    C4 7183   0.226   3.832   1.621 -0.8419 -0.0490 -0.4124
  483TMC3    C5 7184   0.359   3.845   1.649  0.0910 -0.1643 -0.2265
  483TMC3    C6 7185   0.437   3.953   1.615 -0.0599 -0.3911 -0.1737
  483TMC3     C 7186   0.034   3.917   1.500 -0.3644  0.1412 -1.0401
  483TMC3     O 7187   4.699   4.025   1.478 -0.2403 -0.0019 -0.0211
  483TMC3     H 7188   0.214   4.114   1.439 -1.1024 -1.6629 -1.8117
  483TMC3    H1 7189   0.165   3.745   1.642 -0.3024 -1.1212 -3.2469
  483TMC3    H2 7190   0.535   3.961   1.661  0.0832 -3.1955  0.0258
  483TMC3    C7 7191   0.423   3.749   1.740  0.1728  0.4389 -0.6472
  483TMC3    C8 7192   0.454   4.103   1.422  0.8526 -0.0708 -0.2891
  483TMC3    O1 7193   0.544   3.745   1.717  0.0224 -0.5234  0.2107
  483TMC3    O2 7194   0.405   4.155   1.327 -0.1053  0.4385  0.3197
  484MPD2     C 7195   2.434   2.090  12.634 -0.2365  0.3559  0.3317
  484MPD2    C1 7196   2.473   1.978  12.711  0.4253 -0.1071  0.0076
  484MPD2    C2 7197   2.602   1.928  12.704  0.0332  0.2183 -0.2362
  484MPD2    C3 7198   2.699   1.987  12.621  0.3335 -0.2209 -0.3275
  484MPD2    C4 7199   2.654   2.097  12.552 -0.2481 -0.7719 -0.2081
  484MPD2    C5 7200   2.528   2.152  12.554 -0.3239  0.1851  0.1358
  484MPD2     H 7201   2.618   1.845  12.772  0.5428  0.6807  0.2096
  484MPD2    H1 7202   2.720   2.149  12.484 -0.0542 -1.2262 -0.3620
  484MPD2    H2 7203   2.332   2.128  12.631 -0.1709  0.5369  0.3610
  484MPD2    H3 7204   2.504   2.243  12.499  1.4311 -0.4275 -1.6509
  484MPD2     N 7205   2.832   1.932  12.599 -0.5281  0.3872 -0.1500
  484MPD2    H5 7206   2.903   1.980  12.545 -0.8587  0.6605 -0.3480
  484MPD2    N1 7207   2.379   1.904  12.786 -0.0667 -0.5765 -0.3226
  484MPD2    H7 7208   2.406   1.813  12.821  1.9020 -0.1219 -0.6921
  485TMC3    C1 7209   2.993   1.761  12.579 -0.2804 -0.3995  0.1783
  485TMC3    C2 7210   3.042   1.642  12.630 -0.2617  0.4286 -0.5590
  485TMC3    C3 7211   3.169   1.603  12.583  0.5549 -0.7997 -0.4957
  485TMC3    C4 7212   3.052   1.828  12.475  1.0814  0.2999  0.4964
  485TMC3    C5 7213   3.167   1.769  12.424  0.1922  0.6561  0.4667
  485TMC3    C6 7214   3.233   1.671  12.488 -0.0274  0.0503 -0.2578
  485TMC3     C 7215   2.869   1.807  12.643 -0.0369 -0.1584  0.0301
  485TMC3     O 7216   2.822   1.733  12.727  0.3869  0.3498  0.1017
  485TMC3     H 7217   2.991   1.580  12.702  0.1699  0.2368 -0.4168
  485TMC3    H1 7218   3.008   1.906  12.414 -0.9758 -2.1682 -1.1309
  485TMC3    H2 7219   3.337   1.650  12.469  0.8469  2.6820  1.6677
  485TMC3    C7 7220   3.195   1.747  12.282  0.2977  0.0893 -0.0460
  485TMC3    C8 7221   3.197   1.464  12.569  0.5116  0.3213 -0.4790
  485TMC3    O1 7222   3.198   1.846  12.213  0.1862  0.0834  0.1088
  485TMC3    O2 7223   3.248   1.434  12.466  0.0330 -0.2995 -0.1883
  486MPD2     C 7224   0.582   0.285  12.588  0.0826 -0.3457 -0.2936
  486MPD2    C1 7225   0.493   0.213  12.510 -0.2977  0.0911 -1.0803
  486MPD2    C2 7226   0.372   0.272  12.466 -0.6708 -0.8807 -0.6151
  486MPD2    C3 7227   0.342   0.409  12.504 -0.1096 -0.2711 -1.2325
  486MPD2    C4 7228   0.429   0.479  12.581 -0.2745 -0.1371 -0.3104
  486MPD2    C5 7229   0.547   0.412  12.624 -0.5283 -0.4189  0.8003
  486MPD2     H 7230   0.302   0.214  12.406 -0.2745  0.9797 -2.8406
  486MPD2    H1 7231   0.423   0.586  12.597  0.8249 -0.1808  0.4162
  486MPD2    H2 7232   0.675   0.244  12.626  0.2428  0.8991  0.6570
  486MPD2    H3 7233   0.621   0.480  12.664  0.0320 -0.4310 -0.2040
  486MPD2     N 7234   0.215   0.470  12.466  0.3794  0.2999 -0.0782
  486MPD2    H5 7235   0.152   0.406  12.421  0.4066  0.7219 -0.7260
  486MPD2    N1 7236   0.525   0.077  12.495  0.0409  0.5606 -0.1014
  486MPD2    H7 7237   0.603   0.037  12.546 -0.5746 -1.2954 -0.6019
  487TMC3    C1 7238   0.456   4.575  12.470 -0.3278 -0.0949  0.0683
  487TMC3    C2 7239   0.375   4.487  12.396  0.0273  0.7335 -0.1211
  487TMC3    C3 7240   0.319   4.387  12.470  0.3804  0.0642 -0.0946
  487TMC3    C4 7241   0.481   4.549  12.600 -0.2984 -0.1869 -0.2653
  487TMC3    C5 7242   0.426   4.443  12.665  0.6444  0.1991  0.0919
  487TMC3    C6 7243   0.331   4.370  12.612 -0.0387 -0.1300 -0.2726
  487TMC3     C 7244   0.453   4.707  12.418 -0.6951  0.3699 -0.5535
  487TMC3     O 7245   0.371   0.009  12.330 -0.9251  0.1156  0.0996
  487TMC3     H 7246   0.347   4.509  12.294  0.2925 -2.2791 -0.8493
  487TMC3    H1 7247   0.550   4.609  12.657  0.2218 -4.2269  3.4115
  487TMC3    H2 7248   0.298   4.285  12.670 -1.5924  0.2175 -0.6444
  487TMC3    C7 7249   0.428   4.452  12.803 -0.3853  0.3334  0.3666
  487TMC3    C8 7250   0.206   4.329  12.400  0.9512 -0.3695  0.2935
  487TMC3    O1 7251   0.527   4.485  12.867 -0.1287 -0.2396  0.1569
  487TMC3    O2 7252   0.211   4.318  12.280 -0.3822  0.3407 -0.3003
  488MPD2     C 7253   0.482   2.145  16.924  0.6899 -1.0770 -0.1192
  488MPD2    C1 7254   0.430   2.269  16.940 -0.3467  0.0711 -0.2554
  488MPD2    C2 7255   0.379   2.309  17.063 -0.6093 -0.5032 -0.0302
  488MPD2    C3 7256   0.379   2.218  17.167  0.0060 -0.2104 -0.2284
  488MPD2    C4 7257   0.433   2.095  17.151  0.6136 -0.2343  0.4148
  488MPD2    C5 7258   0.481   2.056  17.028 -0.3631  0.1911 -0.3293
  488MPD2     H 7259   0.327   2.405  17.066 -1.9988 -1.1845 -1.9698
  488MPD2    H1 7260   0.459   2.030  17.233  2.1565 -2.1590 -1.6030
  488MPD2    H2 7261   0.515   2.109  16.827 -0.9271 -0.3986 -0.9083
  488MPD2    H3 7262   0.537   1.964  17.023 -0.3096  0.2558 -0.9742
  488MPD2     N 7263   0.309   2.254  17.282 -0.0791 -0.3583 -0.1736
  488MPD2    H5 7264   0.272   2.348  17.275  0.2643 -0.0377  2.3050
  488MPD2    N1 7265   0.428   2.364  16.832 -0.0700  0.0221  0.1012
  488MPD2    H7 7266   0.407   2.459  16.861  2.8124  0.2566  1.4391
  489TMC3    C1 7267   0.181   2.252  17.466  0.7933  0.6965 -0.1659
  489TMC3    C2 7268   0.128   2.352  17.402  0.5846  0.4685  0.3308
  489TMC3    C3 7269   0.092   2.461  17.472 -0.2028  0.2193  0.1195
  489TMC3    C4 7270   0.200   2.254  17.602  0.5253  0.1024 -0.6465
  489TMC3    C5 7271   0.157   2.370  17.663 -0.5938  0.4759 -0.1361
  489TMC3    C6 7272   0.094   2.469  17.606  0.7227  0.4820  0.2214
  489TMC3     C 7273   0.284   2.174  17.389  0.6030  0.1252 -0.5593
  489TMC3     O 7274   0.301   2.057  17.421  0.3580 -0.9678 -0.3504
  489TMC3     H 7275   0.089   2.341  17.301 -0.4641 -2.5095  1.0512
  489TMC3    H1 7276   0.246   2.170  17.651 -1.0953  0.1291  0.9424
  489TMC3    H2 7277   0.052   2.558  17.652  0.0299 -1.1566  2.7573
  489TMC3    C7 7278   0.139   2.350   0.108 -0.3248  0.3647 -0.9577
  489TMC3    C8 7279   0.073   2.583  17.397 -0.5493  0.5301  0.4204
  489TMC3    O1 7280   0.175   2.240   0.158  0.1070 -0.0838  0.1595
  489TMC3    O2 7281   0.112   2.583  17.282  0.1676 -0.6799  0.3993
  490MPD2     C 7282   0.758   1.997   0.244  0.6397  0.0346  0.1635
  490MPD2    C1 7283   0.824   1.889   0.189  0.3393 -0.5598  0.0340
  490MPD2    C2 7284   0.950   1.917   0.127  0.4725  0.1889  0.6383
  490MPD2    C3 7285   1.007   2.045   0.116  0.0870  0.1404  0.2983
  490MPD2    C4 7286   0.935   2.156   0.164 -0.1074  0.3621 -0.8737
  490MPD2    C5 7287   0.811   2.128   0.228 -0.0202 -0.2574  0.1082
  490MPD2     H 7288   0.994   1.826   0.086 -0.9749 -0.9559  1.6044
  490MPD2    H1 7289   0.974   2.256   0.170  0.0391  0.2691 -0.3175
  490MPD2    H2 7290   0.660   1.985   0.289  0.5230  1.2667  0.2554
  490MPD2    H3 7291   0.749   2.207   0.270 -1.2565 -1.7636  1.1170
  490MPD2     N 7292   1.135   2.064   0.066 -0.8420 -0.1171 -0.1602
  490MPD2    H5 7293   1.177   2.156   0.076  0.4845 -0.7389  0.0152
  490MPD2    N1 7294   0.781   1.757   0.188 -0.0711  0.3530  0.0842
  490MPD2    H7 7295   0.849   1.698   0.140  0.4527  2.1994 -1.4275
  491TMC3    C1 7296   0.668   1.559   0.235  0.5469 -0.5055  0.9585
  491TMC3    C2 7297   0.656   1.483   0.349 -0.5607 -0.7251  0.7956
  491TMC3    C3 7298   0.694   1.353   0.337 -0.0599  0.1607 -0.0326
  491TMC3    C4 7299   0.726   1.516   0.119  0.3610 -0.5234  0.1282
  491TMC3    C5 7300   0.756   1.385   0.115  0.1105 -0.1168 -0.6825
  491TMC3    C6 7301   0.747   1.302   0.224 -0.7249  0.1323 -0.1846
  491TMC3     C 7302   0.677   1.703   0.257 -0.5050  0.3926 -0.1433
  491TMC3     O 7303   0.618   1.753   0.352  0.2770 -0.0280  0.0847
  491TMC3     H 7304   0.650   1.536   0.443  1.3174  2.3057 -0.7837
  491TMC3    H1 7305   0.699   1.563   0.025 -0.7692  0.2362  0.8266
  491TMC3    H2 7306   0.758   1.194   0.224  1.4945  0.3657  2.0053
  491TMC3    C7 7307   0.792   1.333  17.677  0.4070 -0.0134 -0.7784
  491TMC3    C8 7308   0.721   1.276   0.457 -0.2674 -0.4409 -0.5522
  491TMC3    O1 7309   0.754   1.220  17.663  0.5572 -0.2015  0.9300
  491TMC3    O2 7310   0.650   1.303   0.557  0.2634 -0.3920  0.8416
  492MPD2     C 7311   1.476   1.418  11.713 -0.4226  0.3673 -0.0529
  492MPD2    C1 7312   1.419   1.356  11.612  0.0781 -0.3918 -0.2573
  492MPD2    C2 7313   1.288   1.308  11.623  0.3668  0.2388  0.0104
  492MPD2    C3 7314   1.228   1.312  11.751  0.2111 -0.0116  0.4095
  492MPD2    C4 7315   1.286   1.385  11.850  0.2189  0.4751 -0.2097
  492MPD2    C5 7316   1.411   1.445  11.832 -0.0980  0.5472 -0.4474
  492MPD2     H 7317   1.243   1.260  11.537 -0.4821  1.2562 -0.1039
  492MPD2    H1 7318   1.232   1.389  11.944  0.6501 -0.1674  0.0686
  492MPD2    H2 7319   1.577   1.456  11.699 -0.4031  1.3658  2.7269
  492MPD2    H3 7320   1.463   1.487  11.917  0.3832 -0.3259 -0.3134
  492MPD2     N 7321   1.109   1.255  11.788 -0.0773  0.0791  0.2099
  492MPD2    H5 7322   1.079   1.271  11.884  0.5552 -0.1700  0.4455
  492MPD2    N1 7323   1.496   1.340  11.496  0.0060  0.2497  0.1692
  492MPD2    H7 7324   1.590   1.376  11.489  0.5620 -1.4740 -1.3685
  493TMC3    C1 7325   1.535   1.269  11.267 -0.2830  0.4271 -1.0175
  493TMC3    C2 7326   1.626   1.372  11.261 -0.1104 -0.5766 -0.4192
  493TMC3    C3 7327   1.695   1.385  11.143  0.1329 -0.9255  0.1949
  493TMC3    C4 7328   1.522   1.174  11.166 -0.3697  0.2688  0.5436
  493TMC3    C5 7329   1.595   1.192  11.053  0.6702  0.4512 -0.6032
  493TMC3    C6 7330   1.689   1.290  11.044 -1.0280  0.6179  0.1983
  493TMC3     C 7331   1.457   1.257  11.391  0.1468  0.1283  0.5264
  493TMC3     O 7332   1.377   1.169  11.378 -0.3402  0.3544  0.1744
  493TMC3     H 7333   1.653   1.437  11.344  0.8344 -0.4499 -0.8303
  493TMC3    H1 7334   1.448   1.095  11.161 -0.2033  0.3098 -2.4805
  493TMC3    H2 7335   1.758   1.278  10.961 -1.6221 -0.3426 -0.1582
  493TMC3    C7 7336   1.555   1.129  10.933 -0.1897  0.3888  0.1307
  493TMC3    C8 7337   1.819   1.469  11.143 -0.3189 -0.4504 -0.6759
  493TMC3    O1 7338   1.557   1.202  10.836  0.1852 -0.0010  0.2063
  493TMC3    O2 7339   1.868   1.488  11.254  0.8088  0.3389  0.0518
  494TMC3    C1 7340   2.027   3.237   0.317 -0.1034  0.6972 -0.1617
  494TMC3    C2 7341   2.085   3.110   0.293  0.3322  0.4580  0.1043
  494TMC3    C3 7342   2.124   3.087   0.163  0.4764  0.2363  0.1758
  494TMC3    C4 7343   2.010   3.332   0.215 -0.2982 -0.1367  0.4807
  494TMC3    C5 7344   2.057   3.298   0.089 -0.3983  0.6991 -0.2630
  494TMC3    C6 7345   2.123   3.176   0.061 -0.2095  0.2751 -1.0522
  494TMC3     C 7346   2.024   3.291   0.453 -0.2107  1.0181  0.0218
  494TMC3     O 7347   2.018   3.415   0.453 -0.1600 -0.1823 -0.7570
  494TMC3     H 7348   2.084   3.023   0.358  2.0796  0.4518  0.1261
  494TMC3    H1 7349   1.983   3.435   0.235 -2.1866 -0.6676  0.6885
  494TMC3    H2 7350   2.193   3.169  17.672  0.4183 -1.8637 -0.3253
  494TMC3    C7 7351   2.060   3.397  17.682 -0.1160 -0.0593 -0.1101
  494TMC3    C8 7352   2.164   2.947   0.137  0.0937  0.2434 -0.5900
  494TMC3    O1 7353   2.127   3.369  17.583 -0.0747 -0.5479 -0.3416
  494TMC3    O2 7354   2.198   2.880   0.233 -0.3888  0.0482  0.3613
  495TMC3    C1 7355   0.993   0.673  14.441  0.3670  0.3500 -0.1918
  495TMC3    C2 7356   0.905   0.698  14.337  0.4856  0.2462 -0.1081
  495TMC3    C3 7357   0.797   0.782  14.369  0.2511  0.3113  0.5084
  495TMC3    C4 7358   0.991   0.740  14.554  0.1558 -0.2375  0.5599
  495TMC3    C5 7359   0.892   0.828  14.576  0.0732  0.0819  0.0940
  495TMC3    C6 7360   0.796   0.856  14.488 -0.4805 -0.4063  1.1109
  495TMC3     C 7361   1.018   0.533  14.461 -0.1351 -0.0502 -0.3877
  495TMC3     O 7362   0.937   0.457  14.412 -0.1212 -0.6641  0.1019
  495TMC3     H 7363   0.888   0.618  14.266  1.9727 -1.2338  1.1971
  495TMC3    H1 7364   1.049   0.712  14.641  1.9165  1.2009 -0.1593
  495TMC3    H2 7365   0.713   0.921  14.511  0.3868  0.8099  0.8425
  495TMC3    C7 7366   0.845   0.820  14.715  0.1857 -0.4713  0.3349
  495TMC3    C8 7367   0.672   0.750  14.325  0.5175  0.4751 -0.0258
  495TMC3    O1 7368   0.927   0.830  14.805 -0.3370 -0.1607  0.0449
  495TMC3    O2 7369   0.584   0.759  14.410 -0.1288  0.1991 -0.1008
  496MPD2     C 7370   2.377   0.645  15.263 -0.1238  0.0167 -0.7607
  496MPD2    C1 7371   2.454   0.616  15.372  0.3150 -0.3094 -0.0480
  496MPD2    C2 7372   2.396   0.554  15.483  0.2432 -0.3712 -0.3236
  496MPD2    C3 7373   2.254   0.541  15.493 -0.5433 -0.4250 -0.6885
  496MPD2    C4 7374   2.184   0.573  15.383 -0.7946 -0.2660 -0.2284
  496MPD2    C5 7375   2.240   0.623  15.269  0.2827  0.2784  0.3608
  496MPD2     H 7376   2.466   0.518  15.559  1.1293  3.4952  0.7060
  496MPD2    H1 7377   2.077   0.554  15.389 -0.6988 -0.7289  0.0442
  496MPD2    H2 7378   2.415   0.690  15.173 -0.3899 -1.8352 -1.7970
  496MPD2    H3 7379   2.178   0.645  15.182  0.2475  2.2057  0.8699
  496MPD2     N 7380   2.192   0.500  15.611  0.1754  0.4418  0.1871
  496MPD2    H5 7381   2.091   0.497  15.606  0.2230 -1.2806  0.1677
  496MPD2    N1 7382   2.590   0.652  15.354 -0.0041  0.3235 -0.5358
  496MPD2    H7 7383   2.616   0.686  15.262  1.7270  0.3664 -0.0307
  497TMC3    C1 7384   2.154   0.441  15.841 -0.4119  0.9255  0.4795
  497TMC3    C2 7385   2.068   0.354  15.788  0.4762  0.1323 -0.5567
  497TMC3    C3 7386   2.014   0.252  15.857 -0.0587  0.4326  0.0366
  497TMC3    C4 7387   2.208   0.422  15.969 -0.8381 -0.6076 -0.6978
  497TMC3    C5 7388   2.156   0.316  16.036  0.3611 -0.3413  0.9291
  497TMC3    C6 7389   2.061   0.228  15.980  0.0852 -0.6213  0.6477
  497TMC3     C 7390   2.243   0.488  15.739 -0.1768 -0.8399  0.5409
  497TMC3     O 7391   2.358   0.513  15.774  0.1397 -0.3893 -0.4189
  497TMC3     H 7392   2.030   0.358  15.686 -1.6995  1.1429  0.2892
  497TMC3    H1 7393   2.275   0.492  16.017 -0.5757 -0.0190 -1.9197
  497TMC3    H2 7394   2.034   0.138  16.034 -0.6699  0.8920  2.7418
  497TMC3    C7 7395   2.168   0.311  16.179 -0.6643  0.1384 -0.1358
  497TMC3    C8 7396   1.999   0.138  15.776 -0.4187  0.5523  0.3510
  497TMC3    O1 7397   2.066   0.275  16.240 -0.4390 -0.0152  0.1433
  497TMC3    O2 7398   1.933   0.154  15.672  0.7902 -0.1264 -0.5022
  498MPD2     C 7399   3.737   4.433   9.158  0.3349 -0.7101  0.4777
  498MPD2    C1 7400   3.718   4.561   9.219 -0.0753  0.4926 -0.0764
  498MPD2    C2 7401   3.593   4.609   9.241 -0.7791 -0.2344 -0.0837
  498MPD2    C3 7402   3.477   4.545   9.204  0.3693 -0.2239 -0.2454
  498MPD2    C4 7403   3.491   4.423   9.149 -0.1462 -0.3553  0.2882
  498MPD2    C5 7404   3.622   4.371   9.127  0.3399 -0.3154  0.4387
  498MPD2     H 7405   3.584   4.707   9.287  1.6737 -0.7509  1.4570
  498MPD2    H1 7406   3.404   4.362   9.126 -0.5793 -0.1063  1.2537
  498MPD2    H2 7407   3.836   4.397   9.136  0.3357  0.6707 -1.9126
  498MPD2    H3 7408   3.641   4.277   9.077 -0.4910 -1.4161  2.2205
  498MPD2     N 7409   3.357   4.608   9.239 -0.1514 -0.1382  0.6076
  498MPD2    H5 7410   3.368   4.692   9.295 -2.0069  1.1739 -1.0129
  498MPD2    N1 7411   3.833   4.639   9.252  0.5614 -0.3595 -0.9312
  498MPD2    H7 7412   3.818   0.014   9.274 -3.6094 -0.9058 -1.5091
  499TMC3    C1 7413   4.061   4.690   9.249  0.0511  0.2900 -0.6804
  499TMC3    C2 7414   4.188   4.655   9.295  0.4020 -0.5808  0.4480
  499TMC3    C3 7415   4.294   0.016   9.288 -0.2240  0.0278  0.1110
  499TMC3    C4 7416   4.034   0.097   9.219  0.1446  0.3435 -0.0808
  499TMC3    C5 7417   4.141   0.181   9.216  0.0294 -0.0620  0.1908
  499TMC3    C6 7418   4.272   0.144   9.252 -0.4817  0.0905 -1.1514
  499TMC3     C 7419   3.962   4.586   9.252  0.1597  0.2683 -0.2539
  499TMC3     O 7420   4.003   4.470   9.267  0.0476  0.0923 -0.3130
  499TMC3     H 7421   4.211   4.551   9.313  0.0121 -1.1104 -2.0529
  499TMC3    H1 7422   3.943   0.139   9.179  0.1169  0.6122  0.2666
  499TMC3    H2 7423   4.352   0.217   9.240  0.1819 -0.2610  1.0476
  499TMC3    C7 7424   4.132   0.305   9.140  0.4890  0.4390  0.2613
  499TMC3    C8 7425   4.419   4.703   9.350  0.4884 -0.4402 -0.3540
  499TMC3    O1 7426   4.225   0.385   9.158 -0.3065 -0.0614  0.3518
  499TMC3    O2 7427   4.437   4.586   9.373 -0.2779  0.2216 -0.2529
  500MPD2     C 7428   0.775   1.793  10.061  0.6459  0.2911 -0.1130
  500MPD2    C1 7429   0.675   1.888  10.087  0.5013 -0.0315 -0.4855
  500MPD2    C2 7430   0.559   1.878  10.008  0.1072  0.7063  0.8623
  500MPD2    C3 7431   0.542   1.774   9.917  0.2460  0.3004 -0.1455
  500MPD2    C4 7432   0.648   1.680   9.896  0.9011 -0.4592  0.8498
  500MPD2    C5 7433   0.762   1.693   9.966  0.5617 -0.3408 -0.2613
  500MPD2     H 7434   0.479   1.951  10.018 -1.3992 -0.6826 -1.1019
  500MPD2    H1 7435   0.644   1.605   9.819  0.6726  1.8322 -1.3738
  500MPD2    H2 7436   0.870   1.799  10.113  0.5364 -1.7528  0.3310
  500MPD2    H3 7437   0.842   1.625   9.940 -0.8350 -2.6973  1.5721
  500MPD2     N 7438   0.423   1.760   9.841 -0.0565 -0.0784  0.4791
  500MPD2    H5 7439   0.426   1.690   9.768  1.1937  0.8160 -0.3362
  500MPD2    N1 7440   0.702   1.989  10.185 -0.3649  0.5513  0.3132
  500MPD2    H7 7441   0.794   1.978  10.227 -0.4717 -2.1758 -0.2124
  501TMC3    C1 7442   0.665   2.190  10.323 -0.2281  0.1909  0.7447
  501TMC3    C2 7443   0.603   2.317  10.333 -1.0481  0.0669  0.2241
  501TMC3    C3 7444   0.603   2.382  10.452  0.5688  0.3539  0.2653
  501TMC3    C4 7445   0.747   2.148  10.425 -0.2813 -0.2230  0.2989
  501TMC3    C5 7446   0.738   2.211  10.550 -0.3185 -0.6852  0.1942
  501TMC3    C6 7447   0.663   2.329  10.564  0.7813 -0.3075 -0.0397
  501TMC3     C 7448   0.624   2.102  10.208  0.4120  0.8179 -0.0526
  501TMC3     O 7449   0.522   2.142  10.153  0.0170  1.4991 -0.1684
  501TMC3     H 7450   0.555   2.350  10.242  0.4565  1.6083 -0.0164
  501TMC3    H1 7451   0.801   2.054  10.414  0.8549  0.4158  0.4641
  501TMC3    H2 7452   0.646   2.383  10.656  1.5770  0.2360 -0.2119
  501TMC3    C7 7453   0.858   2.213  10.630 -0.0416 -0.1048 -0.6193
  501TMC3    C8 7454   0.603   2.526  10.434 -0.0334 -0.4373  0.4013
  501TMC3    O1 7455   0.942   2.128  10.613 -0.4803 -0.1048 -0.0942
  501TMC3    O2 7456   0.670   2.583  10.521  0.4320 -0.0678  0.1317
  502TMC3    C1 7457   0.281   1.417  15.107 -0.0184 -0.8749 -0.9177
  502TMC3    C2 7458   0.256   1.529  15.039  0.2989  0.1119  0.1778
  502TMC3    C3 7459   0.127   1.550  14.999 -0.2151 -0.1166 -0.0445
  502TMC3    C4 7460   0.188   1.317  15.123 -0.6422 -0.1960 -0.6075
  502TMC3    C5 7461   0.059   1.339  15.086 -0.3375 -0.4636 -0.7454
  502TMC3    C6 7462   0.027   1.455  15.022 -0.4161  0.0754  0.3098
  502TMC3     C 7463   0.408   1.401  15.171 -1.2997 -0.4554  0.2074
  502TMC3     O 7464   0.510   1.441  15.120 -0.1987 -0.8431 -0.2028
  502TMC3     H 7465   0.324   1.613  15.052 -0.8277  0.7631  1.8579
  502TMC3    H1 7466   0.217   1.225  15.172  0.0573  1.4948  2.1370
  502TMC3    H2 7467   4.650   1.487  14.996 -0.3248  0.8249  0.8955
  502TMC3    C7 7468   4.686   1.275  15.176 -0.2221  0.0373 -0.2141
  502TMC3    C8 7469   0.080   1.675  15.059 -0.3946  0.3587  0.6448
  502TMC3    O1 7470   0.014   1.190  15.249  0.2288  0.3346 -0.3919
  502TMC3    O2 7471   0.143   1.775  15.033  0.6611 -0.1126 -0.1336
  503MPD2     C 7472   2.141   2.096  16.774  0.3032  0.3751 -0.2510
  503MPD2    C1 7473   2.126   2.110  16.910  0.3185 -0.6573 -0.0399
  503MPD2    C2 7474   2.198   2.029  16.997 -0.7907 -0.3273 -0.8246
  503MPD2    C3 7475   2.299   1.948  16.956 -0.3591  0.4388  0.4467
  503MPD2    C4 7476   2.315   1.932  16.820  0.1289 -0.0110 -0.0251
  503MPD2    C5 7477   2.235   2.005  16.730  0.3030 -0.6341 -0.4064
  503MPD2     H 7478   2.176   2.043  17.102  0.9298  0.5994 -0.5787
  503MPD2    H1 7479   2.394   1.871  16.778 -0.3820  1.3043 -2.8954
  503MPD2    H2 7480   2.090   2.161  16.703  0.1126 -0.5733 -0.9897
  503MPD2    H3 7481   2.250   1.986  16.625 -1.6285  0.0052 -0.7895
  503MPD2     N 7482   2.376   1.879  17.055  0.3520  0.3373 -0.5668
  503MPD2    H5 7483   2.343   1.892  17.151  0.0985 -0.4617 -0.5502
  503MPD2    N1 7484   2.046   2.211  16.966 -0.0386 -0.5894 -0.3104
  503MPD2    H7 7485   2.044   2.218  17.067 -0.3125  0.9300 -0.4222
  504TMC3    C1 7486   2.546   1.745  17.153  0.6341 -0.7219  0.7742
  504TMC3    C2 7487   2.459   1.701  17.250  0.0009 -0.3398  0.1399
  504TMC3    C3 7488   2.512   1.622  17.348 -0.0575 -0.4806  0.0509
  504TMC3    C4 7489   2.679   1.698  17.146 -0.2502  0.3027 -0.0117
  504TMC3    C5 7490   2.728   1.621  17.247 -0.0344 -0.1494  0.2931
  504TMC3    C6 7491   2.642   1.585  17.346 -1.2781  0.1333  0.6728
  504TMC3     C 7492   2.497   1.814  17.033  0.0601 -0.2107 -0.0716
  504TMC3     O 7493   2.569   1.813  16.933  0.0384 -0.3294  0.5096
  504TMC3     H 7494   2.356   1.733  17.265  0.5951  3.0571 -2.9024
  504TMC3    H1 7495   2.744   1.742  17.071  1.2791  0.5812  1.4761
  504TMC3    H2 7496   2.672   1.533  17.437  1.0437 -0.8452 -0.6400
  504TMC3    C7 7497   2.839   1.527  17.219  0.2669  0.0198 -0.1918
  504TMC3    C8 7498   2.427   1.611  17.461  0.3183 -0.1101  0.2742
  504TMC3    O1 7499   2.894   1.558  17.116  0.4738 -0.0849 -0.0612
  504TMC3    O2 7500   2.308   1.581  17.436 -0.1271  0.1887  0.0952
  505MPD2     C 7501   2.378   0.224  10.529  0.0837  0.6092 -0.1407
  505MPD2    C1 7502   2.461   0.166  10.431 -0.4326 -1.1648 -0.9811
  505MPD2    C2 7503   2.580   0.232  10.396 -0.5327  0.0619  0.1228
  505MPD2    C3 7504   2.625   0.335  10.465 -0.5126 -0.2330  0.1231
  505MPD2    C4 7505   2.549   0.387  10.567  0.4923  0.7232  0.1742
  505MPD2    C5 7506   2.431   0.327  10.599  0.0126  0.4242  0.0114
  505MPD2     H 7507   2.630   0.202  10.304 -2.3263 -3.8468  0.4463
  505MPD2    H1 7508   2.591   0.470  10.623  0.8759 -1.6543  3.4423
  505MPD2    H2 7509   2.279   0.185  10.550  0.4078 -0.4738 -0.6004
  505MPD2    H3 7510   2.369   0.368  10.678 -0.5499 -1.1930  0.4139
  505MPD2     N 7511   2.748   0.403  10.434  0.6631 -0.5517 -0.3230
  505MPD2    H5 7512   2.780   0.472  10.501 -0.9982 -0.3147  0.2475
  505MPD2    N1 7513   2.421   0.028  10.408  0.8253 -0.0594 -0.2557
  505MPD2    H7 7514   2.345   4.719  10.467  1.1129 -3.3357 -1.6600
  506TMC3    C1 7515   2.447   4.528  10.362 -0.2350  0.3937  0.5527
  506TMC3    C2 7516   2.460   4.448  10.251  0.0708 -1.1660  0.1575
  506TMC3    C3 7517   2.506   4.323  10.258 -0.3203 -0.1836  0.7527
  506TMC3    C4 7518   2.497   4.472  10.476  0.5951 -0.0979 -0.3292
  506TMC3    C5 7519   2.534   4.337  10.485  0.6027 -0.2853  0.7155
  506TMC3    C6 7520   2.533   4.258  10.375  0.2207 -0.2603  0.2486
  506TMC3     C 7521   2.496   4.659  10.343 -0.2943 -0.1707  0.4877
  506TMC3     O 7522   2.596   4.665  10.277  0.1471  0.3985  0.0604
  506TMC3     H 7523   2.447   4.501  10.157 -1.6900 -1.2479  0.3664
  506TMC3    H1 7524   2.507   4.538  10.562  1.8770 -1.5455  0.6213
  506TMC3    H2 7525   2.582   4.161  10.376 -0.6760 -0.7092 -0.1618
  506TMC3    C7 7526   2.662   4.334  10.550 -0.3510  0.0520 -0.2918
  506TMC3    C8 7527   2.538   4.254  10.133  0.0558  0.0339  0.2009
  506TMC3    O1 7528   2.705   4.244  10.620  0.4946 -0.0598 -0.6388
  506TMC3    O2 7529   2.549   4.130  10.135  0.1591 -0.5461 -0.5528
  507TMC3    C1 7530   3.099   1.584  15.011  0.2958  1.0703  0.1145
  507TMC3    C2 7531   3.104   1.586  14.870 -0.3819  0.7960 -0.0109
  507TMC3    C3 7532   3.230   1.600  14.814 -0.0143  0.3926 -1.4206
  507TMC3    C4 7533   3.210   1.613  15.091 -1.0410  0.2079  0.4319
  507TMC3    C5 7534   3.322   1.648  15.028  0.5114  0.2412 -0.5835
  507TMC3    C6 7535   3.336   1.624  14.894  0.0446 -0.4368 -0.8900
  507TMC3     C 7536   2.977   1.545  15.078  0.1487 -0.0420 -0.4258
  507TMC3     O 7537   2.880   1.550  15.005  0.5655 -0.6748 -0.3199
  507TMC3     H 7538   3.016   1.576  14.808  0.8473 -2.0750 -1.3091
  507TMC3    H1 7539   3.196   1.647  15.193 -0.0210  0.1317  0.5922
  507TMC3    H2 7540   3.435   1.633  14.849  0.8578 -0.5155  0.9083
  507TMC3    C7 7541   3.411   1.751  15.085  0.1219 -0.4002  0.6137
  507TMC3    C8 7542   3.222   1.686  14.702  0.0513 -0.0275 -0.0503
  507TMC3    O1 7543   3.465   1.818  14.999 -0.2274  0.0235  0.1818
  507TMC3    O2 7544   3.141   1.656  14.616  0.2176  0.4749 -0.2502
  508MPD2     C 7545   4.313   3.971  16.023 -0.2922 -0.5996 -0.0264
  508MPD2    C1 7546   4.300   4.095  16.088  0.1943 -0.1073  0.2972
  508MPD2    C2 7547   4.234   4.197  16.029 -0.2967 -0.0551  1.0823
  508MPD2    C3 7548   4.189   4.184  15.898 -0.2585  0.0076 -0.0529
  508MPD2    C4 7549   4.201   4.055  15.839  0.3593  0.3983  0.5721
  508MPD2    C5 7550   4.267   3.953  15.900 -0.5192  0.9397 -0.2065
  508MPD2     H 7551   4.233   4.294  16.077 -0.5461  0.1796  0.6007
  508MPD2    H1 7552   4.167   4.054  15.736  1.1798  2.9231  0.2739
  508MPD2    H2 7553   4.368   3.893  16.073  0.5154  2.0032  3.1466
  508MPD2    H3 7554   4.301   3.863  15.849 -1.1332  1.2673 -1.1978
  508MPD2     N 7555   4.126   4.296  15.836 -0.3743  0.0738  0.5018
  508MPD2    H5 7556   4.151   4.382  15.883  0.8217  0.5597 -1.0280
  508MPD2    N1 7557   4.351   4.102  16.219 -0.1346 -0.4248 -0.3636
  508MPD2    H7 7558   4.415   4.032  16.254 -2.7636 -1.3386  2.6175
  509TMC3    C1 7559   3.991   4.626  15.594  0.0709  0.3044  0.1198
  509TMC3    C2 7560   4.034   4.617  15.464 -0.1366  0.4112 -0.0216
  509TMC3    C3 7561   4.102   4.512  15.420  0.5399 -0.0389  0.2368
  509TMC3    C4 7562   4.015   4.528  15.681 -0.1022 -0.0413  0.0321
  509TMC3    C5 7563   4.082   4.419  15.639  0.0699 -0.1937 -0.3834
  509TMC3    C6 7564   4.126   4.412  15.509  0.8325  0.0155  0.3126
  509TMC3     C 7565   3.934   0.025  15.644  0.1517  0.0401 -0.1752
  509TMC3     O 7566   3.893   0.021  15.759 -0.1495  0.3921  0.0602
  509TMC3     H 7567   3.998   4.688  15.390 -1.3780 -1.5013 -1.2480
  509TMC3    H1 7568   3.992   4.536  15.787  0.3861 -2.4504  0.3211
  509TMC3    H2 7569   4.197   4.339  15.472  1.1985  1.6638 -2.2502
  509TMC3    C7 7570   4.081   4.293  15.705  0.8328  0.5789  0.3517
  509TMC3    C8 7571   4.206   4.540  15.325  0.8222 -0.3437  0.2982
  509TMC3    O1 7572   4.056   4.196  15.631  0.5817 -0.2781 -0.2421
  509TMC3    O2 7573   4.266   4.447  15.275 -0.4411 -0.0898  0.2096
  510MPD2     C 7574   2.024   1.141  14.746 -0.1454  1.1338  0.5463
  510MPD2    C1 7575   2.087   1.021  14.750  0.3455 -0.8477 -0.1438
  510MPD2    C2 7576   2.201   0.994  14.678  0.3540 -0.2543 -0.1651
  510MPD2    C3 7577   2.246   1.085  14.582  0.2440  0.2725 -0.3709
  510MPD2    C4 7578   2.182   1.213  14.580  0.0418  0.0360  0.6957
  510MPD2    C5 7579   2.073   1.236  14.664  0.7484 -0.2593  0.4950
  510MPD2     H 7580   2.253   0.900  14.694  0.2553 -0.2089  0.4114
  510MPD2    H1 7581   2.207   1.294  14.512  1.9579  0.7627  2.2799
  510MPD2    H2 7582   1.927   1.158  14.792 -1.2820  1.8187 -2.1550
  510MPD2    H3 7583   2.031   1.335  14.667  0.3622 -0.3821 -1.2330
  510MPD2     N 7584   2.355   1.053  14.502  0.0444  0.0026 -0.3543
  510MPD2    H5 7585   2.416   0.979  14.535  1.4777  1.2508 -0.1990
  510MPD2    N1 7586   2.027   0.929  14.837  0.7597  0.2305 -0.4566
  510MPD2    H7 7587   1.929   0.942  14.859  0.3575 -0.2658 -1.9683
  511TMC3    C1 7588   1.951   0.722  14.930 -0.2785  0.5986  0.2760
  511TMC3    C2 7589   1.876   0.766  15.041  0.0168  0.2142 -0.0670
  511TMC3    C3 7590   1.797   0.688  15.121 -0.8182 -0.4577 -0.3963
  511TMC3    C4 7591   1.958   0.589  14.924 -0.0405 -0.2071 -0.1479
  511TMC3    C5 7592   1.882   0.511  15.005  0.7261 -0.3749 -0.6986
  511TMC3    C6 7593   1.795   0.560  15.098 -0.1132  0.0826 -0.0973
  511TMC3     C 7594   2.064   0.795  14.872  0.1128 -0.1786 -0.5252
  511TMC3     O 7595   2.168   0.733  14.858 -0.6102 -0.5600  0.0189
  511TMC3     H 7596   1.903   0.861  15.084  1.1206 -0.5540  0.9292
  511TMC3    H1 7597   2.035   0.551  14.857  0.1430  0.1701 -0.1496
  511TMC3    H2 7598   1.719   0.501  15.148  0.7553  1.4181  2.7371
  511TMC3    C7 7599   1.859   0.374  14.955  0.2603 -0.3141  0.8518
  511TMC3    C8 7600   1.730   0.743  15.239 -0.0059 -0.1871 -0.1374
  511TMC3    O1 7601   1.897   0.356  14.845  0.2698  0.0680 -0.1006
  511TMC3    O2 7602   1.709   0.866  15.228  0.5107  0.1157 -0.3336
  512TMC3    C1 7603   1.559   0.366  13.343  0.5878  0.4074  0.1662
  512TMC3    C2 7604   1.440   0.400  13.404 -0.1799 -0.1991 -0.2049
  512TMC3    C3 7605   1.321   0.356  13.351  0.2722 -0.5619  0.1109
  512TMC3    C4 7606   1.564   0.301  13.222  0.0092  0.1319 -0.3123
  512TMC3    C5 7607   1.443   0.254  13.180 -0.2069 -0.7485 -0.4535
  512TMC3    C6 7608   1.324   0.270  13.244  0.5014  0.1324  0.6773
  512TMC3     C 7609   1.688   0.403  13.398 -0.5202  0.0367  0.6033
  512TMC3     O 7610   1.778   0.369  13.326 -0.5936  0.1436  0.3349
  512TMC3     H 7611   1.445   0.446  13.502 -0.3377  1.0670 -0.7869
  512TMC3    H1 7612   1.649   0.290  13.156  0.3413 -1.2580  0.3547
  512TMC3    H2 7613   1.230   0.244  13.197 -0.2999 -1.1115  2.9355
  512TMC3    C7 7614   1.455   0.169  13.063  0.1865  0.0221 -0.2526
  512TMC3    C8 7615   1.198   0.363  13.422 -0.1675  0.0638 -0.6915
  512TMC3    O1 7616   1.533   0.211  12.976 -0.0884 -0.3340  0.4139
  512TMC3    O2 7617   1.108   0.288  13.390 -0.0755 -0.3178 -0.3217
  513MPD2     C 7618   2.657   0.068  13.317 -0.0277  0.1817 -0.0231
  513MPD2    C1 7619   2.727   0.008  13.212 -0.8937 -0.0791  0.2925
  513MPD2    C2 7620   2.841   0.069  13.168 -0.2285  0.3548 -0.6276
  513MPD2    C3 7621   2.873   0.192  13.219 -0.2095 -0.6674  0.2316
  513MPD2    C4 7622   2.805   0.252  13.326 -0.0449  0.6400  0.7845
  513MPD2    C5 7623   2.690   0.188  13.371 -0.3814 -0.0642 -0.3090
  513MPD2     H 7624   2.911   0.032  13.094  1.8278  1.9030  0.5337
  513MPD2    H1 7625   2.837   0.345  13.372  2.4000  0.8266 -1.2779
  513MPD2    H2 7626   2.564   0.023  13.347 -0.1531 -0.9262 -2.0890
  513MPD2    H3 7627   2.626   0.220  13.453 -0.1543 -1.6269  0.4752
  513MPD2     N 7628   2.991   0.244  13.166  0.6441 -0.0900 -0.5989
  513MPD2    H5 7629   3.029   0.193  13.087  2.2824 -0.4439  0.4226
  513MPD2    N1 7630   2.684   4.597  13.172 -0.3166  0.1328  0.3314
  513MPD2    H7 7631   2.603   4.560  13.221 -1.9957  0.3391 -2.2507
  514TMC3    C1 7632   2.818   4.561  12.979 -0.1133  0.2988 -0.0668
  514TMC3    C2 7633   2.773   4.646  12.887  0.0199  0.5989 -0.1245
  514TMC3    C3 7634   2.832   4.658  12.769  0.7409  0.2084 -1.2323
  514TMC3    C4 7635   2.909   4.469  12.958  0.1293 -0.2184  0.5432
  514TMC3    C5 7636   2.971   4.478  12.833 -1.0272  0.2469  0.0466
  514TMC3    C6 7637   2.923   4.565  12.737 -0.8099  0.0944  0.0090
  514TMC3     C 7638   2.719   4.513  13.067 -0.1026  0.6596  0.2817
  514TMC3     O 7639   2.671   4.402  13.046 -0.3905  1.2420  0.4773
  514TMC3     H 7640   2.686   4.710  12.899  1.0790  2.1888 -1.0346
  514TMC3    H1 7641   2.935   4.390  13.027 -0.6444  0.2761  1.4043
  514TMC3    H2 7642   2.955   4.560  12.634 -1.3238 -1.2571 -0.0856
  514TMC3    C7 7643   3.044   4.363  12.775  0.3347 -0.0586  0.2345
  514TMC3    C8 7644   2.847   0.066  12.718 -0.0687 -0.3951  0.1389
  514TMC3    O1 7645   3.014   4.252  12.817  0.0564 -0.7893  0.3646
  514TMC3    O2 7646   2.773   0.154  12.769  0.4880 -0.4869 -0.0162
  515MPD2     C 7647   0.208   2.118  15.217 -0.9964  0.0350 -0.4234
  515MPD2    C1 7648   0.302   2.129  15.112 -0.1488 -0.0852 -0.5424
  515MPD2    C2 7649   0.438   2.154  15.131  0.0456  0.4529 -0.2187
  515MPD2    C3 7650   0.477   2.165  15.266  0.2631  0.0026  0.3300
  515MPD2    C4 7651   0.383   2.156  15.373  0.0465 -0.4315  0.3184
  515MPD2    C5 7652   0.252   2.123  15.346 -0.1369  0.2511  0.0862
  515MPD2     H 7653   0.504   2.163  15.045 -0.8342 -2.2190 -1.1854
  515MPD2    H1 7654   0.414   2.169  15.476  0.6579  3.1993 -0.3303
  515MPD2    H2 7655   0.100   2.107  15.208 -1.0352 -0.3355  0.5876
  515MPD2    H3 7656   0.175   2.121  15.423 -1.1802 -0.1523 -0.9657
  515MPD2     N 7657   0.614   2.196  15.305 -0.2226  0.6385  0.1027
  515MPD2    H5 7658   0.628   2.207  15.405 -2.1167 -0.7007  0.5263
  515MPD2    N1 7659   0.266   2.110  14.976  0.1475  0.1453 -0.3642
  515MPD2    H7 7660   0.337   2.117  14.904 -1.0630  0.9197 -1.4736
  516TMC3    C1 7661   0.121   2.036  14.800 -0.5110 -0.3632  1.1216
  516TMC3    C2 7662   0.008   2.085  14.734  0.3571 -0.1298  0.4302
  516TMC3    C3 7663   4.702   2.015  14.620 -0.2760 -0.4979 -0.0979
  516TMC3    C4 7664   0.193   1.933  14.755 -0.3790  0.1675 -0.0578
  516TMC3    C5 7665   0.145   1.857  14.645  0.3793  0.0311  0.0587
  516TMC3    C6 7666   0.038   1.896  14.570 -0.0491 -0.5313  0.4505
  516TMC3     C 7667   0.136   2.101  14.930 -0.4884  0.0502 -0.2195
  516TMC3     O 7668   0.029   2.125  14.982 -0.1198 -0.0844 -0.0987
  516TMC3     H 7669   4.665   2.160  14.776  1.0335  0.9541 -0.4324
  516TMC3    H1 7670   0.271   1.888  14.816 -1.3944  0.2873  1.3209
  516TMC3    H2 7671   0.016   1.840  14.480  3.2487 -2.5664  0.9138
  516TMC3    C7 7672   0.198   1.727  14.642 -0.2325 -0.2728  0.0510
  516TMC3    C8 7673   4.604   2.070  14.527  0.1219 -1.3847  0.1743
  516TMC3    O1 7674   0.318   1.706  14.660 -0.2233 -1.5824  0.6230
  516TMC3    O2 7675   4.518   1.994  14.482 -0.0222 -0.3287 -0.0576
  517MPD2     C 7676   0.259   3.623   0.120 -0.3364  0.6689  0.3522
  517MPD2    C1 7677   0.399   3.631   0.139 -0.0127 -0.3700 -0.0169
  517MPD2    C2 7678   0.450   3.740   0.210  0.8064 -0.0318  0.5667
  517MPD2    C3 7679   0.369   3.822   0.283 -0.6830  0.0454 -0.1196
  517MPD2    C4 7680   0.232   3.806   0.277  0.4752  0.1551 -0.3045
  517MPD2    C5 7681   0.184   3.711   0.191 -0.1818  0.5677  0.4212
  517MPD2     H 7682   0.557   3.744   0.230  1.2497  1.3334 -2.0898
  517MPD2    H1 7683   0.162   3.875   0.322  1.8414  0.0140  2.0435
  517MPD2    H2 7684   0.209   3.570   0.039 -1.5162  1.2690  0.7043
  517MPD2    H3 7685   0.077   3.715   0.176 -0.1418 -0.4697 -0.1367
  517MPD2     N 7686   0.422   3.919   0.376 -0.4061 -0.4636  0.2172
  517MPD2    H5 7687   0.355   3.984   0.416 -0.0499  0.1660 -0.1940
  517MPD2    N1 7688   0.494   3.549   0.085  0.0802  0.0861 -0.2925
  517MPD2    H7 7689   0.590   3.571   0.108  0.2217 -0.9357  0.0770
  518TMC3    C1 7690   0.584   3.375  17.652 -0.3956 -0.6125  0.1797
  518TMC3    C2 7691   0.561   3.243  17.669 -0.9009  0.4096 -0.1816
  518TMC3    C3 7692   0.676   3.162  17.637  0.0413  0.3152  0.2923
  518TMC3    C4 7693   0.698   3.438  17.599  0.7534 -0.1308 -0.1516
  518TMC3    C5 7694   0.800   3.352  17.575  1.0455  0.6379  0.1950
  518TMC3    C6 7695   0.793   3.219  17.593  0.1443  0.8314 -0.0953
  518TMC3     C 7696   0.470   3.456  17.680  0.5350  0.3604  0.6637
  518TMC3     O 7697   0.358   3.413  17.649  0.2686 -0.8367 -0.0812
  518TMC3     H 7698   0.464   3.196  17.675 -0.5540 -0.2312  0.4135
  518TMC3    H1 7699   0.711   3.543  17.573  0.2192  0.0730  0.3767
  518TMC3    H2 7700   0.875   3.151  17.575  0.0176  1.1223 -1.8144
  518TMC3    C7 7701   0.906   3.416  17.493  0.6463  0.5425 -0.8324
  518TMC3    C8 7702   0.665   3.021  17.637  0.1518 -1.0166  0.2304
  518TMC3    O1 7703   0.904   3.538  17.463 -0.0881  0.5967  0.3662
  518TMC3    O2 7704   0.753   2.961  17.571  0.0909 -0.4034 -0.1958
  519MPD2     C 7705   2.040   2.068  14.795  0.4992 -0.1634  0.6459
  519MPD2    C1 7706   1.966   2.074  14.682  0.5729  0.2508  0.4992
  519MPD2    C2 7707   1.986   1.972  14.590  0.4289 -0.8226  0.3522
  519MPD2    C3 7708   2.080   1.868  14.610 -0.2500  0.0156  0.0356
  519MPD2    C4 7709   2.162   1.875  14.722 -0.1917  0.5339 -0.6731
  519MPD2    C5 7710   2.133   1.971  14.818  0.3596  1.4535  0.0157
  519MPD2     H 7711   1.924   1.965  14.501 -0.9142 -0.1633  1.2288
  519MPD2    H1 7712   2.246   1.809  14.737 -1.3348 -0.2800  2.1631
  519MPD2    H2 7713   2.032   2.141  14.875 -0.2574 -0.4614  0.8432
  519MPD2    H3 7714   2.183   1.967  14.914 -0.6576 -0.9261  0.4603
  519MPD2     N 7715   2.090   1.771  14.506  0.0192  0.2937 -0.7700
  519MPD2    H5 7716   2.069   1.805  14.413 -1.0162  0.1032 -0.6039
  519MPD2    N1 7717   1.881   2.180  14.664 -0.9419 -0.3088 -0.5157
  519MPD2    H7 7718   1.879   2.246  14.741  0.6645  0.7157 -1.3579
  520TMC3    C1 7719   2.217   1.600  14.392  0.3774 -0.0853  0.2637
  520TMC3    C2 7720   2.159   1.655  14.282  0.0880 -0.4926 -0.2807
  520TMC3    C3 7721   2.224   1.640  14.162  0.6478  0.1794  0.4099
  520TMC3    C4 7722   2.348   1.554  14.393 -0.5234  0.3931  0.1831
  520TMC3    C5 7723   2.403   1.540  14.274  0.4160  0.0023 -0.6787
  520TMC3    C6 7724   2.346   1.579  14.157 -0.0736 -0.0696 -0.2014
  520TMC3     C 7725   2.167   1.660  14.516 -0.7300  0.4166  0.0374
  520TMC3     O 7726   2.199   1.607  14.618 -0.1330 -0.1583  0.8640
  520TMC3     H 7727   2.052   1.665  14.289  0.0858  0.8853 -2.2528
  520TMC3    H1 7728   2.394   1.535  14.489 -0.8965  1.5824  0.5940
  520TMC3    H2 7729   2.399   1.576  14.062  1.6575  1.5578  0.6943
  520TMC3    C7 7730   2.530   1.467  14.279  0.6817 -1.2505  0.2593
  520TMC3    C8 7731   2.169   1.676  14.029 -0.4088 -0.1354 -0.2941
  520TMC3    O1 7732   2.567   1.442  14.392 -0.7437 -0.0623  0.2884
  520TMC3    O2 7733   2.232   1.650  13.929  0.3502  0.6059 -0.3701
  521MPD2     C 7734   3.254   0.425  17.225 -0.4290  0.3288  0.3099
  521MPD2    C1 7735   3.218   0.292  17.234 -0.3473 -0.1121 -0.3695
  521MPD2    C2 7736   3.314   0.190  17.227 -0.1179 -0.1379  0.7533
  521MPD2    C3 7737   3.448   0.230  17.239 -0.6648 -0.2659 -0.9010
  521MPD2    C4 7738   3.486   0.364  17.225  0.3329 -0.6045 -0.1622
  521MPD2    C5 7739   3.384   0.459  17.218  0.1336 -0.7263  0.5315
  521MPD2     H 7740   3.277   0.088  17.234 -1.9100  0.4966  0.5278
  521MPD2    H1 7741   3.589   0.397  17.231  0.3188 -0.7194  0.6968
  521MPD2    H2 7742   3.185   0.508  17.240 -1.5559 -0.4870 -0.3284
  521MPD2    H3 7743   3.412   0.564  17.212 -1.0151 -0.6224 -3.0619
  521MPD2     N 7744   3.545   0.129  17.237 -0.2324 -0.3776 -0.2667
  521MPD2    H5 7745   3.502   0.038  17.244  2.0792 -1.4557 -0.2872
  521MPD2    N1 7746   3.079   0.252  17.254 -0.4614  0.7456 -0.1939
  521MPD2    H7 7747   3.057   0.154  17.266  3.6911 -0.3922 -2.0114
  522TMC3    C1 7748   3.743   0.007  17.247  0.1414 -0.6644 -0.8524
  522TMC3    C2 7749   3.877   0.000  17.275 -1.1290  0.0126  0.6256
  522TMC3    C3 7750   3.928   4.600  17.295  0.2161 -0.3996 -0.5720
  522TMC3    C4 7751   3.660   4.612  17.251  0.4301  0.2459 -0.0797
  522TMC3    C5 7752   3.714   4.490  17.281 -0.0442  0.6870 -0.2795
  522TMC3    C6 7753   3.847   4.484  17.300 -0.1766 -0.7662  0.6348
  522TMC3     C 7754   3.680   0.136  17.235  0.3219  0.7959  0.1620
  522TMC3     O 7755   3.748   0.234  17.239 -0.1741 -0.2433  0.0178
  522TMC3     H 7756   3.943   0.086  17.262  0.2480 -1.0959  0.3259
  522TMC3    H1 7757   3.564   4.621  17.203 -0.4299 -0.7369  1.4761
  522TMC3    H2 7758   3.898   4.391  17.325  0.5748 -0.9032 -1.4238
  522TMC3    C7 7759   3.656   4.360  17.244  0.4664 -0.3296  0.3528
  522TMC3    C8 7760   4.066   4.579  17.308 -0.2160  0.8513 -0.5597
  522TMC3    O1 7761   3.725   4.260  17.240  0.0477 -0.0670 -0.1264
  522TMC3    O2 7762   4.133   4.662  17.367  0.2542 -0.0028 -0.1074
  523MPD2     C 7763   0.301   2.723   9.618  0.9731  0.4582  0.4706
  523MPD2    C1 7764   0.277   2.812   9.715 -0.7037  0.2233  0.5026
  523MPD2    C2 7765   0.159   2.887   9.715  0.3375  0.4448  0.3284
  523MPD2    C3 7766   0.076   2.889   9.601 -0.2167 -0.5779 -0.3299
  523MPD2    C4 7767   0.109   2.806   9.499 -0.4629 -0.3304 -0.2794
  523MPD2    C5 7768   0.217   2.719   9.508  0.1119  0.2621 -0.4998
  523MPD2     H 7769   0.134   2.958   9.793 -1.9893 -0.2875  0.2734
  523MPD2    H1 7770   0.055   2.804   9.405  0.2901  2.1343 -0.7733
  523MPD2    H2 7771   0.387   2.657   9.616 -0.7418 -1.6945 -2.1622
  523MPD2    H3 7772   0.245   2.648   9.431  1.7794  0.2758  0.0760
  523MPD2     N 7773   4.685   2.978   9.581  0.2603 -0.9067 -0.1353
  523MPD2    H5 7774   4.639   2.977   9.491  0.1103 -2.4907 -0.0418
  523MPD2    N1 7775   0.383   2.822   9.811 -0.2872 -0.3269 -0.2395
  523MPD2    H7 7776   0.453   2.748   9.807  0.0196 -0.1475  1.6456
  524TMC3    C1 7777   4.524   3.137   9.603 -0.1622  0.1895 -0.9833
  524TMC3    C2 7778   4.442   3.072   9.513 -0.6755  0.1143 -0.0774
  524TMC3    C3 7779   4.321   3.139   9.482 -0.3759  0.0647  0.5093
  524TMC3    C4 7780   4.499   3.256   9.654  0.1522  0.5203  0.2058
  524TMC3    C5 7781   4.388   3.328   9.605 -0.1118 -0.1537 -0.3357
  524TMC3    C6 7782   4.297   3.272   9.512  0.1141  0.6718 -0.1826
  524TMC3     C 7783   4.644   3.076   9.663  0.5570 -0.2802 -0.0610
  524TMC3     O 7784   4.697   3.113   9.767  0.1485 -0.6361  0.1298
  524TMC3     H 7785   4.444   2.964   9.504 -0.4924  0.0730  0.4260
  524TMC3    H1 7786   4.561   3.298   9.733  1.1878 -0.6382  0.0186
  524TMC3    H2 7787   4.208   3.327   9.484  0.2125  0.7683 -0.3082
  524TMC3    C7 7788   4.372   3.467   9.639 -0.1857  0.4045 -0.6482
  524TMC3    C8 7789   4.227   3.062   9.394  0.6936  0.0252 -0.1755
  524TMC3    O1 7790   4.425   3.496   9.748  0.0916  0.4205  0.1825
  524TMC3    O2 7791   4.262   2.954   9.346 -0.2756  0.4350 -0.0254
  525MPD2     C 7792   3.540   1.463  14.596  0.4612 -0.2704  0.4209
  525MPD2    C1 7793   3.654   1.505  14.662 -0.1520 -0.6735 -0.2499
  525MPD2    C2 7794   3.696   1.633  14.648 -0.2963  0.4530  0.5370
  525MPD2    C3 7795   3.636   1.714  14.553 -0.2784  0.1102 -0.0717
  525MPD2    C4 7796   3.517   1.672  14.491  0.1316 -0.7929  0.1328
  525MPD2    C5 7797   3.475   1.546  14.512  0.1935 -0.5173 -0.2098
  525MPD2     H 7798   3.777   1.662  14.715  0.9441  0.9757 -1.2084
  525MPD2    H1 7799   3.468   1.729  14.413  2.2230  0.5709 -0.2014
  525MPD2    H2 7800   3.515   1.358  14.605 -1.9783  0.1400 -1.5326
  525MPD2    H3 7801   3.389   1.512  14.456 -0.6227 -1.2983  1.5214
  525MPD2     N 7802   3.688   1.845  14.523 -0.2715 -0.4597 -0.8396
  525MPD2    H5 7803   3.637   1.900  14.453  1.6879  1.2834 -0.8878
  525MPD2    N1 7804   3.727   1.430  14.757  0.3870 -0.7321  0.6228
  525MPD2    H7 7805   3.810   1.480  14.787  1.0889 -0.8413 -1.1371
  526TMC3    C1 7806   3.802   1.257  14.893  0.0678 -0.5095 -0.0731
  526TMC3    C2 7807   3.756   1.185  15.004  0.3217  0.9589 -1.5073
  526TMC3    C3 7808   3.845   1.146  15.099  0.0213  0.3158 -0.2877
  526TMC3    C4 7809   3.932   1.282  14.876  0.0008  0.1012  0.0009
  526TMC3    C5 7810   4.020   1.235  14.973  0.5913  0.0501  0.3737
  526TMC3    C6 7811   3.976   1.170  15.082 -0.1734 -0.3409  0.1676
  526TMC3     C 7812   3.694   1.308  14.809 -0.7022 -0.3624 -0.6318
  526TMC3     O 7813   3.592   1.241  14.808  0.6621  0.6071  0.0904
  526TMC3     H 7814   3.649   1.182  15.017  0.3731  0.8223 -1.1067
  526TMC3    H1 7815   3.973   1.324  14.784 -0.0837  1.5182  0.6042
  526TMC3    H2 7816   4.038   1.149  15.169 -0.5109  2.7793  1.1813
  526TMC3    C7 7817   4.161   1.224  14.955  0.5418 -0.0678 -0.0510
  526TMC3    C8 7818   3.799   1.103  15.229  0.0497  0.3811  0.2972
  526TMC3    O1 7819   4.228   1.284  15.039 -0.4903 -0.4755 -0.1282
  526TMC3    O2 7820   3.888   1.078  15.309 -0.5358 -1.0249 -0.3763
  527MPD2     C 7821   2.870   3.841   0.988  0.2980 -0.1430 -0.7457
  527MPD2    C1 7822   2.908   3.710   1.030 -0.9193 -0.1272 -0.5055
  527MPD2    C2 7823   2.830   3.603   1.002  0.1231  0.0989  0.2679
  527MPD2    C3 7824   2.708   3.620   0.947 -0.0485  0.1688 -0.0732
  527MPD2    C4 7825   2.661   3.747   0.911  0.8093 -0.7602  0.5495
  527MPD2    C5 7826   2.751   3.852   0.924  0.6593 -0.0950 -0.0752
  527MPD2     H 7827   2.862   3.504   1.034 -1.2719 -0.1162  0.9854
  527MPD2    H1 7828   2.570   3.769   0.856  0.9405 -0.5745  0.4044
  527MPD2    H2 7829   2.935   3.928   0.993  0.0227  0.1212 -1.8768
  527MPD2    H3 7830   2.727   3.948   0.881  0.3485 -0.9971 -1.9282
  527MPD2     N 7831   2.635   3.499   0.921  0.2933  0.0109  0.2363
  527MPD2    H5 7832   2.679   3.415   0.958  1.2299 -0.8842 -2.8638
  527MPD2    N1 7833   3.032   3.691   1.094  0.0839  0.7968  0.6726
  527MPD2    H7 7834   3.036   3.598   1.135 -0.2411  0.2785 -0.4792
  528TMC3    C1 7835   3.231   3.737   1.215  0.0193 -0.9795  0.0855
  528TMC3    C2 7836   3.346   3.815   1.209  0.1307  0.1618 -0.1456
  528TMC3    C3 7837   3.393   3.892   1.312  0.0064 -0.9790 -0.1514
  528TMC3    C4 7838   3.170   3.724   1.340  0.0371 -0.4111  0.2400
  528TMC3    C5 7839   3.228   3.796   1.446  0.3952 -0.7772 -0.3405
  528TMC3    C6 7840   3.337   3.877   1.438  0.4435 -0.1916  0.2272
  528TMC3     C 7841   3.134   3.779   1.118 -0.0920 -0.0023 -0.2909
  528TMC3     O 7842   3.150   3.893   1.074  0.1049  0.2957  0.0559
  528TMC3     H 7843   3.382   3.825   1.107 -2.2072  2.2641 -0.7603
  528TMC3    H1 7844   3.081   3.664   1.353  0.3640 -1.0862 -0.6358
  528TMC3    H2 7845   3.366   3.935   1.524 -2.0838  0.0385  0.9239
  528TMC3    C7 7846   3.182   3.764   1.580  0.1172 -0.3653  0.1099
  528TMC3    C8 7847   3.452   4.022   1.288  0.4893 -0.0418  0.2600
  528TMC3    O1 7848   3.125   3.655   1.587 -0.4925 -0.3660 -0.3238
  528TMC3    O2 7849   3.421   4.111   1.363 -0.3751  0.2202 -0.5224
  529MPD2     C 7850   3.583   2.229   0.426 -0.7561 -0.1726 -0.1129
  529MPD2    C1 7851   3.708   2.179   0.388 -0.1517  0.4488 -1.3322
  529MPD2    C2 7852   3.739   2.175   0.253 -0.1120  0.1819  0.1211
  529MPD2    C3 7853   3.650   2.215   0.154 -0.2277 -0.5974 -0.6530
  529MPD2    C4 7854   3.527   2.246   0.193  0.1731 -0.0092  0.7194
  529MPD2    C5 7855   3.493   2.250   0.325  0.9459  0.1518 -0.2514
  529MPD2     H 7856   3.835   2.143   0.214 -0.6867 -2.2094  0.6460
  529MPD2    H1 7857   3.448   2.268   0.122  3.8472  2.2534 -2.6685
  529MPD2    H2 7858   3.549   2.232   0.530  4.0424  0.7542  1.4216
  529MPD2    H3 7859   3.388   2.262   0.347  0.6843 -1.7811 -0.4795
  529MPD2     N 7860   3.670   2.235   0.014 -0.2333  0.2956  0.4945
  529MPD2    H5 7861   3.595   2.275  17.653 -0.0267 -1.8257 -1.3459
  529MPD2    N1 7862   3.810   2.140   0.478  0.2741  0.1642  0.3498
  529MPD2    H7 7863   3.895   2.103   0.437 -0.2914 -0.2334 -0.4555
  530TMC3    C1 7864   3.914   2.115   0.685 -0.4435 -0.3497 -0.3784
  530TMC3    C2 7865   3.945   2.187   0.795 -0.2513 -0.0062  0.8357
  530TMC3    C3 7866   4.036   2.140   0.882  0.7715 -0.5438 -0.3823
  530TMC3    C4 7867   3.974   1.999   0.656 -0.9101 -0.7626  1.1209
  530TMC3    C5 7868   4.052   1.943   0.747  1.1052 -0.0510 -0.6116
  530TMC3    C6 7869   4.088   2.014   0.859 -0.2033 -0.6444 -0.2130
  530TMC3     C 7870   3.811   2.175   0.611  0.2536 -0.3347  0.3152
  530TMC3     O 7871   3.741   2.259   0.669  0.5966 -0.2576 -0.0444
  530TMC3     H 7872   3.923   2.293   0.794  2.5597  0.5514 -2.5082
  530TMC3    H1 7873   3.934   1.949   0.568 -2.6494 -0.7313  1.9015
  530TMC3    H2 7874   4.151   1.965   0.932  1.7213  2.4100  0.1584
  530TMC3    C7 7875   4.065   1.797   0.747 -0.1617 -0.5783 -0.3892
  530TMC3    C8 7876   4.069   2.206   0.999  0.4340 -0.0038 -0.8134
  530TMC3    O1 7877   4.057   1.744   0.855  0.3828 -0.8186 -0.0231
  530TMC3    O2 7878   4.000   2.299   1.031  0.1385  0.0404  0.4412
  531MPD2     C 7879   3.397   4.705  12.612 -0.7615  0.0890  0.4929
  531MPD2    C1 7880   3.313   4.719  12.711  0.4867 -0.1953 -0.2268
  531MPD2    C2 7881   3.222   4.620  12.731 -0.5092 -0.0600 -0.1620
  531MPD2    C3 7882   3.219   4.502  12.660  0.5825 -0.7884  0.4563
  531MPD2    C4 7883   3.324   4.479  12.576 -0.3619 -0.3679  0.2086
  531MPD2    C5 7884   3.409   4.581  12.552  0.2892 -1.1173  0.8591
  531MPD2     H 7885   3.154   4.628  12.815 -2.5873 -0.1637 -1.8321
  531MPD2    H1 7886   3.336   4.390  12.516 -0.1542 -0.3450  0.2170
  531MPD2    H2 7887   3.460   0.066  12.584 -0.5209 -0.7682 -1.5566
  531MPD2    H3 7888   3.486   4.561  12.478  0.4760 -0.6310  0.9280
  531MPD2     N 7889   3.141   4.387  12.683 -0.5335  0.0742 -0.4203
  531MPD2    H5 7890   3.170   4.305  12.631 -0.0512  0.4474 -0.7467
  531MPD2    N1 7891   3.328   0.112  12.790  0.2813  0.3230 -0.1549
  531MPD2    H7 7892   3.397   0.184  12.771 -0.7406  1.0924 -0.9294
  532TMC3    C1 7893   3.260   0.282  12.932 -0.3926  1.1290 -1.0103
  532TMC3    C2 7894   3.152   0.328  12.998  0.2430 -0.4419  1.3368
  532TMC3    C3 7895   3.164   0.394  13.117  0.6166 -0.4578 -0.3017
  532TMC3    C4 7896   3.383   0.317  12.978 -0.2972 -0.1495  0.7400
  532TMC3    C5 7897   3.398   0.386  13.098  0.4348 -0.1567 -0.2630
  532TMC3    C6 7898   3.290   0.422  13.172  0.4339 -0.6472  0.4402
  532TMC3     C 7899   3.232   0.153  12.876  0.1436  0.2939 -0.7255
  532TMC3     O 7900   3.125   0.098  12.901 -0.0890  0.0055 -0.4841
  532TMC3     H 7901   3.051   0.307  12.963  0.5040  1.6850 -0.6661
  532TMC3    H1 7902   3.470   0.276  12.927 -0.7862  1.5274 -1.4106
  532TMC3    H2 7903   3.312   0.473  13.265  2.1767 -3.9836  1.8356
  532TMC3    C7 7904   3.520   0.355  13.172  0.2836 -0.6968  0.0721
  532TMC3    C8 7905   3.056   0.356  13.209 -0.8079 -0.9247  0.4308
  532TMC3    O1 7906   3.569   0.443  13.243 -0.2975  0.0425 -0.1772
  532TMC3    O2 7907   3.050   0.410  13.322 -0.0500  0.1104  0.1356
  533TMC3    C1 7908   3.839   2.033  14.513 -0.8330  0.3926 -0.5953
  533TMC3    C2 7909   3.966   2.080  14.502  0.2660 -0.2318  0.1649
  533TMC3    C3 7910   3.983   2.209  14.538  0.4494 -0.7705 -0.0339
  533TMC3    C4 7911   3.732   2.112  14.552  0.8594 -0.5581  0.3472
  533TMC3    C5 7912   3.764   2.223  14.626 -0.2532  0.0556  0.8222
  533TMC3    C6 7913   3.886   2.278  14.607  0.5144 -0.1113  0.2982
  533TMC3     C 7914   3.818   1.897  14.555  0.3568 -0.4074  0.1300
  533TMC3     O 7915   3.900   1.839  14.628  0.3821 -0.0714  0.1985
  533TMC3     H 7916   4.053   2.015  14.506 -0.0464 -0.8221 -2.1788
  533TMC3    H1 7917   3.634   2.076  14.580  0.5197  0.6205  0.6618
  533TMC3    H2 7918   3.918   2.372  14.651  0.4408 -0.6931  1.6066
  533TMC3    C7 7919   3.721   2.210  14.765  0.0176 -0.4099 -0.3043
  533TMC3    C8 7920   4.127   2.230  14.578  0.9877 -0.0120 -0.1375
  533TMC3    O1 7921   3.635   2.132  14.793 -0.0034  0.4297  0.0335
  533TMC3    O2 7922   4.182   2.137  14.636 -0.2439 -0.3274  0.4329
  534MPD2     C 7923   2.207   2.640   1.655 -0.2989  0.0173  0.7675
  534MPD2    C1 7924   2.148   2.760   1.678 -0.5567  0.4629 -0.3069
  534MPD2    C2 7925   2.010   2.772   1.657 -0.4905  0.2149  0.4092
  534MPD2    C3 7926   1.938   2.675   1.585  0.5576 -0.3822 -0.4350
  534MPD2    C4 7927   2.006   2.562   1.553 -0.3464 -0.2739 -0.2904
  534MPD2    C5 7928   2.135   2.542   1.591  0.2929 -0.1436  0.6193
  534MPD2     H 7929   1.965   2.865   1.688 -0.0483  0.0033  1.7057
  534MPD2    H1 7930   1.952   2.489   1.494 -2.3911 -1.3435  2.9279
  534MPD2    H2 7931   2.310   2.615   1.676 -0.1233 -0.4459 -0.6472
  534MPD2    H3 7932   2.183   2.447   1.569  2.1343  0.5917  1.5756
  534MPD2     N 7933   1.801   2.696   1.545 -0.3746 -0.0433 -0.4080
  534MPD2    H5 7934   1.768   2.623   1.483  1.4036 -1.1589 -0.0541
  534MPD2    N1 7935   2.217   2.863   1.743  0.6483 -0.1853 -0.1033
  534MPD2    H7 7936   2.164   2.949   1.748  0.2521 -0.4139 -0.4219
  535TMC3    C1 7937   1.602   2.814   1.512  0.0946  0.4629  0.5034
  535TMC3    C2 7938   1.496   2.865   1.581 -0.4369 -0.5456  0.3172
  535TMC3    C3 7939   1.374   2.869   1.519  0.4838  0.4317 -0.3394
  535TMC3    C4 7940   1.601   2.784   1.379  0.2387  0.2821  0.2121
  535TMC3    C5 7941   1.484   2.801   1.313 -0.1452 -0.4958 -0.0037
  535TMC3    C6 7942   1.369   2.834   1.385  0.1910  0.1773  0.3954
  535TMC3     C 7943   1.729   2.797   1.589 -0.0822 -0.1673 -0.3130
  535TMC3     O 7944   1.741   2.875   1.682  0.1587  0.2476  0.4228
  535TMC3     H 7945   1.511   2.890   1.686 -1.2296 -1.6248  0.6913
  535TMC3    H1 7946   1.690   2.749   1.327  0.0270 -0.8302  0.6167
  535TMC3    H2 7947   1.276   2.852   1.331  0.0644  0.5173  0.7260
  535TMC3    C7 7948   1.491   2.826   1.176  0.4022 -0.3411  0.0741
  535TMC3    C8 7949   1.250   2.847   1.580  0.1142  0.1872 -0.2417
  535TMC3    O1 7950   1.588   2.781   1.119  0.6850  0.3024 -0.7936
  535TMC3    O2 7951   1.165   2.790   1.515  0.2780  0.0761  0.7891
  536MPD2     C 7952   0.751   1.391  16.530  0.2857 -0.3320  0.7531
  536MPD2    C1 7953   0.667   1.289  16.553  0.3588  0.1171 -0.3312
  536MPD2    C2 7954   0.625   1.198  16.454 -0.7980 -0.3697  0.1091
  536MPD2    C3 7955   0.654   1.224  16.325  0.1073 -0.1950 -0.9746
  536MPD2    C4 7956   0.741   1.329  16.298 -0.4110  0.4075  0.1820
  536MPD2    C5 7957   0.781   1.409  16.402  0.1706 -0.2888 -0.8810
  536MPD2     H 7958   0.565   1.110  16.476  1.4090 -1.9803 -0.3303
  536MPD2    H1 7959   0.770   1.351  16.196  1.1700 -0.3181  0.4802
  536MPD2    H2 7960   0.778   1.458  16.611 -2.2592  0.8537  0.6324
  536MPD2    H3 7961   0.838   1.492  16.362 -0.9623  1.3775  1.0183
  536MPD2     N 7962   0.616   1.148  16.217  0.0430  0.3598  0.4988
  536MPD2    H5 7963   0.678   1.151  16.136 -0.8421  0.6893 -0.1693
  536MPD2    N1 7964   0.614   1.269  16.684  0.2444 -0.0615  0.7923
  536MPD2    H7 7965   0.652   1.325  16.759 -0.7991  1.0064  0.5176
  537TMC3    C1 7966   0.503   1.139  16.856 -0.8680  0.0679  0.6634
  537TMC3    C2 7967   0.594   1.168  16.945  0.4903  0.2049 -0.2368
  537TMC3    C3 7968   0.600   1.091  17.056  0.5581  0.0391  0.1157
  537TMC3    C4 7969   0.403   1.053  16.885  0.0515 -0.0434 -0.8054
  537TMC3    C5 7970   0.401   0.981  17.000 -0.1340 -0.0437  0.4707
  537TMC3    C6 7971   0.507   0.995  17.079  0.0107  0.3007 -0.0972
  537TMC3     C 7972   0.502   1.190  16.719 -0.2519 -1.1341 -0.2201
  537TMC3     O 7973   0.410   1.155  16.644  0.1857  0.2289 -0.5045
  537TMC3     H 7974   0.662   1.252  16.942 -0.8225  1.1996 -2.1931
  537TMC3    H1 7975   0.316   1.052  16.820 -0.1685 -1.3903 -0.4873
  537TMC3    H2 7976   0.505   0.949  17.177 -1.6318  0.4034 -0.0968
  537TMC3    C7 7977   0.302   0.873  17.021 -0.7704  0.3753  0.0267
  537TMC3    C8 7978   0.672   1.143  17.171 -0.6269 -0.0043 -0.6671
  537TMC3    O1 7979   0.218   0.872  16.933 -0.4582  0.0222 -0.5116
  537TMC3    O2 7980   0.654   1.086  17.276  0.6389  0.0795 -0.0564
  538TMC3    C1 7981   1.610   4.104  10.810  0.3293  0.1745  0.0864
  538TMC3    C2 7982   1.654   4.000  10.733  0.1183 -0.4193  0.1199
  538TMC3    C3 7983   1.612   4.006  10.602 -0.2167  0.8237 -0.4577
  538TMC3    C4 7984   1.522   4.203  10.767  0.1325 -0.0627 -0.7857
  538TMC3    C5 7985   1.471   4.197  10.641  0.0802  0.1387 -0.4369
  538TMC3    C6 7986   1.520   4.096  10.554  0.3642 -0.1766 -0.2150
  538TMC3     C 7987   1.627   4.096  10.951 -0.3931  0.0762  0.2877
  538TMC3     O 7988   1.617   4.203  11.012  0.9167 -0.5374 -0.1531
  538TMC3     H 7989   1.732   3.931  10.761 -0.6362 -1.6405 -0.7817
  538TMC3    H1 7990   1.491   4.277  10.841  0.2963 -0.1181 -0.6602
  538TMC3    H2 7991   1.491   4.092  10.450 -1.9300 -1.0392  0.4641
  538TMC3    C7 7992   1.326   4.195  10.641  0.2600 -0.5370  0.3578
  538TMC3    C8 7993   1.673   3.918  10.504 -0.2400 -0.1465 -0.5908
  538TMC3    O1 7994   1.264   4.220  10.746 -0.1811  0.2794 -0.7048
  538TMC3    O2 7995   1.657   3.952  10.389 -1.1557  0.2984  0.4350
  539MPD2     C 7996   1.271   3.317  11.918 -0.5459 -0.0312 -0.3587
  539MPD2    C1 7997   1.276   3.276  11.786 -0.3917  0.1874 -0.1434
  539MPD2    C2 7998   1.277   3.369  11.685  0.2857 -0.0895 -0.0336
  539MPD2    C3 7999   1.269   3.506  11.706  0.4407 -0.4648  0.0809
  539MPD2    C4 8000   1.276   3.548  11.835 -0.9130  0.3248 -0.1180
  539MPD2    C5 8001   1.263   3.452  11.938 -0.7322  0.2666  0.2830
  539MPD2     H 8002   1.296   3.330  11.585 -0.7390  1.7275 -0.9515
  539MPD2    H1 8003   1.259   3.651  11.865 -2.0260 -0.1158  0.7749
  539MPD2    H2 8004   1.272   3.251  12.004 -0.1945 -1.0809 -1.1703
  539MPD2    H3 8005   1.253   3.483  12.042 -1.2505 -0.7240  0.5226
  539MPD2     N 8006   1.278   3.608  11.607  0.3186  0.0087 -0.6051
  539MPD2    H5 8007   1.269   3.704  11.637 -0.7496 -0.5858  0.9437
  539MPD2    N1 8008   1.277   3.143  11.745 -0.0497 -0.2711  0.3657
  539MPD2    H7 8009   1.297   3.124  11.648 -0.6107 -0.1721  0.2316
  540TMC3    C1 8010   1.254   3.697  11.382 -0.2100 -0.2814  0.5138
  540TMC3    C2 8011   1.267   3.688  11.248 -0.2426 -0.2930 -0.4482
  540TMC3    C3 8012   1.218   3.794  11.179 -0.1725  0.3319  0.4229
  540TMC3    C4 8013   1.189   3.797  11.442  0.7753  0.2485 -0.4331
  540TMC3    C5 8014   1.137   3.901  11.372 -0.5764  0.6190  0.2577
  540TMC3    C6 8015   1.159   3.903  11.240  0.2326  0.3106 -0.3397
  540TMC3     C 8016   1.281   3.581  11.471 -0.0296  0.4560 -0.5382
  540TMC3     O 8017   1.282   3.474  11.407  0.3274  0.3043 -0.3420
  540TMC3     H 8018   1.316   3.606  11.196 -0.5991 -0.9934  0.3231
  540TMC3    H1 8019   1.176   3.805  11.549 -1.8654  1.2936 -0.8111
  540TMC3    H2 8020   1.114   3.981  11.179 -0.2386  1.7875  1.9317
  540TMC3    C7 8021   1.042   3.989  11.436  0.5263 -0.0015  0.0441
  540TMC3    C8 8022   1.199   3.786  11.030  0.0652  0.1579  0.1024
  540TMC3    O1 8023   0.980   3.960  11.540 -0.1213  0.4576  0.2206
  540TMC3    O2 8024   1.298   3.787  10.959 -0.0484 -0.5406  0.3407
  541MPD2     C 8025   4.144   0.609  12.676 -0.1141 -1.1934  0.2376
  541MPD2    C1 8026   4.154   0.492  12.597 -0.1423 -0.5237  0.5667
  541MPD2    C2 8027   4.180   0.508  12.463  0.5063  0.3028 -0.4203
  541MPD2    C3 8028   4.171   0.634  12.399  0.3045  0.5773 -0.1916
  541MPD2    C4 8029   4.164   0.745  12.480 -0.7286 -0.4699 -0.2293
  541MPD2    C5 8030   4.151   0.734  12.623  0.1772 -0.5340 -0.0172
  541MPD2     H 8031   4.203   0.423  12.400  0.9586 -0.7699  1.1935
  541MPD2    H1 8032   4.170   0.846  12.440  0.4854  0.4990  2.3816
  541MPD2    H2 8033   4.134   0.599  12.783 -1.7843 -1.7249  0.0320
  541MPD2    H3 8034   4.141   0.816  12.694  2.8889  0.5949 -0.9639
  541MPD2     N 8035   4.204   0.658  12.262  0.1423  0.6852  0.6319
  541MPD2    H5 8036   4.201   0.758  12.246  1.0676  0.1046 -3.1243
  541MPD2    N1 8037   4.137   0.360  12.664 -0.3255 -0.0368  0.3760
  541MPD2    H7 8038   4.145   0.365  12.765  2.6881  0.9406  0.0946
  542TMC3    C1 8039   4.278   0.619  12.042 -0.0249 -0.0200 -0.0691
  542TMC3    C2 8040   4.357   0.543  11.957 -0.6355  0.1317 -0.6310
  542TMC3    C3 8041   4.378   0.585  11.830 -0.6418  0.6403 -0.1626
  542TMC3    C4 8042   4.200   0.721  11.994 -0.2166  0.5644 -0.1411
  542TMC3    C5 8043   4.224   0.759  11.862 -0.8341  0.2985 -0.4738
  542TMC3    C6 8044   4.319   0.701  11.788 -0.7040 -0.1026 -0.2524
  542TMC3     C 8045   4.253   0.565  12.176  0.4922  0.1128 -0.5752
  542TMC3     O 8046   4.286   0.448  12.197 -0.0086  0.2885  0.2187
  542TMC3     H 8047   4.389   0.445  11.991 -1.7163 -0.0939 -0.2637
  542TMC3    H1 8048   4.113   0.752  12.050 -0.0959 -1.6084  1.2601
  542TMC3    H2 8049   4.362   0.747  11.699 -1.4819  2.0150  0.4611
  542TMC3    C7 8050   4.172   0.893  11.820  0.0068  0.6551 -0.0567
  542TMC3    C8 8051   4.484   0.530  11.749  0.3065 -0.2430  0.4849
  542TMC3    O1 8052   4.145   0.982  11.906 -0.0874 -0.5004 -0.1782
  542TMC3    O2 8053   4.484   0.554  11.628 -0.3772  0.2500  0.4288
  543TMC3    C1 8054   3.525   1.667  16.577 -0.6458  0.0704  0.7127
  543TMC3    C2 8055   3.518   1.553  16.650 -0.4710 -0.2475 -0.3024
  543TMC3    C3 8056   3.482   1.568  16.782  0.1589 -0.5247  0.3854
  543TMC3    C4 8057   3.475   1.784  16.627 -0.3988 -0.6262  0.0428
  543TMC3    C5 8058   3.432   1.794  16.755  0.9992  0.6959 -0.1555
  543TMC3    C6 8059   3.431   1.685  16.836  0.3949 -0.3801 -0.6853
  543TMC3     C 8060   3.646   1.695  16.507 -0.0738 -0.8957  0.1933
  543TMC3     O 8061   3.678   1.806  16.477 -0.0692  0.5373 -0.4789
  543TMC3     H 8062   3.555   1.464  16.601 -1.3862 -0.2835 -0.9020
  543TMC3    H1 8063   3.468   1.871  16.563  0.0792 -0.2570  0.4912
  543TMC3    H2 8064   3.401   1.693  16.939 -2.9433 -0.6970 -1.6551
  543TMC3    C7 8065   3.422   1.929  16.811  0.4012 -0.1378 -0.1875
  543TMC3    C8 8066   3.526   1.469  16.865 -0.4988 -0.4085 -1.2638
  543TMC3    O1 8067   3.368   2.012  16.735 -0.0324 -0.4378 -0.1537
  543TMC3    O2 8068   3.610   1.394  16.820  0.0262 -0.0929  0.1686
  544MPD2     C 8069   3.431   1.179  17.283 -0.0963  0.3438  0.3654
  544MPD2    C1 8070   3.525   1.160  17.181 -0.3410  0.0387  0.6066
  544MPD2    C2 8071   3.531   1.256  17.074 -0.2811 -0.3297  0.4419
  544MPD2    C3 8072   3.448   1.363  17.067 -0.4394  0.7206  0.0599
  544MPD2    C4 8073   3.348   1.371  17.162  0.4344 -0.5641  0.0708
  544MPD2    C5 8074   3.340   1.282  17.270 -0.0878  0.0318  0.2107
  544MPD2     H 8075   3.606   1.250  16.995 -2.3237 -1.0447 -1.4419
  544MPD2    H1 8076   3.271   1.445  17.147  1.2393 -0.1312 -2.0036
  544MPD2    H2 8077   3.415   1.114  17.368  3.0481  0.1059  0.7800
  544MPD2    H3 8078   3.266   1.301  17.348 -1.4079  1.7865 -1.4602
  544MPD2     N 8079   3.442   1.460  16.971  0.5973  0.3515 -0.4710
  544MPD2    H5 8080   3.359   1.518  16.974  0.8110  0.7291 -1.8615
  544MPD2    N1 8081   3.621   1.057  17.197 -0.2284 -0.1221  0.1212
  544MPD2    H7 8082   3.610   0.996  17.277 -1.1616  0.1925  0.2315
  545TMC3    C1 8083   3.822   0.940  17.165  0.5354  0.0460 -1.1404
  545TMC3    C2 8084   3.885   0.852  17.077  0.2305 -0.4149 -0.1676
  545TMC3    C3 8085   3.940   0.737  17.132 -1.1393  0.9155  0.0055
  545TMC3    C4 8086   3.822   0.908  17.297  0.2530 -0.4045 -0.3627
  545TMC3    C5 8087   3.890   0.806  17.348 -0.1259 -0.0921 -0.1072
  545TMC3    C6 8088   3.945   0.709  17.261 -0.3679 -0.0817 -0.5876
  545TMC3     C 8089   3.725   1.029  17.114  0.2295 -0.5944  0.2021
  545TMC3     O 8090   3.740   1.064  16.996  0.5050 -0.1349  0.0722
  545TMC3     H 8091   3.879   0.860  16.969  0.3487  2.6912  0.0587
  545TMC3    H1 8092   3.770   0.975  17.364  0.8982  0.3621 -0.6251
  545TMC3    H2 8093   3.999   0.622  17.297 -1.9415  0.4260  3.0792
  545TMC3    C7 8094   3.883   0.790  17.493  0.5841  0.0583 -0.3020
  545TMC3    C8 8095   4.041   0.671  17.057 -1.1271 -0.6544 -0.2341
  545TMC3    O1 8096   3.836   0.883  17.556  0.3881 -0.0000 -0.3006
  545TMC3    O2 8097   4.123   0.601  17.122  0.3245 -0.5072 -0.7845
  546MPD2     C 8098   0.328   1.565   0.030 -0.2275 -0.6015 -0.2166
  546MPD2    C1 8099   0.412   1.549  17.622 -0.6206  0.0792  0.9832
  546MPD2    C2 8100   0.484   1.663  17.583 -0.4996  0.3894 -0.7801
  546MPD2    C3 8101   0.478   1.785  17.653 -0.7915  0.0882 -0.2562
  546MPD2    C4 8102   0.408   1.791   0.079  0.3070  0.2299 -0.3244
  546MPD2    C5 8103   0.333   1.679   0.108  0.1813  0.2048 -0.7820
  546MPD2     H 8104   0.536   1.670  17.487  0.7641  1.7839  0.0036
  546MPD2    H1 8105   0.400   1.871   0.152 -0.5772  0.1423 -0.3211
  546MPD2    H2 8106   0.255   1.490   0.058 -0.8426  0.5402  1.2132
  546MPD2    H3 8107   0.283   1.688   0.204 -1.0580  0.6912 -1.4729
  546MPD2     N 8108   0.554   1.903  17.634  0.4028 -0.2678 -0.0303
  546MPD2    H5 8109   0.533   1.987  17.686 -0.2626 -0.6315  0.2938
  546MPD2    N1 8110   0.393   1.436  17.548  0.2895  0.5048 -0.3089
  546MPD2    H7 8111   0.344   1.358  17.590  0.5686 -0.4839 -1.8005
  547TMC3    C1 8112   0.387   1.285  17.371 -0.0017  0.2563  0.2895
  547TMC3    C2 8113   0.320   1.275  17.252 -0.8503 -0.1849  0.3990
  547TMC3    C3 8114   0.231   1.180  17.227  0.4863 -0.2364 -0.2584
  547TMC3    C4 8115   0.377   1.189  17.466  0.3096  0.0485  0.7103
  547TMC3    C5 8116   0.288   1.082  17.434 -0.1382  0.5213  0.5533
  547TMC3    C6 8117   0.213   1.080  17.319 -0.6059 -0.4281  0.1950
  547TMC3     C 8118   0.435   1.411  17.419 -0.7626 -0.1549 -0.6916
  547TMC3     O 8119   0.495   1.482  17.342  0.1133 -0.3561  0.3778
  547TMC3     H 8120   0.325   1.358  17.182 -0.4709  0.1961  0.8811
  547TMC3    H1 8121   0.437   1.188  17.555  0.5274 -0.3739  0.5584
  547TMC3    H2 8122   0.139   1.003  17.302  0.1117 -1.0874  0.0587
  547TMC3    C7 8123   0.231   1.010  17.546  0.6717  0.5935 -0.9594
  547TMC3    C8 8124   0.134   1.201  17.115  0.8367  0.5179  0.1229
  547TMC3    O1 8125   0.249   1.044  17.660 -0.0296  0.1322  0.6672
  547TMC3    O2 8126   0.080   1.104  17.060  0.6766  0.3108 -0.0951
  548MPD2     C 8127   0.203   2.018  12.488 -0.1394 -0.4185 -0.5494
  548MPD2    C1 8128   0.178   1.883  12.478  0.5250  1.0548 -0.4162
  548MPD2    C2 8129   0.275   1.800  12.424 -0.1621 -0.3592 -0.7383
  548MPD2    C3 8130   0.378   1.852  12.345  0.3729 -0.6056 -0.2359
  548MPD2    C4 8131   0.386   1.987  12.333  0.0928 -0.0114  0.3463
  548MPD2    C5 8132   0.305   2.059  12.409 -0.0284 -0.1992 -1.0963
  548MPD2     H 8133   0.257   1.694  12.439  2.5089 -0.8549 -1.0741
  548MPD2    H1 8134   0.470   2.025  12.276  1.0307 -0.7265  1.2322
  548MPD2    H2 8135   0.137   2.081  12.547  1.7621 -0.7099  1.8795
  548MPD2    H3 8136   0.327   2.165  12.402  2.5859 -0.6813 -0.2578
  548MPD2     N 8137   0.466   1.757  12.288 -0.4818  0.4962 -0.0264
  548MPD2    H5 8138   0.446   1.660  12.311 -0.6099  0.4120 -0.4917
  548MPD2    N1 8139   0.061   1.847  12.549 -0.4943  0.4875  0.0033
  548MPD2    H7 8140   0.011   1.924  12.593  1.7716  0.9505  1.7772
  549TMC3    C1 8141   4.588   1.717  12.563  0.3860 -0.0693 -0.0354
  549TMC3    C2 8142   4.514   1.826  12.524 -0.3193  0.4348  0.0573
  549TMC3    C3 8143   4.381   1.815  12.538 -0.0638 -0.2873 -0.0304
  549TMC3    C4 8144   4.532   1.599  12.594  0.1525 -0.0083  0.4246
  549TMC3    C5 8145   4.395   1.590  12.590 -0.1393  0.1361 -0.0879
  549TMC3    C6 8146   4.315   1.699  12.561  0.0980  0.1564 -0.0051
  549TMC3     C 8147   0.008   1.720  12.560  0.4430 -0.6156  0.5121
  549TMC3     O 8148   0.059   1.614  12.534 -0.0090 -0.5749 -0.0664
  549TMC3     H 8149   4.562   1.918  12.492 -2.0477  1.5507  0.6578
  549TMC3    H1 8150   4.587   1.517  12.639  0.6472  0.7287  1.1569
  549TMC3    H2 8151   4.207   1.693  12.573  0.0247  1.0693 -0.2157
  549TMC3    C7 8152   4.330   1.478  12.654 -0.8056 -0.6117  0.2002
  549TMC3    C8 8153   4.317   1.946  12.551  0.2153  0.1374 -0.0565
  549TMC3    O1 8154   4.214   1.493  12.696 -0.2261  0.1674  0.1796
  549TMC3    O2 8155   4.204   1.958  12.507 -0.3136  0.0304 -0.8021
  550TMC3    C1 8156   3.796   0.549  12.910  0.0902  0.3521 -0.0236
  550TMC3    C2 8157   3.701   0.622  12.978  0.7475  0.4030 -0.0452
  550TMC3    C3 8158   3.643   0.728  12.911 -0.3903  0.1972 -0.2750
  550TMC3    C4 8159   3.835   0.576  12.779 -0.8378 -0.6252 -0.1028
  550TMC3    C5 8160   3.781   0.689  12.715 -0.3579  0.3177 -0.4484
  550TMC3    C6 8161   3.685   0.766  12.785  0.4020  0.0372  0.0875
  550TMC3     C 8162   3.802   0.408  12.932 -0.2579 -0.2853 -0.3611
  550TMC3     O 8163   3.796   0.373  13.048  0.0565 -0.1110  0.2460
  550TMC3     H 8164   3.669   0.589  13.076 -2.7073 -0.9949 -1.6402
  550TMC3    H1 8165   3.912   0.515  12.733 -1.2650 -0.6227 -0.8167
  550TMC3    H2 8166   3.646   0.862  12.755  0.0465  0.2072  1.0804
  550TMC3    C7 8167   3.741   0.659  12.583  0.8133 -0.1324 -0.3126
  550TMC3    C8 8168   3.506   0.779  12.942  0.2308 -0.3646 -0.0544
  550TMC3    O1 8169   3.692   0.546  12.580  0.4115  0.4882 -1.0089
  550TMC3    O2 8170   3.426   0.803  12.854  0.2972 -0.0948  0.5556
  551TMC3    C1 8171   1.535   2.909  13.452  0.5815  0.2937 -0.0004
  551TMC3    C2 8172   1.658   2.889  13.392  0.6464 -0.5700  0.5363
  551TMC3    C3 8173   1.759   2.967  13.414  0.3109 -0.4251  0.0707
  551TMC3    C4 8174   1.517   3.026  13.516 -0.8133  0.5266  0.1238
  551TMC3    C5 8175   1.625   3.111  13.533  0.5881  0.3267 -0.1471
  551TMC3    C6 8176   1.746   3.091  13.472 -0.0942  0.1123  0.2482
  551TMC3     C 8177   1.420   2.838  13.395  0.3491  0.0183  0.0368
  551TMC3     O 8178   1.442   2.729  13.349 -0.2034 -0.2819 -0.2044
  551TMC3     H 8179   1.669   2.805  13.324  0.2067  0.0882 -0.3510
  551TMC3    H1 8180   1.425   3.039  13.571 -2.3768 -0.6267 -2.2536
  551TMC3    H2 8181   1.827   3.160  13.491 -0.9488  0.8737  1.1488
  551TMC3    C7 8182   1.623   3.189  13.651  0.4700  0.6556 -0.3395
  551TMC3    C8 8183   1.851   2.968  13.303  0.2416 -0.8684 -0.2248
  551TMC3    O1 8184   1.732   3.210  13.701 -0.3637 -0.6050  0.1233
  551TMC3    O2 8185   1.925   2.873  13.287 -0.3111 -0.1231 -0.0975
  552MPD2     C 8186   3.553   0.152  13.629 -0.5915  0.6326  0.4753
  552MPD2    C1 8187   3.472   0.077  13.718  0.0494  0.6390 -0.0487
  552MPD2    C2 8188   3.524   0.035  13.838 -0.8048 -0.3077 -0.8806
  552MPD2    C3 8189   3.661   0.042  13.863  0.1285  0.5367 -0.0904
  552MPD2    C4 8190   3.742   0.107  13.773 -0.1721  0.1875 -1.0235
  552MPD2    C5 8191   3.685   0.166  13.657 -0.1317 -0.0435  0.1746
  552MPD2     H 8192   3.461   4.715  13.916 -2.2546  1.6610 -0.9724
  552MPD2    H1 8193   3.850   0.103  13.781 -0.2940  0.1086  0.7242
  552MPD2    H2 8194   3.520   0.211  13.545  1.5138  1.9365  0.5613
  552MPD2    H3 8195   3.739   0.217  13.579  1.0212  0.4907  1.3116
  552MPD2     N 8196   3.722   0.004  13.984  0.4008  0.1059  0.4516
  552MPD2    H5 8197   3.815   0.035  14.010  0.1025  1.0959  0.3286
  552MPD2    N1 8198   3.332   0.068  13.707  0.1151  1.0363 -0.2224
  552MPD2    H7 8199   3.285   0.016  13.780  1.6953  0.1462  0.1686
  553TMC3    C1 8200   3.121   0.086  13.608 -0.2581  0.0824  0.5232
  553TMC3    C2 8201   3.084   0.055  13.486  0.6162  0.6164 -0.3316
  553TMC3    C3 8202   2.995   4.671  13.474  0.6035  0.3578 -0.1560
  553TMC3    C4 8203   3.070   0.025  13.719 -0.5437 -0.2735  0.3072
  553TMC3    C5 8204   2.972   4.650  13.703  0.3301 -0.2290 -0.1350
  553TMC3    C6 8205   2.929   4.622  13.581 -0.5538 -0.3634 -0.1042
  553TMC3     C 8206   3.256   0.136  13.612  0.3230  0.3298 -0.5834
  553TMC3     O 8207   3.299   0.188  13.507  0.0126 -0.3931 -0.5239
  553TMC3     H 8208   3.129   0.099  13.398  0.5834 -2.2001 -1.7669
  553TMC3    H1 8209   3.114   0.048  13.815 -1.3640  0.5112  0.4876
  553TMC3    H2 8210   2.850   4.550  13.562 -0.5766 -1.0692  2.6155
  553TMC3    C7 8211   2.997   4.529  13.786  0.0089 -0.1627 -0.1273
  553TMC3    C8 8212   3.017   4.579  13.361  0.2182 -0.6955 -0.3308
  553TMC3    O1 8213   2.926   4.436  13.749  0.3015 -0.5313 -0.1981
  553TMC3    O2 8214   3.112   4.620  13.290  0.3227  0.5796  0.4537
  554TMC3    C1 8215   0.040   3.408  11.817 -0.4144  0.5924 -0.0273
  554TMC3    C2 8216   4.634   3.401  11.776 -0.8076 -0.3346 -0.2237
  554TMC3    C3 8217   4.612   3.442  11.649 -0.6228 -0.2447  0.0200
  554TMC3    C4 8218   0.147   3.468  11.754 -0.5561 -0.1797  0.4658
  554TMC3    C5 8219   0.115   3.513  11.630 -0.5955 -0.6166 -0.2804
  554TMC3    C6 8220   4.715   3.495  11.574 -1.0745  0.9656  0.1961
  554TMC3     C 8221   0.051   3.372  11.959  0.1686 -0.1650  0.0250
  554TMC3     O 8222   4.673   3.340  12.021 -0.1066 -0.3529 -0.1848
  554TMC3     H 8223   4.554   3.350  11.828 -0.2810  0.1302  1.0362
  554TMC3    H1 8224   0.251   3.459  11.784 -1.0168  0.5270  2.2628
  554TMC3    H2 8225   4.696   3.542  11.478 -1.0689 -0.5316 -0.5221
  554TMC3    C7 8226   0.216   3.582  11.548 -0.5051  0.0747  0.0831
  554TMC3    C8 8227   4.480   3.427  11.591 -0.4306  0.3687  0.1979
  554TMC3    O1 8228   0.192   3.599  11.430  0.1253 -0.7090 -0.7028
  554TMC3    O2 8229   4.381   3.453  11.662  0.1650 -0.2372 -0.1134
  555TMC3    C1 8230   4.201   3.150  15.021 -0.2581 -0.5746 -0.2887
  555TMC3    C2 8231   4.202   3.248  15.115  0.6644 -0.3975  0.2571
  555TMC3    C3 8232   4.225   3.216  15.245 -0.3979  0.7397  0.2976
  555TMC3    C4 8233   4.197   3.020  15.052  0.6089 -0.3767 -0.2482
  555TMC3    C5 8234   4.200   2.993  15.185 -0.6130  0.3610 -1.1389
  555TMC3    C6 8235   4.232   3.086  15.282  0.9171 -1.1591  0.1596
  555TMC3     C 8236   4.188   3.182  14.876  0.2158  0.0808  0.5408
  555TMC3     O 8237   4.220   3.092  14.795  1.1419 -0.0672 -0.1299
  555TMC3     H 8238   4.217   3.350  15.084 -5.3057  0.7057  0.9448
  555TMC3    H1 8239   4.160   2.954  14.974 -0.7175 -0.9438  0.8516
  555TMC3    H2 8240   4.219   3.064  15.388  0.1634 -1.1272  0.0735
  555TMC3    C7 8241   4.188   2.857  15.225  0.2467 -0.0619 -0.1934
  555TMC3    C8 8242   4.267   3.326  15.333  1.1900 -0.0734  0.2693
  555TMC3    O1 8243   4.218   2.833  15.341  0.0529 -0.2150 -0.8165
  555TMC3    O2 8244   4.247   3.441  15.286  0.5128 -0.3817  0.5384
  556MPD2     C 8245   1.958   4.445  10.015 -0.1111  0.3594 -0.6244
  556MPD2    C1 8246   2.001   4.398  10.135  0.7560 -0.4223  0.0616
  556MPD2    C2 8247   2.068   4.278  10.136  0.2317 -0.2397  0.2031
  556MPD2    C3 8248   2.091   4.215  10.018 -0.1869  0.3908  0.4683
  556MPD2    C4 8249   2.039   4.261   9.897 -1.1068  0.2865  0.4221
  556MPD2    C5 8250   1.969   4.376   9.896 -0.5351 -0.1745 -0.2405
  556MPD2     H 8251   2.115   4.240  10.225 -1.1267  2.0801  1.9229
  556MPD2    H1 8252   2.044   4.205   9.804  2.2425  1.6139 -0.1918
  556MPD2    H2 8253   1.912   4.542  10.009 -0.2670  0.4133  1.2197
  556MPD2    H3 8254   1.930   4.414   9.803 -1.4915 -0.3676  0.0781
  556MPD2     N 8255   2.150   4.090  10.018 -0.7458  0.1600  0.4757
  556MPD2    H5 8256   2.145   4.039  10.106  0.5039 -0.9653 -0.1131
  556MPD2    N1 8257   1.982   4.463  10.255  0.2043 -0.6328  0.5640
  556MPD2    H7 8258   2.031   4.424  10.335  1.2445  1.7128  1.0731
  557TMC3    C1 8259   2.253   3.901   9.942  0.1526  0.1177  0.0882
  557TMC3    C2 8260   2.362   3.849   9.871  0.3606  0.2393 -0.4231
  557TMC3    C3 8261   2.388   3.718   9.902  0.0445  0.2798 -0.6380
  557TMC3    C4 8262   2.169   3.825  10.028 -0.6200  0.5757  0.1586
  557TMC3    C5 8263   2.206   3.697  10.048  0.0906 -0.2259 -0.1236
  557TMC3    C6 8264   2.313   3.642   9.991 -0.1666  0.2092  0.4318
  557TMC3     C 8265   2.218   4.035   9.916 -0.5724 -0.0634  0.0724
  557TMC3     O 8266   2.261   4.088   9.813  0.2487 -0.0027 -0.4679
  557TMC3     H 8267   2.434   3.906   9.815 -0.9902  0.0733 -2.3239
  557TMC3    H1 8268   2.081   3.867  10.075 -0.3118  0.0308  1.2273
  557TMC3    H2 8269   2.345   3.540  10.009 -1.2354 -0.1154  0.4491
  557TMC3    C7 8270   2.124   3.612  10.134 -0.3147 -0.3554  0.4620
  557TMC3    C8 8271   2.496   3.658   9.828 -0.0312  0.7520  0.3326
  557TMC3    O1 8272   2.143   3.492  10.126  0.6460  0.2282 -0.1373
  557TMC3    O2 8273   2.562   3.734   9.762  0.1283 -0.1761 -0.3465
  558TMC3    C1 8274   0.184   1.753   9.803 -0.6861 -0.8334 -0.6571
  558TMC3    C2 8275   0.060   1.793   9.853  0.3499  0.0783  0.4706
  558TMC3    C3 8276   4.677   1.706   9.851 -0.4447 -0.1415 -0.2319
  558TMC3    C4 8277   0.193   1.635   9.733  0.0216  0.0902  0.1357
  558TMC3    C5 8278   0.084   1.557   9.732  0.1400  0.5854  0.2698
  558TMC3    C6 8279   4.690   1.578   9.799  0.3304  0.6563 -0.4773
  558TMC3     C 8280   0.300   1.815   9.870 -0.2193 -0.2662  0.1861
  558TMC3     O 8281   0.271   1.878   9.974  0.7056 -0.0484  0.1258
  558TMC3     H 8282   0.041   1.890   9.897 -0.4829 -0.8378  2.1261
  558TMC3    H1 8283   0.285   1.608   9.681 -0.6698 -1.4850 -0.2700
  558TMC3    H2 8284   4.600   1.518   9.801  0.1418  0.9391 -0.4466
  558TMC3    C7 8285   0.107   1.439   9.654  0.1655  0.1490 -0.7965
  558TMC3    C8 8286   4.580   1.721   9.956  0.2724 -0.0065 -0.9751
  558TMC3    O1 8287   0.221   1.400   9.651 -0.6323 -0.2217 -0.0830
  558TMC3    O2 8288   4.483   1.646   9.963 -0.1646 -0.0224 -0.4182
  559MPD2     C 8289   4.518   2.976  10.892  0.1903  0.4889 -0.0875
  559MPD2    C1 8290   4.476   2.931  11.016 -0.5990  0.9682 -0.5328
  559MPD2    C2 8291   4.572   2.910  11.108 -0.2155 -0.3181 -0.0824
  559MPD2    C3 8292   4.710   2.937  11.090 -0.0937 -0.4241  0.1671
  559MPD2    C4 8293   0.025   2.990  10.959 -0.0743 -0.2467  1.2156
  559MPD2    C5 8294   4.650   3.000  10.864 -0.5406 -0.3066 -0.5770
  559MPD2     H 8295   4.545   2.883  11.209 -1.6541 -1.5125 -0.7782
  559MPD2    H1 8296   0.128   3.009  10.935 -0.5973  0.6846 -0.2612
  559MPD2    H2 8297   4.454   2.974  10.804  0.4719 -1.3288 -0.2330
  559MPD2    H3 8298   4.693   3.026  10.768  0.2974  2.1284  0.4430
  559MPD2     N 8299   0.082   2.902  11.186 -0.5065  0.4487  0.2796
  559MPD2    H5 8300   0.048   2.841  11.260 -1.2008 -0.1223 -0.5178
  559MPD2    N1 8301   4.336   2.904  11.044 -0.9712  0.5353 -0.0792
  559MPD2    H7 8302   4.263   2.935  10.981 -0.7327  1.5963  0.1660
  560TMC3    C1 8303   0.312   2.875  11.250 -0.3781  0.5882 -0.5944
  560TMC3    C2 8304   0.305   2.743  11.227 -0.0760  0.1431  0.1488
  560TMC3    C3 8305   0.419   2.673  11.246  0.0098 -0.0041  0.4133
  560TMC3    C4 8306   0.436   2.942  11.269  0.1955 -0.1961  0.2660
  560TMC3    C5 8307   0.545   2.862  11.290  0.0649  0.1627  0.4329
  560TMC3    C6 8308   0.536   2.728  11.291  0.1015 -0.1802 -0.1979
  560TMC3     C 8309   0.212   2.953  11.183 -0.2368 -0.4824 -0.1237
  560TMC3     O 8310   0.253   3.045  11.112 -0.4011 -0.0290 -0.6568
  560TMC3     H 8311   0.218   2.693  11.187  0.2674 -0.9404  0.7716
  560TMC3    H1 8312   0.442   3.050  11.264 -2.0007 -0.2212 -3.1483
  560TMC3    H2 8313   0.626   2.671  11.316  0.0554 -0.7553 -1.3393
  560TMC3    C7 8314   0.645   2.933  11.365  0.1975  0.0966 -0.3537
  560TMC3    C8 8315   0.421   2.531  11.201 -0.0229 -0.4046 -0.5115
  560TMC3    O1 8316   0.675   2.877  11.467  0.5345  0.3662  0.1005
  560TMC3    O2 8317   0.311   2.476  11.194  0.1384  0.3764 -0.5439
  561TMC3    C1 8318   2.480   1.708  11.368 -1.2337  0.2762 -0.2195
  561TMC3    C2 8319   2.487   1.682  11.503  0.4564 -0.4085  0.4488
  561TMC3    C3 8320   2.408   1.757  11.590  0.7185  0.3643  0.3656
  561TMC3    C4 8321   2.388   1.796  11.315  0.1556  0.6361 -0.4560
  561TMC3    C5 8322   2.321   1.874  11.408  0.4830 -0.4718  0.1109
  561TMC3    C6 8323   2.342   1.871  11.548 -0.3810  0.0084 -0.3663
  561TMC3     C 8324   2.514   1.594  11.287 -0.5090 -0.5193  0.4507
  561TMC3     O 8325   2.422   1.531  11.236 -0.0915 -0.6983 -0.0914
  561TMC3     H 8326   2.540   1.593  11.535  2.5673  0.4478 -0.6869
  561TMC3    H1 8327   2.367   1.826  11.213 -1.6987  1.4218  0.1626
  561TMC3    H2 8328   2.285   1.939  11.609 -1.8779 -1.6224  0.0554
  561TMC3    C7 8329   2.274   1.997  11.363 -0.8401  0.0686  0.4132
  561TMC3    C8 8330   2.439   1.747  11.726 -0.0729  0.2805  0.3180
  561TMC3    O1 8331   2.165   2.035  11.402 -0.3840  0.3918 -0.6972
  561TMC3    O2 8332   2.550   1.712  11.762  0.5138 -0.2747  0.6187
  562TMC3    C1 8333   4.072   3.719  16.106  0.0156 -0.7388 -0.0906
  562TMC3    C2 8334   3.973   3.813  16.095 -0.3385 -0.2517  0.4111
  562TMC3    C3 8335   3.904   3.822  15.979  0.7485 -0.1431 -0.4950
  562TMC3    C4 8336   4.104   3.636  15.995 -0.3948 -0.4726  0.5287
  562TMC3    C5 8337   4.028   3.649  15.880  0.3771  0.3365  0.0690
  562TMC3    C6 8338   3.926   3.737  15.877  0.2802 -0.1618 -0.2572
  562TMC3     C 8339   4.160   3.718  16.225  0.8524  0.0146  0.4778
  562TMC3     O 8340   4.250   3.637  16.223  0.1744  0.3027  0.4044
  562TMC3     H 8341   3.957   3.880  16.178 -1.0328  2.2214 -1.7091
  562TMC3    H1 8342   4.191   3.572  16.008 -0.7314 -0.9570  0.3601
  562TMC3    H2 8343   3.855   3.740  15.795 -0.7858 -1.7287  0.6118
  562TMC3    C7 8344   4.022   3.540  15.783  0.1201  0.5851  0.0179
  562TMC3    C8 8345   3.775   3.890  15.976 -0.3647 -0.1446 -0.3868
  562TMC3    O1 8346   3.952   3.547  15.683  0.1433  0.2948 -0.1236
  562TMC3    O2 8347   3.724   3.894  16.085 -0.1011 -0.0147  0.3524
  563MPD2     C 8348   1.497   4.661  15.710  0.1431 -0.1723  0.2027
  563MPD2    C1 8349   1.500   0.045  15.800 -0.2494 -0.4282  0.4288
  563MPD2    C2 8350   1.596   0.058  15.898  0.5559 -0.5994  0.1546
  563MPD2    C3 8351   1.685   4.675  15.916 -0.4071 -0.1176 -0.3891
  563MPD2    C4 8352   1.684   4.573  15.830  0.2869 -0.8920  0.1741
  563MPD2    C5 8353   1.594   4.569  15.723 -0.2519  0.0829 -0.4428
  563MPD2     H 8354   1.608   0.137  15.971 -2.4069 -0.2305  0.2432
  563MPD2    H1 8355   1.772   4.510  15.827  1.7731  1.0818  3.0765
  563MPD2    H2 8356   1.430   4.656  15.625  0.3483 -2.6080  0.1806
  563MPD2    H3 8357   1.596   4.489  15.650  0.5975  2.0072 -2.5107
  563MPD2     N 8358   1.772   4.685  16.029  0.3255 -0.1365 -0.2659
  563MPD2    H5 8359   1.779   0.048  16.082 -0.5460 -0.3149  0.1420
  563MPD2    N1 8360   1.388   0.136  15.795 -0.0466  0.1488  0.4459
  563MPD2    H7 8361   1.303   0.092  15.761  0.8174 -1.9305  0.9955
  564TMC3    C1 8362   1.261   0.263  15.947 -0.0562 -0.1832 -0.3367
  564TMC3    C2 8363   1.148   0.201  15.886  0.9268 -0.1462  0.2142
  564TMC3    C3 8364   1.059   0.137  15.963  0.2376 -0.6609  0.1943
  564TMC3    C4 8365   1.277   0.260  16.081 -0.5945  0.1821  0.3053
  564TMC3    C5 8366   1.197   0.183  16.154  0.5325 -0.2472 -0.4916
  564TMC3    C6 8367   1.086   0.129  16.100  0.5859  0.6138 -0.0772
  564TMC3     C 8368   1.383   0.253  15.871 -0.3976  0.0811 -0.1712
  564TMC3     O 8369   1.471   0.329  15.903  0.8694  0.1134  0.1857
  564TMC3     H 8370   1.150   0.190  15.778  0.3480 -0.9744  0.2840
  564TMC3    H1 8371   1.373   0.286  16.123 -0.4756 -0.3983  0.3975
  564TMC3    H2 8372   1.037   0.055  16.163  2.1516  0.7097  1.2520
  564TMC3    C7 8373   1.288   0.078  16.197  0.4377 -0.2002 -0.2142
  564TMC3    C8 8374   0.988   0.019  15.917 -0.3104  0.9243 -0.2650
  564TMC3    O1 8375   1.381   0.123  16.270  0.1334 -0.3827 -0.0262
  564TMC3    O2 8376   0.906   4.688  15.994  0.3192  0.1948  0.2781
  565TMC3    C1 8377   2.164   1.390  10.667  0.1261  0.1050  0.5103
  565TMC3    C2 8378   2.155   1.285  10.574  0.2322  0.5463  0.4754
  565TMC3    C3 8379   2.124   1.156  10.603  0.2720 -0.3135  0.0046
  565TMC3    C4 8380   2.145   1.351  10.799 -0.4645  1.4497 -0.3667
  565TMC3    C5 8381   2.107   1.222  10.824 -0.3372 -0.8936  0.0872
  565TMC3    C6 8382   2.098   1.120  10.732  0.2780 -0.4145  0.1029
  565TMC3     C 8383   2.253   1.497  10.628  0.3797 -0.4155 -0.1851
  565TMC3     O 8384   2.243   1.527  10.513  0.2251 -0.6600 -0.1329
  565TMC3     H 8385   2.169   1.320  10.472  0.0380  0.4835  0.4285
  565TMC3    H1 8386   2.141   1.426  10.877  1.1645 -0.6344  1.7195
  565TMC3    H2 8387   2.085   1.017  10.760 -1.6220 -0.1748  0.1334
  565TMC3    C7 8388   2.067   1.197  10.961  0.4258  0.0345  0.0735
  565TMC3    C8 8389   2.129   1.045  10.510 -0.2255  0.9834 -0.5683
  565TMC3    O1 8390   1.979   1.113  10.972 -0.0645  0.4991 -0.6918
  565TMC3    O2 8391   2.074   0.943  10.548  0.0312  0.1375 -0.0387
  566MPD2     C 8392   3.278   3.552  14.616 -0.1095 -0.1445 -0.5107
  566MPD2    C1 8393   3.340   3.514  14.500  0.6617 -0.0903 -0.9061
  566MPD2    C2 8394   3.291   3.402  14.428  0.3942  0.1249 -0.7784
  566MPD2    C3 8395   3.183   3.326  14.480 -0.5123 -0.6054 -1.2083
  566MPD2    C4 8396   3.126   3.371  14.601  0.7687 -0.1260 -0.0548
  566MPD2    C5 8397   3.167   3.485  14.666  0.0539 -0.7926 -0.6598
  566MPD2     H 8398   3.341   3.381  14.334  1.1395  1.4518 -0.6716
  566MPD2    H1 8399   3.043   3.326  14.655  0.7214  1.2340  1.0085
  566MPD2    H2 8400   3.314   3.642  14.664 -0.2488  0.1770 -1.0178
  566MPD2    H3 8401   3.110   3.522  14.750 -0.4909  0.1681 -1.4488
  566MPD2     N 8402   3.141   3.204  14.413  0.2358 -0.2019 -0.1846
  566MPD2    H5 8403   3.058   3.154  14.441 -0.5273  1.4399  0.5004
  566MPD2    N1 8404   3.451   3.582  14.445  0.1115 -0.8031 -0.2270
  566MPD2    H7 8405   3.473   3.559  14.349  1.8867  2.3842 -0.5942
  567TMC3    C1 8406   3.670   3.662  14.439  0.7092  0.9062 -0.1688
  567TMC3    C2 8407   3.655   3.669  14.303 -0.0431  0.1841 -0.1416
  567TMC3    C3 8408   3.728   3.590  14.224  0.8437 -0.2222 -0.3616
  567TMC3    C4 8409   3.757   3.580  14.496  1.0028  0.2568  0.0105
  567TMC3    C5 8410   3.829   3.500  14.418  0.0924  0.1831  0.0500
  567TMC3    C6 8411   3.824   3.506  14.280 -1.0793 -0.6002 -0.0539
  567TMC3     C 8412   3.539   3.661  14.509 -0.0178  0.7542  0.1004
  567TMC3     O 8413   3.546   3.693  14.625  0.3679  0.0498 -0.6875
  567TMC3     H 8414   3.600   3.752  14.259  1.0688  0.5013 -0.9376
  567TMC3    H1 8415   3.775   3.607  14.599 -0.3439  0.2758  0.2426
  567TMC3    H2 8416   3.882   3.438  14.218 -1.0047 -0.3496 -0.2632
  567TMC3    C7 8417   3.815   3.355  14.451 -0.8711  0.3675  0.5951
  567TMC3    C8 8418   3.699   3.594  14.086  0.1174 -0.6578  0.1334
  567TMC3    O1 8419   3.869   3.273  14.376  0.6022  0.0429  0.0288
  567TMC3    O2 8420   3.588   3.637  14.063 -0.4236  0.1169  0.3349
  568MPD2     C 8421   0.721   3.389  16.513 -0.1710  0.1771  0.0796
  568MPD2    C1 8422   0.850   3.408  16.557 -0.2747  0.9955 -0.5276
  568MPD2    C2 8423   0.928   3.490  16.484  0.3206 -0.5348 -0.6275
  568MPD2    C3 8424   0.884   3.548  16.370 -0.3643  0.1295  0.4822
  568MPD2    C4 8425   0.756   3.540  16.334  0.2047 -0.5406 -0.4630
  568MPD2    C5 8426   0.678   3.447  16.394  0.0071  0.0061 -0.7568
  568MPD2     H 8427   1.035   3.497  16.502  0.1247  3.5795 -1.0782
  568MPD2    H1 8428   0.712   3.595  16.253 -1.3414 -1.9159 -0.5565
  568MPD2    H2 8429   0.661   3.326  16.577 -0.4490  0.0471 -0.3088
  568MPD2    H3 8430   0.574   3.437  16.366  0.7849 -0.6849 -3.4003
  568MPD2     N 8431   0.973   3.638  16.316  0.2060 -0.4226 -0.4588
  568MPD2    H5 8432   1.055   3.649  16.374  0.7843  2.0171 -1.7505
  568MPD2    N1 8433   0.896   3.358  16.688  0.0856 -0.3416 -0.3806
  568MPD2    H7 8434   0.825   3.311  16.744 -0.9128 -0.7167 -1.9582
  569TMC3    C1 8435   1.054   3.821  16.190  0.1228  0.4083  0.6339
  569TMC3    C2 8436   1.087   3.882  16.312  0.8807  0.2763  0.2692
  569TMC3    C3 8437   1.148   4.002  16.298  0.2859 -0.6466 -0.3647
  569TMC3    C4 8438   1.087   3.878  16.065  0.7781 -0.1009  0.3551
  569TMC3    C5 8439   1.132   4.007  16.059  0.1577  0.3227  0.5540
  569TMC3    C6 8440   1.160   4.070  16.178  0.6546  0.3405 -0.1691
  569TMC3     C 8441   0.958   3.713  16.201  0.9112  0.1139  0.4283
  569TMC3     O 8442   0.878   3.698  16.111  0.3269  0.3342 -0.1812
  569TMC3     H 8443   1.054   3.843  16.407 -1.0583  1.0968 -0.0730
  569TMC3    H1 8444   1.053   3.817  15.981 -0.0795 -0.0716  0.6774
  569TMC3    H2 8445   1.205   4.168  16.182  2.5541 -0.4004 -3.1479
  569TMC3    C7 8446   1.111   4.088  15.939 -0.3102 -0.5582 -0.6555
  569TMC3    C8 8447   1.128   4.077  16.425 -0.1185 -0.0651 -0.3900
  569TMC3    O1 8448   1.132   4.026  15.840 -0.0917 -0.0025 -0.1501
  569TMC3    O2 8449   1.026   4.054  16.493  0.1981  0.2142  0.2272
  570TMC3    C1 8450   0.439   2.445  16.606 -0.8940  0.6463 -0.3499
  570TMC3    C2 8451   0.499   2.418  16.492 -0.7647  0.4220 -0.1720
  570TMC3    C3 8452   0.552   2.524  16.423  0.1973  0.6524  0.0719
  570TMC3    C4 8453   0.413   2.573  16.659  0.2225  0.3816  0.2559
  570TMC3    C5 8454   0.460   2.676  16.579 -0.0540  0.8269 -0.4717
  570TMC3    C6 8455   0.530   2.647  16.464 -0.6425 -0.7305 -0.0113
  570TMC3     C 8456   0.434   2.328  16.699  0.6260 -0.1527  0.0400
  570TMC3     O 8457   0.451   2.219  16.650 -0.1862 -0.1795 -0.8535
  570TMC3     H 8458   0.539   2.318  16.478  0.4726  0.5843  2.1397
  570TMC3    H1 8459   0.350   2.587  16.746  0.6365  3.2244  0.1001
  570TMC3    H2 8460   0.584   2.727  16.415  0.3336 -0.8089  0.9414
  570TMC3    C7 8461   0.410   2.805  16.607  0.0116  0.0203  0.5678
  570TMC3    C8 8462   0.678   2.504  16.343  0.1290  0.1606  0.7978
  570TMC3    O1 8463   0.345   2.826  16.706 -0.0051 -0.3185 -0.4265
  570TMC3    O2 8464   0.728   2.606  16.306  0.2859  0.3114 -0.0469
  571MPD2     C 8465   3.347   3.547  17.583 -0.2980 -0.0508  0.0976
  571MPD2    C1 8466   3.280   3.666  17.601 -0.4549 -0.4669 -0.1296
  571MPD2    C2 8467   3.347   3.787  17.586  0.2499  1.0723 -0.0061
  571MPD2    C3 8468   3.489   3.786  17.583 -0.1260  1.2436  0.2258
  571MPD2    C4 8469   3.550   3.660  17.567 -0.2145  0.4097  0.1502
  571MPD2    C5 8470   3.480   3.543  17.558  0.1464 -0.3707  0.8665
  571MPD2     H 8471   3.290   3.879  17.597 -0.1365  1.1587 -2.8152
  571MPD2    H1 8472   3.656   3.658  17.545 -0.6004 -1.4400 -1.5487
  571MPD2    H2 8473   3.292   3.455  17.600 -1.5110  0.8227  0.9101
  571MPD2    H3 8474   3.524   3.445  17.545  0.9806  0.2685 -0.9941
  571MPD2     N 8475   3.564   3.902  17.575  0.0965 -0.6886 -1.0511
  571MPD2    H5 8476   3.665   3.891  17.582 -0.0994 -2.1031 -0.4508
  571MPD2    N1 8477   3.139   3.658  17.609 -0.2748 -0.3675 -0.0472
  571MPD2    H7 8478   3.101   3.565  17.594  0.2143 -1.1953  3.9011
  572TMC3    C1 8479   3.618   4.126  17.612 -0.4698  0.1296  0.6122
  572TMC3    C2 8480   3.732   4.090  17.674 -1.0917 -0.3963  0.1134
  572TMC3    C3 8481   3.804   4.184   0.054 -0.1309 -0.3583 -0.0083
  572TMC3    C4 8482   3.582   4.258  17.614  0.3778 -0.5830  0.2518
  572TMC3    C5 8483   3.660   4.351  17.673  0.1707  0.7634 -0.3968
  572TMC3    C6 8484   3.764   4.313   0.062 -0.6546 -0.4185 -0.0019
  572TMC3     C 8485   3.514   4.033  17.565 -0.0614 -0.3623 -0.1353
  572TMC3     O 8486   3.400   4.075  17.548  0.1000 -0.0151  0.2494
  572TMC3     H 8487   3.753   3.986   0.000  0.6046 -0.2093 -0.6885
  572TMC3    H1 8488   3.493   4.291  17.562 -0.1672 -1.4064  0.6637
  572TMC3    H2 8489   3.825   4.385   0.114 -0.4914 -0.4753 -0.1157
  572TMC3    C7 8490   3.625   4.490  17.659  0.1083  0.2954  0.1195
  572TMC3    C8 8491   3.916   4.121   0.120  0.0471  0.1288 -0.4936
  572TMC3    O1 8492   3.507   4.511  17.637  0.3502 -0.1053  0.2577
  572TMC3    O2 8493   3.962   4.022   0.071 -0.2727  0.2864 -0.4283
  573MPD2     C 8494   4.259   0.015   0.971 -0.5775  0.8636 -0.3264
  573MPD2    C1 8495   4.352   0.105   0.915 -0.0329  0.7207  0.4445
  573MPD2    C2 8496   4.399   0.081   0.788 -0.0398 -0.1527  0.1824
  573MPD2    C3 8497   4.338   4.705   0.708  0.0665  0.0612 -0.2627
  573MPD2    C4 8498   4.246   4.629   0.763  0.6582  0.4633  0.5478
  573MPD2    C5 8499   4.206   4.644   0.895  0.3168  0.0114  0.1106
  573MPD2     H 8500   4.479   0.144   0.749 -2.9279  1.2047 -3.5443
  573MPD2    H1 8501   4.196   4.548   0.711 -0.5795 -0.2428  2.8338
  573MPD2    H2 8502   4.243   0.013   1.079 -3.1520 -1.8805 -0.7298
  573MPD2    H3 8503   4.131   4.571   0.924  1.2090 -0.0732  2.1513
  573MPD2     N 8504   4.365   4.681   0.574  1.2396 -0.0850  0.1181
  573MPD2    H5 8505   4.305   4.612   0.530 -1.3544  0.9518  2.0385
  573MPD2    N1 8506   4.406   0.208   0.990 -0.1948 -0.0170 -0.0290
  573MPD2    H7 8507   4.394   0.207   1.091  0.5454 -0.3811  0.0618
  574TMC3    C1 8508   4.400   0.022   0.361 -0.1320 -0.1107 -0.1738
  574TMC3    C2 8509   4.284   0.093   0.344 -0.3694 -0.3681  0.2259
  574TMC3    C3 8510   4.279   0.185   0.243 -0.7508  0.4016  0.0969
  574TMC3    C4 8511   4.501   0.042   0.274  0.4967 -0.1817 -0.3303
  574TMC3    C5 8512   4.487   0.129   0.167 -0.2793 -0.8553 -0.3694
  574TMC3    C6 8513   4.373   0.210   0.150 -0.0028  0.0525  0.3116
  574TMC3     C 8514   4.444   0.038   0.497 -0.1950  0.3761  0.1954
  574TMC3     O 8515   4.540   0.114   0.524  0.3902  0.2777  0.4112
  574TMC3     H 8516   4.203   0.085   0.416 -1.5953  0.2231 -1.0697
  574TMC3    H1 8517   4.595   4.717   0.299 -0.2722 -1.2118  0.5216
  574TMC3    H2 8518   4.382   0.302   0.095  1.6593  0.2317  0.8743
  574TMC3    C7 8519   4.602   0.207   0.141 -0.1088 -0.4442  0.1463
  574TMC3    C8 8520   4.164   0.277   0.255 -0.4381  0.9274  0.0662
  574TMC3    O1 8521   4.621   0.262   0.034 -0.0966  0.2603  0.3813
  574TMC3    O2 8522   4.106   0.290   0.362  0.2306  0.3446 -0.1931
  575TMC3    C1 8523   1.798   0.328  10.261  0.3387  0.8186  0.2456
  575TMC3    C2 8524   1.826   0.258  10.147 -0.2680 -0.0842 -0.4926
  575TMC3    C3 8525   1.888   0.331  10.050  0.0669 -0.2205  0.0148
  575TMC3    C4 8526   1.854   0.449  10.288 -0.2452 -0.3775  0.1101
  575TMC3    C5 8527   1.916   0.514  10.186 -0.8445  0.0900 -0.0324
  575TMC3    C6 8528   1.937   0.457  10.062  0.3903 -0.0642 -0.2591
  575TMC3     C 8529   1.710   0.273  10.357  1.3846 -0.6087 -0.2542
  575TMC3     O 8530   1.638   0.184  10.323 -0.0745  0.3332 -0.3498
  575TMC3     H 8531   1.785   0.157  10.143 -0.8245  0.0418  1.8211
  575TMC3    H1 8532   1.818   0.509  10.371  0.3724 -0.3060  0.3225
  575TMC3    H2 8533   1.983   0.510   9.979 -1.3726  1.4892 -0.2455
  575TMC3    C7 8534   1.995   0.633  10.229 -1.0580 -0.0827  0.3319
  575TMC3    C8 8535   1.910   0.273   9.919 -0.7478  0.0818  0.1608
  575TMC3    O1 8536   1.977   0.663  10.345 -0.9012  0.2927 -0.1024
  575TMC3    O2 8537   2.000   0.316   9.847 -0.0191 -0.4754  0.2758
  576MPD2     C 8538   1.804   2.484  12.839  0.4683  0.0826  0.0686
  576MPD2    C1 8539   1.774   2.533  12.716  0.1356 -0.0165  0.2307
  576MPD2    C2 8540   1.707   2.656  12.707 -0.4583  0.2102  0.5765
  576MPD2    C3 8541   1.668   2.729  12.824 -0.2255  0.0637  0.3666
  576MPD2    C4 8542   1.704   2.674  12.945 -0.6881  0.3597 -0.1095
  576MPD2    C5 8543   1.777   2.555  12.949  0.7780  0.5188 -0.1904
  576MPD2     H 8544   1.679   2.701  12.613 -2.5393  0.7300  1.4367
  576MPD2    H1 8545   1.692   2.717  13.044 -2.9975 -0.5566  0.0002
  576MPD2    H2 8546   1.863   2.396  12.860 -0.3837 -0.3961  0.4129
  576MPD2    H3 8547   1.816   2.518  13.043  0.1867  1.2525  0.3458
  576MPD2     N 8548   1.617   2.859  12.814  0.0240  0.0404  0.2922
  576MPD2    H5 8549   1.603   2.900  12.722 -0.3980 -0.5343  0.0903
  576MPD2    N1 8550   1.818   2.466  12.601  0.3160 -0.0561  0.1723
  576MPD2    H7 8551   1.802   2.506  12.510  1.1508  1.7963  0.8457
  577TMC3    C1 8552   1.905   2.300  12.455 -0.4476 -0.0726 -0.3166
  577TMC3    C2 8553   2.024   2.246  12.426 -0.1804  0.2453 -0.3468
  577TMC3    C3 8554   2.035   2.192  12.301 -0.8275 -0.4662 -0.8096
  577TMC3    C4 8555   1.794   2.302  12.374 -1.2915  0.7239 -0.4140
  577TMC3    C5 8556   1.814   2.237  12.251 -0.3746  0.8880  1.2020
  577TMC3    C6 8557   1.931   2.186  12.214  0.3806 -0.2164  0.1659
  577TMC3     C 8558   1.895   2.348  12.595 -0.0735  0.9269  0.7320
  577TMC3     O 8559   1.963   2.287  12.675  0.1933  0.1039 -0.0205
  577TMC3     H 8560   2.109   2.254  12.494 -0.7923  1.6815  0.2410
  577TMC3    H1 8561   1.691   2.321  12.403 -1.2828 -0.8527  0.6763
  577TMC3    H2 8562   1.934   2.140  12.116 -1.1030 -0.9188  0.4525
  577TMC3    C7 8563   1.705   2.184  12.176 -0.0498 -0.1475  0.0622
  577TMC3    C8 8564   2.154   2.115  12.280 -0.1254  0.0591 -0.5689
  577TMC3    O1 8565   1.702   2.062  12.171  0.0050  0.1972  0.2414
  577TMC3    O2 8566   2.240   2.136  12.364 -0.0226 -0.3618 -0.3966
  578MPD2     C 8567   4.491   2.953   1.602 -0.3869  0.4041  0.4148
  578MPD2    C1 8568   4.565   2.915   1.490 -0.3786  0.4054  0.3793
  578MPD2    C2 8569   4.688   2.853   1.522  0.2645 -0.0207  0.5019
  578MPD2    C3 8570   0.009   2.828   1.645  0.9527  0.4759 -0.0210
  578MPD2    C4 8571   4.656   2.877   1.750 -0.2438 -0.3494 -0.2046
  578MPD2    C5 8572   4.535   2.932   1.729  0.1325 -0.4402  0.1870
  578MPD2     H 8573   0.035   2.831   1.443  0.5871  0.1936  0.7306
  578MPD2    H1 8574   4.691   2.868   1.852  0.1278  2.3766 -0.0903
  578MPD2    H2 8575   4.407   3.021   1.599 -0.8500 -0.1498  0.8478
  578MPD2    H3 8576   4.481   2.976   1.812 -1.3530  0.1118 -1.0523
  578MPD2     N 8577   0.138   2.765   1.657 -0.2637 -0.0917  0.3682
  578MPD2    H5 8578   0.158   2.711   1.574 -0.1075  1.0131 -0.3179
  578MPD2    N1 8579   4.540   2.982   1.367  0.6821  0.0970  0.5271
  578MPD2    H7 8580   4.462   3.047   1.377 -1.8866 -2.4350 -3.2429
  579TMC3    C1 8581   0.353   2.705   1.744  0.0862 -0.1413 -0.0320
  579TMC3    C2 8582   0.455   2.736   1.829  0.2123  0.1714 -0.0494
  579TMC3    C3 8583   0.579   2.689   1.805  0.3968 -0.0754  0.0930
  579TMC3    C4 8584   0.372   2.622   1.636  0.0971  0.1912 -0.2414
  579TMC3    C5 8585   0.497   2.563   1.627 -0.8598 -0.7218  0.8325
  579TMC3    C6 8586   0.596   2.590   1.712  0.0037  0.4675 -0.7929
  579TMC3     C 8587   0.215   2.760   1.771 -0.0707 -0.1712  0.9881
  579TMC3     O 8588   0.203   2.822   1.876  0.2309  0.1893  0.5791
  579TMC3     H 8589   0.434   2.811   1.904 -1.4703 -0.5581  0.2144
  579TMC3    H1 8590   0.288   2.576   1.586  0.1802  0.2419 -0.4286
  579TMC3    H2 8591   0.689   2.537   1.695 -0.0591  0.0839  0.0783
  579TMC3    C7 8592   0.506   2.437   1.550  0.1578  0.4529 -0.0531
  579TMC3    C8 8593   0.682   2.764   1.869 -0.2032 -0.1236  0.0704
  579TMC3    O1 8594   0.586   2.351   1.589 -0.1223  0.3108 -0.5165
  579TMC3    O2 8595   0.649   2.816   1.973 -0.5824 -0.2091 -0.0202
  580TMC3    C1 8596   4.304   1.676  12.006 -0.9707 -0.1703  0.7842
  580TMC3    C2 8597   4.359   1.769  12.096 -0.1688  0.5038  0.2347
  580TMC3    C3 8598   4.435   1.725  12.200  0.4264 -0.3271  0.3998
  580TMC3    C4 8599   4.326   1.541  12.028 -0.5873 -0.2970  0.0768
  580TMC3    C5 8600   4.397   1.502  12.138 -0.1204 -0.2776  0.2592
  580TMC3    C6 8601   4.458   1.595  12.221 -0.5530  0.1045 -0.5258
  580TMC3     C 8602   4.302   1.723  11.868  0.3459  0.6009 -0.4576
  580TMC3     O 8603   4.371   1.661  11.789  0.3762  0.1111  0.3900
  580TMC3     H 8604   4.358   1.875  12.074 -1.3438  0.1195 -1.5337
  580TMC3    H1 8605   4.285   1.472  11.955 -0.4658 -2.0168  1.6397
  580TMC3    H2 8606   4.509   1.562  12.311 -1.3438 -0.2324 -0.2000
  580TMC3    C7 8607   4.439   1.364  12.156  0.0195 -0.3523  0.5543
  580TMC3    C8 8608   4.556   1.805  12.206 -0.5094 -0.0395 -0.5439
  580TMC3    O1 8609   4.487   1.337  12.268 -0.6838  0.1891  0.5575
  580TMC3    O2 8610   4.550   1.912  12.261  0.0229  0.0688  0.2946
  581MPD2     C 8611   2.347   1.554  15.132  0.2553 -0.4741 -0.2166
  581MPD2    C1 8612   2.232   1.494  15.124  0.3439 -0.0326  0.3242
  581MPD2    C2 8613   2.118   1.575  15.116  0.1265 -0.1446  0.4432
  581MPD2    C3 8614   2.116   1.711  15.124  0.1419  0.3004  0.2884
  581MPD2    C4 8615   2.242   1.774  15.136  0.1621  0.4659 -0.2090
  581MPD2    C5 8616   2.354   1.696  15.140  0.1191 -0.1649  0.6087
  581MPD2     H 8617   2.028   1.516  15.101  1.3493 -1.5231 -1.6122
  581MPD2    H1 8618   2.259   1.880  15.128  1.7375  0.2635  0.4538
  581MPD2    H2 8619   2.443   1.505  15.143  0.7669  0.2469 -1.3830
  581MPD2    H3 8620   2.452   1.740  15.155  0.9089 -1.0221 -2.0843
  581MPD2     N 8621   1.995   1.783  15.088  0.2675  0.9190 -0.6947
  581MPD2    H5 8622   1.910   1.733  15.064  0.3444  0.5097 -0.0887
  581MPD2    N1 8623   2.242   1.350  15.124  0.5554 -0.1906 -0.6953
  581MPD2    H7 8624   2.337   1.319  15.111  1.3081  2.1073 -0.7721
  582TMC3    C1 8625   2.196   1.124  15.186  0.1966 -0.1187 -0.3269
  582TMC3    C2 8626   2.305   1.117  15.267 -0.7540  0.3218 -0.5455
  582TMC3    C3 8627   2.312   1.008  15.351  0.0950 -0.0304 -0.1461
  582TMC3    C4 8628   2.093   1.033  15.197  0.4818  0.0018  0.0588
  582TMC3    C5 8629   2.093   0.932  15.291 -0.0759  1.1799  0.1393
  582TMC3    C6 8630   2.209   0.919  15.364  0.0694  0.2098 -0.1263
  582TMC3     C 8631   2.143   1.257  15.155  0.5588 -0.8329  0.8644
  582TMC3     O 8632   2.023   1.277  15.171 -0.0954  0.3927 -0.8487
  582TMC3     H 8633   2.373   1.202  15.271 -1.1786  0.7027 -1.6208
  582TMC3    H1 8634   2.008   1.043  15.130  2.0622  1.2703 -1.7761
  582TMC3    H2 8635   2.207   0.843  15.440 -0.2003  0.0842 -0.2572
  582TMC3    C7 8636   1.988   0.937  15.391 -0.4915 -0.2491  0.0422
  582TMC3    C8 8637   2.390   1.036  15.473  0.0337 -0.4923 -0.3401
  582TMC3    O1 8638   1.974   0.845  15.465  0.0098  0.1482 -0.1975
  582TMC3    O2 8639   2.435   1.150  15.491 -0.5922  0.7380  0.3579
  583MPD2     C 8640   2.377   3.546  16.445  0.3288 -0.5116 -0.5095
  583MPD2    C1 8641   2.454   3.490  16.546 -0.2162  0.3293 -0.7303
  583MPD2    C2 8642   2.438   3.542  16.669 -0.2781  0.1864  0.1647
  583MPD2    C3 8643   2.358   3.653  16.701  0.4525 -0.0605 -0.2355
  583MPD2    C4 8644   2.279   3.708  16.602 -1.0471 -0.2918 -0.3065
  583MPD2    C5 8645   2.293   3.645  16.483  0.7740  0.7831 -0.1085
  583MPD2     H 8646   2.491   3.502  16.754 -0.8951  2.2992  1.5390
  583MPD2    H1 8647   2.211   3.792  16.610 -2.3523 -1.4036  0.2271
  583MPD2    H2 8648   2.384   3.517  16.341  1.9504 -2.2120  0.0764
  583MPD2    H3 8649   2.237   3.696  16.406  0.6565 -2.1225 -1.9279
  583MPD2     N 8650   2.360   3.698  16.834 -0.5115 -0.3598  0.3938
  583MPD2    H5 8651   2.407   3.641  16.904 -2.9743 -2.3052  0.4597
  583MPD2    N1 8652   2.543   3.385  16.520  0.5839  0.1633 -0.0089
  583MPD2    H7 8653   2.603   3.359  16.598  1.6250 -1.2360 -1.2650
  584TMC3    C1 8654   2.338   3.857  17.004 -0.1807 -0.1266 -0.8786
  584TMC3    C2 8655   2.380   3.981  17.040  0.1793  0.0586  0.5492
  584TMC3    C3 8656   2.367   4.023  17.171  0.1718 -0.4070  0.0629
  584TMC3    C4 8657   2.299   3.757  17.094 -0.1051 -0.7429 -0.1390
  584TMC3    C5 8658   2.281   3.804  17.226 -0.7889 -0.3014  0.6925
  584TMC3    C6 8659   2.309   3.937  17.263  0.0065 -0.0381 -0.9421
  584TMC3     C 8660   2.332   3.830  16.864 -1.1898  0.1141 -0.3377
  584TMC3     O 8661   2.301   3.927  16.796 -0.6733 -0.1309 -0.3857
  584TMC3     H 8662   2.421   4.044  16.962  0.0326 -2.2608 -1.3863
  584TMC3    H1 8663   2.258   3.661  17.067 -1.4376  0.1310 -1.2103
  584TMC3    H2 8664   2.288   3.977  17.362  0.1184 -0.2610 -0.8268
  584TMC3    C7 8665   2.202   3.720  17.309 -0.4268  0.3503 -0.1208
  584TMC3    C8 8666   2.432   4.145  17.209  0.4993 -1.0338 -0.2496
  584TMC3    O1 8667   2.193   3.599  17.297 -0.2688 -0.2932  0.7986
  584TMC3    O2 8668   2.467   4.230  17.119 -0.1128  0.3162 -0.1087
  585MPD2     C 8669   1.638   2.320   0.660  0.0870 -0.1794 -0.3337
  585MPD2    C1 8670   1.685   2.366   0.536  0.8408 -0.0477  0.1715
  585MPD2    C2 8671   1.663   2.292   0.420  0.3750 -0.6009 -0.3888
  585MPD2    C3 8672   1.589   2.177   0.422 -0.2524 -0.0461 -0.1681
  585MPD2    C4 8673   1.537   2.137   0.544  0.0277  0.0933  0.4772
  585MPD2    C5 8674   1.566   2.200   0.663  0.1461  0.4951  0.2081
  585MPD2     H 8675   1.694   2.321   0.321  0.9237 -0.3990 -0.1577
  585MPD2    H1 8676   1.482   2.044   0.540 -0.4816  0.4055  0.3091
  585MPD2    H2 8677   1.642   2.383   0.748 -2.9176 -0.3486 -0.0682
  585MPD2    H3 8678   1.509   2.174   0.752  1.3952  0.6124  1.0374
  585MPD2     N 8679   1.558   2.103   0.307  0.1419 -0.1570 -0.1609
  585MPD2    H5 8680   1.478   2.041   0.313  1.1356 -1.6137 -2.0796
  585MPD2    N1 8681   1.728   2.503   0.530  0.4864 -0.4624 -0.6245
  585MPD2    H7 8682   1.720   2.549   0.620 -1.8816 -0.4523 -0.8234
  586TMC3    C1 8683   1.547   2.053   0.084  0.2075  0.0099 -0.5450
  586TMC3    C2 8684   1.612   2.000  17.666 -1.0300 -0.4941  0.4733
  586TMC3    C3 8685   1.541   1.949  17.555  1.4156 -0.1646 -0.0672
  586TMC3    C4 8686   1.405   2.055   0.090  0.0980 -0.3377  0.1494
  586TMC3    C5 8687   1.338   2.019  17.666 -0.1796 -0.4527  0.5099
  586TMC3    C6 8688   1.400   1.970  17.551  0.0446  0.2182 -0.1391
  586TMC3     C 8689   1.624   2.117   0.188  0.0243  0.5147  0.2072
  586TMC3     O 8690   1.740   2.148   0.174 -0.1602  0.3880  0.2769
  586TMC3     H 8691   1.720   2.010  17.662 -1.0065 -1.0540 -0.1609
  586TMC3    H1 8692   1.359   2.112   0.169 -1.2248 -1.0289 -0.1158
  586TMC3    H2 8693   1.345   1.955  17.459 -1.6035 -0.8555  1.0186
  586TMC3    C7 8694   1.201   1.982  17.677  0.0633 -0.0406 -0.3092
  586TMC3    C8 8695   1.607   1.859  17.463  0.5163 -0.1534 -0.2858
  586TMC3    O1 8696   1.175   1.870  17.629 -0.4406 -0.3760 -0.1625
  586TMC3    O2 8697   1.730   1.862  17.466 -0.1904 -0.5131 -0.3428
  587TMC3    C1 8698   3.989   0.317  16.427  0.1580  0.9887 -0.4303
  587TMC3    C2 8699   3.970   0.441  16.380  0.2079 -0.1662  0.3652
  587TMC3    C3 8700   4.084   0.518  16.358  0.4517 -0.8804  0.1673
  587TMC3    C4 8701   4.119   0.270  16.456  0.6227 -0.3602 -0.0202
  587TMC3    C5 8702   4.229   0.355  16.439 -0.1510  0.2263  0.4778
  587TMC3    C6 8703   4.212   0.481  16.391 -0.1389 -0.1465 -0.8044
  587TMC3     C 8704   3.883   0.224  16.408 -0.5264 -0.4717 -0.1516
  587TMC3     O 8705   3.913   0.111  16.382 -0.2276 -0.5062  0.6883
  587TMC3     H 8706   3.878   0.474  16.333  1.3427  1.6748 -0.5288
  587TMC3    H1 8707   4.135   0.174  16.504 -0.9474 -0.2738  0.6694
  587TMC3    H2 8708   4.291   0.555  16.387 -0.8407  0.7682  2.2524
  587TMC3    C7 8709   4.345   0.328  16.516  0.4389  0.1441  0.1581
  587TMC3    C8 8710   4.061   0.659  16.339 -0.1522  0.8443  0.3413
  587TMC3    O1 8711   4.337   0.268  16.624 -0.2583  0.9227 -0.4385
  587TMC3    O2 8712   4.164   0.723  16.313 -0.2862 -0.5919  0.3200
  588TMC3    C1 8713   1.711   3.103  10.102  0.7276 -0.5187  0.2477
  588TMC3    C2 8714   1.652   3.017  10.190 -0.2830 -0.7009  0.1483
  588TMC3    C3 8715   1.689   2.883  10.190 -0.8307  0.3573 -0.0457
  588TMC3    C4 8716   1.797   3.051  10.014  0.0023  0.7652  0.2499
  588TMC3    C5 8717   1.815   2.917  10.005  0.0470 -0.4711  0.6962
  588TMC3    C6 8718   1.767   2.834  10.094  0.4197 -0.4826 -0.4203
  588TMC3     C 8719   1.697   3.249  10.110 -0.3460  0.0760 -0.0571
  588TMC3     O 8720   1.594   3.306  10.152 -0.3973  0.0468 -0.3420
  588TMC3     H 8721   1.571   3.049  10.254 -0.3654 -0.3293 -0.1447
  588TMC3    H1 8722   1.805   3.099   9.917  2.4104 -0.3393 -0.1041
  588TMC3    H2 8723   1.784   2.729  10.072 -3.2799 -0.8876 -1.3513
  588TMC3    C7 8724   1.908   2.858   9.905  0.4341 -0.5463 -0.5598
  588TMC3    C8 8725   1.606   2.794  10.265  0.5363 -0.0767  1.0221
  588TMC3    O1 8726   1.905   2.735   9.876  0.3936  0.6400  0.1592
  588TMC3    O2 8727   1.486   2.814  10.268  0.0582  0.2920 -0.2312
  589TMC3    C1 8728   0.511   0.799   1.549  0.2018 -0.2249 -0.1079
  589TMC3    C2 8729   0.578   0.805   1.676  0.0691 -0.1805  0.0780
  589TMC3    C3 8730   0.676   0.713   1.705  0.1567  0.4313  0.8532
  589TMC3    C4 8731   0.543   0.699   1.462  0.0101  0.2267 -0.1895
  589TMC3    C5 8732   0.637   0.604   1.502  0.7700  0.7563  0.3700
  589TMC3    C6 8733   0.703   0.608   1.624  0.6748 -0.6094 -0.9143
  589TMC3     C 8734   0.396   0.877   1.516 -0.1547  0.0970 -0.1001
  589TMC3     O 8735   0.319   0.820   1.440 -0.3656 -0.0025 -0.1350
  589TMC3     H 8736   0.568   0.890   1.743 -1.9449  0.7328 -1.3874
  589TMC3    H1 8737   0.476   0.684   1.379 -1.7653 -0.9098  1.4299
  589TMC3    H2 8738   0.762   0.521   1.652  0.6817  0.1379  1.3807
  589TMC3    C7 8739   0.625   0.478   1.429  0.2576  0.0069  0.4361
  589TMC3    C8 8740   0.781   0.757   1.793  0.4382 -0.1345 -0.0519
  589TMC3    O1 8741   0.617   0.376   1.494  0.0962 -0.7026  0.5003
  589TMC3    O2 8742   0.751   0.850   1.866 -0.7164  0.5577 -0.3262
  590MPD2     C 8743   0.263   4.050  16.753  0.1864 -0.7474  0.7667
  590MPD2    C1 8744   0.213   4.141  16.667  0.1123  0.1853 -0.0927
  590MPD2    C2 8745   0.289   4.235  16.611 -0.0305  0.3321 -0.0258
  590MPD2    C3 8746   0.425   4.230  16.615 -0.1661  0.4187  0.1029
  590MPD2    C4 8747   0.479   4.137  16.704  0.6387 -0.2479 -0.3549
  590MPD2    C5 8748   0.393   4.057  16.773  0.2792  0.2825  0.0038
  590MPD2     H 8749   0.241   4.305  16.543  1.2067  0.8039 -0.4011
  590MPD2    H1 8750   0.578   4.138  16.746  1.0304 -0.2754 -1.2769
  590MPD2    H2 8751   0.200   3.980  16.808 -0.4344  1.6289  3.0517
  590MPD2    H3 8752   0.447   3.990  16.838 -0.5053 -0.9007 -0.5692
  590MPD2     N 8753   0.513   4.301  16.535 -0.1463  0.1791  0.1192
  590MPD2    H5 8754   0.457   4.364  16.478  0.0140  0.0678 -0.1648
  590MPD2    N1 8755   0.074   4.131  16.640 -0.5848 -0.2612 -0.7675
  590MPD2    H7 8756   0.029   4.069  16.706  0.2286 -0.4609 -0.3963
  591TMC3    C1 8757   0.702   4.353  16.412 -0.1596  0.5680  0.3917
  591TMC3    C2 8758   0.764   4.272  16.324  0.2029  0.5639 -0.5615
  591TMC3    C3 8759   0.774   4.321  16.194 -0.0845  0.0717  0.5088
  591TMC3    C4 8760   0.633   4.467  16.375 -0.2739  0.1353 -0.4814
  591TMC3    C5 8761   0.664   4.521  16.256 -0.2484  0.6736 -0.2215
  591TMC3    C6 8762   0.737   4.453  16.164 -0.6314  0.2300 -0.2118
  591TMC3     C 8763   0.650   4.284  16.528  0.2325  0.9331  0.6149
  591TMC3     O 8764   0.730   4.209  16.583 -0.0948  0.0141  0.1043
  591TMC3     H 8765   0.793   4.171  16.351 -1.2098  0.3310  0.1130
  591TMC3    H1 8766   0.581   4.532  16.445 -0.3186 -2.1843  1.6538
  591TMC3    H2 8767   0.744   4.492  16.064 -0.8284 -0.6955 -0.5881
  591TMC3    C7 8768   0.577   4.629  16.213 -1.0109  0.1062 -0.3745
  591TMC3    C8 8769   0.785   4.222  16.088  0.1578  0.2203 -0.2491
  591TMC3    O1 8770   0.471   4.660  16.273 -0.0443 -0.2439  0.1767
  591TMC3    O2 8771   0.824   4.111  16.121  0.1163  0.2768 -0.4291
  592MPD2     C 8772   0.893   1.010  11.204  0.2084 -0.0491 -0.2720
  592MPD2    C1 8773   0.833   1.082  11.305  0.0865  0.6945 -0.3935
  592MPD2    C2 8774   0.721   1.028  11.367 -0.7164 -0.1366 -0.0208
  592MPD2    C3 8775   0.657   0.921  11.306  0.8535 -0.1195 -0.5279
  592MPD2    C4 8776   0.723   0.852  11.202  0.2467 -0.3255 -0.6164
  592MPD2    C5 8777   0.836   0.894  11.153  0.2780 -0.3203 -0.2420
  592MPD2     H 8778   0.667   1.063  11.455  2.6760 -0.0052  2.0266
  592MPD2    H1 8779   0.679   0.762  11.161  0.0405  0.3520 -1.9037
  592MPD2    H2 8780   0.985   1.038  11.153 -0.7625 -0.5449 -2.2997
  592MPD2    H3 8781   0.868   0.839  11.065 -0.3027  1.2680 -1.4387
  592MPD2     N 8782   0.534   0.887  11.361  0.1758  0.2980  0.3258
  592MPD2    H5 8783   0.503   0.940  11.443 -2.1394  1.1530 -1.0838
  592MPD2    N1 8784   0.897   1.198  11.359 -0.0122 -0.2338 -0.1250
  592MPD2    H7 8785   0.993   1.207  11.327  0.3807  0.3797  1.2082
  593TMC3    C1 8786   0.926   1.404  11.477  0.1563  0.0540 -0.0732
  593TMC3    C2 8787   0.893   1.463  11.595 -0.1173 -0.2805 -0.2496
  593TMC3    C3 8788   0.978   1.560  11.640 -0.7691  0.1414 -0.7758
  593TMC3    C4 8789   1.026   1.443  11.390 -0.7818 -0.2953  0.4026
  593TMC3    C5 8790   1.106   1.540  11.441 -0.3962  0.4497  0.5907
  593TMC3    C6 8791   1.083   1.605  11.564  0.0548 -0.4694 -0.0086
  593TMC3     C 8792   0.844   1.291  11.450  0.1322  0.0161  0.4713
  593TMC3     O 8793   0.731   1.284  11.497 -0.5894  0.3533  0.6469
  593TMC3     H 8794   0.809   1.420  11.649 -0.0222  0.6903  0.6574
  593TMC3    H1 8795   1.013   1.420  11.285  0.1768  1.2730 -0.0622
  593TMC3    H2 8796   1.149   1.681  11.602 -0.1974 -0.3003  0.0908
  593TMC3    C7 8797   1.219   1.591  11.367  0.0585  0.2358  0.6876
  593TMC3    C8 8798   0.928   1.656  11.734 -0.0096  0.0579  0.8869
  593TMC3    O1 8799   1.284   1.679  11.423 -0.2177 -0.1146 -0.3541
  593TMC3    O2 8800   0.805   1.679  11.736  0.3266  0.2708 -0.3388
  594MPD2     C 8801   4.324   4.708  14.498 -0.2829 -0.3029  0.3073
  594MPD2    C1 8802   4.239   0.079  14.443  0.0784  0.0066  1.2070
  594MPD2    C2 8803   4.282   0.210  14.409 -0.6864  0.1933  0.1094
  594MPD2    C3 8804   4.422   0.232  14.421  0.0883  0.2698 -1.0228
  594MPD2    C4 8805   4.494   0.141  14.490  0.5172  0.4624  0.0968
  594MPD2    C5 8806   4.452   0.019  14.534  0.6762  0.0776 -0.8996
  594MPD2     H 8807   4.213   0.280  14.365 -0.1688  0.5436 -0.1421
  594MPD2    H1 8808   4.597   0.157  14.518  0.3050  2.2279 -0.1531
  594MPD2    H2 8809   4.289   4.618  14.547 -0.4998 -1.8433 -2.6860
  594MPD2    H3 8810   4.519   4.676  14.586 -1.8852 -1.2294  0.7369
  594MPD2     N 8811   4.485   0.350  14.373 -0.1195 -0.2450 -0.1055
  594MPD2    H5 8812   4.583   0.360  14.397 -0.4315  2.9772 -0.2382
  594MPD2    N1 8813   4.108   0.035  14.416  0.5628 -0.4566 -0.4732
  594MPD2    H7 8814   4.095   4.658  14.426 -2.3504 -0.0375  0.0263
  595TMC3    C1 8815   4.706   0.680  14.313 -0.0991  0.7321  0.1862
  595TMC3    C2 8816   4.634   0.568  14.266 -0.1786  0.0457  0.3434
  595TMC3    C3 8817   4.496   0.572  14.277 -0.2572  0.1271 -0.4938
  595TMC3    C4 8818   4.643   0.787  14.375 -0.1536 -0.3848  0.1482
  595TMC3    C5 8819   4.510   0.778  14.394  0.3257 -0.2630  0.2643
  595TMC3    C6 8820   4.434   0.680  14.336 -0.9603  0.2788  0.2736
  595TMC3     C 8821   0.130   0.682  14.294 -0.0436  0.1981  0.2645
  595TMC3     O 8822   0.190   0.776  14.341  0.2337 -0.1691  0.5858
  595TMC3     H 8823   4.687   0.485  14.222 -2.5641 -1.3873  0.1986
  595TMC3    H1 8824   4.702   0.875  14.396 -0.0906 -1.0380  2.6175
  595TMC3    H2 8825   4.326   0.687  14.335 -0.8924  0.9699 -1.4429
  595TMC3    C7 8826   4.441   0.861  14.488  0.3020 -0.2042  0.7381
  595TMC3    C8 8827   4.421   0.449  14.288 -0.1791 -0.3332  0.3291
  595TMC3    O1 8828   4.321   0.874  14.485  0.4555 -0.0752  0.6417
  595TMC3    O2 8829   4.307   0.458  14.252  0.1661  0.0884 -0.4512
  596MPD2     C 8830   3.715   3.077  17.018 -0.4037 -0.1448 -0.3758
  596MPD2    C1 8831   3.685   3.188  16.941  0.0862  0.1536  0.6514
  596MPD2    C2 8832   3.684   3.181  16.804  0.1130 -0.2545  0.0704
  596MPD2    C3 8833   3.719   3.063  16.741 -0.9902 -0.3860 -0.6674
  596MPD2    C4 8834   3.759   2.958  16.824 -0.0901 -0.1255 -0.5879
  596MPD2    C5 8835   3.752   2.966  16.960  0.8064 -0.0403 -0.0205
  596MPD2     H 8836   3.640   3.263  16.749  0.2874 -0.4028 -0.2893
  596MPD2    H1 8837   3.805   2.867  16.788 -2.8603 -0.3002 -3.7330
  596MPD2    H2 8838   3.701   3.079  17.125 -0.8010  0.5655 -0.4354
  596MPD2    H3 8839   3.783   2.878  17.015 -0.1097  0.1529  0.8098
  596MPD2     N 8840   3.723   3.045  16.599 -0.2754 -0.0289  0.1831
  596MPD2    H5 8841   3.752   2.955  16.563 -0.9138  0.2376 -0.9781
  596MPD2    N1 8842   3.637   3.308  16.998 -0.0822 -0.4334  0.2002
  596MPD2    H7 8843   3.634   3.386  16.933 -1.9482  0.2624  1.1250
  597TMC3    C1 8844   3.544   3.446  17.157  0.4731 -0.1663 -0.1767
  597TMC3    C2 8845   3.627   3.546  17.114  0.2836 -0.3787  0.1494
  597TMC3    C3 8846   3.589   3.670  17.151 -0.2005 -0.6773  0.7051
  597TMC3    C4 8847   3.422   3.476  17.220  0.2775  0.1883  0.6231
  597TMC3    C5 8848   3.385   3.609  17.243 -0.0377  0.4456 -0.6630
  597TMC3    C6 8849   3.465   3.704  17.206  0.3297 -0.5363 -0.0426
  597TMC3     C 8850   3.580   3.314  17.125 -0.4842  0.2026 -0.0082
  597TMC3     O 8851   3.539   3.224  17.199  0.0893 -0.3833 -0.0177
  597TMC3     H 8852   3.730   3.528  17.088  0.4599 -0.7280  1.0701
  597TMC3    H1 8853   3.360   3.390  17.245  1.1889 -0.2365  1.4160
  597TMC3    H2 8854   3.443   3.810  17.217  0.5066 -0.6410  1.3159
  597TMC3    C7 8855   3.247   3.626  17.264 -0.2721  0.0045 -0.1629
  597TMC3    C8 8856   3.698   3.769  17.163 -0.4312  0.9722 -0.2156
  597TMC3    O1 8857   3.185   3.521  17.297  0.0861 -0.0921 -0.4961
  597TMC3    O2 8858   3.672   3.859  17.238  0.2321 -0.0397  0.7502
  598TMC3    C1 8859   1.487   4.302  15.421  0.4121  0.0572  0.3929
  598TMC3    C2 8860   1.374   4.236  15.403 -0.1318 -0.1373  0.2466
  598TMC3    C3 8861   1.278   4.299  15.326  0.1881  0.5990 -0.0035
  598TMC3    C4 8862   1.517   4.424  15.368 -0.0895 -0.5544  0.0417
  598TMC3    C5 8863   1.413   4.493  15.308 -0.1631 -0.1724  0.4336
  598TMC3    C6 8864   1.289   4.431  15.297  0.6592 -0.2757 -0.3574
  598TMC3     C 8865   1.589   4.241  15.504 -0.3437 -0.3144  0.2051
  598TMC3     O 8866   1.702   4.292  15.505 -0.4658  0.0885  0.5034
  598TMC3     H 8867   1.362   4.130  15.421 -2.0888 -0.2883 -1.9083
  598TMC3    H1 8868   1.614   4.472  15.376  0.2483 -1.1467 -0.5196
  598TMC3    H2 8869   1.212   4.487  15.246  1.9080  1.0315 -0.8046
  598TMC3    C7 8870   1.444   4.547  15.175 -0.1192 -0.2023 -0.4853
  598TMC3    C8 8871   1.166   4.211  15.287 -0.1636  0.1312  0.1937
  598TMC3    O1 8872   1.370   4.510  15.082  0.6024  0.3022 -0.1339
  598TMC3    O2 8873   1.136   4.114  15.356 -0.3791  0.4295  0.1348
  599MPD2     C 8874   1.651   2.333  16.327 -0.2099  0.2398 -0.5582
  599MPD2    C1 8875   1.589   2.210  16.319 -0.3040 -0.1362  0.1134
  599MPD2    C2 8876   1.466   2.185  16.379 -0.0103 -0.4421  0.5392
  599MPD2    C3 8877   1.400   2.281  16.454 -0.0688 -0.6530 -0.5917
  599MPD2    C4 8878   1.477   2.390  16.484  0.6284 -0.9273  0.1934
  599MPD2    C5 8879   1.598   2.415  16.426  0.0099 -1.1260 -0.0243
  599MPD2     H 8880   1.419   2.088  16.376 -1.3417  0.1528  1.9368
  599MPD2    H1 8881   1.437   2.462  16.555  0.2755  0.4937 -1.4518
  599MPD2    H2 8882   1.739   2.364  16.272  1.3160  0.8184  2.1764
  599MPD2    H3 8883   1.645   2.512  16.438  0.6742 -1.4026 -0.4145
  599MPD2     N 8884   1.274   2.275  16.506 -0.1304  0.3407 -0.1045
  599MPD2    H5 8885   1.252   2.349  16.572 -0.1752  0.5626 -0.3675
  599MPD2    N1 8886   1.667   2.114  16.252 -0.5183 -0.0792  0.8438
  599MPD2    H7 8887   1.749   2.156  16.211 -0.1819 -2.4067 -0.8892
  600TMC3    C1 8888   1.068   2.185  16.563 -0.0090 -0.2123 -0.7372
  600TMC3    C2 8889   1.041   2.083  16.648 -0.2387 -0.1428  0.1142
  600TMC3    C3 8890   0.923   2.098  16.723  0.1990 -0.2226  0.1917
  600TMC3    C4 8891   1.008   2.309  16.573 -0.5761 -0.6618 -0.4173
  600TMC3    C5 8892   0.901   2.323  16.656  0.3816 -0.9867 -0.4966
  600TMC3    C6 8893   0.855   2.217  16.741  0.0122 -0.3184  0.0418
  600TMC3     C 8894   1.187   2.170  16.485 -0.6381  0.2239  0.3874
  600TMC3     O 8895   1.201   2.067  16.428 -0.2455  0.4637 -0.1889
  600TMC3     H 8896   1.079   1.985  16.621 -0.5756  0.6768 -3.4189
  600TMC3    H1 8897   1.035   2.382  16.498 -1.0525 -0.9255 -0.8430
  600TMC3    H2 8898   0.768   2.218  16.806 -0.5637 -0.9646 -0.7180
  600TMC3    C7 8899   0.841   2.450  16.671 -0.3592  0.7304  0.6103
  600TMC3    C8 8900   0.894   1.993  16.816 -0.2587  0.3732 -0.4669
  600TMC3    O1 8901   0.738   2.467  16.736 -0.5534 -0.0582  0.7658
  600TMC3    O2 8902   0.981   1.961  16.896  0.0648  0.0396  0.9330
  601MPD2     C 8903   3.785   0.257  17.613 -0.2375  0.0847 -0.1429
  601MPD2    C1 8904   3.663   0.197  17.604  0.4004 -0.7591  0.0204
  601MPD2    C2 8905   3.648   0.063  17.617  0.6694  1.0804  0.2668
  601MPD2    C3 8906   3.750   4.706  17.642 -0.5107  0.3004  0.1392
  601MPD2    C4 8907   3.879   0.034  17.636 -0.5043 -0.1505 -0.0548
  601MPD2    C5 8908   3.892   0.172  17.631  0.3608 -0.5348  0.5278
  601MPD2     H 8909   3.547   0.026  17.605  1.4776 -0.2573 -2.5111
  601MPD2    H1 8910   3.969   4.699  17.653  0.6883  1.6278 -0.3279
  601MPD2    H2 8911   3.807   0.363  17.608  0.7342 -0.1084  0.0460
  601MPD2    H3 8912   3.993   0.210  17.630 -0.7539  2.4386  0.4773
  601MPD2     N 8913   3.738   4.566  17.661 -0.4230 -0.2429  0.2042
  601MPD2    H5 8914   3.825   4.515  17.666 -1.2412 -1.3436  3.1660
  601MPD2    N1 8915   3.537   0.267  17.601 -0.1533 -0.6818 -0.3714
  601MPD2    H7 8916   3.448   0.219  17.608  0.4014 -1.5334  1.0379
  602TMC3    C1 8917   3.399   0.466  17.592  0.2629 -0.5440  0.4578
  602TMC3    C2 8918   3.392   0.602  17.634 -0.2023  0.3102 -0.2678
  602TMC3    C3 8919   3.274   0.666  17.646  0.2564  0.1803  0.1490
  602TMC3    C4 8920   3.270   0.396  17.592 -0.4515 -0.6574 -0.3225
  602TMC3    C5 8921   3.156   0.465  17.598 -0.6017 -0.0063 -0.2921
  602TMC3    C6 8922   3.155   0.601  17.628 -0.5680 -0.1513 -0.3184
  602TMC3     C 8923   3.530   0.408  17.580 -0.0498  0.6693  0.2640
  602TMC3     O 8924   3.622   0.489  17.569  0.1161 -0.3836 -0.5824
  602TMC3     H 8925   3.485   0.658  17.635  1.0370 -1.6845 -2.5584
  602TMC3    H1 8926   3.266   0.291  17.567 -2.8464 -1.0275  1.7377
  602TMC3    H2 8927   3.062   0.656  17.643 -0.5781 -0.0093 -0.9179
  602TMC3    C7 8928   3.029   0.400  17.615  0.2542  0.1335 -0.1030
  602TMC3    C8 8929   3.272   0.811  17.682  0.1824  0.4750  0.2634
  602TMC3    O1 8930   3.036   0.277  17.632  0.6442  0.7464 -0.5255
  602TMC3    O2 8931   3.371   0.878  17.656 -0.2450  0.4736  0.2124
  603TMC3    C1 8932   1.709   0.807  10.485 -0.0050 -0.1893  0.2656
  603TMC3    C2 8933   1.724   0.740  10.602  0.1692 -0.3832  0.1842
  603TMC3    C3 8934   1.772   0.815  10.710 -0.5450 -0.2058  0.0590
  603TMC3    C4 8935   1.702   0.945  10.485  0.2730 -0.4985 -0.2906
  603TMC3    C5 8936   1.735   1.015  10.591 -0.2628 -0.3947 -0.5187
  603TMC3    C6 8937   1.790   0.950  10.703 -0.7287 -0.9639  0.8795
  603TMC3     C 8938   1.635   0.744  10.378  0.2475 -0.2433 -0.8555
  603TMC3     O 8939   1.612   0.813  10.279 -0.7057  0.5658 -0.0998
  603TMC3     H 8940   1.713   0.635  10.626 -0.0997 -0.3105  0.3799
  603TMC3    H1 8941   1.665   0.993  10.395  1.6902  0.8628 -0.1467
  603TMC3    H2 8942   1.802   1.013  10.790 -0.1415  0.5944 -0.3454
  603TMC3    C7 8943   1.738   1.164  10.597  0.2377  0.0782 -0.3242
  603TMC3    C8 8944   1.781   0.748  10.841 -0.4772 -0.4039  0.7088
  603TMC3    O1 8945   1.818   1.218  10.678 -0.0828 -0.7785 -0.2043
  603TMC3    O2 8946   1.760   0.628  10.844 -1.1915 -0.6225 -0.3887
  604MPD2     C 8947   2.339   3.989  16.463 -0.3372  0.0407  0.3228
  604MPD2    C1 8948   2.249   4.016  16.368  0.2539 -0.2078  0.6762
  604MPD2    C2 8949   2.283   4.001  16.230 -0.0452  0.1663 -0.2349
  604MPD2    C3 8950   2.406   3.938  16.210 -0.7807  0.1136  0.3037
  604MPD2    C4 8951   2.497   3.919  16.315 -0.2165 -0.1431 -0.0237
  604MPD2    C5 8952   2.467   3.950  16.438  0.2946 -0.3937 -0.4213
  604MPD2     H 8953   2.224   4.032  16.145  0.2398  2.7367  0.4947
  604MPD2    H1 8954   2.597   3.882  16.295 -1.1111 -1.9752 -1.1178
  604MPD2    H2 8955   2.321   4.011  16.568  2.4371 -0.7595  0.9537
  604MPD2    H3 8956   2.539   3.938  16.519  0.4444  2.0099 -0.1960
  604MPD2     N 8957   2.447   3.916  16.076 -0.2318  0.1621  0.1369
  604MPD2    H5 8958   2.381   3.947  16.006 -0.8266 -2.9005 -0.6563
  604MPD2    N1 8959   2.132   4.074  16.417  0.0595 -0.2440  0.0862
  604MPD2    H7 8960   2.121   4.077  16.517 -1.3758 -0.6536 -0.0584
  605TMC3    C1 8961   1.942   4.218  16.427 -0.1329 -0.5668 -0.5929
  605TMC3    C2 8962   1.965   4.233  16.559  0.4395  0.2118  0.0167
  605TMC3    C3 8963   1.929   4.352  16.617 -0.5043 -0.0150 -0.0792
  605TMC3    C4 8964   1.859   4.306  16.356  0.6942 -0.3405  0.4012
  605TMC3    C5 8965   1.810   4.417  16.432 -0.1976 -1.4402 -0.1690
  605TMC3    C6 8966   1.848   4.441  16.558  0.1208  0.0031  0.0388
  605TMC3     C 8967   2.033   4.133  16.338  0.3577 -0.0631 -0.1680
  605TMC3     O 8968   2.016   4.141  16.216  0.0801 -0.3147  0.1207
  605TMC3     H 8969   2.026   4.165  16.617 -0.4163  0.4649  1.2188
  605TMC3    H1 8970   1.861   4.309  16.248 -1.6570  0.0456  0.3760
  605TMC3    H2 8971   1.813   4.530  16.609  1.1812  0.6345 -0.3447
  605TMC3    C7 8972   1.692   4.481  16.375 -0.0228  0.1053 -0.4258
  605TMC3    C8 8973   2.006   4.401  16.737  0.1590  0.3113  0.4151
  605TMC3    O1 8974   1.645   4.588  16.425  0.0287  0.0262  0.0676
  605TMC3    O2 8975   2.055   4.312  16.806  0.1724 -0.3050  0.3744
  606TMC3    C1 8976   3.510   2.068  16.312 -0.0209  0.4842  0.1617
  606TMC3    C2 8977   3.605   2.081  16.415  0.3698 -0.8858  0.9003
  606TMC3    C3 8978   3.560   2.155  16.518  0.9963 -0.5521 -0.6608
  606TMC3    C4 8979   3.389   2.122  16.312  0.0182  0.1591  0.3258
  606TMC3    C5 8980   3.357   2.181  16.435 -0.8557  0.1723 -0.2595
  606TMC3    C6 8981   3.440   2.210  16.535  0.7483  0.0587 -0.1677
  606TMC3     C 8982   3.521   1.959  16.219 -0.5357  0.1742 -0.3425
  606TMC3     O 8983   3.444   1.864  16.226  0.0155 -0.3187 -0.0946
  606TMC3     H 8984   3.709   2.052  16.406  0.3248  0.2655 -3.3921
  606TMC3    H1 8985   3.309   2.102  16.242  0.9098  0.9297 -0.9181
  606TMC3    H2 8986   3.415   2.258  16.629  2.6567 -1.0031  0.8823
  606TMC3    C7 8987   3.214   2.189  16.458  0.1734  0.0952 -0.3843
  606TMC3    C8 8988   3.649   2.162  16.637 -0.4429 -0.4355  0.4857
  606TMC3    O1 8989   3.142   2.202  16.362  0.0018 -0.1982 -0.0482
  606TMC3    O2 8990   3.648   2.266  16.695  0.3382  0.3315  0.0752
  607MPD2     C 8991   0.538   0.650  11.691  0.7113 -0.3513 -1.3069
  607MPD2    C1 8992   0.576   0.689  11.818  0.3200  0.4490  0.0671
  607MPD2    C2 8993   0.571   0.591  11.923  0.1139 -1.0160 -0.3057
  607MPD2    C3 8994   0.544   0.457  11.899 -0.2344  0.4653 -0.1393
  607MPD2    C4 8995   0.495   0.423  11.770 -0.4264 -0.9611  0.5395
  607MPD2    C5 8996   0.489   0.521  11.671  0.4599  0.0065 -0.1001
  607MPD2     H 8997   0.593   0.617  12.026 -1.3728  2.1869 -0.7887
  607MPD2    H1 8998   0.461   0.325  11.740 -0.5110 -1.1656  1.3055
  607MPD2    H2 8999   0.532   0.717  11.606  1.1568  1.2741 -0.0500
  607MPD2    H3 9000   0.436   0.504  11.577  0.1797  1.0905 -0.1420
  607MPD2     N 9001   0.574   0.364  12.002 -0.1064  0.4133  0.5890
  607MPD2    H5 9002   0.605   0.413  12.086 -1.0081  1.3044  0.3891
  607MPD2    N1 9003   0.605   0.816  11.845 -0.1731  0.3728  0.1068
  607MPD2    H7 9004   0.632   0.836  11.941  0.4870  0.2599 -0.0606
  608TMC3    C1 9005   0.704   1.029  11.820 -0.2353  0.7591 -0.5327
  608TMC3    C2 9006   0.724   1.020  11.961 -0.7276 -0.1156  0.2304
  608TMC3    C3 9007   0.843   1.068  12.019 -0.0987  0.3112 -0.5207
  608TMC3    C4 9008   0.811   1.072  11.749  0.3472  0.8548 -0.3374
  608TMC3    C5 9009   0.927   1.119  11.811  0.0365 -0.0731 -1.1956
  608TMC3    C6 9010   0.944   1.129  11.950 -0.6405 -0.6874  0.6138
  608TMC3     C 9011   0.634   0.916  11.754 -0.0596  0.5370 -0.5073
  608TMC3     O 9012   0.638   0.911  11.632  0.0794 -0.2408  0.2244
  608TMC3     H 9013   0.653   0.985  12.036 -0.5486  0.8231  0.8484
  608TMC3    H1 9014   0.805   1.061  11.642  0.3441 -2.8754  0.0577
  608TMC3    H2 9015   1.028   1.176  11.999 -1.4276 -0.1427  1.4522
  608TMC3    C7 9016   1.036   1.162  11.722 -0.0722  0.3068  0.4161
  608TMC3    C8 9017   0.889   1.021  12.146 -0.5638 -0.1846 -0.0027
  608TMC3    O1 9018   1.051   1.111  11.610  0.1994  0.3016 -0.2177
  608TMC3    O2 9019   0.959   1.093  12.213  0.3837  0.0635  0.0656
  609TMC3    C1 9020   3.652   3.179   9.520 -0.6225 -0.1745  0.3070
  609TMC3    C2 9021   3.585   3.099   9.426 -0.6087  0.4286 -0.1015
  609TMC3    C3 9022   3.608   2.964   9.419  0.1387  0.4709  0.0161
  609TMC3    C4 9023   3.744   3.122   9.602 -0.2587  0.1908  0.5048
  609TMC3    C5 9024   3.760   2.984   9.595 -0.0758 -0.3529 -0.2431
  609TMC3    C6 9025   3.699   2.908   9.498  0.0271  0.0032  0.3380
  609TMC3     C 9026   3.631   3.322   9.523  0.1032  0.1348 -0.6859
  609TMC3     O 9027   3.600   3.366   9.415  0.7450  0.4467  0.7656
  609TMC3     H 9028   3.516   3.148   9.358 -0.2269 -1.4135 -1.8297
  609TMC3    H1 9029   3.820   3.187   9.643 -0.5842 -0.2464  1.7890
  609TMC3    H2 9030   3.720   2.802   9.505  2.2012  0.4970  1.3043
  609TMC3    C7 9031   3.898   2.952   9.639  0.5529 -0.3916 -0.7141
  609TMC3    C8 9032   3.526   2.883   9.328 -0.2952  0.9540  0.1780
  609TMC3    O1 9033   3.933   3.012   9.736  0.3009  0.3565 -0.5302
  609TMC3    O2 9034   3.545   2.761   9.313 -0.4151 -0.1379 -0.6492
  610TMC3    C1 9035   1.902   0.781  12.171  0.7678 -0.5870 -0.5891
  610TMC3    C2 9036   1.897   0.703  12.064 -0.3164  0.2178 -0.1245
  610TMC3    C3 9037   1.862   0.571  12.088 -0.7014 -0.5493 -0.3000
  610TMC3    C4 9038   1.875   0.743  12.295  1.3368  0.4020 -0.3029
  610TMC3    C5 9039   1.834   0.619  12.314  0.1918 -0.2101  0.2796
  610TMC3    C6 9040   1.819   0.529  12.209  0.2117  0.3486 -0.0915
  610TMC3     C 9041   1.890   0.920  12.146  0.7915 -0.7176 -0.6110
  610TMC3     O 9042   1.900   0.958  12.030  0.3951  0.0578 -0.0269
  610TMC3     H 9043   1.922   0.745  11.967 -0.0140 -1.6039 -0.8364
  610TMC3    H1 9044   1.899   0.798  12.385 -1.8256 -0.5289  1.1150
  610TMC3    H2 9045   1.796   0.427  12.239  0.4630 -0.0362 -1.2254
  610TMC3    C7 9046   1.867   0.562  12.444 -0.0560  0.1399 -0.7559
  610TMC3    C8 9047   1.848   0.475  11.988  0.4828 -0.4058 -0.0210
  610TMC3    O1 9048   1.941   0.465  12.435 -0.4173  0.5113 -0.4978
  610TMC3    O2 9049   1.789   0.368  12.016  0.1408  1.0657 -0.2953
  611MPD2     C 9050   1.106   0.952   9.737  0.1915  0.3339 -0.4628
  611MPD2    C1 9051   1.015   1.025   9.810 -0.1089 -0.5525  0.0668
  611MPD2    C2 9052   1.052   1.158   9.843 -0.0791 -1.1196 -0.1911
  611MPD2    C3 9053   1.165   1.214   9.791  0.3883 -0.8339 -0.3925
  611MPD2    C4 9054   1.256   1.136   9.720  0.1843  0.3382 -0.2852
  611MPD2    C5 9055   1.229   1.007   9.706  0.0711 -0.4407  0.3069
  611MPD2     H 9056   0.996   1.222   9.910  0.1474 -1.1558  0.0317
  611MPD2    H1 9057   1.350   1.166   9.675  0.2194  0.0838 -0.3807
  611MPD2    H2 9058   1.087   0.850   9.707 -2.0628  0.2935  1.1350
  611MPD2    H3 9059   1.294   0.949   9.642  0.5192 -1.2835  1.5229
  611MPD2     N 9060   1.200   1.353   9.819 -0.4228  0.0339  0.1290
  611MPD2    H5 9061   1.292   1.380   9.786  0.3683 -0.9985  1.4663
  611MPD2    N1 9062   0.893   0.967   9.856 -0.1308 -0.8589 -0.2885
  611MPD2    H7 9063   0.875   0.872   9.825  1.2011 -1.6030  1.2552
  612TMC3    C1 9064   1.192   1.569   9.896  0.0167  0.1801 -0.1516
  612TMC3    C2 9065   1.300   1.552   9.971  0.3651  0.6597  0.1873
  612TMC3    C3 9066   1.357   1.664  10.027  0.1410  0.1201 -0.1873
  612TMC3    C4 9067   1.134   1.696   9.879 -1.2197  1.0549 -0.1551
  612TMC3    C5 9068   1.192   1.803   9.937 -0.6878  0.3325 -0.3800
  612TMC3    C6 9069   1.312   1.793  10.005 -0.7656 -0.4700  0.1453
  612TMC3     C 9070   1.112   1.450   9.869 -0.1132  0.3563  0.1149
  612TMC3     O 9071   0.989   1.460   9.861  0.9438 -0.1204 -0.9628
  612TMC3     H 9072   1.348   1.456   9.987 -1.8563 -0.3342  0.8542
  612TMC3    H1 9073   1.032   1.708   9.843 -2.0198 -1.2178  1.3157
  612TMC3    H2 9074   1.369   1.879  10.037  2.5447 -2.2387 -1.0562
  612TMC3    C7 9075   1.105   1.909   9.961  0.7661  0.2313  0.6005
  612TMC3    C8 9076   1.480   1.649  10.109  0.2726 -0.2180  0.2451
  612TMC3    O1 9077   1.007   1.939   9.896  0.3930 -0.0910  0.1048
  612TMC3    O2 9078   1.554   1.744  10.120  0.1418 -0.2892  0.1847
  613MPD2     C 9079   0.036   2.849  16.550 -0.0232  0.0711  0.5688
  613MPD2    C1 9080   4.685   2.930  16.467 -0.4529 -0.1435  0.6527
  613MPD2    C2 9081   4.566   2.881  16.399  0.4216 -0.1530 -0.4638
  613MPD2    C3 9082   4.525   2.747  16.416  0.3531 -0.1679 -0.2377
  613MPD2    C4 9083   4.595   2.667  16.506 -0.8152 -0.8655  0.0785
  613MPD2    C5 9084   4.705   2.717  16.574 -0.8434 -0.0005 -0.4649
  613MPD2     H 9085   4.519   2.932  16.315  1.8411  0.6397 -0.7831
  613MPD2    H1 9086   4.573   2.563  16.525 -1.5887 -0.2678  2.4428
  613MPD2    H2 9087   0.132   2.883  16.585  0.2216  0.5302 -0.5657
  613MPD2    H3 9088   0.021   2.642  16.643 -1.4731 -2.0073 -2.2934
  613MPD2     N 9089   4.427   2.687  16.331 -0.2204 -0.4528  0.3444
  613MPD2    H5 9090   4.430   2.586  16.329  0.4500 -0.4411  0.5525
  613MPD2    N1 9091   0.033   3.046  16.420  0.2861  0.2338 -0.7139
  613MPD2    H7 9092   0.135   3.037  16.422  0.3743  0.9988 -1.6348
  614TMC3    C1 9093   0.055   3.208  16.253  0.2252  0.3088 -0.6527
  614TMC3    C2 9094   0.138   3.118  16.193 -0.1112  0.0799  0.3024
  614TMC3    C3 9095   0.158   3.127  16.061  0.0537  0.2046  0.2951
  614TMC3    C4 9096   4.708   3.297  16.178  0.0417  0.4041 -0.5160
  614TMC3    C5 9097   0.014   3.300  16.047  0.1137 -0.1609  0.3370
  614TMC3    C6 9098   0.108   3.228  15.981  0.3335 -0.2283 -0.2044
  614TMC3     C 9099   4.692   3.150  16.355 -0.1163 -0.1981 -0.1681
  614TMC3     O 9100   4.572   3.177  16.361 -0.0367  0.6336 -0.4767
  614TMC3     H 9101   0.193   3.041  16.244  1.0775 -0.4002 -1.7051
  614TMC3    H1 9102   4.641   3.365  16.229 -2.4123 -1.7306 -0.9333
  614TMC3    H2 9103   0.128   3.231  15.875 -1.1218 -0.4052 -0.4892
  614TMC3    C7 9104   4.644   3.388  15.968  0.2790  0.1317  0.1067
  614TMC3    C8 9105   0.147   2.991  16.003  0.1409 -0.0634 -0.2340
  614TMC3    O1 9106   4.603   3.489  16.025 -0.3414 -0.3357  0.4157
  614TMC3    O2 9107   0.090   2.913  16.080 -0.6276 -0.2539  0.2723
  615MPD2     C 9108   3.621   4.339  16.426 -0.3656  0.1168 -0.2488
  615MPD2    C1 9109   3.701   4.401  16.337  0.4470 -0.0885  0.3022
  615MPD2    C2 9110   3.659   4.433  16.206 -0.0178 -0.4124 -0.0090
  615MPD2    C3 9111   3.540   4.383  16.156  0.2634  0.7322  0.0779
  615MPD2    C4 9112   3.466   4.311  16.251  0.4151  0.0544 -0.5699
  615MPD2    C5 9113   3.508   4.290  16.380 -0.1012  0.4212 -0.0590
  615MPD2     H 9114   3.725   4.494  16.145  0.8537  1.2477  2.5741
  615MPD2    H1 9115   3.374   4.259  16.225  0.2469  0.5010 -0.8567
  615MPD2    H2 9116   3.649   4.318  16.528 -0.0808 -0.6616 -0.4867
  615MPD2    H3 9117   3.448   4.230  16.448  0.0750 -1.8655 -1.8952
  615MPD2     N 9118   3.499   4.391  16.018 -0.1364 -0.1223 -0.6003
  615MPD2    H5 9119   3.399   4.381  16.003 -0.1135 -0.6956 -0.3721
  615MPD2    N1 9120   3.833   4.441  16.367 -0.4137  0.1051 -0.0000
  615MPD2    H7 9121   3.881   4.496  16.296  0.0417 -0.7651 -0.3732
  616TMC3    C1 9122   4.000   4.521  16.498 -0.3079 -0.3167 -0.0375
  616TMC3    C2 9123   4.080   4.541  16.394  0.3023 -0.6510  0.2201
  616TMC3    C3 9124   4.203   4.599  16.424  0.7249 -1.0425  0.3299
  616TMC3    C4 9125   4.043   4.548  16.626 -0.0821  0.7014 -1.3313
  616TMC3    C5 9126   4.165   4.601  16.653 -0.4544 -0.1338 -0.8735
  616TMC3    C6 9127   4.246   4.635  16.552  0.2083  0.1569 -0.0532
  616TMC3     C 9128   3.879   4.443  16.494 -0.0638  0.5843  0.5097
  616TMC3     O 9129   3.837   4.390  16.594 -0.2429 -0.3320  0.0569
  616TMC3     H 9130   4.051   4.527  16.290 -0.5426  4.0782 -0.1801
  616TMC3    H1 9131   3.973   4.533  16.707  1.7034 -2.4747 -0.3927
  616TMC3    H2 9132   4.318   4.712  16.576  0.6838  1.0523 -4.2115
  616TMC3    C7 9133   4.195   4.631  16.787 -0.0954  0.1677  0.1652
  616TMC3    C8 9134   4.281   4.654  16.317  0.4220  0.2470 -0.0405
  616TMC3    O1 9135   4.097   4.641  16.861 -0.3103 -0.2601  0.1092
  616TMC3    O2 9136   4.243   4.633  16.204  0.9252 -0.3422  0.3911
  617MPD2     C 9137   1.899   2.930  14.061 -0.3765  0.4113 -0.4273
  617MPD2    C1 9138   1.898   2.869  14.185  0.5822  0.0410 -0.4980
  617MPD2    C2 9139   1.773   2.857  14.249  0.5541  0.1104 -0.6490
  617MPD2    C3 9140   1.654   2.904  14.193  0.2222  0.2305  0.1099
  617MPD2    C4 9141   1.661   2.965  14.069 -0.0235  0.2194 -0.1181
  617MPD2    C5 9142   1.781   2.975  14.003  0.0250  0.3732  0.0425
  617MPD2     H 9143   1.768   2.802  14.342 -0.9130  2.1883  0.4898
  617MPD2    H1 9144   1.571   2.992  14.015  1.6371  2.4329 -1.7363
  617MPD2    H2 9145   1.986   2.932  13.996  1.7621  0.5419  2.4332
  617MPD2    H3 9146   1.779   3.020  13.904  2.3559  0.0077 -0.1817
  617MPD2     N 9147   1.529   2.895  14.253 -0.3380  0.7378  0.7333
  617MPD2    H5 9148   1.448   2.928  14.202  2.0266  1.2329 -2.6982
  617MPD2    N1 9149   2.011   2.798  14.224  0.5136  0.8789 -0.0158
  617MPD2    H7 9150   2.103   2.818  14.186 -0.2776  0.3238 -2.1953
  618TMC3    C1 9151   2.146   2.645  14.318 -0.1218 -0.6792  0.3262
  618TMC3    C2 9152   2.172   2.520  14.271  0.0886  0.5367  0.8193
  618TMC3    C3 9153   2.296   2.468  14.303 -0.0819 -0.0697 -0.5341
  618TMC3    C4 9154   2.242   2.725  14.373 -0.4033 -0.4721 -0.1520
  618TMC3    C5 9155   2.364   2.668  14.399 -0.2530 -0.4606  0.2606
  618TMC3    C6 9156   2.390   2.536  14.367  0.0417  0.3314  0.5112
  618TMC3     C 9157   2.007   2.683  14.300  0.4651  0.6691  0.0837
  618TMC3     O 9158   1.918   2.600  14.311 -0.1151 -0.0864 -0.3101
  618TMC3     H 9159   2.091   2.471  14.220 -0.8852  2.4292  0.5542
  618TMC3    H1 9160   2.215   2.827  14.398  0.8107 -0.3419  0.6264
  618TMC3    H2 9161   2.485   2.498  14.401  0.6032 -0.3842 -1.8552
  618TMC3    C7 9162   2.463   2.740  14.477  0.5069 -0.3802  0.7936
  618TMC3    C8 9163   2.352   2.391  14.190 -0.4813 -0.0156  0.1605
  618TMC3    O1 9164   2.424   2.757  14.594  0.3854  0.5313  0.2710
  618TMC3    O2 9165   2.269   2.327  14.128 -0.0035 -0.0877 -0.4105
  619MPD2     C 9166   3.595   3.932  13.666 -0.9877 -0.6735  0.0193
  619MPD2    C1 9167   3.509   3.978  13.563  0.6659  0.3352  1.2564
  619MPD2    C2 9168   3.374   3.978  13.580 -0.0827  0.2082 -0.1115
  619MPD2    C3 9169   3.320   3.941  13.704  0.2897 -0.1297  0.1849
  619MPD2    C4 9170   3.406   3.910  13.809  0.3007  0.4224  0.3389
  619MPD2    C5 9171   3.541   3.908  13.790 -0.7187  0.7150 -0.5595
  619MPD2     H 9172   3.318   3.999  13.489 -1.9866 -0.8010  0.8283
  619MPD2    H1 9173   3.364   3.884  13.905  0.2991  0.5375  0.3688
  619MPD2    H2 9174   3.701   3.918  13.653 -0.6677  0.4077  1.4736
  619MPD2    H3 9175   3.603   3.886  13.877  0.8311  0.9728 -1.6026
  619MPD2     N 9176   3.184   3.948  13.738 -0.3298 -0.2400  0.0458
  619MPD2    H5 9177   3.162   3.922  13.833 -0.3242  1.3210  0.4774
  619MPD2    N1 9178   3.548   4.020  13.439 -0.2444  0.5380  0.1181
  619MPD2    H7 9179   3.473   4.057  13.382  0.5055  0.3919 -0.9530
  620TMC3    C1 9180   3.682   4.089  13.269  0.5840 -0.3973  0.3794
  620TMC3    C2 9181   3.561   4.101  13.199 -0.0548  0.0766  0.2971
  620TMC3    C3 9182   3.544   4.207  13.110 -0.4668  0.2921  0.7253
  620TMC3    C4 9183   3.782   4.181  13.259 -0.0541  0.2095  0.0649
  620TMC3    C5 9184   3.754   4.288  13.182 -0.1574  0.5057  0.4175
  620TMC3    C6 9185   3.646   4.294  13.102  0.5976 -0.2170  0.7898
  620TMC3     C 9186   3.675   4.035  13.397  0.2308 -0.4403  0.6152
  620TMC3     O 9187   3.788   4.015  13.452 -0.1753 -0.1341 -0.3265
  620TMC3     H 9188   3.478   4.032  13.212 -2.9833  3.7093  0.7487
  620TMC3    H1 9189   3.878   4.168  13.307  0.2651 -1.6298 -1.1033
  620TMC3    H2 9190   3.629   4.374  13.031  0.4273 -0.0658  1.0023
  620TMC3    C7 9191   3.796   4.415  13.240 -0.2378  0.7234 -0.0778
  620TMC3    C8 9192   3.415   4.271  13.139  0.4392 -0.5275  0.4274
  620TMC3    O1 9193   3.910   4.425  13.283 -0.5264 -0.4070  0.1334
  620TMC3    O2 9194   3.425   4.386  13.167  0.1034 -0.3373 -0.2878
  621MPD2     C 9195   3.409   4.422  10.504 -0.6306 -0.9785  0.1598
  621MPD2    C1 9196   3.519   4.340  10.473  0.4664 -0.2446 -0.5235
  621MPD2    C2 9197   3.598   4.378  10.368  0.2748 -0.0337  0.1792
  621MPD2    C3 9198   3.592   4.506  10.312 -0.2716  0.2124 -0.7114
  621MPD2    C4 9199   3.489   4.594  10.341 -1.1461 -0.7099  0.2753
  621MPD2    C5 9200   3.402   4.545  10.441  0.0463  0.8860  0.0422
  621MPD2     H 9201   3.675   4.306  10.343  0.4918 -0.7569  2.8799
  621MPD2    H1 9202   3.472   4.689  10.292  0.7531 -0.2112  0.5643
  621MPD2    H2 9203   3.338   4.394  10.580 -1.3091 -2.0206 -0.8696
  621MPD2    H3 9204   3.320   4.608  10.475  1.1441  2.5317 -0.3423
  621MPD2     N 9205   3.686   4.523  10.204  0.0419  0.0190  0.2326
  621MPD2    H5 9206   3.758   4.453  10.189 -0.3513 -0.0737 -1.2179
  621MPD2    N1 9207   3.544   4.214  10.520 -0.4920 -0.2692  0.8471
  621MPD2    H7 9208   3.625   4.165  10.485  0.1399  1.1282  0.3216
  622TMC3    C1 9209   3.527   4.005  10.617  0.0685 -0.4994 -0.5246
  622TMC3    C2 9210   3.496   3.931  10.730  0.2297  0.9541  0.4608
  622TMC3    C3 9211   3.541   3.808  10.731 -0.0300  0.3744  0.6964
  622TMC3    C4 9212   3.597   3.959  10.510  0.7857 -0.9145 -0.5012
  622TMC3    C5 9213   3.640   3.832  10.516  0.1268  0.3469 -0.4223
  622TMC3    C6 9214   3.623   3.752  10.631 -0.3173 -0.1715  0.3702
  622TMC3     C 9215   3.470   4.141  10.612 -0.3902 -0.0747  0.2427
  622TMC3     O 9216   3.361   4.155  10.669 -0.1263  0.5128  0.5798
  622TMC3     H 9217   3.461   3.968  10.825 -3.2103  0.5563 -0.6564
  622TMC3    H1 9218   3.591   4.011  10.415 -0.0071  2.7634  1.5696
  622TMC3    H2 9219   3.651   3.648  10.645  0.9767  0.1930  0.4780
  622TMC3    C7 9220   3.684   3.774  10.394  0.4962  0.1303  0.2646
  622TMC3    C8 9221   3.435   3.713  10.775 -1.1984  1.1179 -0.0224
  622TMC3    O1 9222   3.665   3.831  10.289 -0.2709 -0.2994 -0.1018
  622TMC3    O2 9223   3.461   3.597  10.804 -0.4378 -0.2218 -0.2407
  623MPD2     C 9224   2.535   4.322  16.243  0.1808 -0.6087  0.3955
  623MPD2    C1 9225   2.438   4.339  16.340 -0.6053 -0.5413  0.3281
  623MPD2    C2 9226   2.468   4.292  16.472 -0.2705 -0.0019  0.2254
  623MPD2    C3 9227   2.589   4.229  16.495 -0.5861  0.1274  0.1929
  623MPD2    C4 9228   2.687   4.221  16.400 -0.0661 -0.6778  0.7195
  623MPD2    C5 9229   2.657   4.263  16.274  0.2858  0.3998 -0.2349
  623MPD2     H 9230   2.393   4.302  16.549 -1.3714 -1.0154 -0.7212
  623MPD2    H1 9231   2.788   4.195  16.430  0.6422  0.4476 -0.6710
  623MPD2    H2 9232   2.525   4.358  16.141 -0.8926  0.9730  1.0504
  623MPD2    H3 9233   2.736   4.262  16.200  0.2679  1.3835 -0.2642
  623MPD2     N 9234   2.614   4.206  16.636 -0.0179  0.4390  0.8255
  623MPD2    H5 9235   2.541   4.227  16.703  0.5610  0.9589  1.2922
  623MPD2    N1 9236   2.320   4.405  16.301 -0.0802 -0.0656  0.1864
  623MPD2    H7 9237   2.314   4.431  16.203  0.3856  0.1600  0.2172
  624TMC3    C1 9238   2.885   4.298  17.013  0.5165 -1.0933 -0.3326
  624TMC3    C2 9239   2.789   4.395  17.047  0.0209 -0.5840  0.3079
  624TMC3    C3 9240   2.676   4.415  16.979  0.4999  0.0496 -0.0282
  624TMC3    C4 9241   2.870   4.231  16.893 -0.6222 -0.3148  0.6920
  624TMC3    C5 9242   2.743   4.237  16.830 -0.3899 -0.3597 -0.2789
  624TMC3    C6 9243   2.653   4.338  16.864  0.0165 -0.1008 -0.3299
  624TMC3     C 9244   3.015   4.309  17.076 -1.1267 -0.1611  0.1603
  624TMC3     O 9245   3.027   4.405  17.153 -0.6387 -0.3236 -0.3900
  624TMC3     H 9246   2.790   4.453  17.138 -2.3621 -0.1690  0.0612
  624TMC3    H1 9247   2.942   4.165  16.846 -2.2581  0.2740 -2.6039
  624TMC3    H2 9248   2.566   4.361  16.804 -0.0529 -2.0167 -0.9568
  624TMC3    C7 9249   2.734   4.178  16.689  0.0236 -0.6568 -0.1838
  624TMC3    C8 9250   2.591   4.533  16.997 -0.4210 -0.6199 -0.3593
  624TMC3    O1 9251   2.832   4.110  16.649  0.5750 -0.1343  0.4019
  624TMC3    O2 9252   2.626   4.623  17.068 -0.3605  0.5885 -0.0429
  625MPD2     C 9253   2.973   1.230   0.763 -0.0805  0.3183 -0.0962
  625MPD2    C1 9254   3.042   1.340   0.706  0.2488  0.4318 -0.3994
  625MPD2    C2 9255   3.172   1.317   0.664  0.6744  0.5127 -0.4718
  625MPD2    C3 9256   3.240   1.197   0.686  0.5588 -0.2971 -1.0689
  625MPD2    C4 9257   3.173   1.097   0.754 -0.2993  0.3398  0.0837
  625MPD2    C5 9258   3.048   1.117   0.798  0.0729  0.2896  0.6299
  625MPD2     H 9259   3.217   1.400   0.611 -2.1508  0.4254 -2.9743
  625MPD2    H1 9260   3.217   1.001   0.778  0.1061  0.8083  1.2025
  625MPD2    H2 9261   2.874   1.242   0.806 -0.5673  2.0002 -1.6566
  625MPD2    H3 9262   3.010   1.030   0.850 -2.8036  1.8302  1.0773
  625MPD2     N 9263   3.370   1.178   0.636  0.0073 -0.2202 -0.4542
  625MPD2    H5 9264   3.422   1.254   0.593  0.1982  0.3679  0.8278
  625MPD2    N1 9265   2.981   1.467   0.666 -0.0561  0.1832  0.4417
  625MPD2    H7 9266   3.034   1.536   0.614 -3.6820  1.4505 -1.5725
  626TMC3    C1 9267   2.826   1.629   0.688  0.0813  0.0892  0.4840
  626TMC3    C2 9268   2.803   1.651   0.557  0.2418 -0.1279  0.4636
  626TMC3    C3 9269   2.692   1.720   0.518 -0.3530  1.0440 -0.6536
  626TMC3    C4 9270   2.750   1.688   0.788  0.5613  0.3330  0.4492
  626TMC3    C5 9271   2.636   1.751   0.746 -0.2319  0.0726  0.0100
  626TMC3    C6 9272   2.603   1.772   0.611 -0.0631 -0.1565  0.9033
  626TMC3     C 9273   2.857   1.496   0.722 -0.8502 -1.0223 -0.5834
  626TMC3     O 9274   2.782   1.438   0.797  0.1922 -0.3911 -0.3753
  626TMC3     H 9275   2.872   1.611   0.484 -1.0966  1.0853 -1.4741
  626TMC3    H1 9276   2.779   1.680   0.892 -1.2958 -4.1055  0.6181
  626TMC3    H2 9277   2.523   1.840   0.584 -0.3204 -1.0171 -0.4933
  626TMC3    C7 9278   2.564   1.827   0.849 -0.2165 -0.4512  0.9628
  626TMC3    C8 9279   2.639   1.697   0.385  0.1674 -0.0835  0.1853
  626TMC3    O1 9280   2.619   1.860   0.950 -0.2402  0.1467 -0.3685
  626TMC3    O2 9281   2.716   1.647   0.303 -0.1981 -0.3961  0.1821
  627MPD2     C 9282   1.489   1.772  14.556  0.4714  0.0567 -0.1827
  627MPD2    C1 9283   1.561   1.713  14.654 -0.2329 -0.0699  0.5163
  627MPD2    C2 9284   1.570   1.571  14.657 -0.1267  0.2534  0.9204
  627MPD2    C3 9285   1.500   1.486  14.565 -0.3227  0.4038 -0.7704
  627MPD2    C4 9286   1.440   1.548  14.457 -0.0969  0.0754  0.1798
  627MPD2    C5 9287   1.439   1.688  14.453  0.8298  0.2390 -0.6527
  627MPD2     H 9288   1.631   1.530  14.737 -1.4093 -0.7248  1.4013
  627MPD2    H1 9289   1.388   1.492  14.379 -1.3485  0.0096  1.0490
  627MPD2    H2 9290   1.477   1.878  14.534  0.1785  0.0080 -0.2508
  627MPD2    H3 9291   1.409   1.745  14.366 -0.3217  1.5222  0.5826
  627MPD2     N 9292   1.511   1.345  14.586  0.1379  0.2148  0.2843
  627MPD2    H5 9293   1.553   1.329  14.677 -2.0051  0.3213  1.2978
  627MPD2    N1 9294   1.632   1.776  14.755 -0.0520  0.6863  0.2765
  627MPD2    H7 9295   1.675   1.718  14.827  0.8922  0.9922 -0.0395
  628TMC3    C1 9296   1.697   1.963  14.883 -0.2592 -0.2835  0.5262
  628TMC3    C2 9297   1.798   1.899  14.950  0.1496 -0.8238  0.2988
  628TMC3    C3 9298   1.852   1.961  15.059  0.1705 -0.4109 -0.2593
  628TMC3    C4 9299   1.645   2.084  14.928 -0.1841  0.0352  0.5161
  628TMC3    C5 9300   1.695   2.139  15.043 -0.2430 -0.1972 -0.6003
  628TMC3    C6 9301   1.790   2.072  15.115  0.5924 -0.9356  0.0853
  628TMC3     C 9302   1.644   1.912  14.763  0.2473  0.3427  0.6157
  628TMC3     O 9303   1.611   1.994  14.682 -0.2602  0.2202  0.0450
  628TMC3     H 9304   1.854   1.827  14.891  1.8970 -0.0704  1.0095
  628TMC3    H1 9305   1.562   2.122  14.870 -0.0046 -0.7884 -0.2790
  628TMC3    H2 9306   1.833   2.126  15.198 -1.3540 -0.4673  0.8080
  628TMC3    C7 9307   1.653   2.273  15.091  0.1013 -0.2121 -0.3499
  628TMC3    C8 9308   1.980   1.920  15.104  0.3847  0.6759 -0.5560
  628TMC3    O1 9309   1.703   2.303  15.198  0.4279 -0.0124  0.3381
  628TMC3    O2 9310   2.054   1.991  15.169 -0.0741  0.4063  0.2022
  629MPD2     C 9311   4.658   0.219  16.145 -0.4105  0.2919 -0.2739
  629MPD2    C1 9312   4.706   0.157  16.257 -0.1068  0.1697  0.7828
  629MPD2    C2 9313   4.617   0.071  16.322 -0.0687 -0.2402 -0.2661
  629MPD2    C3 9314   4.488   0.049  16.277  0.0041  0.4904  0.2251
  629MPD2    C4 9315   4.439   0.120  16.172 -0.4003  0.5070  0.6869
  629MPD2    C5 9316   4.526   0.196  16.107  0.8010  0.5573 -0.3857
  629MPD2     H 9317   4.650   0.023  16.414 -1.2290  0.6233  0.5843
  629MPD2    H1 9318   4.344   0.107  16.122 -0.8833 -0.7486  1.9182
  629MPD2    H2 9319   4.721   0.285  16.087 -1.0547  1.7281  0.6745
  629MPD2    H3 9320   4.503   0.245  16.013 -0.1173 -0.2122 -0.5516
  629MPD2     N 9321   4.399   4.701  16.358  0.0628  0.7092  0.2198
  629MPD2    H5 9322   4.438   4.663  16.444  3.5056  3.0337 -0.3215
  629MPD2    N1 9323   0.117   0.182  16.289 -0.3464  0.4838 -0.3764
  629MPD2    H7 9324   0.158   0.265  16.248  0.6036  0.1796 -0.0292
  630TMC3    C1 9325   0.310   0.174  16.414 -0.1282 -0.5053 -0.1819
  630TMC3    C2 9326   0.367   0.271  16.333  0.7927 -0.1940  0.3340
  630TMC3    C3 9327   0.444   0.363  16.398 -0.0080  0.6629  0.0617
  630TMC3    C4 9328   0.360   0.143  16.541 -0.8429  0.3229  0.9323
  630TMC3    C5 9329   0.448   0.236  16.595 -1.0330  0.1705  0.7590
  630TMC3    C6 9330   0.495   0.346  16.526 -0.0308 -0.0718 -0.4506
  630TMC3     C 9331   0.180   0.122  16.389  0.0797 -0.4439 -0.3113
  630TMC3     O 9332   0.142   0.024  16.456 -0.1232  0.4406  0.1031
  630TMC3     H 9333   0.357   0.268  16.225  0.2486 -0.5268  0.3916
  630TMC3    H1 9334   0.311   0.062  16.594 -2.2630  1.0597  0.7432
  630TMC3    H2 9335   0.524   0.432  16.585  0.7569  0.1235 -1.1194
  630TMC3    C7 9336   0.526   0.198  16.713 -0.2423  0.2680  0.0779
  630TMC3    C8 9337   0.523   0.459  16.323  0.4428 -0.2371 -0.4454
  630TMC3    O1 9338   0.470   0.100  16.771  0.1542 -0.0144  0.4787
  630TMC3    O2 9339   0.582   0.543  16.391 -0.6270  0.1501 -0.3288
  631MPD2     C 9340   3.009   0.350  15.820 -0.0402 -0.4701  0.2488
  631MPD2    C1 9341   3.081   0.370  15.707  0.6566 -0.1718 -0.0738
  631MPD2    C2 9342   3.140   0.261  15.648 -0.1914  0.2367  0.0548
  631MPD2    C3 9343   3.125   0.133  15.705 -0.4733  0.6219  0.2849
  631MPD2    C4 9344   3.043   0.120  15.818  0.0396  0.1368 -0.5073
  631MPD2    C5 9345   2.988   0.232  15.877  0.8704  0.4516 -0.2603
  631MPD2     H 9346   3.204   0.266  15.561 -0.4632  1.3894 -0.0821
  631MPD2    H1 9347   3.012   0.029  15.867  0.3072 -0.7071 -1.9407
  631MPD2    H2 9348   2.954   0.430  15.869  0.0874 -0.9523  1.1890
  631MPD2    H3 9349   2.920   0.219  15.961  0.1610  0.7393 -0.7862
  631MPD2     N 9350   3.205   0.021  15.648 -0.0604 -0.1406  0.1682
  631MPD2    H5 9351   3.266   0.048  15.571  0.2497 -2.6899 -0.4617
  631MPD2    N1 9352   3.077   0.505  15.656  0.0905 -0.1379  0.8025
  631MPD2    H7 9353   3.016   0.567  15.707  1.2061 -0.0340  1.9964
  632TMC3    C1 9354   3.045   0.621  15.457 -0.0102 -0.0538 -0.3986
  632TMC3    C2 9355   2.912   0.642  15.500 -0.1076 -0.5486  0.1903
  632TMC3    C3 9356   2.818   0.657  15.406 -0.4331 -0.7561  0.3118
  632TMC3    C4 9357   3.072   0.619  15.324  0.6363 -0.2486 -0.1049
  632TMC3    C5 9358   2.969   0.618  15.233 -0.2774 -0.6087  0.0025
  632TMC3    C6 9359   2.841   0.642  15.273  0.1093 -0.6015 -0.8698
  632TMC3     C 9360   3.129   0.528  15.533 -0.4265  1.2474 -0.0253
  632TMC3     O 9361   3.205   0.466  15.465  0.4260  0.1319 -0.0924
  632TMC3     H 9362   2.879   0.659  15.602  1.5822  0.7707  0.5107
  632TMC3    H1 9363   3.177   0.606  15.300  0.5596  2.1048 -1.7622
  632TMC3    H2 9364   2.776   0.669  15.190 -1.3871 -0.8080  0.2414
  632TMC3    C7 9365   3.006   0.621  15.092  0.1529  0.6224  0.3625
  632TMC3    C8 9366   2.684   0.647  15.452 -0.2576  0.1997 -0.0741
  632TMC3    O1 9367   2.928   0.673  15.009  0.0418 -0.3258  0.3228
  632TMC3    O2 9368   2.664   0.630  15.572  0.0669 -0.1217 -0.3644
  633MPD2     C 9369   2.214   2.811  16.758  0.0671 -0.8225 -0.9343
  633MPD2    C1 9370   2.341   2.794  16.702 -0.0327  0.4880  0.9928
  633MPD2    C2 9371   2.361   2.684  16.616  0.3734 -0.3222  0.2269
  633MPD2    C3 9372   2.262   2.592  16.602  0.1949 -0.0139  0.1972
  633MPD2    C4 9373   2.143   2.606  16.667  0.0165  0.3551  0.1903
  633MPD2    C5 9374   2.119   2.719  16.733 -0.3262  0.0431  0.5307
  633MPD2     H 9375   2.453   2.671  16.560  1.4382 -0.5549  2.0205
  633MPD2    H1 9376   2.073   2.523  16.663  2.2316 -1.5843  1.2730
  633MPD2    H2 9377   2.197   2.897  16.822 -0.4114 -0.3503 -1.6967
  633MPD2    H3 9378   2.022   2.737  16.777 -0.8217 -0.2203 -0.4508
  633MPD2     N 9379   2.276   2.475  16.522  0.2524  0.0632 -0.0109
  633MPD2    H5 9380   2.203   2.406  16.535  3.3428 -3.8293 -3.3538
  633MPD2    N1 9381   2.453   2.874  16.733 -0.1369 -0.1097 -0.1939
  633MPD2    H7 9382   2.544   2.837  16.707  0.0044 -2.3880  3.6053
  634TMC3    C1 9383   2.585   3.051  16.811 -0.0932 -0.7344  0.5604
  634TMC3    C2 9384   2.693   2.978  16.762  0.1587 -0.1300  0.5290
  634TMC3    C3 9385   2.812   3.025  16.790 -0.0865  0.6741  0.5651
  634TMC3    C4 9386   2.599   3.156  16.901  0.4672  1.1566  0.2963
  634TMC3    C5 9387   2.730   3.198  16.927 -0.8631 -0.0428  0.0993
  634TMC3    C6 9388   2.835   3.133  16.875 -0.8872 -0.0569 -0.2272
  634TMC3     C 9389   2.446   2.998  16.784  0.3448 -0.1268 -0.6382
  634TMC3     O 9390   2.347   3.071  16.793  0.6489  0.1160  0.3747
  634TMC3     H 9391   2.687   2.900  16.687 -0.9345  1.2387 -0.7969
  634TMC3    H1 9392   2.515   3.219  16.929 -0.2508  0.6146 -0.6439
  634TMC3    H2 9393   2.931   3.182  16.883 -0.8508 -0.3041  0.8745
  634TMC3    C7 9394   2.745   3.330  16.859  0.4944 -0.2387  0.0648
  634TMC3    C8 9395   2.928   2.961  16.723  0.2905 -0.2091  0.4852
  634TMC3    O1 9396   2.788   3.334  16.743 -0.1682  0.0420 -0.1137
  634TMC3    O2 9397   2.908   2.901  16.620 -0.5208 -0.1849  0.3502
  635TMC3    C1 9398   2.916   3.730  17.660 -0.0362  0.6018  0.1874
  635TMC3    C2 9399   2.896   3.596  17.692 -0.0304 -0.9057 -0.2600
  635TMC3    C3 9400   2.791   3.566   0.079  0.1575  0.7371  0.2946
  635TMC3    C4 9401   2.841   3.833   0.017 -0.2721  0.2906  0.7536
  635TMC3    C5 9402   2.740   3.794   0.105  0.0277 -0.5893 -0.2151
  635TMC3    C6 9403   2.709   3.664   0.132 -0.0765  0.5623 -0.2226
  635TMC3     C 9404   3.050   3.762  17.626 -0.3110  0.4883  0.3492
  635TMC3     O 9405   3.079   3.880  17.639  0.6679  0.2333  0.2025
  635TMC3     H 9406   2.961   3.514  17.663 -0.5104 -1.4570  0.2139
  635TMC3    H1 9407   2.869   3.938   0.009  0.5863  0.0909  1.1527
  635TMC3    H2 9408   2.624   3.637   0.194  0.7646  0.5819  0.9384
  635TMC3    C7 9409   2.677   3.897   0.192  0.0358 -0.3592 -0.4770
  635TMC3    C8 9410   2.795   3.437   0.145 -0.3632 -0.1798  0.3220
  635TMC3    O1 9411   2.569   3.864   0.246  0.1673  0.2216  0.2376
  635TMC3    O2 9412   2.850   3.348   0.083  0.2316 -0.1356  0.2537
  636MPD2     C 9413   4.031   3.271  15.641 -0.3044  0.8575  1.1179
  636MPD2    C1 9414   4.085   3.297  15.768 -0.1768  0.2803  0.0063
  636MPD2    C2 9415   4.145   3.187  15.829  0.6173  0.2720  0.3533
  636MPD2    C3 9416   4.149   3.063  15.765  0.3268 -0.2857 -0.3248
  636MPD2    C4 9417   4.103   3.044  15.633  0.5936  0.0906 -0.1233
  636MPD2    C5 9418   4.035   3.150  15.581  0.3130  0.3460 -0.3531
  636MPD2     H 9419   4.202   3.201  15.921 -1.2903 -0.0320  1.5906
  636MPD2    H1 9420   4.119   2.960  15.566  0.8524 -0.7412  0.9760
  636MPD2    H2 9421   3.975   3.348  15.588 -2.4497 -0.6036  1.2673
  636MPD2    H3 9422   3.994   3.155  15.481 -0.1576 -0.1538 -0.1872
  636MPD2     N 9423   4.207   2.948  15.831  0.6216  0.1561 -0.5864
  636MPD2    H5 9424   4.234   2.960  15.929  1.1427  0.9057 -0.8178
  636MPD2    N1 9425   4.087   3.430  15.832 -0.7060 -0.5865  0.1710
  636MPD2    H7 9426   4.125   3.430  15.926  1.0537 -1.3451 -0.5406
  637TMC3    C1 9427   4.293   2.738  15.875  0.3649 -0.2757 -0.5606
  637TMC3    C2 9428   4.277   2.763  16.009 -0.8287  0.2333 -0.1126
  637TMC3    C3 9429   4.343   2.688  16.101 -0.3227  0.2061 -0.5296
  637TMC3    C4 9430   4.380   2.640  15.834  0.0147 -0.7430  0.6922
  637TMC3    C5 9431   4.458   2.577  15.925  0.3513  0.0032  0.5027
  637TMC3    C6 9432   4.436   2.596  16.061 -1.1208  0.8032 -0.0092
  637TMC3     C 9433   4.245   2.829  15.774 -0.5000  0.2295  0.1830
  637TMC3     O 9434   4.235   2.788  15.659  0.1888  0.0999 -0.8466
  637TMC3     H 9435   4.202   2.832  16.045 -1.2355  0.3512 -1.1910
  637TMC3    H1 9436   4.396   2.617  15.729 -1.2463 -2.2562  0.8274
  637TMC3    H2 9437   4.501   2.548  16.133 -0.4532  1.6857 -0.0244
  637TMC3    C7 9438   4.606   2.570  15.895 -0.2673  0.0223  0.8946
  637TMC3    C8 9439   4.365   2.758  16.233  0.2561  0.2695  0.5051
  637TMC3    O1 9440   4.684   2.540  15.983 -0.3541 -0.3379  0.3743
  637TMC3    O2 9441   4.306   2.866  16.248 -0.2261  0.2041 -0.4134
  638MPD2     C 9442   3.877   2.335  15.082 -0.3586 -0.2006  0.2231
  638MPD2    C1 9443   3.818   2.241  14.992 -0.6403  0.7436 -0.3335
  638MPD2    C2 9444   3.780   2.122  15.045  0.2049 -0.0326 -0.4077
  638MPD2    C3 9445   3.821   2.086  15.173  0.2364  0.0838 -0.4299
  638MPD2    C4 9446   3.871   2.180  15.258  0.4188  0.2074 -0.2697
  638MPD2    C5 9447   3.897   2.302  15.212 -0.4116 -0.4754 -0.5733
  638MPD2     H 9448   3.727   2.048  14.986 -1.2282  1.6355 -1.1851
  638MPD2    H1 9449   3.898   2.150  15.358  1.5843  0.7879 -0.4119
  638MPD2    H2 9450   3.887   2.440  15.058  0.0318 -0.6527 -1.6388
  638MPD2    H3 9451   3.931   2.380  15.280 -0.5335 -0.3287 -0.6800
  638MPD2     N 9452   3.816   1.949  15.203 -0.3058 -0.1388 -0.0496
  638MPD2    H5 9453   3.773   1.896  15.128  3.5793  0.6152 -2.8179
  638MPD2    N1 9454   3.794   2.283  14.854 -0.4270 -0.2914  0.0582
  638MPD2    H7 9455   3.833   2.371  14.821  0.2871 -0.0655  1.4839
  639TMC3    C1 9456   3.850   1.750  15.322 -0.0083  0.1345 -0.2778
  639TMC3    C2 9457   3.745   1.690  15.260 -0.0378  0.3931  0.8858
  639TMC3    C3 9458   3.728   1.561  15.284  0.1645 -0.4693  0.2748
  639TMC3    C4 9459   3.957   1.677  15.377 -0.0785  0.3157 -0.5576
  639TMC3    C5 9460   3.935   1.542  15.387 -0.2588  0.3314  0.4979
  639TMC3    C6 9461   3.820   1.478  15.350  0.5767 -0.1439  0.0771
  639TMC3     C 9462   3.864   1.889  15.314 -0.5128 -0.7703 -0.4065
  639TMC3     O 9463   3.932   1.928  15.407 -0.7032 -0.0073  0.3931
  639TMC3     H 9464   3.674   1.738  15.194 -0.5096 -1.6307 -0.0766
  639TMC3    H1 9465   4.053   1.721  15.403  0.6946 -1.1875 -0.8461
  639TMC3    H2 9466   3.805   1.370  15.350  0.0314 -0.0664  0.6854
  639TMC3    C7 9467   4.033   1.450  15.438 -0.9238  0.1069 -0.2020
  639TMC3    C8 9468   3.626   1.504  15.199  0.7144 -0.0946 -0.2461
  639TMC3    O1 9469   3.991   1.353  15.503 -0.2463  0.1810  0.3609
  639TMC3    O2 9470   3.637   1.536  15.078  0.0162 -0.4113  0.6554
  640MPD2     C 9471   4.433   4.344   9.801 -0.3395 -0.3836  0.0875
  640MPD2    C1 9472   4.298   4.342   9.758 -0.2161 -0.3133 -0.8336
  640MPD2    C2 9473   4.238   4.452   9.701  0.4470  1.1274 -0.1726
  640MPD2    C3 9474   4.309   4.574   9.693  0.1397 -0.3469  0.2915
  640MPD2    C4 9475   4.441   4.577   9.726  1.6226 -0.9372  0.0334
  640MPD2    C5 9476   4.501   4.464   9.782 -0.0315  0.1051  0.2241
  640MPD2     H 9477   4.137   4.435   9.667 -0.3588  1.1920  2.2316
  640MPD2    H1 9478   4.493   4.671   9.711  2.7374 -1.3575  1.3406
  640MPD2    H2 9479   4.493   4.262   9.838 -1.6948 -0.6644  1.6797
  640MPD2    H3 9480   4.607   4.461   9.801 -0.1692 -2.4843  0.6665
  640MPD2     N 9481   4.243   4.690   9.658 -0.3470  0.1349 -0.4536
  640MPD2    H5 9482   4.308   0.044   9.642  2.1168 -1.4724  1.6884
  640MPD2    N1 9483   4.234   4.214   9.769  0.0272  0.6563 -0.4492
  640MPD2    H7 9484   4.288   4.139   9.810 -2.2387 -0.7927 -0.1514
  641TMC3    C1 9485   4.089   4.037   9.754 -0.3318 -0.0821 -0.6726
  641TMC3    C2 9486   4.149   3.966   9.855 -0.1186  0.6201  0.0412
  641TMC3    C3 9487   4.122   3.833   9.858 -0.2020  0.8398 -0.1297
  641TMC3    C4 9488   3.994   3.985   9.669  0.5471 -0.5657 -0.0374
  641TMC3    C5 9489   3.961   3.851   9.685  0.4860 -0.1606  0.7384
  641TMC3    C6 9490   4.024   3.774   9.778  0.3983 -0.2928  0.3246
  641TMC3     C 9491   4.110   4.180   9.731 -0.4074 -0.3715  0.4329
  641TMC3     O 9492   4.029   4.237   9.661 -0.8418  0.0171  0.0202
  641TMC3     H 9493   4.198   4.015   9.938 -0.7989 -0.1588  0.8941
  641TMC3    H1 9494   3.942   4.045   9.596  1.6673 -0.3504 -0.6596
  641TMC3    H2 9495   3.993   3.672   9.796 -0.8969  0.1078  0.3352
  641TMC3    C7 9496   3.900   3.772   9.573  0.2654  0.5989  0.2258
  641TMC3    C8 9497   4.186   3.751   9.962 -0.5418  0.0197 -0.8534
  641TMC3    O1 9498   3.902   3.649   9.598  0.2655 -0.4516  0.3504
  641TMC3    O2 9499   4.129   3.648   9.991  0.4308  0.0669  0.4522
  642TMC3    C1 9500   0.622   1.651  12.152  0.4627 -0.0181  0.2239
  642TMC3    C2 9501   0.758   1.630  12.160 -0.4785 -0.3705  0.7396
  642TMC3    C3 9502   0.812   1.530  12.089  0.6654  0.2704 -0.6367
  642TMC3    C4 9503   0.537   1.562  12.088  0.3552 -0.4808  0.2533
  642TMC3    C5 9504   0.600   1.464  12.018  1.0748 -0.6664  0.7920
  642TMC3    C6 9505   0.736   1.443  12.019  0.1154  0.4646  0.0481
  642TMC3     C 9506   0.576   1.778  12.210  0.8601  0.1330  1.0189
  642TMC3     O 9507   0.637   1.884  12.188  0.4396  0.1231  0.5513
  642TMC3     H 9508   0.813   1.711  12.207  2.1394 -1.3449 -0.5990
  642TMC3    H1 9509   0.430   1.562  12.102  0.0617  1.5986 -2.0465
  642TMC3    H2 9510   0.780   1.364  11.959  0.2654  0.5507  0.0454
  642TMC3    C7 9511   0.533   1.345  11.967 -0.6674  0.3452  0.6478
  642TMC3    C8 9512   0.954   1.500  12.098  0.1389 -0.3222  0.2439
  642TMC3    O1 9513   0.588   1.275  11.881 -0.1974 -0.1263  0.3908
  642TMC3    O2 9514   1.019   1.451  12.008  0.2223  0.1954  0.2782
  643TMC3    C1 9515   4.600   1.034   0.546  0.4592  0.0883 -0.3346
  643TMC3    C2 9516   4.477   1.054   0.490  0.0637 -0.2691 -0.5908
  643TMC3    C3 9517   4.457   0.989   0.372  0.2900 -0.3334  0.3590
  643TMC3    C4 9518   4.696   0.947   0.501  0.8314 -0.8823  0.6115
  643TMC3    C5 9519   4.656   0.865   0.402  1.0309  0.4232  0.3420
  643TMC3    C6 9520   4.532   0.883   0.340 -0.1101 -0.0079 -0.2212
  643TMC3     C 9521   4.635   1.139   0.643  0.0624 -0.2862 -0.6713
  643TMC3     O 9522   4.586   1.249   0.620 -0.0290  0.7418  0.3378
  643TMC3     H 9523   4.400   1.125   0.519  0.5198 -0.2194  0.4877
  643TMC3    H1 9524   0.074   0.939   0.540  0.8568 -0.3368  0.6463
  643TMC3    H2 9525   4.514   0.838   0.243  0.3175 -1.8640  0.5640
  643TMC3    C7 9526   0.037   0.817   0.315 -0.6610 -0.3701  0.2926
  643TMC3    C8 9527   4.406   1.065   0.262 -0.4367  0.0730 -0.2435
  643TMC3    O1 9528   0.135   0.887   0.306 -0.2347 -0.3829 -0.2266
  643TMC3    O2 9529   4.351   1.013   0.167 -0.0423 -0.2056 -0.8240
  644MPD2     C 9530   4.480   4.599   9.021  0.1552 -0.2439  0.6380
  644MPD2    C1 9531   4.350   4.582   8.987 -0.0319  0.2677  0.8938
  644MPD2    C2 9532   4.287   4.690   8.916 -0.2969 -0.3258 -0.1893
  644MPD2    C3 9533   4.357   0.084   8.879  0.0837 -0.5153  0.4747
  644MPD2    C4 9534   4.484   0.099   8.915  0.0091  0.6574 -0.2014
  644MPD2    C5 9535   4.543   4.717   8.980 -0.8559  0.0977 -0.7451
  644MPD2     H 9536   4.183   4.692   8.884 -0.3084  0.3232 -0.1186
  644MPD2    H1 9537   4.543   0.187   8.895  2.8532 -1.2937 -0.3441
  644MPD2    H2 9538   4.531   4.545   9.100  1.7192  0.6929  0.2675
  644MPD2    H3 9539   4.647   0.007   9.007 -1.1269  4.3302 -1.8322
  644MPD2     N 9540   4.292   0.192   8.819  0.1613 -0.1663 -0.0217
  644MPD2    H5 9541   4.202   0.166   8.780 -1.1851  1.6946  1.8836
  644MPD2    N1 9542   4.293   4.461   9.016 -0.0850  0.0183 -0.1687
  644MPD2    H7 9543   4.355   4.387   9.049 -1.2921 -1.1405 -0.4986
  645TMC3    C1 9544   4.238   0.416   8.738  0.4979 -0.2949  0.0184
  645TMC3    C2 9545   4.208   0.368   8.612 -1.0714 -0.1795  0.1217
  645TMC3    C3 9546   4.163   0.466   8.526 -0.0355  0.3056  0.3967
  645TMC3    C4 9547   4.236   0.545   8.778  0.3969 -0.6978  0.0484
  645TMC3    C5 9548   4.198   0.636   8.690 -0.3878  0.3076  0.5897
  645TMC3    C6 9549   4.169   0.598   8.562  0.2382 -0.0600  0.0562
  645TMC3     C 9550   4.336   0.328   8.807  0.6627  0.2788  0.1242
  645TMC3     O 9551   4.426   0.380   8.874 -0.2334 -0.1550 -0.0138
  645TMC3     H 9552   4.221   0.262   8.590 -0.9471 -0.0019 -0.6458
  645TMC3    H1 9553   4.261   0.572   8.880 -2.7455  0.2419  0.5365
  645TMC3    H2 9554   4.147   0.676   8.490 -0.5189 -1.4946 -1.2925
  645TMC3    C7 9555   4.224   0.775   8.718  0.0567 -0.0268 -0.2963
  645TMC3    C8 9556   4.133   0.439   8.388 -0.1050  0.0823  0.5309
  645TMC3    O1 9557   4.299   0.796   8.815 -0.2883  0.4991 -0.0790
  645TMC3    O2 9558   4.143   0.522   8.303  0.0942  0.4978  0.3246
  646MPD2     C 9559   3.953   0.785  14.645  0.1292  0.5060 -0.1778
  646MPD2    C1 9560   3.904   0.840  14.764  0.5296 -0.3890 -0.3652
  646MPD2    C2 9561   3.785   0.909  14.757  0.6493 -0.9499  0.1316
  646MPD2    C3 9562   3.708   0.918  14.643  0.0022  0.2254  0.2385
  646MPD2    C4 9563   3.750   0.851  14.524  0.3309  0.3272  0.9307
  646MPD2    C5 9564   3.875   0.795  14.528 -0.4381  0.2279 -0.0442
  646MPD2     H 9565   3.745   0.953  14.848 -1.1698 -0.5913 -0.8340
  646MPD2    H1 9566   3.701   0.857  14.428  3.1679 -0.6944 -0.5963
  646MPD2    H2 9567   4.047   0.732  14.639  0.8296  1.6691  0.6831
  646MPD2    H3 9568   3.926   0.760  14.439  1.1687  0.5377  0.7450
  646MPD2     N 9569   3.592   0.998  14.640  0.3226 -0.3325 -0.6702
  646MPD2    H5 9570   3.554   1.036  14.726 -2.0756 -2.7918 -0.6608
  646MPD2    N1 9571   3.982   0.822  14.877 -0.1251  0.4088  0.9243
  646MPD2    H7 9572   4.068   0.770  14.866 -0.3187  0.2053  0.3847
  647TMC3    C1 9573   4.061   0.809  15.098 -0.6264  0.1705  0.1024
  647TMC3    C2 9574   4.027   0.754  15.223 -0.1924 -0.6568  0.2398
  647TMC3    C3 9575   4.134   0.741  15.313 -0.4032  0.4193 -0.4712
  647TMC3    C4 9576   4.187   0.844  15.060 -0.6127  0.8490 -0.2296
  647TMC3    C5 9577   4.289   0.815  15.151 -0.2386 -0.3832  0.4077
  647TMC3    C6 9578   4.264   0.778  15.280  0.0332 -0.0786  0.0995
  647TMC3     C 9579   3.946   0.831  15.010 -0.1549 -0.2301 -0.0748
  647TMC3     O 9580   3.832   0.828  15.054  0.5381 -0.5606  0.3539
  647TMC3     H 9581   3.930   0.738  15.267 -1.3188  0.7857 -1.7310
  647TMC3    H1 9582   4.211   0.888  14.964 -1.5680 -0.6215 -1.1351
  647TMC3    H2 9583   4.346   0.755  15.347 -0.2835  2.2415  1.2766
  647TMC3    C7 9584   4.423   0.769  15.106  0.1722  0.1383 -0.4421
  647TMC3    C8 9585   4.127   0.617  15.394 -0.8988 -1.0901 -0.3801
  647TMC3    O1 9586   4.516   0.795  15.180  0.7203  0.4602 -0.5872
  647TMC3    O2 9587   4.215   0.536  15.370 -0.0895  0.3365  0.1058
  648TMC3    C1 9588   3.661   3.083  16.374 -0.0285 -0.5501  0.5196
  648TMC3    C2 9589   3.750   2.988  16.326 -0.3528 -0.0532  0.2561
  648TMC3    C3 9590   3.732   2.935  16.194 -0.2247 -0.1581 -0.0357
  648TMC3    C4 9591   3.570   3.139  16.287 -0.0023 -0.0672  0.1582
  648TMC3    C5 9592   3.562   3.097  16.162  0.4196 -0.1915  0.6266
  648TMC3    C6 9593   3.633   2.989  16.121  0.3519 -0.1048 -0.2723
  648TMC3     C 9594   3.672   3.130  16.507  0.0950  0.1494  0.7203
  648TMC3     O 9595   3.624   3.243  16.518 -0.0381 -0.1184 -0.6582
  648TMC3     H 9596   3.826   2.940  16.387 -0.1579 -0.8000 -0.5850
  648TMC3    H1 9597   3.480   3.185  16.326  0.9397  2.0139 -0.0891
  648TMC3    H2 9598   3.619   2.960  16.018  2.8797  0.1613 -0.6917
  648TMC3    C7 9599   3.428   3.098  16.104  0.0354 -0.3178 -0.2850
  648TMC3    C8 9600   3.798   2.820  16.147  0.5489  0.8755  0.4804
  648TMC3    O1 9601   3.378   2.992  16.068  0.0623  0.1748  1.1562
  648TMC3    O2 9602   3.743   2.769  16.048 -0.2649 -0.1281  0.5092
  649TMC3    C1 9603   1.915   3.615  13.169 -0.0550  0.2263 -0.4684
  649TMC3    C2 9604   2.027   3.547  13.220  0.9543 -0.2875  0.1934
  649TMC3    C3 9605   2.021   3.482  13.337 -0.1794  0.5050  0.4335
  649TMC3    C4 9606   1.793   3.612  13.239 -0.1832 -0.2725 -0.6138
  649TMC3    C5 9607   1.799   3.550  13.359 -0.2144 -0.0177 -0.6766
  649TMC3    C6 9608   1.902   3.467  13.398  0.2112 -0.1223  0.4047
  649TMC3     C 9609   1.931   3.695  13.051 -0.4458 -0.6855 -0.0413
  649TMC3     O 9610   1.851   3.778  13.023  0.2760  0.0423 -0.1973
  649TMC3     H 9611   2.126   3.560  13.179  0.3414 -0.8085 -1.4713
  649TMC3    H1 9612   1.715   3.685  13.220 -0.6816 -0.3793  1.0699
  649TMC3    H2 9613   1.873   3.412  13.486  0.5881  1.2389  1.3883
  649TMC3    C7 9614   1.707   3.591  13.461 -0.2871  0.1792 -0.5054
  649TMC3    C8 9615   2.128   3.498  13.429 -0.4346 -0.2259 -0.4242
  649TMC3    O1 9616   1.749   3.586  13.576  0.1311 -0.2636 -0.5924
  649TMC3    O2 9617   2.242   3.491  13.388 -0.4694 -0.2528 -0.3129
  650TMC3    C1 9618   0.026   0.607  12.468  0.2407  0.7462 -0.0299
  650TMC3    C2 9619   4.683   0.680  12.569  0.4662 -0.0137  0.2316
  650TMC3    C3 9620   4.572   0.741  12.528 -0.1909 -0.3498 -0.5485
  650TMC3    C4 9621   4.713   0.601  12.340  0.0301 -0.0284  0.0675
  650TMC3    C5 9622   4.595   0.663  12.309 -0.4056  0.6374  0.4837
  650TMC3    C6 9623   4.513   0.714  12.405  0.1476  0.6179  0.0033
  650TMC3     C 9624   0.167   0.594  12.500  0.8663 -1.0350  0.0605
  650TMC3     O 9625   0.219   0.679  12.573  0.3103 -0.5505 -0.4462
  650TMC3     H 9626   0.008   0.689  12.666  2.0441 -1.6470 -0.3973
  650TMC3    H1 9627   0.052   0.558  12.262  1.2569  2.6373 -0.4145
  650TMC3    H2 9628   4.429   0.776  12.378  0.1828  0.2121 -1.0728
  650TMC3    C7 9629   4.593   0.719  12.177  0.8989 -0.6711  0.5120
  650TMC3    C8 9630   4.565   0.884  12.555  0.3126  0.3909 -0.4418
  650TMC3    O1 9631   4.630   0.659  12.076 -0.1367  0.0478  0.5162
  650TMC3    O2 9632   4.576   0.964  12.466 -0.3653 -0.3957 -0.3052
  651MPD2     C 9633   3.485   2.325  11.032 -0.0935  0.0129 -0.5930
  651MPD2    C1 9634   3.444   2.454  11.028 -0.5314  0.1224  0.3234
  651MPD2    C2 9635   3.535   2.557  11.071  0.1303  0.1202 -0.1659
  651MPD2    C3 9636   3.656   2.519  11.110  0.1229 -0.5197 -0.1497
  651MPD2    C4 9637   3.693   2.385  11.110  0.5948 -0.2526  0.1131
  651MPD2    C5 9638   3.609   2.293  11.069 -0.5899  0.3020 -0.0139
  651MPD2     H 9639   3.498   2.659  11.073 -1.4459 -0.4316 -1.4026
  651MPD2    H1 9640   3.792   2.346  11.132  1.4139  2.8037  1.9945
  651MPD2    H2 9641   3.431   2.240  10.992  1.4972 -0.4743 -1.7310
  651MPD2    H3 9642   3.634   2.187  11.065  0.4641  0.5645 -0.5518
  651MPD2     N 9643   3.746   2.616  11.166 -0.2357 -0.0243 -0.0670
  651MPD2    H5 9644   3.703   2.707  11.180 -0.8169  0.0556 -2.2606
  651MPD2    N1 9645   3.315   2.500  11.007 -0.7334  0.1518 -0.0257
  651MPD2    H7 9646   3.300   2.600  11.019  0.0412  0.5867 -2.7614
  652TMC3    C1 9647   4.146   2.842  11.159  0.3063  0.2903  0.5288
  652TMC3    C2 9648   4.085   2.732  11.206  0.5430 -0.7319  0.3294
  652TMC3    C3 9649   3.948   2.735  11.223  0.0068 -0.2359 -0.1041
  652TMC3    C4 9650   4.084   2.959  11.133  0.2811 -0.3781 -0.3843
  652TMC3    C5 9651   3.947   2.956  11.149 -0.8021 -0.0312  0.2377
  652TMC3    C6 9652   3.880   2.844  11.196 -0.3078 -1.2603 -1.1431
  652TMC3     C 9653   4.291   2.831  11.144  0.3873 -0.3072  0.4609
  652TMC3     O 9654   4.349   2.746  11.206  0.4384 -0.0246  0.7297
  652TMC3     H 9655   4.135   2.644  11.243 -0.1413 -1.6639 -0.9798
  652TMC3    H1 9656   4.139   3.050  11.112 -0.8870  1.0558  2.9055
  652TMC3    H2 9657   3.774   2.853  11.216  0.2291  0.3381  1.0736
  652TMC3    C7 9658   3.869   3.076  11.109 -0.9655  0.2588  0.4209
  652TMC3    C8 9659   3.881   2.604  11.205 -0.4280  0.4765 -0.0216
  652TMC3    O1 9660   3.772   3.096  11.181 -0.1186  0.6461 -0.5791
  652TMC3    O2 9661   3.955   2.512  11.211  0.0895  0.2502 -0.8734
  653MPD2     C 9662   2.537   3.032  17.174 -0.5978  0.4183  0.8159
  653MPD2    C1 9663   2.413   3.085  17.190  0.0197 -0.3118  0.1973
  653MPD2    C2 9664   2.296   3.009  17.177  0.0317  0.4005  0.0222
  653MPD2    C3 9665   2.307   2.877  17.130  0.0433 -0.0071  0.4847
  653MPD2    C4 9666   2.431   2.822  17.129  0.6555  1.0346 -0.5830
  653MPD2    C5 9667   2.544   2.900  17.138  0.1490  0.2657  0.5899
  653MPD2     H 9668   2.206   3.050  17.221 -1.3367 -2.2245 -0.3378
  653MPD2    H1 9669   2.449   2.717  17.110 -1.2662  0.3943  1.1618
  653MPD2    H2 9670   2.627   3.082  17.209 -0.8875  0.7847  1.0327
  653MPD2    H3 9671   2.644   2.858  17.130 -0.4476 -0.8072 -1.3192
  653MPD2     N 9672   2.187   2.798  17.126 -0.6173  0.3251 -0.0043
  653MPD2    H5 9673   2.102   2.854  17.123  0.7872  2.3007 -2.7622
  653MPD2    N1 9674   2.404   3.211  17.257 -0.6528  0.4695 -0.1284
  653MPD2    H7 9675   2.312   3.233  17.295 -0.6449 -0.3650  0.3963
  654TMC3    C1 9676   2.057   2.607  17.067 -0.2358  0.2232  0.7848
  654TMC3    C2 9677   1.938   2.676  17.049  0.0952 -0.4747  0.3415
  654TMC3    C3 9678   1.824   2.613  17.011  0.3436  0.3683 -0.3307
  654TMC3    C4 9679   2.063   2.473  17.035  0.4310 -0.7431 -0.6583
  654TMC3    C5 9680   1.949   2.422  16.976  0.1936 -0.4189  0.4688
  654TMC3    C6 9681   1.828   2.487  16.965 -0.5597  0.2725 -0.6586
  654TMC3     C 9682   2.182   2.665  17.113 -0.3716 -0.8748  0.2683
  654TMC3     O 9683   2.265   2.579  17.133 -0.8637 -0.1554  0.5359
  654TMC3     H 9684   1.932   2.780  17.079  3.1454  0.3820 -2.0215
  654TMC3    H1 9685   2.158   2.420  17.039  0.9363 -0.0080 -2.7126
  654TMC3    H2 9686   1.744   2.433  16.924 -0.9277 -0.0354  0.5225
  654TMC3    C7 9687   1.969   2.304  16.900  0.0447 -0.2843 -0.3824
  654TMC3    C8 9688   1.700   2.695  16.995  0.0537  0.1562 -0.5789
  654TMC3    O1 9689   1.932   2.319  16.782 -0.3380 -0.0556 -0.2447
  654TMC3    O2 9690   1.688   2.791  17.066  0.1767 -0.5298 -0.2126
  655MPD2     C 9691   3.778   3.065  15.830  0.0440  0.1922  0.1831
  655MPD2    C1 9692   3.688   3.168  15.801  0.0455  0.0478 -0.2400
  655MPD2    C2 9693   3.593   3.149  15.709  0.4405 -0.5306  0.4036
  655MPD2    C3 9694   3.597   3.043  15.623 -0.3942 -0.9902 -0.3692
  655MPD2    C4 9695   3.685   2.938  15.648  0.4473 -0.1171  0.3522
  655MPD2    C5 9696   3.768   2.950  15.759 -0.6647 -0.5364  1.1482
  655MPD2     H 9697   3.525   3.231  15.693  0.6156 -1.0143 -2.7987
  655MPD2    H1 9698   3.686   2.849  15.585 -0.1555  0.9512 -1.1553
  655MPD2    H2 9699   3.843   3.080  15.915 -2.2960  0.2594  1.9581
  655MPD2    H3 9700   3.827   2.867  15.794  1.5983  2.1983  3.7865
  655MPD2     N 9701   3.520   3.028  15.503  0.2125  0.2594 -1.1348
  655MPD2    H5 9702   3.538   2.946  15.447  1.8681 -0.8724  1.0512
  655MPD2    N1 9703   3.690   3.295  15.863  0.3036 -0.0751 -0.2790
  655MPD2    H7 9704   3.632   3.365  15.818  1.3705  0.7454 -0.3680
  656TMC3    C1 9705   3.720   3.465  16.009 -0.0071 -0.5371 -0.2637
  656TMC3    C2 9706   3.676   3.486  16.133 -0.2560  0.1892 -0.3619
  656TMC3    C3 9707   3.577   3.580  16.152  0.5683 -0.4695 -0.2217
  656TMC3    C4 9708   3.664   3.524  15.894 -0.0356  0.6779  0.7875
  656TMC3    C5 9709   3.555   3.612  15.916  0.0891 -0.1453 -0.6637
  656TMC3    C6 9710   3.517   3.646  16.045  0.1107 -0.1329 -0.3494
  656TMC3     C 9711   3.762   3.329  15.972 -0.0419  0.9845  0.3914
  656TMC3     O 9712   3.832   3.262  16.049 -0.1680  0.5234 -0.0593
  656TMC3     H 9713   3.729   3.432  16.211 -0.7995 -1.0991 -0.8939
  656TMC3    H1 9714   3.714   3.531  15.798 -1.1129  1.3941  0.2799
  656TMC3    H2 9715   3.433   3.712  16.063 -0.9890 -1.8371  0.8064
  656TMC3    C7 9716   3.482   3.652  15.795 -0.3193 -0.0982 -0.1614
  656TMC3    C8 9717   3.485   3.537  16.258  0.0444 -0.1148 -0.5003
  656TMC3    O1 9718   3.538   3.631  15.689 -0.4124 -0.1711 -0.6203
  656TMC3    O2 9719   3.484   3.417  16.282  0.0033 -0.4008  0.4110
  657TMC3    C1 9720   2.271   2.734  15.211 -0.8102  0.2387  0.5134
  657TMC3    C2 9721   2.233   2.715  15.341 -0.9696 -0.1672  0.4030
  657TMC3    C3 9722   2.217   2.829  15.411 -0.3239  0.4121 -0.8660
  657TMC3    C4 9723   2.280   2.852  15.149 -0.0338 -0.3005 -0.4609
  657TMC3    C5 9724   2.263   2.962  15.229 -0.3438 -0.2293 -0.0270
  657TMC3    C6 9725   2.232   2.956  15.361 -0.2844 -0.4114 -0.2978
  657TMC3     C 9726   2.349   2.629  15.139 -0.5719 -0.4315 -0.4381
  657TMC3     O 9727   2.443   2.666  15.067  0.0035 -0.1324 -0.4165
  657TMC3     H 9728   2.250   2.621  15.392 -0.9390 -0.6939 -0.5720
  657TMC3    H1 9729   2.325   2.863  15.051  1.0973 -0.4332  0.0522
  657TMC3    H2 9730   2.212   3.051  15.410 -0.6612  0.5340 -2.2571
  657TMC3    C7 9731   2.266   3.089  15.168 -0.2490 -0.2731 -0.2730
  657TMC3    C8 9732   2.152   2.806  15.542  0.2352  0.2131  0.2937
  657TMC3    O1 9733   2.315   3.186  15.227  0.3447 -0.5999  0.5860
  657TMC3    O2 9734   2.128   2.687  15.567  0.0995  0.5274 -0.5488
  658MPD2     C 9735   3.663   2.975  14.764 -0.2268 -0.4421 -0.6377
  658MPD2    C1 9736   3.597   3.086  14.804  0.1696  0.7160  0.5661
  658MPD2    C2 9737   3.616   3.198  14.723  0.6534  0.7442  0.1708
  658MPD2    C3 9738   3.705   3.206  14.619  0.1114 -0.8803 -0.0606
  658MPD2    C4 9739   3.764   3.092  14.581 -0.2756  0.9069 -0.7147
  658MPD2    C5 9740   3.742   2.977  14.650  0.1189 -0.4884 -0.4807
  658MPD2     H 9741   3.577   3.295  14.752 -0.7929  0.4929 -0.8835
  658MPD2    H1 9742   3.843   3.085  14.507 -0.1663  0.9947 -0.6054
  658MPD2    H2 9743   3.638   2.879  14.807  1.2421  0.0141  1.2142
  658MPD2    H3 9744   3.780   2.881  14.618 -2.5765 -1.7166 -0.0466
  658MPD2     N 9745   3.731   3.336  14.557  0.3690 -0.6297 -0.1660
  658MPD2    H5 9746   3.696   3.415  14.611 -3.1003 -2.0314 -0.3669
  658MPD2    N1 9747   3.509   3.090  14.916 -0.4847  0.2265 -0.8959
  658MPD2    H7 9748   3.459   3.176  14.933 -0.0429  0.3905 -0.4203
  659TMC3    C1 9749   3.410   3.062  15.113  0.2090 -0.0524 -0.0886
  659TMC3    C2 9750   3.443   3.041  15.245 -0.3275 -0.4174 -0.7499
  659TMC3    C3 9751   3.361   3.092  15.339 -0.6087 -0.3369 -0.5051
  659TMC3    C4 9752   3.292   3.126  15.070  0.3820  0.3780 -0.5361
  659TMC3    C5 9753   3.206   3.159  15.171 -0.4928  1.1481 -0.4579
  659TMC3    C6 9754   3.240   3.143  15.302 -0.6351  0.6411 -0.1443
  659TMC3     C 9755   3.502   3.005  15.020 -0.3447 -0.1686 -0.0294
  659TMC3     O 9756   3.584   2.917  15.047  0.8330 -0.0916 -0.4049
  659TMC3     H 9757   3.541   3.006  15.273  0.3082  1.0147 -1.1793
  659TMC3    H1 9758   3.259   3.136  14.967 -1.5164  2.4169  0.2883
  659TMC3    H2 9759   3.184   3.176  15.389 -0.5622 -2.3294  1.0250
  659TMC3    C7 9760   3.062   3.199  15.145  0.3622  0.6956 -0.2336
  659TMC3    C8 9761   3.420   3.120  15.470 -0.6443  0.5630  0.2454
  659TMC3    O1 9762   3.000   3.238  15.245 -0.1664  0.2615  0.4327
  659TMC3    O2 9763   3.380   3.222  15.529 -0.2591 -0.4511  0.1616
  660MPD2     C 9764   1.499   2.269  12.932  0.0506  0.4759 -0.9583
  660MPD2    C1 9765   1.413   2.170  12.896 -0.9835 -0.0199  0.1472
  660MPD2    C2 9766   1.322   2.130  12.992  0.6848 -0.0117  0.2331
  660MPD2    C3 9767   1.307   2.200  13.115 -0.1672  0.0216  0.2804
  660MPD2    C4 9768   1.386   2.302  13.142  0.2279  0.2004 -0.1406
  660MPD2    C5 9769   1.482   2.335  13.051 -0.5602 -1.4336 -0.0788
  660MPD2     H 9770   1.249   2.054  12.970  0.3717  0.4588 -0.3532
  660MPD2    H1 9771   1.376   2.353  13.238  2.7017  1.2399 -0.4424
  660MPD2    H2 9772   1.589   2.283  12.874 -0.2943 -1.8595 -2.0633
  660MPD2    H3 9773   1.551   2.415  13.074 -0.2588 -2.6708  3.3474
  660MPD2     N 9774   1.220   2.159  13.216  0.5572 -0.3538  0.4309
  660MPD2    H5 9775   1.201   2.223  13.293  0.5604 -0.5897  0.6266
  660MPD2    N1 9776   1.420   2.099  12.777 -0.5206  0.2291 -0.0726
  660MPD2    H7 9777   1.339   2.040  12.761  0.5900 -1.1170 -0.6785
  661TMC3    C1 9778   1.509   2.001  12.586 -0.1149  0.1366  0.7828
  661TMC3    C2 9779   1.620   1.953  12.534  0.1340 -0.1605  0.1603
  661TMC3    C3 9780   1.625   1.892  12.406 -0.3297 -0.3486 -0.4095
  661TMC3    C4 9781   1.396   2.007  12.507 -1.0889 -0.1129  0.2862
  661TMC3    C5 9782   1.397   1.954  12.381 -0.3278  0.6407  0.6060
  661TMC3    C6 9783   1.505   1.884  12.333  0.0272  0.3273 -0.6855
  661TMC3     C 9784   1.527   2.092  12.694  0.4573  0.1739  0.8577
  661TMC3     O 9785   1.641   2.132  12.711  0.0849 -0.0657  0.1998
  661TMC3     H 9786   1.706   1.942  12.599 -0.0155 -2.2815 -0.0016
  661TMC3    H1 9787   1.308   2.057  12.546 -1.6438  0.8644 -2.2699
  661TMC3    H2 9788   1.501   1.827  12.240 -1.7593 -3.3852  1.6849
  661TMC3    C7 9789   1.268   1.959  12.309  0.9908 -0.7067 -0.2306
  661TMC3    C8 9790   1.740   1.816  12.355  0.1996 -0.6518  0.1200
  661TMC3    O1 9791   1.183   2.028  12.362 -0.3335 -0.1983 -0.6673
  661TMC3    O2 9792   1.731   1.748  12.252 -0.5322 -0.1912  0.0926
  662MPD2     C 9793   1.620   1.409  17.204 -0.2919 -0.4198  0.5668
  662MPD2    C1 9794   1.716   1.493  17.256 -0.3281  0.2383 -0.4383
  662MPD2    C2 9795   1.684   1.605  17.327 -0.2697 -0.0564 -0.3013
  662MPD2    C3 9796   1.554   1.652  17.335 -0.5774 -0.5914  0.2317
  662MPD2    C4 9797   1.457   1.570  17.284 -0.6152 -0.9060 -0.0184
  662MPD2    C5 9798   1.494   1.455  17.221 -0.1026  0.2679 -0.4298
  662MPD2     H 9799   1.771   1.660  17.361 -0.7251 -0.6575  1.7982
  662MPD2    H1 9800   1.351   1.590  17.288 -0.3682  0.6174 -0.8974
  662MPD2    H2 9801   1.645   1.318  17.151  1.6271  1.0262 -1.0088
  662MPD2    H3 9802   1.420   1.384  17.188 -0.7026  0.2017  1.1049
  662MPD2     N 9803   1.520   1.770  17.404 -0.4922 -0.3140 -0.3802
  662MPD2    H5 9804   1.421   1.784  17.423 -0.1750  0.4300  0.6864
  662MPD2    N1 9805   1.850   1.447  17.256  0.3948  0.0630  0.6419
  662MPD2    H7 9806   1.916   1.498  17.315 -0.6952  1.0608  0.9774
  663TMC3    C1 9807   1.975   1.260  17.307 -0.2077  0.0683 -0.2891
  663TMC3    C2 9808   1.934   1.277  17.442 -0.2000  0.0817 -0.0780
  663TMC3    C3 9809   1.926   1.177  17.536 -0.0660  0.6455 -0.1918
  663TMC3    C4 9810   2.033   1.142  17.275  0.4548 -0.0014  0.0317
  663TMC3    C5 9811   2.043   1.052  17.375 -0.3733  0.4201 -0.6363
  663TMC3    C6 9812   1.988   1.060  17.500 -1.0195  0.2205 -0.5509
  663TMC3     C 9813   1.898   1.326  17.206 -0.6063 -0.3468 -0.0551
  663TMC3     O 9814   1.866   1.253  17.115 -0.8390 -0.6700 -0.2832
  663TMC3     H 9815   1.871   1.362  17.468 -0.9687 -0.1408 -1.1928
  663TMC3    H1 9816   2.055   1.115  17.172  0.9172 -1.6255  0.5597
  663TMC3    H2 9817   2.009   0.987  17.578  0.0255  1.7437  0.5969
  663TMC3    C7 9818   2.110   0.942  17.333  0.2334  0.1186 -0.1087
  663TMC3    C8 9819   1.981   1.222  17.659  0.4556  0.4676  0.1596
  663TMC3    O1 9820   2.214   0.966  17.271  0.1125  0.8236  0.1066
  663TMC3    O2 9821   2.103   1.221  17.682  0.1831 -0.0378 -0.1636
  664MPD2     C 9822   0.127   4.536   0.096  0.1710  0.2658  0.7304
  664MPD2    C1 9823   0.200   4.643   0.141  0.3810  0.1841 -1.1633
  664MPD2    C2 9824   0.195   4.679   0.277  0.3119  0.0824 -0.1856
  664MPD2    C3 9825   0.113   4.616   0.370 -0.5485  0.6869  0.5611
  664MPD2    C4 9826   0.037   4.508   0.318  0.5209  0.2215  0.3675
  664MPD2    C5 9827   0.039   4.480   0.185 -0.7126  0.4449 -0.1938
  664MPD2     H 9828   0.252   0.043   0.307  1.5189 -1.1084  0.9196
  664MPD2    H1 9829   4.682   4.456   0.373  0.5900  1.5824  1.7375
  664MPD2    H2 9830   0.125   4.495  17.689  0.2643 -0.6111  1.0818
  664MPD2    H3 9831   4.701   4.397   0.152  0.4823 -0.9598  1.1190
  664MPD2     N 9832   0.106   4.661   0.507 -0.1655 -0.3259  0.7664
  664MPD2    H5 9833   0.174   0.006   0.539  0.7176 -0.4796 -0.7726
  664MPD2    N1 9834   0.292   4.713   0.062 -0.2371  0.4568 -0.3901
  664MPD2    H7 9835   0.336   0.069   0.109  0.7610  0.3422 -1.1350
  665TMC3    C1 9836   0.024   4.667   0.727 -0.3229 -0.1750  0.2355
  665TMC3    C2 9837   4.683   4.598   0.833 -0.6376 -0.7564 -0.3871
  665TMC3    C3 9838   4.682   4.660   0.956 -0.1579 -0.2352 -0.0543
  665TMC3    C4 9839   0.068   0.072   0.745  0.6774 -0.1818 -0.2924
  665TMC3    C5 9840   0.057   0.123   0.866  0.3534  0.3610 -0.2649
  665TMC3    C6 9841   0.012   0.064   0.977  0.1443  0.0138 -0.0738
  665TMC3     C 9842   0.025   4.600   0.606 -0.0606 -0.0524  0.0057
  665TMC3     O 9843   4.668   4.512   0.603  0.5021  0.5052 -0.7616
  665TMC3     H 9844   4.631   4.505   0.813 -1.6707 -0.5720  1.4749
  665TMC3    H1 9845   0.106   0.132   0.663  2.5985  0.5763  1.1446
  665TMC3    H2 9846   0.019   0.101   1.079 -2.6039  3.8928 -1.2800
  665TMC3    C7 9847   0.088   0.264   0.886  0.2097  0.0138  0.5156
  665TMC3    C8 9848   4.601   4.619   1.076  0.4116 -0.3191  0.5413
  665TMC3    O1 9849   0.080   0.335   0.789  0.3231 -0.1160  0.1168
  665TMC3    O2 9850   4.572   4.710   1.153  0.0934 -0.0331 -0.5793
  666TMC3    C1 9851   3.795   4.607  10.028  0.0979  0.0216 -0.3204
  666TMC3    C2 9852   3.864   4.491  10.033 -0.4912 -0.0127 -0.5805
  666TMC3    C3 9853   3.998   4.498  10.011  0.2177  0.0276 -0.2954
  666TMC3    C4 9854   3.845   4.723   9.975 -0.3330  0.0919 -0.4256
  666TMC3    C5 9855   3.975   0.002   9.948 -0.6185 -0.6864  0.4030
  666TMC3    C6 9856   4.058   4.617   9.973  0.2796  0.1780 -0.0208
  666TMC3     C 9857   3.682   4.626  10.111  0.2500  0.1172 -0.4286
  666TMC3     O 9858   3.613   0.008  10.106 -0.2204 -0.1550  0.6418
  666TMC3     H 9859   3.817   4.394  10.045  0.6918 -0.1612  2.8206
  666TMC3    H1 9860   3.788   0.092   9.979  0.5665  0.6896 -1.5212
  666TMC3    H2 9861   4.164   4.616   9.948  0.6041  0.9787  1.3546
  666TMC3    C7 9862   4.018   0.134   9.921 -0.5781 -0.1289 -0.5464
  666TMC3    C8 9863   4.078   4.375  10.042 -0.1529 -0.3720 -0.2478
  666TMC3    O1 9864   3.940   0.205   9.861  0.1877  0.2378 -0.3606
  666TMC3    O2 9865   4.024   4.271  10.075 -0.1624  0.4214  0.3226
  667MPD2     C 9866   0.995   4.386  14.637  0.6422  0.0342 -0.1927
  667MPD2    C1 9867   0.904   4.470  14.694  0.6816 -0.5438  0.1982
  667MPD2    C2 9868   0.771   4.475  14.662  0.0461 -0.0268 -0.2716
  667MPD2    C3 9869   0.721   4.387  14.567 -0.2928  0.3210  0.2339
  667MPD2    C4 9870   0.811   4.301  14.504 -0.3422 -0.9824 -0.3797
  667MPD2    C5 9871   0.941   4.299  14.543  0.0623 -0.5765 -0.4076
  667MPD2     H 9872   0.709   4.552  14.706  1.1760 -1.1305  3.1972
  667MPD2    H1 9873   0.779   4.236  14.423 -0.0016  0.9602 -2.0792
  667MPD2    H2 9874   1.101   4.379  14.657  0.2614  0.0218  1.9119
  667MPD2    H3 9875   1.004   4.229  14.489  1.7285  0.1679  0.5415
  667MPD2     N 9876   0.591   4.393  14.516  0.0801  0.5192 -0.3892
  667MPD2    H5 9877   0.559   4.310  14.467  0.4107 -0.1191  0.4854
  667MPD2    N1 9878   0.956   4.569  14.778 -0.1081 -0.8396  0.0557
  667MPD2    H7 9879   0.886   4.615  14.836 -0.6723 -1.2632 -0.3014
  668TMC3    C1 9880   1.094   4.711  14.904 -0.5492  1.1090 -0.3102
  668TMC3    C2 9881   1.202   0.066  14.900 -0.3021 -0.2968  0.6442
  668TMC3    C3 9882   1.249   0.125  15.020  0.2923 -0.6677 -0.5068
  668TMC3    C4 9883   1.026   4.670  15.018  0.1842 -0.3498  0.5130
  668TMC3    C5 9884   1.072   0.004  15.136 -0.1063  0.6207 -0.6315
  668TMC3    C6 9885   1.182   0.090  15.132 -0.2718  0.0910  0.6447
  668TMC3     C 9886   1.089   4.616  14.793 -0.0116 -0.5525  0.4622
  668TMC3     O 9887   1.196   4.595  14.734 -0.5275 -0.4215 -0.0677
  668TMC3     H 9888   1.259   0.066  14.807  0.3784  0.8313  1.0674
  668TMC3    H1 9889   0.937   4.609  15.013 -0.5026  0.9340 -3.2935
  668TMC3    H2 9890   1.216   0.136  15.224  1.2555 -0.7996  0.5290
  668TMC3    C7 9891   1.014   4.693  15.265 -0.0112  0.0127  0.3820
  668TMC3    C8 9892   1.341   0.239  15.040  0.7446  0.1425 -0.4973
  668TMC3    O1 9893   1.092   4.698  15.358 -0.3563 -0.1286  0.3501
  668TMC3    O2 9894   1.353   0.282  15.155  0.3822  0.0968 -0.5501
  669TMC3    C1 9895   3.770   4.569  14.406 -0.0018 -0.2858 -0.0256
  669TMC3    C2 9896   3.678   4.584  14.302  0.4885 -0.1871  0.0771
  669TMC3    C3 9897   3.719   4.676  14.209 -0.7265  0.6162  0.1835
  669TMC3    C4 9898   3.875   4.647  14.428 -0.9230  0.2219  0.3512
  669TMC3    C5 9899   3.895   0.025  14.339  0.0439  0.0265 -0.0616
  669TMC3    C6 9900   3.814   0.046  14.227  0.7017 -0.3586  0.0752
  669TMC3     C 9901   3.753   4.460  14.495 -0.2435  0.6682  0.2084
  669TMC3     O 9902   3.636   4.419  14.515 -1.2105 -0.2178  0.7187
  669TMC3     H 9903   3.590   4.521  14.300  1.1194 -1.1489  2.8375
  669TMC3    H1 9904   3.918   4.658  14.527 -2.5545 -1.6604  1.2697
  669TMC3    H2 9905   3.824   0.139  14.172  2.0514 -0.3135  0.4161
  669TMC3    C7 9906   4.006   0.113  14.365 -0.0977  0.2315  0.0054
  669TMC3    C8 9907   3.653   4.663  14.084 -0.1692 -0.1568  0.4959
  669TMC3    O1 9908   4.016   0.214  14.296  0.5138 -0.0744 -0.3447
  669TMC3    O2 9909   3.578   4.568  14.075 -0.3627  0.2994 -0.4469
  670MPD2     C 9910   1.659   2.658  13.800  0.8716  0.0080 -0.4038
  670MPD2    C1 9911   1.778   2.636  13.865  0.0923 -0.4130 -0.3538
  670MPD2    C2 9912   1.781   2.589  13.992  0.9841 -0.1937 -0.8619
  670MPD2    C3 9913   1.662   2.559  14.059  0.0257  0.0358  0.0038
  670MPD2    C4 9914   1.544   2.570  13.991  0.2701  0.0486 -0.1605
  670MPD2    C5 9915   1.543   2.607  13.861  0.5064 -0.4070  0.1859
  670MPD2     H 9916   1.872   2.582  14.051  0.9317  2.3799 -0.4833
  670MPD2    H1 9917   1.449   2.540  14.034  0.0286  0.5708 -0.3260
  670MPD2    H2 9918   1.652   2.700  13.701 -1.0019  1.9468  0.5518
  670MPD2    H3 9919   1.447   2.624  13.812 -1.2275 -0.7228  3.4782
  670MPD2     N 9920   1.667   2.514  14.191  0.2858 -0.5719 -0.7165
  670MPD2    H5 9921   1.753   2.529  14.243 -0.6035  2.6057 -0.1808
  670MPD2    N1 9922   1.901   2.671  13.810  0.1149 -0.3590  0.0883
  670MPD2    H7 9923   1.974   2.648  13.877  0.7582 -0.7956 -0.7692
  671TMC3    C1 9924   1.601   2.469  14.411 -0.2160 -0.2163  0.2969
  671TMC3    C2 9925   1.714   2.400  14.436  0.7721 -1.1840  0.2116
  671TMC3    C3 9926   1.734   2.328  14.551  0.3681 -1.1506 -0.2150
  671TMC3    C4 9927   1.497   2.466  14.504 -0.1012 -0.0641  0.2906
  671TMC3    C5 9928   1.525   2.394  14.620  1.2610  0.4009 -0.1779
  671TMC3    C6 9929   1.644   2.340  14.649  0.8746 -0.6451  0.6201
  671TMC3     C 9930   1.559   2.486  14.270  0.5702  0.1859 -0.1064
  671TMC3     O 9931   1.439   2.481  14.256 -0.6369  0.0557 -0.0962
  671TMC3     H 9932   1.793   2.399  14.363 -1.1241  2.6604 -1.8650
  671TMC3    H1 9933   1.394   2.496  14.485  1.1308  2.3577 -2.5224
  671TMC3    H2 9934   1.643   2.281  14.740 -1.8446 -0.4537  0.7189
  671TMC3    C7 9935   1.425   2.301  14.663 -0.6521  0.1046 -0.2722
  671TMC3    C8 9936   1.830   2.219  14.543  0.1668  0.2625  0.9985
  671TMC3    O1 9937   1.416   2.268  14.782 -0.1893 -0.6633 -0.0713
  671TMC3    O2 9938   1.825   2.164  14.435 -0.1839  0.6508 -0.3669
  672MPD2     C 9939   2.029   2.287   0.713 -0.3694  0.2611 -0.1968
  672MPD2    C1 9940   2.159   2.259   0.713 -0.4145  0.0119  0.0398
  672MPD2    C2 9941   2.235   2.278   0.827 -0.1624 -0.1139 -0.2085
  672MPD2    C3 9942   2.178   2.320   0.948  0.3576  0.0561 -0.7202
  672MPD2    C4 9943   2.044   2.346   0.945 -0.8085  0.1289  0.5299
  672MPD2    C5 9944   1.972   2.316   0.835 -0.0684 -0.1522  0.1809
  672MPD2     H 9945   2.338   2.246   0.821 -0.6421 -1.5081 -1.0500
  672MPD2    H1 9946   1.988   2.388   1.028  0.2411 -0.2284  1.4232
  672MPD2    H2 9947   1.967   2.264   0.627 -0.3490 -0.5387 -0.0062
  672MPD2    H3 9948   1.867   2.342   0.831  0.4112  1.2058 -3.5435
  672MPD2     N 9949   2.245   2.325   1.071  0.0071  0.0703 -0.0288
  672MPD2    H5 9950   2.183   2.347   1.147  0.2099  0.2734  0.0763
  672MPD2    N1 9951   2.237   2.233   0.598 -0.3232  0.7543 -0.0819
  672MPD2    H7 9952   2.336   2.215   0.609 -1.0943 -2.5734  1.4650
  673TMC3    C1 9953   2.295   2.207   0.368  0.6664  0.0593  1.0270
  673TMC3    C2 9954   2.409   2.143   0.411 -0.1947 -0.2869  0.0509
  673TMC3    C3 9955   2.513   2.132   0.316 -0.4239  0.3669 -0.3579
  673TMC3    C4 9956   2.280   2.257   0.242  0.5928  0.5357  0.4769
  673TMC3    C5 9957   2.387   2.243   0.154  0.2279  0.0659 -0.2984
  673TMC3    C6 9958   2.505   2.177   0.192 -0.1013  0.0382  0.1223
  673TMC3     C 9959   2.192   2.232   0.467  0.0745  0.6541 -0.0974
  673TMC3     O 9960   2.084   2.270   0.426  0.2508 -0.5281  0.0689
  673TMC3     H 9961   2.407   2.097   0.509  0.0372 -0.7804 -0.1753
  673TMC3    H1 9962   2.186   2.305   0.219  0.0793 -0.7710 -0.1191
  673TMC3    H2 9963   2.588   2.179   0.122 -1.4506 -0.1076 -1.4792
  673TMC3    C7 9964   2.391   2.344   0.043  1.2238  0.3940 -0.2027
  673TMC3    C8 9965   2.632   2.060   0.361 -0.8247  0.2611  0.1758
  673TMC3    O1 9966   2.453   2.317  17.636  0.7120  0.5013  0.4300
  673TMC3    O2 9967   2.659   2.066   0.480 -0.1685 -0.2284 -0.3569
  674MPD2     C 9968   1.978   2.618  17.447 -0.3372  0.4608  0.3102
  674MPD2    C1 9969   1.968   2.534  17.555 -0.2110  0.1952  0.1201
  674MPD2    C2 9970   1.904   2.586  17.669  0.0927 -0.2280  0.5375
  674MPD2    C3 9971   1.857   2.723  17.675  0.4125  0.6988 -0.4605
  674MPD2    C4 9972   1.871   2.797  17.563  0.1042  0.3917  0.4727
  674MPD2    C5 9973   1.919   2.746  17.444 -0.6136 -0.0774  0.1598
  674MPD2     H 9974   1.914   2.527   0.066 -0.1815 -0.0985  0.6543
  674MPD2    H1 9975   1.851   2.903  17.571 -1.9535 -0.2519  3.8093
  674MPD2    H2 9976   2.021   2.582  17.355  2.2188  3.0449  0.4837
  674MPD2    H3 9977   1.934   2.796  17.349  2.4173 -0.0356  0.6411
  674MPD2     N 9978   1.811   2.762   0.110  0.0268 -0.8320 -0.0555
  674MPD2    H5 9979   1.813   2.683   0.173  0.5512 -0.5449  0.2832
  674MPD2    N1 9980   2.018   2.399  17.545 -0.4852  0.4737 -0.0927
  674MPD2    H7 9981   2.077   2.379  17.465  2.2725  1.7171  1.6276
  675TMC3    C1 9982   2.074   2.180  17.604 -0.0142 -0.2568 -0.0079
  675TMC3    C2 9983   2.002   2.071  17.642 -0.5507 -0.1403 -0.4545
  675TMC3    C3 9984   2.064   1.953  17.615 -1.2014  1.2454  0.4117
  675TMC3    C4 9985   2.188   2.181  17.528  0.6596 -0.5010  0.1104
  675TMC3    C5 9986   2.240   2.058  17.503 -0.3952  0.1586 -0.5595
  675TMC3    C6 9987   2.177   1.941  17.538  0.0333 -0.5366 -0.7784
  675TMC3     C 9988   2.014   2.304  17.645  0.1797 -0.4577 -0.0685
  675TMC3     O 9989   1.935   2.297   0.041  0.0058 -0.3043 -0.1864
  675TMC3     H 9990   1.898   2.079  17.672 -1.0915  0.5494 -2.5324
  675TMC3    H1 9991   2.236   2.277  17.513  0.3245 -0.2253  0.7527
  675TMC3    H2 9992   2.225   1.845  17.524  1.3943 -0.0829  0.6895
  675TMC3    C7 9993   2.364   2.042  17.433 -0.1129  0.0479  0.8218
  675TMC3    C8 9994   1.984   1.838  17.640  0.7518 -0.1520  0.3124
  675TMC3    O1 9995   2.431   1.944  17.470 -0.3887  0.4915  0.6311
  675TMC3    O2 9996   1.990   1.742  17.565  0.5099  0.1890  0.4213
  676MPD2     C 9997   0.507   0.654  10.865 -0.3314 -0.1428 -0.5931
  676MPD2    C1 9998   0.388   0.588  10.827  0.5385  0.1247  0.7639
  676MPD2    C2 9999   0.402   0.471  10.755 -0.0541 -0.9376  0.2652
  676MPD2    C310000   0.526   0.411  10.741  1.3940  0.2618  0.0728
  676MPD2    C410001   0.640   0.476  10.778 -0.1894  0.1907  0.7208
  676MPD2    C510002   0.630   0.598  10.838  0.0982 -0.4703 -0.2339
  676MPD2     H10003   0.315   0.423  10.711 -0.0501 -1.2989  0.6439
  676MPD2    H110004   0.739   0.431  10.768 -0.4135 -0.1073 -0.2063
  676MPD2    H210005   0.511   0.746  10.922 -1.3244 -0.4800  0.0089
  676MPD2    H310006   0.721   0.655  10.854  0.1986 -0.5674 -0.4552
  676MPD2     N10007   0.538   0.285  10.673  0.2198  0.6200 -0.0356
  676MPD2    H510008   0.630   0.257  10.641  0.7214  2.1652  0.0268
  676MPD2    N110009   0.260   0.644  10.851  1.0678  0.0825  0.1031
  676MPD2    H710010   0.180   0.581  10.851  0.4410  0.8862 -0.3168
  677TMC3    C110011   0.089   0.786  10.935  0.0045 -0.3765  0.2687
  677TMC3    C210012   4.713   0.714  10.871 -0.1575 -0.0302  0.0189
  677TMC3    C310013   4.583   0.743  10.907 -0.3992 -0.3938 -0.4468
  677TMC3    C410014   0.060   0.880  11.030 -0.4025  0.3288  0.1205
  677TMC3    C510015   4.649   0.892  11.071 -0.0880  0.3260  0.0630
  677TMC3    C610016   4.549   0.826  11.013  0.7114  0.5567  0.3170
  677TMC3     C10017   0.231   0.764  10.911 -0.2505  0.6412  0.6275
  677TMC3     O10018   0.298   0.862  10.929  0.1003 -0.0106 -0.4442
  677TMC3     H10019   0.014   0.635  10.802  0.3715 -0.4488  0.6813
  677TMC3    H110020   0.143   0.932  11.076  0.3739 -0.3911 -0.4682
  677TMC3    H210021   4.445   0.837  11.042  0.2192  1.5203 -1.8292
  677TMC3    C710022   4.624   0.941  11.206 -0.5842 -0.5026 -0.0355
  677TMC3    C810023   4.480   0.666  10.843  0.2860  0.4195 -0.3086
  677TMC3    O110024   4.528   0.894  11.261  0.0033 -0.0832  0.3105
  677TMC3    O210025   4.490   0.653  10.724 -0.2434 -0.0349 -0.2913
  678MPD2     C10026   1.251   0.870   1.899 -0.0494  0.4828 -0.0452
  678MPD2    C110027   1.252   0.773   1.803  0.6920 -0.3366  0.2935
  678MPD2    C210028   1.136   0.707   1.767  0.1475  0.5178 -0.2524
  678MPD2    C310029   1.018   0.743   1.833 -0.1863 -1.1029  0.4298
  678MPD2    C410030   1.027   0.829   1.940 -0.7989 -0.0536  0.1741
  678MPD2    C510031   1.139   0.895   1.969 -0.0716 -0.7137  0.9590
  678MPD2     H10032   1.143   0.637   1.685 -1.6066 -0.0632  0.0907
  678MPD2    H110033   0.944   0.843   2.008 -1.5388  2.0849 -1.1767
  678MPD2    H210034   1.339   0.927   1.928 -1.1053  2.1782 -0.1638
  678MPD2    H310035   1.143   0.972   2.046  4.2182 -0.3125  0.3660
  678MPD2     N10036   0.899   0.696   1.772  0.1938 -0.3152  0.2605
  678MPD2    H510037   0.909   0.631   1.695  1.0741 -0.8755  0.8539
  678MPD2    N110038   1.376   0.741   1.745 -0.2095  0.0768 -0.0139
  678MPD2    H710039   1.445   0.815   1.740 -0.7385  0.5960  0.3232
  679TMC3    C110040   1.696   0.543   1.479 -0.5046 -0.1532 -0.1597
  679TMC3    C210041   1.598   0.525   1.577  0.4230  0.0023  0.5983
  679TMC3    C310042   1.523   0.635   1.593 -0.0579 -0.3928 -0.2227
  679TMC3    C410043   1.714   0.657   1.405  0.1514  0.2569 -0.2142
  679TMC3    C510044   1.633   0.759   1.432  0.5104 -0.2440  0.1274
  679TMC3    C610045   1.535   0.753   1.525 -0.2543 -0.1705  0.5649
  679TMC3     C10046   1.791   0.434   1.462  0.7288  0.1670  1.1850
  679TMC3     O10047   1.898   0.473   1.413  0.0727  0.5269  0.5986
  679TMC3     H10048   1.581   0.440   1.641 -2.4316  0.3745  0.3385
  679TMC3    H110049   1.780   0.660   1.319 -1.6423 -1.8408 -1.6441
  679TMC3    H210050   1.463   0.834   1.532  0.2433  0.2154  1.1035
  679TMC3    C710051   1.630   0.880   1.353  0.5385 -0.4458 -0.1211
  679TMC3    C810052   1.406   0.622   1.676 -0.1934  0.2124  0.0489
  679TMC3    O110053   1.525   0.938   1.335 -0.1292  0.2556 -0.0392
  679TMC3    O210054   1.367   0.507   1.694 -0.1402 -0.1738 -0.3360
  680MPD2     C10055   1.506   4.545  13.855  0.3319  0.2168  1.2208
  680MPD2    C110056   1.585   4.459  13.929  0.2717 -0.2600  0.0269
  680MPD2    C210057   1.727   4.486  13.948 -0.0502  0.0976 -0.4014
  680MPD2    C310058   1.783   4.598  13.886  0.1932  0.6676  0.6211
  680MPD2    C410059   1.694   4.680  13.821 -0.4722  0.0647 -0.5328
  680MPD2    C510060   1.560   4.659  13.810  0.1410  0.1270 -0.2061
  680MPD2     H10061   1.791   4.417  14.003 -0.8442 -0.3158 -0.0059
  680MPD2    H110062   1.741   0.046  13.780 -2.6100  0.8236 -1.3408
  680MPD2    H210063   1.401   4.522  13.842  0.7246 -0.4986 -0.7493
  680MPD2    H310064   1.501   0.010  13.757  0.0861 -1.0793 -1.8105
  680MPD2     N10065   1.914   4.642  13.903 -0.1388  0.4553 -0.3044
  680MPD2    H510066   1.934   0.008  13.858 -1.5790  1.6288  1.3571
  680MPD2    N110067   1.538   4.338  13.975 -0.0726 -0.2661 -0.5664
  680MPD2    H710068   1.597   4.277  14.031 -1.1091 -2.1676 -1.5308
  681TMC3    C110069   1.413   4.146  13.999 -0.6206 -0.3645  0.2960
  681TMC3    C210070   1.470   4.111  14.116  0.1282  0.1040 -0.3172
  681TMC3    C310071   1.464   3.982  14.159  0.5876 -0.5343  0.7485
  681TMC3    C410072   1.335   4.058  13.935  0.2299  0.3696 -0.1281
  681TMC3    C510073   1.327   3.928  13.980 -0.2170  0.3858 -0.0466
  681TMC3    C610074   1.400   3.888  14.089 -0.5218 -0.2175 -0.6471
  681TMC3     C10075   1.423   4.279  13.939 -0.1916 -0.6542 -0.4203
  681TMC3     O10076   1.338   4.309  13.860 -0.0990 -0.3620  0.4685
  681TMC3     H10077   1.514   4.191  14.174  1.7934 -0.6306 -0.5524
  681TMC3    H110078   1.286   4.084  13.841  0.8736 -0.9104 -0.8029
  681TMC3    H210079   1.396   3.785  14.122 -0.2595  0.6879  2.1438
  681TMC3    C710080   1.280   3.830  13.891 -0.5163  0.4994 -0.1110
  681TMC3    C810081   1.525   3.951  14.287  0.1057 -0.7521 -0.4538
  681TMC3    O110082   1.161   3.847  13.862 -0.3537 -0.2343 -0.0996
  681TMC3    O210083   1.486   3.841  14.327  0.2223  0.2678 -0.0513
  682MPD2     C10084   3.923   1.061  10.694  0.5407 -0.2567 -0.5767
  682MPD2    C110085   3.906   0.920  10.667 -0.4337 -0.2993  0.1477
  682MPD2    C210086   3.897   0.841  10.779 -0.2809 -0.8445  0.8692
  682MPD2    C310087   3.901   0.890  10.906 -0.1994  0.6942  0.5016
  682MPD2    C410088   3.935   1.021  10.928 -0.1494  0.0560  0.7285
  682MPD2    C510089   3.938   1.106  10.822 -0.5350 -0.8371  0.8536
  682MPD2     H10090   3.883   0.735  10.762  1.1026 -0.9973  0.7259
  682MPD2    H110091   3.944   1.050  11.032  0.9731 -0.8510  0.8830
  682MPD2    H210092   3.953   1.139  10.626 -0.2992  0.9527  0.4281
  682MPD2    H310093   3.969   1.210  10.831 -0.7982 -0.7199  0.4333
  682MPD2     N10094   3.878   0.816  11.031 -0.0210 -0.2360 -0.3812
  682MPD2    H510095   3.869   0.877  11.112  2.2827 -1.1438  0.5856
  682MPD2    N110096   3.897   0.861  10.533 -0.6028 -0.8910 -0.1394
  682MPD2    H710097   3.883   0.760  10.535  1.0645 -1.1176  1.0075
  683TMC3    C110098   3.724   0.613  11.359 -0.1580 -0.0235 -0.3094
  683TMC3    C210099   3.773   0.487  11.387  0.0975 -0.1102 -0.5606
  683TMC3    C310100   3.860   0.428  11.299  0.0563 -0.3305  0.1911
  683TMC3    C410101   3.773   0.692  11.261 -1.1713 -0.3084 -0.0008
  683TMC3    C510102   3.858   0.632  11.171 -0.0710 -0.6966  0.7472
  683TMC3    C610103   3.904   0.508  11.194  0.4356 -0.1880 -0.3645
  683TMC3     C10104   3.644   0.683  11.455 -1.1709 -0.7523  0.5064
  683TMC3     O10105   3.673   0.783  11.516  0.2382  0.1519  0.4285
  683TMC3     H10106   3.746   0.428  11.474  0.5197 -1.9079 -1.6659
  683TMC3    H110107   3.729   0.789  11.243  0.0760  0.3775  0.6566
  683TMC3    H210108   3.977   0.456  11.133  0.1240  1.0939 -1.8270
  683TMC3    C710109   3.870   0.682  11.032 -0.4392  0.7348 -0.0568
  683TMC3    C810110   3.914   0.298  11.322  0.8268 -0.8461  0.2675
  683TMC3    O110111   3.913   0.606  10.944 -0.1079  0.6051  0.7405
  683TMC3    O210112   4.019   0.267  11.264 -0.2242 -0.2468  0.5201
  684MPD2     C10113   1.793   0.287  16.673  0.4103 -0.3241 -0.1051
  684MPD2    C110114   1.861   0.316  16.560  0.4613  0.4916  0.3909
  684MPD2    C210115   1.891   0.444  16.531  0.1600  0.5708  0.3003
  684MPD2    C310116   1.872   0.551  16.614  0.5449 -0.4902  0.0830
  684MPD2    C410117   1.800   0.528  16.724  0.4912  1.0057  0.6280
  684MPD2    C510118   1.759   0.398  16.752  0.0714  1.0963  0.5630
  684MPD2     H10119   1.945   0.449  16.437  1.1400 -0.0790  0.8284
  684MPD2    H110120   1.777   0.604  16.798 -1.8546 -0.7258  1.7151
  684MPD2    H210121   1.755   0.187  16.689 -0.0269  0.0616  1.2763
  684MPD2    H310122   1.689   0.380  16.833 -1.6953  3.2098 -0.4753
  684MPD2     N10123   1.913   0.685  16.594  0.2801  0.5862  0.4152
  684MPD2    H510124   1.903   0.763  16.658  0.1706 -0.0076  1.1232
  684MPD2    N110125   1.893   0.218  16.464  0.2641  0.1336 -0.0157
  684MPD2    H710126   1.928   0.250  16.374  0.7828  0.8757  0.4460
  685TMC3    C110127   1.985   0.022  16.379  0.5349 -0.2497  0.2192
  685TMC3    C210128   1.908   0.004  16.263  0.5613  0.0883 -0.1561
  685TMC3    C310129   1.952   4.630  16.179 -0.0901  0.3151 -0.6023
  685TMC3    C410130   2.075   4.651  16.419  0.2965  0.3316  0.2979
  685TMC3    C510131   2.120   4.559  16.332 -0.4446  0.7755 -0.1270
  685TMC3    C610132   2.061   4.544  16.210  0.2207  0.3725 -0.5687
  685TMC3     C10133   1.916   0.086  16.487 -0.4393  0.4615 -0.2009
  685TMC3     O10134   1.915   0.019  16.587  0.9579 -0.1173 -0.2567
  685TMC3     H10135   1.815   0.059  16.251 -0.7667 -2.0568  0.4042
  685TMC3    H110136   2.113   4.647  16.521 -0.7735  2.8469  0.8070
  685TMC3    H210137   2.099   4.476  16.135  1.2024 -0.0631  0.3151
  685TMC3    C710138   2.219   4.451  16.389 -0.1029  0.8767 -0.3966
  685TMC3    C810139   1.859   4.588  16.076  0.6996 -0.0188 -0.2727
  685TMC3    O110140   2.229   4.451  16.510  0.5100  0.5579 -0.0600
  685TMC3    O210141   1.864   4.466  16.052  0.7852  0.2365  0.1946
  686MPD2     C10142   3.467   0.357  15.630  0.2624  0.0769  0.0589
  686MPD2    C110143   3.506   0.251  15.706  0.6330  0.0490 -0.3827
  686MPD2    C210144   3.575   0.145  15.641 -0.5877  0.7285 -0.4607
  686MPD2    C310145   3.585   0.140  15.499  0.3005  0.1738 -0.4597
  686MPD2    C410146   3.548   0.251  15.426  0.2771 -0.2539 -0.1693
  686MPD2    C510147   3.492   0.357  15.499 -0.0626 -1.1300 -0.6082
  686MPD2     H10148   3.610   0.067  15.707 -3.4045  0.7805  1.0974
  686MPD2    H110149   3.572   0.261  15.321 -2.3665  3.1461 -0.4592
  686MPD2    H210150   3.416   0.443  15.672  1.1544  0.3765  0.5277
  686MPD2    H310151   3.466   0.441  15.435  0.7923 -0.0004  0.5254
  686MPD2     N10152   3.634   0.025  15.436  0.0047  0.1059  0.3857
  686MPD2    H510153   3.681   0.043  15.347 -1.1073  0.9722 -0.0256
  686MPD2    N110154   3.465   0.250  15.843  0.2447  0.5211  0.0517
  686MPD2    H710155   3.398   0.321  15.869  0.2386  0.3851  0.4196
  687TMC3    C110156   3.554   4.582  15.599 -0.3784  0.6980 -0.3155
  687TMC3    C210157   3.417   4.596  15.575  0.2389  0.0651  0.1048
  687TMC3    C310158   3.335   4.544  15.669  0.5220 -1.0233 -0.0966
  687TMC3    C410159   3.601   4.501  15.695 -0.1733 -0.4699  0.6933
  687TMC3    C510160   3.520   4.455  15.794  0.1775  0.2430 -0.3422
  687TMC3    C610161   3.385   4.478  15.778  0.7426  0.2682 -0.0747
  687TMC3     C10162   3.658   4.627  15.501 -0.7551  0.0809 -0.2177
  687TMC3     O10163   3.739   4.545  15.465 -0.2548 -0.0672  0.2598
  687TMC3     H10164   3.372   4.631  15.482 -0.8170 -0.4232  0.4313
  687TMC3    H110165   3.708   4.486  15.699  0.1076  0.9268 -1.4072
  687TMC3    H210166   3.318   4.446  15.857 -1.3300 -0.5169 -2.1812
  687TMC3    C710167   3.586   4.444  15.923 -1.1249  0.5871 -0.5903
  687TMC3    C810168   3.209   4.611  15.699  0.2609  0.5504  0.2808
  687TMC3    O110169   3.705   4.460  15.921  1.0526  0.3192  0.0089
  687TMC3    O210170   3.150   4.573  15.799 -0.2121 -0.2177 -0.3933
  688MPD2     C10171   2.831   3.925  17.324 -0.2868  0.1136  0.6428
  688MPD2    C110172   2.846   3.781  17.340  0.1262 -0.2257 -0.1239
  688MPD2    C210173   2.971   3.731  17.318 -0.3358 -0.2220  0.6986
  688MPD2    C310174   3.077   3.810  17.277 -0.2419 -0.5786  0.0108
  688MPD2    C410175   3.059   3.946  17.272  0.1652 -0.0124  0.1147
  688MPD2    C510176   2.939   3.999  17.298 -0.4473 -0.0444 -0.0816
  688MPD2     H10177   2.978   3.625  17.339  0.0779 -0.3587 -0.1318
  688MPD2    H110178   3.138   4.017  17.252 -0.2333  0.6673  0.9651
  688MPD2    H210179   2.734   3.970  17.344  0.0159  1.8813 -1.8807
  688MPD2    H310180   2.928   4.105  17.313 -2.9257 -0.1730 -1.1346
  688MPD2     N10181   3.205   3.763  17.249 -0.6759  0.7083  0.1582
  688MPD2    H510182   3.272   3.838  17.231  1.2424 -1.7347 -2.7185
  688MPD2    N110183   2.736   3.689  17.369  0.4618  0.2802  0.0712
  688MPD2    H710184   2.757   3.590  17.362 -0.0310  0.3251 -1.9440
  689TMC3    C110185   2.527   3.617  17.431 -0.1115 -0.0407 -1.0001
  689TMC3    C210186   2.477   3.599  17.557 -0.0040  0.2191  0.4244
  689TMC3    C310187   2.423   3.473  17.570 -0.2870 -0.5061  0.5906
  689TMC3    C410188   2.518   3.530  17.325  0.5742  0.0111  0.3944
  689TMC3    C510189   2.446   3.415  17.346  0.6868 -0.2593  0.3323
  689TMC3    C610190   2.401   3.378  17.472  0.4261 -0.5391  0.0002
  689TMC3     C10191   2.618   3.732  17.415 -0.8524  0.6222  0.3606
  689TMC3     O10192   2.572   3.844  17.431  0.1731  0.0761 -0.0683
  689TMC3     H10193   2.499   3.675  17.631 -0.6466  0.4762  0.3569
  689TMC3    H110194   2.558   3.559  17.229 -1.4378  1.3106 -0.0508
  689TMC3    H210195   2.337   3.293  17.489  0.1729 -0.3894 -0.2083
  689TMC3    C710196   2.501   3.307  17.264  0.1871  0.0075 -0.0726
  689TMC3    C810197   2.427   3.428   0.014 -0.4650  0.1641  0.2062
  689TMC3    O110198   2.590   3.332  17.187  0.4690 -0.3178 -0.1020
  689TMC3    O210199   2.401   3.502   0.112 -0.3859  0.1228 -0.5051
  690MPD2     C10200   0.451   0.762  15.579 -0.5802  0.2878 -0.1034
  690MPD2    C110201   0.358   0.779  15.476  0.1049 -0.2174  0.3849
  690MPD2    C210202   0.386   0.849  15.360  0.6373  0.6585 -0.1471
  690MPD2    C310203   0.509   0.905  15.339  0.6077 -0.6024 -0.4918
  690MPD2    C410204   0.600   0.889  15.445  0.5180 -0.0360 -0.3841
  690MPD2    C510205   0.579   0.821  15.565  0.5199 -0.5449  0.2426
  690MPD2     H10206   0.310   0.868  15.285 -0.8914 -1.2278  0.9231
  690MPD2    H110207   0.700   0.929  15.429  0.3375  0.3401 -0.5658
  690MPD2    H210208   0.423   0.706  15.667 -1.4036 -2.0934 -1.8739
  690MPD2    H310209   0.652   0.808  15.644  1.1035  3.0523  0.2787
  690MPD2     N10210   0.537   0.966  15.218  0.0712  0.0017 -0.3828
  690MPD2    H510211   0.465   0.963  15.147  0.9595 -2.2993 -1.1729
  690MPD2    N110212   0.222   0.734  15.486 -0.5283 -0.0629 -0.4470
  690MPD2    H710213   0.168   0.744  15.401  0.4868 -2.0481 -1.3256
  691TMC3    C110214   0.032   0.623  15.567  0.5924 -0.0599 -0.2508
  691TMC3    C210215   4.654   0.658  15.651 -0.0674  0.0380 -0.1309
  691TMC3    C310216   4.529   0.606  15.625  0.2744 -0.2504 -0.0306
  691TMC3    C410217   0.009   0.563  15.440  0.4673  0.6137 -0.0885
  691TMC3    C510218   4.602   0.531  15.414 -0.1198  0.5382 -0.0889
  691TMC3    C610219   4.503   0.541  15.511  0.2023 -0.5386 -0.6892
  691TMC3     C10220   0.164   0.676  15.603 -0.4324  0.1969  0.4637
  691TMC3     O10221   0.203   0.674  15.718 -0.0300 -0.4890 -0.3446
  691TMC3     H10222   4.681   0.710  15.742 -2.5681  0.5100  0.3519
  691TMC3    H110223   0.089   0.556  15.367 -0.1385 -0.9767 -0.5812
  691TMC3    H210224   4.397   0.519  15.498 -0.1698  1.7191 -1.6553
  691TMC3    C710225   4.591   0.431  15.305  0.5391 -0.2312 -0.8271
  691TMC3    C810226   4.413   0.646  15.716  0.3481  0.1532 -0.0320
  691TMC3    O110227   4.696   0.386  15.253 -0.1516 -0.2151  0.1764
  691TMC3    O210228   4.425   0.750  15.776  0.0189  0.2284 -0.0196
  692TMC3    C110229   1.729   1.921  16.144 -0.1892  0.1148  0.1898
  692TMC3    C210230   1.820   1.998  16.077 -0.0402 -0.0001 -0.3208
  692TMC3    C310231   1.931   1.943  16.014 -0.9557 -0.2362 -0.3458
  692TMC3    C410232   1.751   1.790  16.157  0.1014  0.3175  0.2165
  692TMC3    C510233   1.857   1.741  16.099 -0.3516 -0.1057  0.4591
  692TMC3    C610234   1.950   1.811  16.026 -0.3621  0.1296  0.1116
  692TMC3     C10235   1.635   1.985  16.228  0.4844  0.2177 -0.3074
  692TMC3     O10236   1.539   1.922  16.267  0.1310  0.6737  0.1964
  692TMC3     H10237   1.788   2.094  16.040 -0.6197 -0.9965 -2.3905
  692TMC3    H110238   1.679   1.728  16.210 -0.1128 -0.1621 -0.6313
  692TMC3    H210239   2.049   1.770  16.009 -1.5104 -2.1417 -1.0912
  692TMC3    C710240   1.886   1.599  16.110  0.6646  0.1410 -0.2017
  692TMC3    C810241   2.044   1.994  16.097  0.0574  0.6844  0.0055
  692TMC3    O110242   1.844   1.543  16.210  0.0523  0.0712  0.0202
  692TMC3    O210243   2.089   1.915  16.180 -0.4671 -0.0235  0.4207
  693MPD2     C10244   0.899   4.076  10.388  0.2657 -0.1780  0.1017
  693MPD2    C110245   0.935   4.062  10.524  0.5335 -0.4675 -0.7168
  693MPD2    C210246   1.053   4.111  10.564 -0.1124 -0.5386 -0.2419
  693MPD2    C310247   1.143   4.169  10.472  0.3366 -0.2258  0.0489
  693MPD2    C410248   1.105   4.184  10.337  0.2129 -0.0518 -0.2760
  693MPD2    C510249   0.978   4.133  10.297 -0.4099 -0.1301  0.0311
  693MPD2     H10250   1.093   4.081  10.661  2.1134 -0.2411 -1.0767
  693MPD2    H110251   1.171   4.228  10.263  0.8726 -0.5068  0.0437
  693MPD2    H210252   0.800   4.049  10.354  0.5631 -0.3134 -0.6645
  693MPD2    H310253   0.952   4.125  10.192 -0.6981  1.6516 -0.0256
  693MPD2     N10254   1.276   4.194  10.513 -0.5913 -0.0696 -0.4881
  693MPD2    H510255   1.343   4.207  10.438 -0.5355  0.9553 -0.2536
  693MPD2    N110256   0.846   4.007  10.613 -0.1849  0.0844  0.7639
  693MPD2    H710257   0.758   3.971  10.576  0.3375 -0.0398 -0.3496
  694TMC3    C110258   0.749   3.923  10.825 -0.7578 -1.4683  0.6961
  694TMC3    C210259   0.673   3.833  10.760  0.1178  0.2820 -0.2475
  694TMC3    C310260   0.592   3.757  10.836  0.3690 -0.0966  0.3571
  694TMC3    C410261   0.747   3.940  10.962  0.0621 -0.4708  0.0927
  694TMC3    C510262   0.666   3.853  11.030 -0.3991 -0.6282  0.1833
  694TMC3    C610263   0.588   3.760  10.974 -0.2132  0.4163  0.2034
  694TMC3     C10264   0.857   4.002  10.748  0.1614 -0.0518  0.1157
  694TMC3     O10265   0.940   4.051  10.823  0.0305  0.7976 -0.5746
  694TMC3     H10266   0.694   3.807  10.657  1.8772 -0.2060  0.2436
  694TMC3    H110267   0.820   4.010  11.002 -0.0385 -0.3988  0.1518
  694TMC3    H210268   0.523   3.693  11.029  1.0468 -2.0397 -1.2817
  694TMC3    C710269   0.673   3.866  11.173  0.3507  0.4494  0.3513
  694TMC3    C810270   0.518   3.648  10.763 -0.5064 -0.1200  0.5050
  694TMC3    O110271   0.773   3.914  11.222  0.1642  0.2324 -0.6918
  694TMC3    O210272   0.487   3.553  10.831  0.2556  0.0744 -0.1887
  695MPD2     C10273   1.995   1.738  13.807  0.4100  0.2355  0.2718
  695MPD2    C110274   1.956   1.763  13.936  0.6356  0.2150 -1.0081
  695MPD2    C210275   1.828   1.804  13.964  0.4380 -0.4122 -0.2714
  695MPD2    C310276   1.734   1.813  13.862  0.6614  0.0466  0.1850
  695MPD2    C410277   1.767   1.764  13.734  0.2804  0.4110 -0.2366
  695MPD2    C510278   1.898   1.731  13.709 -0.0215  0.6998  0.7018
  695MPD2     H10279   1.801   1.827  14.066  2.7575  1.0517  0.0129
  695MPD2    H110280   1.698   1.758  13.651  0.0288  0.6458 -0.0435
  695MPD2    H210281   2.095   1.709  13.778  0.5959  0.4998  0.6517
  695MPD2    H310282   1.932   1.682  13.619 -0.9871 -0.1706  0.8155
  695MPD2     N10283   1.601   1.851  13.891  0.6307 -0.0966 -0.5144
  695MPD2    H510284   1.582   1.883  13.985 -1.9108  2.5748 -1.9164
  695MPD2    N110285   2.039   1.727  14.046 -0.4097  0.7464  0.5420
  695MPD2    H710286   2.001   1.747  14.138 -0.5119  0.0203  0.6608
  696TMC3    C110287   1.388   1.942  13.827  0.5711 -0.2918 -0.1500
  696TMC3    C210288   1.347   1.903  13.948  0.3634  0.1002 -0.3898
  696TMC3    C310289   1.230   1.957  13.998 -0.1344  0.1748  0.3794
  696TMC3    C410290   1.312   2.021  13.742  0.1775  0.2893  0.5760
  696TMC3    C510291   1.193   2.069  13.789  0.0906 -0.4613  0.5788
  696TMC3    C610292   1.148   2.024  13.909  0.0458  0.8500 -0.1928
  696TMC3     C10293   1.516   1.887  13.787 -0.1462  0.1256  0.6287
  696TMC3     O10294   1.548   1.919  13.672 -0.3193  0.0729 -0.6588
  696TMC3     H10295   1.403   1.848  14.022  1.6014  1.2437 -0.4785
  696TMC3    H110296   1.361   2.056  13.652 -1.7097  0.4111 -0.4050
  696TMC3    H210297   1.049   2.054  13.943  0.1465 -1.2195  1.9534
  696TMC3    C710298   1.184   2.209  13.766 -0.1583 -0.7064  0.5693
  696TMC3    C810299   1.241   2.018  14.122 -0.1076 -0.7392 -0.1944
  696TMC3    O110300   1.218   2.249  13.657 -0.5911  0.2513 -0.2050
  696TMC3    O210301   1.224   2.139  14.122  1.0561 -0.3980 -0.5126
  697MPD2     C10302   1.376   3.314  15.910 -0.0096  0.3266 -0.4918
  697MPD2    C110303   1.357   3.256  15.790 -0.3302 -0.2502  0.0858
  697MPD2    C210304   1.384   3.328  15.674  0.2499  0.1247  0.0377
  697MPD2    C310305   1.412   3.460  15.685 -0.3234 -0.3126 -0.4975
  697MPD2    C410306   1.436   3.516  15.809 -0.2048 -0.2854 -0.6577
  697MPD2    C510307   1.428   3.440  15.924 -0.1187  0.8973 -0.9619
  697MPD2     H10308   1.364   3.279  15.579 -3.5977 -0.5922  1.2275
  697MPD2    H110309   1.481   3.610  15.836 -0.4088 -1.0177  2.2482
  697MPD2    H210310   1.365   3.253  15.999 -0.1368  1.4083  0.2286
  697MPD2    H310311   1.460   3.475  16.021 -0.1365 -2.3557  0.2420
  697MPD2     N10312   1.434   3.529  15.564 -0.3463 -0.4106 -0.4384
  697MPD2    H510313   1.410   3.481  15.478  1.1407 -1.8107 -0.0643
  697MPD2    N110314   1.304   3.125  15.774 -0.1928  0.0169 -0.1344
  697MPD2    H710315   1.296   3.101  15.676  0.3309 -1.1848  0.1271
  698TMC3    C110316   1.518   3.698  15.415 -0.4988  0.5750 -0.4747
  698TMC3    C210317   1.542   3.827  15.398  0.3613 -0.2574 -0.2155
  698TMC3    C310318   1.632   3.858  15.298 -0.4191  0.2466 -0.1535
  698TMC3    C410319   1.564   3.592  15.344  0.4946  0.3914 -0.0651
  698TMC3    C510320   1.636   3.626  15.233 -0.3835  1.0330 -0.2011
  698TMC3    C610321   1.679   3.757  15.215  0.3197 -0.2285  0.6375
  698TMC3     C10322   1.469   3.665  15.551 -0.2498 -0.1872 -0.1511
  698TMC3     O10323   1.471   3.757  15.633 -0.3551 -0.0842  0.0020
  698TMC3     H10324   1.494   3.908  15.452 -2.7662 -1.4725 -1.1288
  698TMC3    H110325   1.551   3.484  15.350  0.3930  0.4281  0.3635
  698TMC3    H210326   1.709   3.787  15.115  0.6736 -0.7776  0.5754
  698TMC3    C710327   1.582   3.572  15.109 -0.2006 -0.0090  0.1874
  698TMC3    C810328   1.597   3.977  15.233  0.2302  0.3814 -0.4195
  698TMC3    O110329   1.464   3.553  15.105 -0.2819  0.1441 -0.6547
  698TMC3    O210330   1.483   4.026  15.232 -0.1790 -0.2742  0.5643
  699TMC3    C110331   1.087   2.014  13.345 -0.4911  0.2295 -0.5814
  699TMC3    C210332   1.110   1.896  13.408  0.3839  0.5754 -0.4346
  699TMC3    C310333   1.041   1.877  13.519 -0.2667 -0.0088  0.1697
  699TMC3    C410334   0.981   2.095  13.375  0.5803 -0.3406  0.3160
  699TMC3    C510335   0.907   2.071  13.486 -0.0369  0.4298 -0.3892
  699TMC3    C610336   0.941   1.961  13.562  0.5864 -0.0444  0.7637
  699TMC3     C10337   1.168   2.035  13.228 -0.3191  0.1443 -0.6252
  699TMC3     O10338   1.204   1.943  13.161  0.0153 -0.0177  0.2974
  699TMC3     H10339   1.189   1.827  13.380 -0.7506 -0.9040 -0.0125
  699TMC3    H110340   0.954   2.182  13.316 -1.1500  1.9686  4.5247
  699TMC3    H210341   0.884   1.925  13.647  0.0233 -0.1900  0.3242
  699TMC3    C710342   0.776   2.126  13.520 -0.5210  0.8138  0.1837
  699TMC3    C810343   1.070   1.764  13.607  0.4713  0.0448 -0.1513
  699TMC3    O110344   0.756   2.159  13.637 -0.3347  0.4199  0.0040
  699TMC3    O210345   0.995   1.739  13.697  0.4423 -0.1122  0.0600
  700TMC3    C110346   0.193   3.982  17.245 -0.3595 -0.2235  0.5531
  700TMC3    C210347   0.278   3.894  17.179  0.5238  0.2696  0.0348
  700TMC3    C310348   0.336   3.803  17.258 -0.3626  0.1065 -0.3058
  700TMC3    C410349   0.157   3.984  17.380  0.6726 -0.5140  0.7054
  700TMC3    C510350   0.218   3.878  17.444 -0.5709 -0.5276  0.3130
  700TMC3    C610351   0.306   3.789  17.393  0.3829 -0.2585 -0.5118
  700TMC3     C10352   0.161   4.112  17.180  0.0041  0.1713 -0.1907
  700TMC3     O10353   0.057   4.167  17.219  0.0054  0.5381 -0.5712
  700TMC3     H10354   0.305   3.894  17.074 -2.4699 -1.1426 -0.7382
  700TMC3    H110355   0.092   4.060  17.421  1.5903 -0.0493  1.3060
  700TMC3    H210356   0.347   3.706  17.448  1.3350 -0.4335 -1.4879
  700TMC3    C710357   0.252   3.928  17.575 -0.2072  0.3335 -0.4330
  700TMC3    C810358   0.395   3.688  17.202 -0.7183 -0.6913  0.5801
  700TMC3    O110359   0.370   3.931  17.606  0.5473  0.3298 -0.1578
  700TMC3    O210360   0.466   3.703  17.105  0.0456 -0.3215 -0.1517
  701TMC3    C110361   0.691   2.611  15.873  0.5713 -0.0663  1.3517
  701TMC3    C210362   0.714   2.558  15.750  0.1825 -0.2829 -0.0835
  701TMC3    C310363   0.802   2.628  15.671 -0.5147  0.2398 -0.2222
  701TMC3    C410364   0.747   2.729  15.919  0.2995  0.3757  0.0686
  701TMC3    C510365   0.837   2.786  15.832  0.5693 -0.5722  0.1379
  701TMC3    C610366   0.871   2.741  15.709  0.1743 -0.7489  0.0176
  701TMC3     C10367   0.594   2.547  15.956  0.2427  0.1983  0.5481
  701TMC3     O10368   0.566   2.436  15.924  0.4163  0.2874 -0.1535
  701TMC3     H10369   0.666   2.463  15.732  1.4107 -0.9518  0.1771
  701TMC3    H110370   0.730   2.759  16.022 -2.2044  0.6783 -0.4308
  701TMC3    H210371   0.939   2.788  15.638 -1.2481  0.9856 -0.1978
  701TMC3    C710372   0.861   2.930  15.848 -0.1344 -0.5678 -0.0953
  701TMC3    C810373   0.815   2.598  15.532 -0.0927 -0.0360 -0.1476
  701TMC3    O110374   0.896   2.987  15.747  0.5679  0.7109  0.6204
  701TMC3    O210375   0.902   2.641  15.461 -0.5697 -0.5944  0.1507
  702MPD2     C10376   0.791   0.139  10.037  0.5465 -0.2806 -0.1738
  702MPD2    C110377   0.701   0.204  10.116 -0.3599 -0.3970 -0.1247
  702MPD2    C210378   0.659   0.330  10.086 -0.0368  0.5675 -0.4020
  702MPD2    C310379   0.712   0.397   9.978 -0.3761  0.8570  0.1659
  702MPD2    C410380   0.812   0.340   9.901  0.4982 -0.1956 -0.0475
  702MPD2    C510381   0.854   0.212   9.931 -0.4590 -0.1614 -0.2444
  702MPD2     H10382   0.591   0.381  10.154  0.3646 -0.5793  0.8544
  702MPD2    H110383   0.859   0.399   9.823  0.3052  0.2783  0.1955
  702MPD2    H210384   0.826   0.038  10.057  1.9798  0.7513  2.3367
  702MPD2    H310385   0.926   0.169   9.862  0.9591 -0.5504  1.4740
  702MPD2     N10386   0.679   0.532   9.953  0.2432 -0.3890  0.5247
  702MPD2    H510387   0.751   0.581   9.902 -0.8195 -0.5710 -1.1622
  702MPD2    N110388   0.639   0.142  10.221  0.3405  0.5771  0.4604
  702MPD2    H710389   0.578   0.196  10.282 -2.9066  1.0332 -3.1529
  703TMC3    C110390   0.565   0.737   9.980 -0.4298  0.2869 -0.1353
  703TMC3    C210391   0.453   0.806  10.039 -0.0153  0.4483 -0.2909
  703TMC3    C310392   0.467   0.940  10.064 -0.5085  0.4098 -1.0741
  703TMC3    C410393   0.680   0.807   9.940 -0.0450 -0.4253 -0.3642
  703TMC3    C510394   0.683   0.939   9.973 -0.1608 -0.1607  0.5265
  703TMC3    C610395   0.580   1.010  10.035  0.5496  0.2558 -0.0096
  703TMC3     C10396   0.568   0.593   9.998  0.8930 -0.0659  0.3887
  703TMC3     O10397   0.468   0.533  10.036  0.3971  0.5212 -0.1680
  703TMC3     H10398   0.371   0.742  10.071 -0.9531  1.5915 -0.3760
  703TMC3    H110399   0.743   0.764   9.862 -1.9754 -2.8845 -0.5881
  703TMC3    H210400   0.576   1.118  10.047  2.6310  0.1534  1.6217
  703TMC3    C710401   0.793   1.030   9.934 -0.0316  0.2389  0.5965
  703TMC3    C810402   0.367   1.027  10.122  0.1015  0.2609  0.8049
  703TMC3    O110403   0.789   1.137   9.994 -0.3376 -0.0547  0.5678
  703TMC3    O210404   0.392   1.131  10.177 -0.4660 -0.0364  0.3054
  704TMC3    C110405   2.179   3.119  12.059 -0.4089 -0.1963 -0.0372
  704TMC3    C210406   2.286   3.180  12.005  0.2255  0.2451  0.4855
  704TMC3    C310407   2.373   3.244  12.092 -0.1178  0.9465 -1.0674
  704TMC3    C410408   2.156   3.126  12.200  0.0023 -0.1747 -0.1079
  704TMC3    C510409   2.250   3.178  12.282  0.0220 -0.4112 -0.6952
  704TMC3    C610410   2.353   3.248  12.227  0.7100  0.8498  0.6502
  704TMC3     C10411   2.121   3.006  11.994  0.4100  0.1544 -0.0787
  704TMC3     O10412   2.017   2.963  12.040 -0.3387  0.6228  0.5259
  704TMC3     H10413   2.298   3.184  11.897  0.5265  1.4402  0.5632
  704TMC3    H110414   2.078   3.064  12.243 -1.8703  0.8018 -2.0943
  704TMC3    H210415   2.424   3.298  12.293  1.6369  1.1495 -0.5623
  704TMC3    C710416   2.276   3.120  12.411 -0.0704 -0.5421  0.2183
  704TMC3    C810417   2.505   3.267  12.033 -0.4620  0.9184 -0.0831
  704TMC3    O110418   2.382   3.141  12.462 -0.2464  0.3477  0.5645
  704TMC3    O210419   2.529   3.229  11.916  0.3542 -0.2836  0.8766
  705MPD2     C10420   2.343   1.577  16.766 -0.6329  0.6896  0.1808
  705MPD2    C110421   2.257   1.607  16.660  0.6944  0.8333  0.1835
  705MPD2    C210422   2.134   1.661  16.687 -0.2239 -0.2690  0.6558
  705MPD2    C310423   2.089   1.680  16.818 -0.0952  0.8048 -0.1275
  705MPD2    C410424   2.171   1.643  16.921 -0.2801  0.2012 -1.0141
  705MPD2    C510425   2.300   1.597  16.892 -0.0398  0.3264 -0.6778
  705MPD2     H10426   2.061   1.674  16.608  2.6762 -0.1723 -1.9748
  705MPD2    H110427   2.124   1.651  17.019  1.6662 -1.4580  0.0543
  705MPD2    H210428   2.443   1.541  16.745 -1.0894 -0.5758  0.1969
  705MPD2    H310429   2.352   1.544  16.971 -1.1043 -1.8295 -1.4251
  705MPD2     N10430   1.955   1.713  16.856  0.3975  0.0961  0.5928
  705MPD2    H510431   1.938   1.732  16.954 -0.3606 -0.0517  0.4874
  705MPD2    N110432   2.283   1.566  16.530  0.5117 -0.3754 -0.2940
  705MPD2    H710433   2.209   1.590  16.466  0.0560 -1.7449 -0.2931
  706TMC3    C110434   2.417   1.315  16.159  0.1145 -0.2521  0.2586
  706TMC3    C210435   2.348   1.408  16.074 -0.5171 -0.1024 -0.1967
  706TMC3    C310436   2.321   1.527  16.128 -0.1987  0.3575  0.1597
  706TMC3    C410437   2.437   1.348  16.293  0.3568  0.3632  0.5275
  706TMC3    C510438   2.385   1.465  16.336  0.2879 -0.0301  0.5874
  706TMC3    C610439   2.336   1.560  16.259 -0.3276 -0.9334 -0.3888
  706TMC3     C10440   2.456   1.181  16.111 -0.0862  0.0999  0.5606
  706TMC3     O10441   2.501   1.108  16.195 -0.1889  0.0791 -0.4311
  706TMC3     H10442   2.329   1.400  15.968 -0.2541  1.8424 -0.4004
  706TMC3    H110443   2.463   1.266  16.359 -0.5221 -1.3095 -1.2055
  706TMC3    H210444   2.317   1.662  16.292  1.1292 -0.8839  0.3279
  706TMC3    C710445   2.377   1.475  16.480 -0.6050  0.7770  0.3706
  706TMC3    C810446   2.301   1.631  16.031  0.5878 -0.1160 -0.0344
  706TMC3    O110447   2.446   1.397  16.540 -0.1865  0.4329 -0.1618
  706TMC3    O210448   2.230   1.615  15.933 -0.1452 -0.1511 -0.1481
  707TMC3    C110449   3.924   1.092   1.384 -0.3376 -0.3585 -0.7024
  707TMC3    C210450   3.856   1.001   1.454 -0.2076 -0.2665 -0.6156
  707TMC3    C310451   3.799   1.042   1.568 -0.2165  0.6729  0.1611
  707TMC3    C410452   3.942   1.219   1.433 -0.4007  0.5643  0.1036
  707TMC3    C510453   3.877   1.257   1.548  0.1770 -0.6642 -0.5948
  707TMC3    C610454   3.798   1.167   1.614 -1.0902  0.4438 -0.1756
  707TMC3     C10455   4.012   1.028   1.284  0.4834 -0.5030 -0.0625
  707TMC3     O10456   4.015   0.909   1.303 -0.1134  0.0531  0.0155
  707TMC3     H10457   3.823   0.911   1.403 -1.2860  0.4628 -1.2111
  707TMC3    H110458   4.025   1.278   1.395  1.5973  0.1940  3.8473
  707TMC3    H210459   3.742   1.198   1.701 -1.1494  2.7731 -1.0547
  707TMC3    C710460   3.932   1.354   1.638  0.4042 -0.0936 -0.2407
  707TMC3    C810461   3.717   0.953   1.637 -0.7390 -0.0808 -0.0887
  707TMC3    O110462   3.910   1.341   1.760 -0.1777 -0.3251  0.0836
  707TMC3    O210463   3.627   0.997   1.710  0.0201  0.1170  0.8337
  708MPD2     C10464   1.009   4.711  13.613  0.4569 -0.1400 -0.4025
  708MPD2    C110465   0.901   0.028  13.687  0.0577 -0.3561 -0.5074
  708MPD2    C210466   0.886   4.715  13.821  0.1638 -0.1851 -0.9854
  708MPD2    C310467   0.984   4.634  13.876  0.4387  0.2769  0.2998
  708MPD2    C410468   1.101   4.600  13.806  0.3956  0.1720 -0.0120
  708MPD2    C510469   1.117   4.650  13.679  0.0240 -0.3336 -0.2541
  708MPD2     H10470   0.806   0.021  13.889 -0.4591 -0.1441 -1.7402
  708MPD2    H110471   1.177   4.545  13.860 -0.3052  0.1214  0.9270
  708MPD2    H210472   1.025   0.030  13.514  0.3178  1.2226  0.1395
  708MPD2    H310473   1.210   4.638  13.624  1.2288 -0.1150  1.7520
  708MPD2     N10474   0.962   4.583  14.002 -0.3714 -0.2413  0.1192
  708MPD2    H510475   0.867   4.592  14.036  0.0338  0.6448  0.9987
  708MPD2    N110476   0.798   0.102  13.625 -0.2625 -0.2562 -0.8672
  708MPD2    H710477   0.731   0.138  13.693 -0.2860 -3.3061  0.6777
  709TMC3    C110478   0.637   0.177  13.486  0.1381  0.1288  0.1851
  709TMC3    C210479   0.554   0.085  13.425 -0.0283 -0.2329  0.0792
  709TMC3    C310480   0.421   0.079  13.472  0.4325  0.1796 -0.2682
  709TMC3    C410481   0.591   0.250  13.592  0.5537  0.1501 -0.2482
  709TMC3    C510482   0.462   0.235  13.642 -0.4020  0.6147  0.2452
  709TMC3    C610483   0.371   0.152  13.578 -0.2908 -0.2043  0.0271
  709TMC3     C10484   0.769   0.124  13.494 -0.6397  0.1228 -0.1610
  709TMC3     O10485   0.832   0.094  13.393 -0.0399  0.2838 -0.2671
  709TMC3     H10486   0.589   0.017  13.349 -2.4809  1.3909 -2.5077
  709TMC3    H110487   0.657   0.323  13.638  1.0584 -0.3065 -0.2521
  709TMC3    H210488   0.268   0.145  13.609 -0.0975  0.6296  0.8446
  709TMC3    C710489   0.480   0.187  13.776  0.0470  0.3170 -0.2636
  709TMC3    C810490   0.316   4.713  13.409  0.2597  0.2758  0.1534
  709TMC3    O110491   0.601   0.173  13.809 -0.2793  0.0676 -0.0177
  709TMC3    O210492   0.203   4.709  13.456  0.2974  0.0602  0.7379
  710TMC3    C110493   1.259   1.349   0.680  0.3448  0.9149  0.7954
  710TMC3    C210494   1.342   1.351   0.568  0.2131 -0.0348  0.2859
  710TMC3    C310495   1.460   1.286   0.574  0.3712 -0.1209 -0.0008
  710TMC3    C410496   1.303   1.297   0.801 -0.2541  0.2092 -0.1292
  710TMC3    C510497   1.427   1.242   0.793 -0.4325  0.2718 -0.1519
  710TMC3    C610498   1.509   1.234   0.686  0.1468  0.2478  0.2892
  710TMC3     C10499   1.124   1.404   0.660  0.3465 -0.5110 -0.0944
  710TMC3     O10500   1.099   1.432   0.544  0.0316 -0.5125 -0.2897
  710TMC3     H10501   1.303   1.390   0.475  0.7363  1.0792  0.5294
  710TMC3    H110502   1.236   1.289   0.886  0.2252  2.4084  0.4443
  710TMC3    H210503   1.592   1.164   0.676 -0.8595 -0.9106  0.1330
  710TMC3    C710504   1.479   1.172   0.913  0.3212  0.7495 -0.5203
  710TMC3    C810505   1.547   1.299   0.463  0.2720 -0.3883 -0.5072
  710TMC3    O110506   1.403   1.120   0.991  0.8085 -0.6047  0.0012
  710TMC3    O210507   1.497   1.285   0.352 -0.3337 -0.1577 -0.2145
  711TMC3    C110508   0.851   2.204  15.290 -0.5318 -0.2986 -0.0569
  711TMC3    C210509   0.866   2.251  15.421 -0.6433 -0.3749  0.9473
  711TMC3    C310510   0.986   2.305  15.459  0.3696 -0.2820  0.5178
  711TMC3    C410511   0.953   2.208  15.198 -0.2360  0.3977 -0.4285
  711TMC3    C510512   1.073   2.268  15.233 -0.3273  0.0273  0.3804
  711TMC3    C610513   1.084   2.324  15.360  0.1028  0.0279  0.1084
  711TMC3     C10514   0.724   2.184  15.223 -0.4364 -0.1335  0.0534
  711TMC3     O10515   0.724   2.137  15.111 -0.3720 -0.3349 -0.3415
  711TMC3     H10516   0.788   2.233  15.495 -0.8763 -0.6530  0.6319
  711TMC3    H110517   0.940   2.166  15.099 -0.7931 -1.5975  0.4976
  711TMC3    H210518   1.174   2.379  15.386 -1.2469  2.3158 -0.0743
  711TMC3    C710519   1.197   2.200  15.211  0.2734  0.1840  1.1591
  711TMC3    C810520   1.052   2.273  15.591 -0.3947 -0.3690  0.6744
  711TMC3    O110521   1.294   2.218  15.280 -0.4844 -0.0569  0.3129
  711TMC3    O210522   0.993   2.284  15.697 -0.2683  0.2468 -0.7094
  712MPD2     C10523   2.893   3.419  14.306 -0.4423  0.2954 -0.2099
  712MPD2    C110524   2.790   3.403  14.213  0.4943 -0.1150  0.4669
  712MPD2    C210525   2.778   3.492  14.110  1.0046  0.0131 -0.3676
  712MPD2    C310526   2.879   3.588  14.099 -0.0324  0.1442  0.5064
  712MPD2    C410527   2.985   3.591  14.188 -0.0354  0.9750  0.8698
  712MPD2    C510528   2.986   3.516  14.298 -0.9112 -0.1983  0.4056
  712MPD2     H10529   2.694   3.489  14.041  0.0898 -0.9394  0.7781
  712MPD2    H110530   3.047   3.679  14.177  2.7522 -1.2494 -1.0530
  712MPD2    H210531   2.900   3.357  14.394 -3.2724  0.8044  0.3588
  712MPD2    H310532   3.064   3.538  14.370  1.8327 -1.2909 -2.2135
  712MPD2     N10533   2.882   3.679  13.992  0.4243 -0.3545  0.3492
  712MPD2    H510534   2.963   3.740  13.986 -1.5054  1.8891 -2.7949
  712MPD2    N110535   2.701   3.302  14.223  0.1849 -0.3636  0.1818
  712MPD2    H710536   2.621   3.321  14.163 -0.7796 -4.1295  0.2992
  713TMC3    C110537   2.802   3.798  13.805  0.0771 -0.0457 -0.9309
  713TMC3    C210538   2.937   3.842  13.790 -0.2293 -0.4388  0.1045
  713TMC3    C310539   2.955   3.942  13.699  0.2683 -0.1644  0.2790
  713TMC3    C410540   2.692   3.853  13.748  0.1696 -0.1380  0.2056
  713TMC3    C510541   2.722   3.966  13.678  0.4497  0.3868  0.6133
  713TMC3    C610542   2.847   3.998  13.636 -0.4135 -1.0818  0.4366
  713TMC3     C10543   2.782   3.695  13.902  1.0203 -0.1736  0.0624
  713TMC3     O10544   2.666   3.658  13.914  0.0671  0.1832 -0.0560
  713TMC3     H10545   3.012   3.764  13.797  0.9054  0.5523 -0.9988
  713TMC3    H110546   2.591   3.814  13.756  0.0143 -0.1033 -1.5191
  713TMC3    H210547   2.852   4.077  13.560  0.4813  0.7294  2.3696
  713TMC3    C710548   2.622   4.061  13.663  0.1112  0.1317  0.1920
  713TMC3    C810549   3.086   3.966  13.644  0.4317  0.0184 -0.9984
  713TMC3    O110550   2.513   4.018  13.625  0.0898  0.4522 -0.0493
  713TMC3    O210551   3.090   4.008  13.529 -0.7358 -0.3727 -0.8453
  714MPD2     C10552   4.312   2.265   1.442 -0.7547 -0.5079  0.1851
  714MPD2    C110553   4.402   2.214   1.351 -0.1869 -0.7062  0.6946
  714MPD2    C210554   4.349   2.175   1.227 -0.2663 -0.1752 -0.3150
  714MPD2    C310555   4.222   2.192   1.194 -0.2013 -0.8971 -0.3954
  714MPD2    C410556   4.130   2.250   1.284  0.2178  0.4330  0.6635
  714MPD2    C510557   4.179   2.288   1.405 -0.1576  1.1043 -0.4242
  714MPD2     H10558   4.417   2.138   1.152 -0.5565 -0.4922 -0.4221
  714MPD2    H110559   4.026   2.256   1.255  0.1054 -1.2682  0.7425
  714MPD2    H210560   4.337   2.298   1.542 -0.9193  2.6172 -0.8114
  714MPD2    H310561   4.113   2.330   1.480  0.2039  2.6712 -0.9919
  714MPD2     N10562   4.175   2.149   1.068 -0.2450 -0.0108 -0.6043
  714MPD2    H510563   4.238   2.094   1.009  2.5026  0.1282  2.1931
  714MPD2    N110564   4.533   2.194   1.393 -0.0972 -0.4425 -0.0218
  714MPD2    H710565   4.558   2.243   1.478  2.6651 -1.0508 -0.4868
  715TMC3    C110566   0.025   2.101   1.398  0.0969 -0.1530  0.1513
  715TMC3    C210567   0.101   1.990   1.364 -0.4600  0.2984  0.2213
  715TMC3    C310568   0.218   1.969   1.431 -0.2068 -0.6405 -0.6793
  715TMC3    C410569   0.058   2.179   1.508  0.6276  0.2990 -0.0689
  715TMC3    C510570   0.176   2.153   1.571 -0.1667  0.5734  0.9385
  715TMC3    C610571   0.255   2.053   1.532 -0.1139  0.0843  0.7332
  715TMC3     C10572   4.625   2.119   1.324 -0.7510  0.2514 -0.1638
  715TMC3     O10573   4.606   2.049   1.228 -0.0625  0.2793 -0.3273
  715TMC3     H10574   0.072   1.924   1.283  0.3757 -0.2919  0.4101
  715TMC3    H110575   4.718   2.264   1.533 -0.0715 -1.0316  2.6639
  715TMC3    H210576   0.342   2.026   1.591 -0.8180 -2.1606  0.7521
  715TMC3    C710577   0.229   2.236   1.676 -0.5264 -0.1140  0.3146
  715TMC3    C810578   0.307   1.853   1.401  0.5682 -0.8934 -0.1188
  715TMC3    O110579   0.348   2.227   1.709 -0.2689 -0.2751 -0.1068
  715TMC3    O210580   0.256   1.759   1.339 -0.2214  0.4775  0.3468
  716MPD2     C10581   4.535   3.767  10.100  0.6965 -0.0441  0.7647
  716MPD2    C110582   4.419   3.711  10.050  0.1798 -0.8769 -0.1327
  716MPD2    C210583   4.412   3.571  10.062 -0.4164  0.9200 -0.5076
  716MPD2    C310584   4.515   3.496  10.109 -0.3211  0.5101 -0.1298
  716MPD2    C410585   4.625   3.557  10.150 -0.6795  0.3995 -0.5348
  716MPD2    C510586   4.643   3.692  10.137 -0.5377 -0.2337 -0.1165
  716MPD2     H10587   4.322   3.520  10.029  0.8410 -2.0854  0.6989
  716MPD2    H110588   4.712   3.503  10.186  0.0516  0.1911 -2.6062
  716MPD2    H210589   4.542   3.875  10.104  1.0057 -0.0444  0.2697
  716MPD2    H310590   0.004   3.738  10.187 -0.4474 -0.4064 -0.1100
  716MPD2     N10591   4.503   3.357  10.107 -0.1138 -0.5111 -0.7649
  716MPD2    H510592   4.426   3.318  10.053 -0.4138  1.5120 -1.7994
  716MPD2    N110593   4.311   3.795  10.003  0.0824 -0.5763 -0.2554
  716MPD2    H710594   4.343   3.889   9.979 -0.0117  0.0580  2.1677
  717TMC3    C110595   4.555   3.134  10.124  0.2347  0.1997 -0.5334
  717TMC3    C210596   4.491   3.113  10.006 -0.6200  0.2757 -0.3469
  717TMC3    C310597   4.459   2.983   9.974  0.0139 -0.2265 -0.4325
  717TMC3    C410598   4.606   3.027  10.197  0.6546 -0.7582 -0.7856
  717TMC3    C510599   4.571   2.900  10.156  0.6373  0.5157 -0.0787
  717TMC3    C610600   4.504   2.876  10.036  0.0289 -0.0293 -0.7376
  717TMC3     C10601   4.582   3.266  10.170  0.5418 -0.1340 -0.7433
  717TMC3     O10602   4.664   3.277  10.258 -0.2980 -0.2463 -0.0960
  717TMC3     H10603   4.458   3.195   9.942 -0.7336 -0.1231 -0.8000
  717TMC3    H110604   4.678   3.045  10.276  0.9858 -0.4908 -1.1554
  717TMC3    H210605   4.475   2.774  10.013  1.1152 -0.1533 -1.5091
  717TMC3    C710606   4.646   2.790  10.222  0.4832  0.6009  0.2948
  717TMC3    C810607   4.376   2.975   9.858 -1.0039  0.0688  0.6650
  717TMC3    O110608   4.682   2.697  10.153 -0.3805  0.2621  0.0600
  717TMC3    O210609   4.303   3.068   9.825 -0.0625  0.1156  0.7441
  718MPD2     C10610   4.368   3.241  12.913 -0.3931  0.1794  0.2956
  718MPD2    C110611   4.290   3.281  12.808 -0.6087  0.7163 -0.6965
  718MPD2    C210612   4.162   3.331  12.845 -0.1051  0.0007  0.0400
  718MPD2    C310613   4.120   3.338  12.978 -0.2788 -0.1151 -0.0490
  718MPD2    C410614   4.203   3.282  13.077 -0.4155  0.9901 -0.3360
  718MPD2    C510615   4.326   3.235  13.041  0.5361 -0.4898 -0.9560
  718MPD2     H10616   4.108   3.379  12.764 -1.7000  0.5357  1.4166
  718MPD2    H110617   4.182   3.294  13.183 -2.0668 -2.2218 -0.2801
  718MPD2    H210618   4.469   3.209  12.890 -0.5886 -0.3969  0.2375
  718MPD2    H310619   4.393   3.213  13.123 -0.5745  0.8750  0.3281
  718MPD2     N10620   3.991   3.395  12.999  0.0717 -0.4304  0.4474
  718MPD2    H510621   3.951   3.422  12.910  2.0999  1.3684  0.0836
  718MPD2    N110622   4.333   3.266  12.674  0.1853  0.0136  0.4284
  718MPD2    H710623   4.433   3.256  12.661  0.4448  0.1775  2.1843
  719TMC3    C110624   4.318   3.326  12.439 -0.7261 -0.3622  0.1832
  719TMC3    C210625   4.229   3.346  12.339  0.4101  0.1288 -0.3132
  719TMC3    C310626   4.261   3.452  12.255 -0.1927 -0.3821 -0.8080
  719TMC3    C410627   4.446   3.389  12.442  0.3810 -0.2946 -0.6632
  719TMC3    C510628   4.481   3.478  12.346  0.4045  0.2310  0.6721
  719TMC3    C610629   4.384   3.519  12.256  0.1651 -0.2817  0.2360
  719TMC3     C10630   4.253   3.306  12.565 -0.0474 -0.2529 -0.2034
  719TMC3     O10631   4.132   3.304  12.561 -0.5618  0.4096  0.5961
  719TMC3     H10632   4.136   3.292  12.324  0.8570 -0.8449  0.4064
  719TMC3    H110633   4.507   3.365  12.528 -0.2374  2.0644  0.4127
  719TMC3    H210634   4.399   3.601  12.187 -0.5250 -1.0609 -0.8529
  719TMC3    C710635   4.617   3.538  12.355 -0.9039 -0.0370  0.2607
  719TMC3    C810636   4.155   3.545  12.245 -0.3034  0.2957  1.1977
  719TMC3    O110637   4.671   3.536  12.466  0.0176  0.0122 -0.5469
  719TMC3    O210638   4.172   3.650  12.190 -0.4304 -0.0675  0.3817
  720MPD2     C10639   2.238   0.792  14.131  0.6076  0.6654  0.6227
  720MPD2    C110640   2.321   0.784  14.021 -0.1704 -0.9375  0.0162
  720MPD2    C210641   2.454   0.739  14.035 -0.5514  0.2074  0.2410
  720MPD2    C310642   2.507   0.700  14.159 -0.0983  0.1936  0.4893
  720MPD2    C410643   2.419   0.714  14.268  0.3140 -0.4035  0.0575
  720MPD2    C510644   2.291   0.754  14.252  0.5147 -0.3153 -0.5054
  720MPD2     H10645   2.518   0.749  13.947 -1.3976  1.6668 -0.2005
  720MPD2    H110646   2.443   0.679  14.368  3.6525 -3.6448 -1.8688
  720MPD2    H210647   2.137   0.829  14.129  0.0602 -0.7993  1.1608
  720MPD2    H310648   2.227   0.773  14.338  1.0285  1.5086 -0.5171
  720MPD2     N10649   2.639   0.680  14.168 -0.5227 -0.1820 -0.8369
  720MPD2    H510650   2.687   0.696  14.080  2.3565 -0.2360  0.7059
  720MPD2    N110651   2.277   0.835  13.899  0.3452 -0.7289  0.4354
  720MPD2    H710652   2.344   0.821  13.824 -3.8557 -1.2353 -3.2263
  721TMC3    C110653   2.843   0.600  14.257  0.1238 -0.3711 -0.0895
  721TMC3    C210654   2.916   0.544  14.360  0.1148 -0.3382 -0.0173
  721TMC3    C310655   3.052   0.550  14.352 -0.5439  0.7552 -0.5488
  721TMC3    C410656   2.906   0.670  14.150  0.1113  0.1789 -0.6034
  721TMC3    C510657   3.040   0.651  14.138 -0.4972 -0.4564  0.6528
  721TMC3    C610658   3.116   0.593  14.235 -0.2762  0.4563 -0.5887
  721TMC3     C10659   2.706   0.646  14.284 -1.3903 -0.2534 -0.6683
  721TMC3     O10660   2.657   0.621  14.396 -0.0747  0.1845  0.5245
  721TMC3     H10661   2.865   0.511  14.450  2.8532  0.2320  1.7347
  721TMC3    H110662   2.851   0.734  14.082 -3.2639  0.7568  2.6893
  721TMC3    H210663   3.223   0.578  14.234 -0.3522 -0.0890 -0.4740
  721TMC3    C710664   3.110   0.703  14.027  0.9505  0.1121  0.8644
  721TMC3    C810665   3.130   0.487  14.455  0.8031  0.8106 -0.6729
  721TMC3    O110666   3.226   0.728  14.045  0.2846  0.1223 -0.0570
  721TMC3    O210667   3.222   0.414  14.427  0.0712 -0.4874 -0.3441
  722MPD2     C10668   1.537   4.077  13.544  0.5120  0.3616 -0.1876
  722MPD2    C110669   1.571   4.139  13.426  0.2429  0.0221 -0.7048
  722MPD2    C210670   1.487   4.124  13.312 -0.1879  0.3996 -0.1242
  722MPD2    C310671   1.368   4.055  13.319  0.1305  0.5668 -0.2919
  722MPD2    C410672   1.334   4.001  13.444 -0.7230 -0.2453 -1.0184
  722MPD2    C510673   1.415   4.012  13.552 -0.1718 -0.4493  0.2684
  722MPD2     H10674   1.499   4.170  13.214 -1.8203 -0.9157 -0.9461
  722MPD2    H110675   1.240   3.949  13.458 -0.7799  0.0036 -0.4720
  722MPD2    H210676   1.596   4.075  13.635 -1.1345  2.3245  0.9404
  722MPD2    H310677   1.368   3.973  13.642 -0.2941 -2.7983 -0.8037
  722MPD2     N10678   1.283   4.060  13.213 -0.2883  0.2897 -0.6254
  722MPD2    H510679   1.314   4.121  13.138 -0.6150  2.7396  1.2410
  722MPD2    N110680   1.694   4.203  13.408  0.3646  0.4531 -0.0598
  722MPD2    H710681   1.709   4.223  13.309  0.3071 -2.1740 -0.6116
  723TMC3    C110682   1.095   4.022  13.081 -0.2800  0.0921 -0.3516
  723TMC3    C210683   1.006   3.933  13.023 -0.0421  0.5016  0.4858
  723TMC3    C310684   0.960   3.967  12.896 -0.7346  0.5964 -0.7256
  723TMC3    C410685   1.124   4.142  13.024  0.7194 -0.4990  0.2775
  723TMC3    C510686   1.066   4.172  12.902 -0.5592 -0.7941  0.0042
  723TMC3    C610687   0.990   4.084  12.839  0.2206  0.1117  0.3258
  723TMC3     C10688   1.170   3.982  13.196 -0.0794  0.9169  0.0325
  723TMC3     O10689   1.128   3.895  13.268 -0.1797  0.6837  0.3897
  723TMC3     H10690   0.983   3.842  13.077  1.5314 -1.0905 -1.5471
  723TMC3    H110691   1.189   4.215  13.071 -1.0255  2.6968 -2.2667
  723TMC3    H210692   0.942   4.117  12.748  0.7650 -1.8429 -0.6826
  723TMC3    C710693   1.089   4.302  12.837  0.1650  1.1589  0.4149
  723TMC3    C810694   0.883   3.875  12.818  0.1802 -0.5827 -0.4616
  723TMC3    O110695   1.058   4.311  12.719 -0.5625  0.0590  1.0123
  723TMC3    O210696   0.803   3.939  12.752  0.1951 -0.0126  0.4650
  724TMC3    C110697   1.322   1.669   9.458  0.0541  0.0052 -0.6932
  724TMC3    C210698   1.276   1.774   9.525 -0.4546 -0.4942 -0.3920
  724TMC3    C310699   1.368   1.882   9.529 -0.2981  0.4984 -0.0275
  724TMC3    C410700   1.432   1.667   9.381 -0.1075  0.7625 -0.4439
  724TMC3    C510701   1.509   1.779   9.386  0.3633  0.0549 -0.0075
  724TMC3    C610702   1.476   1.892   9.456  0.3549  0.0526 -0.5287
  724TMC3     C10703   1.251   1.547   9.476  0.8951  0.0451 -0.1264
  724TMC3     O10704   1.131   1.551   9.510  0.7932 -0.0883  0.2785
  724TMC3     H10705   1.192   1.765   9.593  0.4065  0.5331  0.8160
  724TMC3    H110706   1.465   1.585   9.318 -0.0812  0.2362  0.2573
  724TMC3    H210707   1.539   1.980   9.452  1.2911 -0.5278  1.1503
  724TMC3    C710708   1.621   1.791   9.293  0.6677 -0.1846  0.3262
  724TMC3    C810709   1.351   1.975   9.635 -0.1095 -0.0095  0.5345
  724TMC3    O110710   1.708   1.869   9.329  0.0347  0.0150  0.3139
  724TMC3    O210711   1.232   1.988   9.670  0.1172 -0.0641 -0.3215
  725TMC3    C110712   2.716   1.045  13.004 -0.3877 -1.0053  0.0436
  725TMC3    C210713   2.730   1.008  12.873  0.6648 -0.3235  0.3031
  725TMC3    C310714   2.775   0.882  12.850 -0.9807 -0.1548  0.1085
  725TMC3    C410715   2.721   0.962  13.116 -0.0232 -0.0828 -0.3241
  725TMC3    C510716   2.772   0.838  13.089 -0.3062 -0.0766  0.4547
  725TMC3    C610717   2.786   0.797  12.958 -0.6239 -0.7698 -0.1542
  725TMC3     C10718   2.737   1.185  13.034  0.3132 -0.9563  0.0310
  725TMC3     O10719   2.705   1.273  12.954  0.0048 -0.1650  0.0445
  725TMC3     H10720   2.698   1.069  12.789 -1.2153 -2.4083 -0.4911
  725TMC3    H110721   2.688   0.996  13.214  0.1792  0.0447 -0.2986
  725TMC3    H210722   2.814   0.693  12.942 -3.2080 -1.5476  0.3828
  725TMC3    C710723   2.871   0.799  13.178 -0.0013  0.0613 -0.0285
  725TMC3    C810724   2.761   0.822  12.719 -0.2488  0.1154 -0.1340
  725TMC3    O110725   2.855   0.831  13.298 -0.0205  0.1134 -0.0581
  725TMC3    O210726   2.739   0.702  12.714 -0.6637 -0.2359 -0.3644
  726MPD2     C10727   1.844   2.178  10.849  0.4367  0.1104 -0.3742
  726MPD2    C110728   1.756   2.246  10.769  0.4981  0.1891 -0.3492
  726MPD2    C210729   1.662   2.171  10.701  0.9595 -0.6077 -0.2615
  726MPD2    C310730   1.660   2.033  10.697 -0.1372  0.2664 -0.4626
  726MPD2    C410731   1.758   1.968  10.764 -0.1687 -0.1592 -0.6446
  726MPD2    C510732   1.849   2.038  10.841 -0.1954 -0.6274 -0.0220
  726MPD2     H10733   1.579   2.225  10.657  2.6440  1.3128 -1.0816
  726MPD2    H110734   1.757   1.860  10.759  2.8234 -0.2737  1.5448
  726MPD2    H210735   1.910   2.228  10.919 -0.2794 -2.7078  2.3382
  726MPD2    H310736   1.929   1.987  10.892  1.6749  1.1573 -1.1190
  726MPD2     N10737   1.551   1.960  10.644 -0.6010  0.8758  0.1997
  726MPD2    H510738   1.565   1.860  10.640  0.2508  0.9814  0.6453
  726MPD2    N110739   1.735   2.382  10.771 -0.7292 -0.0309  0.3222
  726MPD2    H710740   1.652   2.406  10.720 -0.9338 -0.6625  0.3538
  727TMC3    C110741   1.778   2.614  10.816 -0.0513  0.8842 -0.0162
  727TMC3    C210742   1.888   2.688  10.774 -0.0773 -0.3902 -0.2860
  727TMC3    C310743   1.868   2.804  10.709  0.4175  0.1973 -0.5851
  727TMC3    C410744   1.652   2.643  10.769 -0.0062  0.3162  0.5938
  727TMC3    C510745   1.636   2.754  10.691 -0.7400  0.7396  0.7672
  727TMC3    C610746   1.744   2.841  10.667  0.3276 -0.6969 -0.8852
  727TMC3     C10747   1.809   2.476  10.833  0.4460  0.0679 -0.3375
  727TMC3     O10748   1.923   2.449  10.873  0.7411  0.2615 -0.3498
  727TMC3     H10749   1.986   2.673  10.818 -1.5200 -1.9033  2.4353
  727TMC3    H110750   1.568   2.590  10.811  1.4479 -1.1855  1.6220
  727TMC3    H210751   1.737   2.916  10.590  2.2345  1.0621  0.6463
  727TMC3    C710752   1.504   2.799  10.650  0.0897 -0.5419 -0.4425
  727TMC3    C810753   1.987   2.856  10.648  0.0780 -0.3660  0.1435
  727TMC3    O110754   1.492   2.917  10.621 -0.1239 -0.1436 -0.2878
  727TMC3    O210755   2.095   2.804  10.674  0.2999 -0.1218  0.4148
  728TMC3    C110756   0.642   1.053  15.037 -0.4964 -0.2666  0.3659
  728TMC3    C210757   0.751   1.099  14.969  0.2404 -0.2471 -0.2344
  728TMC3    C310758   0.735   1.141  14.839  0.4170 -0.1593 -0.2356
  728TMC3    C410759   0.516   1.039  14.976  0.6048 -0.6853 -0.1519
  728TMC3    C510760   0.507   1.090  14.853  0.0811 -0.7123 -0.6932
  728TMC3    C610761   0.609   1.134  14.777  0.7373  0.4420 -0.9060
  728TMC3     C10762   0.657   1.014  15.175  0.2757  0.2607  0.5877
  728TMC3     O10763   0.767   1.036  15.230  0.1307 -0.5271 -0.1869
  728TMC3     H10764   0.846   1.099  15.021 -0.1823 -0.7019  0.5359
  728TMC3    H110765   0.427   0.992  15.015 -0.4512  3.0494  1.8850
  728TMC3    H210766   0.602   1.171  14.676 -1.1771  1.5792 -0.3570
  728TMC3    C710767   0.374   1.123  14.819 -0.5166  0.3875 -0.2034
  728TMC3    C810768   0.850   1.195  14.768 -0.6102 -0.4568  0.1353
  728TMC3    O110769   0.285   1.064  14.878 -0.6139 -0.2123  0.1280
  728TMC3    O210770   0.825   1.252  14.665 -0.7550  0.0836  0.3193
  729MPD2     C10771   3.054   2.368  15.858 -0.1359 -0.8567 -0.4797
  729MPD2    C110772   3.062   2.372  15.993 -0.6850  0.4986 -0.0217
  729MPD2    C210773   2.949   2.348  16.068 -0.1191  0.9005 -0.5925
  729MPD2    C310774   2.826   2.339  16.011  0.1654 -0.1060  0.0961
  729MPD2    C410775   2.811   2.344  15.873  0.0455 -0.2671  0.9036
  729MPD2    C510776   2.931   2.350  15.802 -0.1179  0.0154 -0.4314
  729MPD2     H10777   2.953   2.335  16.175  2.2469  0.1926 -0.7716
  729MPD2    H110778   2.713   2.340  15.826  0.3563  0.6085  0.1981
  729MPD2    H210779   3.148   2.380  15.806 -1.2104  0.3159 -2.1352
  729MPD2    H310780   2.922   2.355  15.694 -1.0358  0.1990 -0.3466
  729MPD2     N10781   2.706   2.302  16.075 -0.1596  0.7407 -0.6344
  729MPD2    H510782   2.613   2.317  16.036 -0.2216  3.3201  0.4844
  729MPD2    N110783   3.187   2.411  16.044 -0.2808 -0.3897  0.0774
  729MPD2    H710784   3.263   2.423  15.978  1.2191 -1.2565  1.6758
  730TMC3    C110785   2.563   2.214  16.249  0.8858  0.4986  0.0731
  730TMC3    C210786   2.559   2.110  16.343  0.1433 -0.1426  0.5677
  730TMC3    C310787   2.492   2.125  16.457 -0.0219 -0.0025 -0.0253
  730TMC3    C410788   2.487   2.322  16.271  0.1225  1.5869 -0.3283
  730TMC3    C510789   2.410   2.327  16.384  0.0117  0.1179 -0.6467
  730TMC3    C610790   2.401   2.226  16.471 -0.5700  0.7196 -0.6395
  730TMC3     C10791   2.695   2.245  16.201 -0.4968 -0.0536  0.6414
  730TMC3     O10792   2.780   2.188  16.270  0.5170 -0.0352 -0.1567
  730TMC3     H10793   2.615   2.019  16.324 -1.8788 -1.4586  0.8471
  730TMC3    H110794   2.491   2.413  16.213 -0.6235  1.8230 -0.0146
  730TMC3    H210795   2.360   2.239  16.571  1.6705  2.9799 -0.0217
  730TMC3    C710796   2.382   2.460  16.432  0.0708 -0.2774  0.0158
  730TMC3    C810797   2.582   2.119  16.573  0.4192  0.5347  0.1891
  730TMC3    O110798   2.443   2.552  16.380 -0.1813  0.3196 -0.4127
  730TMC3    O210799   2.539   2.169  16.678  0.8165  0.6442  0.4621
  731MPD2     C10800   3.104   0.416  12.440 -0.5508 -0.5533  0.2956
  731MPD2    C110801   3.153   0.295  12.405 -0.1373  0.1934  0.3705
  731MPD2    C210802   3.100   0.177  12.462  0.6236 -0.7838 -0.1282
  731MPD2    C310803   3.006   0.193  12.565  0.0830 -0.5934 -0.3220
  731MPD2    C410804   2.973   0.322  12.607  0.9729 -0.0687 -0.0960
  731MPD2    C510805   3.015   0.432  12.546  0.5002  0.9247 -0.2835
  731MPD2     H10806   3.137   0.081  12.428  0.5480 -0.2170 -1.8196
  731MPD2    H110807   2.903   0.332  12.689  0.9871  1.1011 -0.2394
  731MPD2    H210808   3.135   0.503  12.384  2.3305 -0.0520  2.7163
  731MPD2    H310809   2.963   0.523  12.572 -0.9437 -0.3544  1.2736
  731MPD2     N10810   2.952   0.075  12.625  0.2107 -0.6980  0.4882
  731MPD2    H510811   2.995   4.713  12.589 -2.7978 -0.9471 -2.4845
  731MPD2    N110812   3.254   0.288  12.306 -0.0167 -0.2286  0.0337
  731MPD2    H710813   3.276   0.378  12.266 -1.6821  0.8718  1.6201
  732TMC3    C110814   3.394   0.205  12.132  0.2897 -0.2789  0.1095
  732TMC3    C210815   3.406   0.104  12.040  0.3152  0.1762 -0.4681
  732TMC3    C310816   3.459   0.125  11.917  0.4346 -0.7555 -0.1847
  732TMC3    C410817   3.436   0.332  12.107 -0.1264 -0.1077  0.2574
  732TMC3    C510818   3.499   0.347  11.992 -0.1129  0.2389  0.6155
  732TMC3    C610819   3.512   0.251  11.893  0.0412 -0.1637  0.1770
  732TMC3     C10820   3.308   0.176  12.244 -0.0473 -0.7478  0.3239
  732TMC3     O10821   3.300   0.058  12.269  0.1547  0.3110  0.1547
  732TMC3     H10822   3.373   0.005  12.071 -3.4390  1.7177  0.3360
  732TMC3    H110823   3.421   0.414  12.177 -0.5113 -1.8511  2.2029
  732TMC3    H210824   3.565   0.274  11.801  0.1804 -2.9663 -0.4457
  732TMC3    C710825   3.595   0.456  11.978  0.5209 -0.4827  0.3056
  732TMC3    C810826   3.404   0.046  11.815  0.2713  0.0004 -0.0875
  732TMC3    O110827   3.666   0.467  11.882  0.8695 -0.7199 -0.1899
  732TMC3    O210828   3.479   4.714  11.737  0.0413 -0.1633 -0.3394
  733TMC3    C110829   3.560   3.443  13.078 -0.1187  0.1630 -0.4296
  733TMC3    C210830   3.678   3.414  13.136 -0.0422  0.3955  0.1654
  733TMC3    C310831   3.796   3.466  13.081  0.6149  0.1818  0.2996
  733TMC3    C410832   3.553   3.533  12.975 -0.0684 -0.0176  0.6235
  733TMC3    C510833   3.667   3.580  12.917 -0.7060  0.4183  0.6260
  733TMC3    C610834   3.791   3.546  12.971  0.3125  0.4475  1.2568
  733TMC3     C10835   3.437   3.417  13.150  0.0338  0.4847  0.6097
  733TMC3     O10836   3.338   3.421  13.079 -0.0494 -0.2701  0.2324
  733TMC3     H10837   3.692   3.338  13.212 -0.9660 -2.0898 -2.1612
  733TMC3    H110838   3.462   3.550  12.919  0.3066 -0.3330 -0.0810
  733TMC3    H210839   3.874   3.603  12.932 -1.2680  1.9882  0.1712
  733TMC3    C710840   3.667   3.636  12.784 -0.0040  0.0510 -0.2962
  733TMC3    C810841   3.925   3.409  13.118 -0.7570  0.0954  0.2990
  733TMC3    O110842   3.570   3.706  12.758  0.7516 -0.0084  0.1185
  733TMC3    O210843   3.950   3.367  13.228 -0.2722 -0.7310  0.2064
  734MPD2     C10844   0.958   0.641  12.487 -0.4715 -0.2170  0.0474
  734MPD2    C110845   0.880   0.590  12.380 -0.3869 -0.5505 -0.7636
  734MPD2    C210846   0.855   0.675  12.272  0.0122  0.0953  0.5762
  734MPD2    C310847   0.900   0.808  12.271 -0.5920 -0.2936 -0.0600
  734MPD2    C410848   0.991   0.848  12.374  1.0493  0.4319  0.3898
  734MPD2    C510849   1.016   0.765  12.482 -0.0811  0.5418  0.3280
  734MPD2     H10850   0.789   0.643  12.192  1.0234  1.9577 -0.9948
  734MPD2    H110851   1.038   0.946  12.374  1.9658 -0.0042  0.2833
  734MPD2    H210852   0.956   0.576  12.574 -1.1168 -1.5541 -0.9556
  734MPD2    H310853   1.070   0.798  12.570 -1.6918 -0.7991  1.8164
  734MPD2     N10854   0.879   0.878  12.151 -0.3834  0.4669 -0.1731
  734MPD2    H510855   0.846   0.824  12.072 -3.2090  2.0063 -0.0355
  734MPD2    N110856   0.840   0.455  12.384 -0.2727 -0.4334  0.2035
  734MPD2    H710857   0.878   0.390  12.452  0.9575 -0.8861 -0.9348
  735TMC3    C110858   0.744   0.266  12.282 -0.6776 -0.6311  0.0828
  735TMC3    C210859   0.643   0.232  12.196  0.2109 -0.6365  0.3911
  735TMC3    C310860   0.665   0.165  12.086 -0.0710 -0.9148  0.3512
  735TMC3    C410861   0.859   0.196  12.267  0.3048 -0.3533  0.2956
  735TMC3    C510862   0.882   0.124  12.154 -0.3610 -0.0425 -0.3409
  735TMC3    C610863   0.787   0.116  12.058  0.4494 -0.2605  0.2624
  735TMC3     C10864   0.741   0.407  12.308  0.0195  0.1558  0.5819
  735TMC3     O10865   0.648   0.466  12.255 -0.0379  0.0115 -0.1486
  735TMC3     H10866   0.545   0.259  12.232 -0.3299 -2.2691  0.1109
  735TMC3    H110867   0.945   0.236  12.320  1.0016 -0.4236 -0.8052
  735TMC3    H210868   0.806   0.072  11.961 -0.0416  2.4139 -1.0574
  735TMC3    C710869   1.014   0.150  12.096  0.5531 -0.0549 -0.6987
  735TMC3    C810870   0.597   0.230  11.976  0.4063 -0.0647 -0.5169
  735TMC3    O110871   1.010   0.193  11.980  0.1943 -0.0725 -0.1780
  735TMC3    O210872   0.613   0.170  11.869  0.6962 -0.1025  0.4163
  736MPD2     C10873   1.330   0.126  12.266  0.3853  0.0645  0.8756
  736MPD2    C110874   1.244   0.172  12.168  0.1387 -0.5288 -0.4664
  736MPD2    C210875   1.291   0.243  12.056 -0.2602  0.6033  0.0657
  736MPD2    C310876   1.432   0.254  12.042  0.1177  0.1013 -0.6254
  736MPD2    C410877   1.517   0.214  12.146  0.3228 -0.3271 -0.0244
  736MPD2    C510878   1.459   0.146  12.248 -0.1935 -0.2602  0.1047
  736MPD2     H10879   1.223   0.265  11.974 -0.4806 -0.0185  0.0804
  736MPD2    H110880   1.626   0.218  12.147  0.3647 -1.4835  0.2783
  736MPD2    H210881   1.282   0.084  12.353 -0.5496  1.4615  1.0384
  736MPD2    H310882   1.526   0.115  12.328 -0.4786 -0.2965  0.3290
  736MPD2     N10883   1.486   0.291  11.921 -0.4191  0.1914  0.8826
  736MPD2    H510884   1.586   0.305  11.917 -0.4839  0.2480 -0.5478
  736MPD2    N110885   1.109   0.145  12.194 -0.2549  0.3478  0.3594
  736MPD2    H710886   1.078   0.106  12.283 -2.3110 -0.2906 -0.6242
  737TMC3    C110887   1.508   0.312  11.689 -0.1658 -0.0988  0.1133
  737TMC3    C210888   1.533   0.432  11.623  0.6498  0.2861  0.0277
  737TMC3    C310889   1.560   0.436  11.496  0.6094  0.1765 -0.3632
  737TMC3    C410890   1.505   0.198  11.617  0.0811  0.0006  0.0538
  737TMC3    C510891   1.528   0.208  11.480  0.1859 -0.2786 -0.3769
  737TMC3    C610892   1.566   0.323  11.417 -0.5127 -0.4905 -0.0098
  737TMC3     C10893   1.414   0.301  11.800  0.3552 -0.6624 -0.7787
  737TMC3     O10894   1.295   0.292  11.775  0.3091  0.1730  0.1954
  737TMC3     H10895   1.529   0.517  11.690 -0.4014 -0.0882  0.4502
  737TMC3    H110896   1.467   0.115  11.676  2.2244  0.6349  2.2897
  737TMC3    H210897   1.565   0.337  11.309  0.6111  1.5240  0.2428
  737TMC3    C710898   1.516   0.092  11.401 -0.1527 -0.4874 -0.0772
  737TMC3    C810899   1.641   0.548  11.458  0.2772 -0.4124  0.4684
  737TMC3    O110900   1.469   4.717  11.459  1.3359 -0.2178 -0.2267
  737TMC3    O210901   1.651   0.649  11.533  0.3414 -0.4300 -0.5480
  738MPD2     C10902   1.620   4.173  15.007 -0.6735  0.4833  0.0074
  738MPD2    C110903   1.715   4.152  15.102  0.1458  0.6853 -0.1200
  738MPD2    C210904   1.825   4.237  15.115 -0.4651  0.1911  0.1358
  738MPD2    C310905   1.840   4.345  15.021 -0.8843 -0.2001  0.0217
  738MPD2    C410906   1.727   4.373  14.946 -0.1957 -0.9780 -0.7866
  738MPD2    C510907   1.616   4.284  14.941 -0.0219  0.1436 -0.2036
  738MPD2     H10908   1.898   4.210  15.190  0.6508  1.2434 -0.5670
  738MPD2    H110909   1.712   4.461  14.885  0.0227  0.0766  0.6839
  738MPD2    H210910   1.536   4.104  15.004  0.0681 -0.3527 -1.6135
  738MPD2    H310911   1.529   4.321  14.888 -1.9537 -0.6340  2.4698
  738MPD2     N10912   1.952   4.435  15.023  0.2685 -0.0568  0.0340
  738MPD2    H510913   1.953   4.508  14.952  1.7504 -0.2545 -0.1538
  738MPD2    N110914   1.712   4.044  15.189 -0.1418 -0.1109  0.2928
  738MPD2    H710915   1.796   4.016  15.240  0.5873  1.5613 -0.0001
  739TMC3    C110916   2.161   4.522  15.102  0.3346  0.0005  0.0923
  739TMC3    C210917   2.199   4.536  14.973  0.2049  0.6888 -0.3107
  739TMC3    C310918   2.328   4.577  14.948  1.1224 -0.1802 -0.0221
  739TMC3    C410919   2.251   4.550  15.208 -0.5262  0.5018 -0.2413
  739TMC3    C510920   2.374   4.590  15.170 -0.3069 -0.3258  0.2969
  739TMC3    C610921   2.417   4.605  15.046  0.1467 -0.9052  0.4389
  739TMC3     C10922   2.043   4.443  15.126  0.1463  0.1602  0.1277
  739TMC3     O10923   2.049   4.382  15.231  0.3980 -0.0085 -0.3931
  739TMC3     H10924   2.130   4.518  14.892  1.5588 -4.1321 -0.4303
  739TMC3    H110925   2.220   4.549  15.312 -0.7059  1.3328 -0.2858
  739TMC3    H210926   2.514   4.649  15.028 -0.9487  0.8791 -1.0085
  739TMC3    C710927   2.466   4.639  15.268  0.2811  0.7559 -0.0583
  739TMC3    C810928   2.362   4.609  14.808  0.5088  0.2834 -0.1071
  739TMC3    O110929   2.580   4.610  15.244 -0.3528  0.3274 -0.4521
  739TMC3    O210930   2.267   4.650  14.742  0.0141 -0.1111  0.3831
  740TMC3    C110931   2.520   1.083  14.334 -0.1319  0.0119  0.2174
  740TMC3    C210932   2.620   1.056  14.419 -0.2404 -0.7249  0.5237
  740TMC3    C310933   2.742   1.005  14.370 -0.4851 -0.2838  0.2817
  740TMC3    C410934   2.545   1.095  14.194 -0.3784  0.3466 -0.2082
  740TMC3    C510935   2.665   1.050  14.146  0.5627 -0.3816  1.0357
  740TMC3    C610936   2.759   1.001  14.231  0.2254 -0.2401  0.5601
  740TMC3     C10937   2.399   1.126  14.393 -0.1164  0.4788  0.4187
  740TMC3     O10938   2.332   1.212  14.336 -0.6415  0.2365  0.9564
  740TMC3     H10939   2.597   1.059  14.525 -1.7412 -0.3648  0.1746
  740TMC3    H110940   2.470   1.115  14.118  0.4430  0.4075 -0.9921
  740TMC3    H210941   2.854   0.974  14.188  0.5624 -0.1505  1.2576
  740TMC3    C710942   2.680   1.015  14.005 -0.1800 -0.0839  0.2307
  740TMC3    C810943   2.849   0.966  14.460 -0.7066  0.7151  0.0908
  740TMC3    O110944   2.760   0.922  13.984 -0.3212  0.2250 -0.2828
  740TMC3    O210945   2.811   0.948  14.574  0.4771 -0.4503 -0.2431
  741TMC3    C110946   2.528   0.240  14.705  0.0414  0.3127  0.3581
  741TMC3    C210947   2.445   0.256  14.595 -0.0164  0.2932  0.2574
  741TMC3    C310948   2.311   0.281  14.624  0.0259  0.8413  0.7009
  741TMC3    C410949   2.486   0.265  14.832 -0.3511  0.8718  0.7078
  741TMC3    C510950   2.357   0.301  14.856  0.0410  0.6740  0.3793
  741TMC3    C610951   2.261   0.301  14.750  1.0626 -0.1146 -0.2448
  741TMC3     C10952   2.672   0.220  14.687 -0.2053  0.5621  0.2356
  741TMC3     O10953   2.734   0.170  14.779 -0.1010  0.7703  0.2083
  741TMC3     H10954   2.475   0.225  14.496  0.7077  1.1804  0.1964
  741TMC3    H110955   2.552   0.259  14.918  1.8374  0.6596 -0.9958
  741TMC3    H210956   2.162   0.341  14.767  0.6957 -0.6652 -1.1243
  741TMC3    C710957   2.303   0.270  14.991 -0.1885  0.2531 -0.9338
  741TMC3    C810958   2.208   0.283  14.515 -0.6882  0.4333 -0.0424
  741TMC3    O110959   2.382   0.291  15.078 -0.6027  0.1030 -0.0123
  741TMC3    O210960   2.092   0.260  14.547 -0.3116  0.4249 -0.0184
  742TMC3    C110961   1.651   3.100  15.618 -0.6481  0.0859 -0.2365
  742TMC3    C210962   1.597   3.104  15.490 -0.9948 -0.4486  0.2371
  742TMC3    C310963   1.652   3.202  15.411 -0.4937 -0.3041 -0.7253
  742TMC3    C410964   1.746   3.183  15.669 -0.0441 -0.3510 -0.1305
  742TMC3    C510965   1.799   3.272  15.575 -0.5235  1.0110  0.1496
  742TMC3    C610966   1.749   3.285  15.449  0.4392 -0.1757  0.0008
  742TMC3     C10967   1.620   2.981  15.696  0.0574 -0.3614 -0.2469
  742TMC3     O10968   1.581   2.886  15.627 -0.0519 -0.4520  0.4240
  742TMC3     H10969   1.565   3.013  15.440 -0.1272 -0.3528 -0.4935
  742TMC3    H110970   1.793   3.165  15.766 -0.9415  0.1686  0.4036
  742TMC3    H210971   1.794   3.364  15.389 -0.2408  0.6515  0.5748
  742TMC3    C710972   1.935   3.319  15.602  0.0687  0.4530  0.4873
  742TMC3    C810973   1.624   3.208  15.267  0.0165  0.0992  0.7370
  742TMC3    O110974   2.013   3.316  15.507  0.3591 -0.6345 -0.2978
  742TMC3    O210975   1.711   3.253  15.194 -0.0352  0.0242  0.0598
  743MPD2     C10976   4.151   0.129   2.192 -0.4163 -0.0367 -0.5723
  743MPD2    C110977   4.177   0.037   2.093 -0.1090  0.5619 -0.2686
  743MPD2    C210978   4.267   4.657   2.126 -0.1001 -0.1288 -0.0018
  743MPD2    C310979   4.333   4.661   2.245 -0.3844 -0.9725 -0.8651
  743MPD2    C410980   4.300   0.032   2.344  0.0610  0.3015  0.0505
  743MPD2    C510981   4.211   0.128   2.311 -0.3624  0.5438 -0.3456
  743MPD2     H10982   4.304   4.585   2.055  0.0091 -0.5756  0.5118
  743MPD2    H110983   4.340   0.024   2.445  1.2725  3.7081 -0.1843
  743MPD2    H210984   4.083   0.211   2.169  0.3112  0.5365 -0.6592
  743MPD2    H310985   4.172   0.203   2.380  1.1018  0.2284  0.8223
  743MPD2     N10986   4.426   4.555   2.266 -0.3122  0.6528 -0.1641
  743MPD2    H510987   4.437   4.488   2.191  1.0324 -0.6156  1.1791
  743MPD2    N110988   4.116   0.050   1.969  0.3354 -0.1126  0.0805
  743MPD2    H710989   4.076   0.142   1.950  1.8711  0.4140 -0.6454
  744TMC3    C110990   4.077   0.026   1.742 -0.2835 -0.7477 -0.9054
  744TMC3    C210991   4.037   0.157   1.746  0.4657  0.3005  0.3767
  744TMC3    C310992   4.018   0.213   1.617 -0.0885  0.5359 -0.5160
  744TMC3    C410993   4.105   4.677   1.629  0.1757  0.0493  0.0978
  744TMC3    C510994   4.095   0.018   1.507 -0.1766 -0.0956 -0.2817
  744TMC3    C610995   4.058   0.151   1.499  0.4165  0.8152 -0.2788
  744TMC3     C10996   4.117   4.689   1.866  0.2032  0.1155 -0.5140
  744TMC3     O10997   4.154   4.576   1.864 -0.0393  0.2732 -0.0365
  744TMC3     H10998   4.016   0.216   1.834 -3.1371 -0.4189 -0.0080
  744TMC3    H110999   4.142   4.576   1.641  0.8230  0.3367  0.5054
  744TMC3    H211000   4.043   0.200   1.404  0.8258  0.5536 -0.4783
  744TMC3    C711001   4.157   4.687   1.387  0.0640 -0.1413 -0.1544
  744TMC3    C811002   3.952   0.340   1.603  0.3563  0.8749  0.0907
  744TMC3    O111003   4.193   0.045   1.304  0.2249 -0.2604 -0.0457
  744TMC3    O211004   3.962   0.400   1.494  0.4757 -0.4003 -0.1708
  745TMC3    C111005   2.593   3.111  14.293 -0.2763 -0.6829 -1.0519
  745TMC3    C211006   2.540   3.081  14.414  0.4653  0.8042 -0.0587
  745TMC3    C311007   2.404   3.065  14.441  0.3698  0.6747 -0.0509
  745TMC3    C411008   2.508   3.121  14.190  0.3847  0.6557 -0.1109
  745TMC3    C511009   2.376   3.111  14.215 -0.3335  0.0918  0.7657
  745TMC3    C611010   2.319   3.089  14.338 -1.0517  0.0253 -0.7879
  745TMC3     C11011   2.711   3.188  14.300 -0.2369 -0.1114  0.3319
  745TMC3     O11012   2.804   3.143  14.371 -0.0658  0.1986  0.4466
  745TMC3     H11013   2.606   3.091  14.500 -1.7825  3.4783  1.3486
  745TMC3    H111014   2.560   3.140  14.097 -1.9690 -2.1916 -2.0194
  745TMC3    H211015   2.216   3.108  14.366 -1.6365 -0.2262 -2.7228
  745TMC3    C711016   2.287   3.097  14.103  0.1834 -0.5514 -0.2376
  745TMC3    C811017   2.361   3.138  14.559 -0.7039  0.5543 -0.1916
  745TMC3    O111018   2.183   3.038  14.119  0.0287 -0.7099 -0.2159
  745TMC3    O211019   2.398   3.104  14.671 -0.7842  0.2945  0.0898
  746TMC3    C111020   0.496   0.061  10.596 -0.3189  0.0456 -0.2850
  746TMC3    C211021   0.582   0.072  10.490  0.3029  0.3052  0.5424
  746TMC3    C311022   0.588   4.700  10.389 -0.6791 -0.2680 -0.4783
  746TMC3    C411023   0.394   4.690  10.592  0.2829 -0.0794  0.5393
  746TMC3    C511024   0.398   4.604  10.487  0.2091 -0.1895  0.1338
  746TMC3    C611025   0.498   4.598  10.393  0.2525  0.0993 -0.1432
  746TMC3     C11026   0.446   0.180  10.666  0.0056 -0.1012  0.0829
  746TMC3     O11027   0.334   0.177  10.716 -0.3230  0.2886 -0.3512
  746TMC3     H11028   0.642   0.161  10.474 -1.6691  1.4744 -0.2906
  746TMC3    H111029   0.314   4.687  10.664 -1.0935 -1.3402 -1.0539
  746TMC3    H211030   0.497   4.533  10.306 -0.4287 -0.6251  0.3942
  746TMC3    C711031   0.263   4.562  10.448 -0.2490  0.4898 -0.3593
  746TMC3    C811032   0.651   0.007  10.263 -0.5198 -0.0997 -0.2425
  746TMC3    O111033   0.175   4.572  10.534  0.3052  0.2140 -0.1893
  746TMC3    O211034   0.699   4.637  10.203  0.6137  0.2211 -0.6076
  747TMC3    C111035   1.896   4.611  10.419  0.3512 -0.0787  0.2712
  747TMC3    C211036   1.784   4.617  10.495 -0.8365  0.1379  0.1316
  747TMC3    C311037   1.807   4.644  10.630  0.0599 -0.0616  0.0658
  747TMC3    C411038   2.021   4.643  10.469  0.2595 -1.0787  0.6583
  747TMC3    C511039   2.035   4.683  10.592 -0.1246  0.6785 -0.1800
  747TMC3    C611040   1.933   4.676  10.682  0.5534  0.3088 -0.8950
  747TMC3     C11041   1.898   4.568  10.280  0.7639 -0.3870  0.7481
  747TMC3     O11042   1.821   4.620  10.200 -0.4241 -0.9697  0.0896
  747TMC3     H11043   1.682   4.608  10.457 -0.9510  0.5270  0.3501
  747TMC3    H111044   2.111   4.653  10.409 -1.4768  1.4113 -1.5638
  747TMC3    H211045   1.949   4.683  10.789 -0.2434  2.0578 -0.8799
  747TMC3    C711046   2.167   4.672  10.650  0.2370  0.7251  0.2730
  747TMC3    C811047   1.694   4.625  10.719  0.2175  0.2047  0.9545
  747TMC3    O111048   2.246   4.619  10.577  0.3087  0.8191 -0.2282
  747TMC3    O211049   1.605   4.550  10.677 -0.6421  0.6991 -0.2809
  748MPD2     C11050   4.081   0.769   1.729 -0.2732  0.4607  0.1347
  748MPD2    C111051   4.055   0.867   1.820 -0.1369 -0.3334  0.2070
  748MPD2    C211052   4.092   0.995   1.787 -0.2535 -0.2062  0.2934
  748MPD2    C311053   4.166   1.023   1.673  0.5862 -0.1607 -0.8066
  748MPD2    C411054   4.189   0.924   1.587 -0.5522 -0.6870 -0.5349
  748MPD2    C511055   4.154   0.796   1.615 -0.3146 -0.2015  0.2827
  748MPD2     H11056   4.074   1.081   1.850 -0.2521  0.6410 -0.8536
  748MPD2    H111057   4.244   0.934   1.494  1.1425 -3.3286  0.1703
  748MPD2    H211058   4.045   0.669   1.748  0.7213 -0.0688 -0.7530
  748MPD2    H311059   4.183   0.716   1.547 -1.7358 -0.2897 -0.2239
  748MPD2     N11060   4.217   1.154   1.663 -0.0301  0.1579 -0.9543
  748MPD2    H511061   4.204   1.213   1.745  2.0208 -0.5422 -0.1208
  748MPD2    N111062   3.974   0.839   1.932  0.3120 -0.3750 -0.0891
  748MPD2    H711063   3.948   0.742   1.945  0.6189 -0.7620 -2.4500
  749TMC3    C111064   4.356   1.324   1.587 -0.1024  0.8469 -0.0474
  749TMC3    C211065   4.435   1.329   1.704  0.1293  0.5186  0.6025
  749TMC3    C311066   4.521   1.428   1.717 -0.6487 -0.2447  0.0966
  749TMC3    C411067   4.369   1.410   1.482  0.0609 -0.6498 -0.0327
  749TMC3    C511068   4.446   1.517   1.510 -0.1363  0.3792 -0.5236
  749TMC3    C611069   4.518   1.529   1.627 -0.2862  0.1880  0.2317
  749TMC3     C11070   4.277   1.209   1.554 -0.0253 -0.4639 -1.3129
  749TMC3     O11071   4.285   1.171   1.440  0.2114 -0.6178  0.7008
  749TMC3     H11072   4.422   1.253   1.781 -0.0530 -2.6903 -2.5550
  749TMC3    H111073   4.290   1.417   1.409  1.6964 -0.6416 -1.7931
  749TMC3    H211074   4.593   1.606   1.637 -2.0177  1.7617  1.1889
  749TMC3    C711075   4.474   1.613   1.406 -0.4975 -0.0700  0.5620
  749TMC3    C811076   4.645   1.418   1.796 -0.2311 -0.2207  0.3476
  749TMC3    O111077   4.535   1.714   1.438  0.3607  0.2141 -0.6639
  749TMC3    O211078   4.705   1.525   1.823  0.2797 -0.4700  0.4115
  750MPD2     C11079   0.598   1.810  11.065 -0.2213  0.8251 -0.6037
  750MPD2    C111080   0.465   1.780  11.090  0.2406  0.6587  0.8618
  750MPD2    C211081   0.408   1.676  11.008  0.5099 -0.0200  0.1243
  750MPD2    C311082   0.483   1.601  10.919 -0.9049 -0.0990  0.5479
  750MPD2    C411083   0.621   1.629  10.911 -0.2106 -0.1782  0.1964
  750MPD2    C511084   0.677   1.731  10.981  0.0263  0.6452 -0.0498
  750MPD2     H11085   0.303   1.654  11.024  0.4292 -1.6484 -2.6942
  750MPD2    H111086   0.692   1.573  10.850  0.7130  1.7281 -0.4599
  750MPD2    H211087   0.652   1.890  11.114 -1.2076  0.6486  0.7901
  750MPD2    H311088   0.779   1.755  10.955  0.4667 -1.0331  0.1284
  750MPD2     N11089   0.433   1.493  10.832 -0.6412 -0.1315 -0.9653
  750MPD2    H511090   0.503   1.443  10.778 -0.8228 -1.2403 -0.1547
  750MPD2    N111091   0.398   1.864  11.178  0.6673 -0.2407 -0.1888
  750MPD2    H711092   0.452   1.936  11.225 -1.5703  1.5804 -0.4562
  751TMC3    C111093   0.288   1.310  10.774  0.0650  0.4597  0.0318
  751TMC3    C211094   0.162   1.256  10.779  0.1030 -0.5960  0.6173
  751TMC3    C311095   0.149   1.140  10.711 -0.5273 -0.2415  0.0016
  751TMC3    C411096   0.402   1.235  10.731 -0.4844  0.3744  1.3194
  751TMC3    C511097   0.376   1.120  10.657 -0.0190 -0.5645 -0.5862
  751TMC3    C611098   0.251   1.079  10.646  0.5232  0.1868  0.3241
  751TMC3     C11099   0.304   1.439  10.841 -0.1597  0.2398 -0.0153
  751TMC3     O11100   0.211   1.471  10.916 -0.3972  0.2082  0.5321
  751TMC3     H11101   0.068   1.309  10.794  0.6465  0.2480  1.0780
  751TMC3    H111102   0.503   1.274  10.733 -0.7562  1.1501  0.3022
  751TMC3    H211103   0.239   0.990  10.584 -0.4337  0.3456  0.2741
  751TMC3    C711104   0.483   1.076  10.570  0.8596 -0.1742 -0.8254
  751TMC3    C811105   0.016   1.094  10.678 -0.2526  0.3854  0.1076
  751TMC3    O111106   0.584   1.148  10.574 -0.1027 -0.2986  0.0165
  751TMC3    O211107   0.004   1.004  10.590  0.2811  0.6685  0.0748
  752TMC3    C111108   4.178   2.142  16.826 -0.4887  0.6740  0.0600
  752TMC3    C211109   4.148   2.058  16.930 -0.3825  0.4043  0.2171
  752TMC3    C311110   4.135   2.104  17.057 -0.4895 -0.0156  0.3147
  752TMC3    C411111   4.194   2.280  16.850  0.3339 -0.6419  0.2905
  752TMC3    C511112   4.176   2.330  16.979  0.4599 -0.5727  0.4518
  752TMC3    C611113   4.143   2.236  17.080 -0.3007  0.6353  0.3096
  752TMC3     C11114   4.138   2.090  16.701 -0.1832 -0.5484 -0.4498
  752TMC3     O11115   4.175   1.976  16.669  0.1184 -0.3254  0.3640
  752TMC3     H11116   4.117   1.957  16.906  1.3479  0.2843 -1.5940
  752TMC3    H111117   4.217   2.339  16.762  0.8823 -0.7640  0.3536
  752TMC3    H211118   4.121   2.269  17.181 -1.8977 -0.6962  0.3807
  752TMC3    C711119   4.140   2.470  16.997  0.7980 -0.2593  0.4004
  752TMC3    C811120   4.153   2.013  17.179  0.2746 -0.7081  0.4278
  752TMC3    O111121   4.098   2.494  17.111 -0.0879  0.1163 -0.3353
  752TMC3    O211122   4.120   2.065  17.286 -0.7248  0.3610  0.1973
  753TMC3    C111123   0.533   3.434  13.551 -0.1710  0.1625  0.0607
  753TMC3    C211124   0.525   3.433  13.688 -0.4339 -0.1852 -0.1938
  753TMC3    C311125   0.464   3.327  13.757 -0.9269  0.2992  0.5395
  753TMC3    C411126   0.472   3.333  13.485 -0.0176 -0.2772  0.8983
  753TMC3    C511127   0.409   3.233  13.553  0.5716  0.0245  0.4836
  753TMC3    C611128   0.408   3.225  13.688  0.4958 -0.6833  0.2395
  753TMC3     C11129   0.595   3.550  13.489 -1.6574 -0.4776 -0.5404
  753TMC3     O11130   0.676   3.611  13.564  0.0268  0.6643  0.5356
  753TMC3     H11131   0.554   3.529  13.730 -2.4950  0.6351 -0.6300
  753TMC3    H111132   0.459   3.327  13.377 -0.7451  1.4497  0.8997
  753TMC3    H211133   0.366   3.139  13.739 -0.1007 -0.6671 -0.2212
  753TMC3    C711134   0.386   3.107  13.485  0.1629  0.6003  0.0713
  753TMC3    C811135   0.519   3.285  13.887  0.3469  0.5046 -0.2448
  753TMC3    O111136   0.435   3.098  13.374 -0.5471 -0.0389 -0.1278
  753TMC3    O211137   0.485   3.172  13.926  0.2839 -0.2898 -0.6950
  754MPD2     C11138   3.614   1.494  12.743 -0.1769  0.0077 -0.2443
  754MPD2    C111139   3.628   1.626  12.745  0.1540 -0.9920  0.0367
  754MPD2    C211140   3.518   1.700  12.792 -0.8211  0.7834 -0.2430
  754MPD2    C311141   3.400   1.633  12.840 -0.2184  0.2647  0.0229
  754MPD2    C411142   3.398   1.499  12.842 -0.0966  0.1756 -0.4812
  754MPD2    C511143   3.499   1.430  12.779  0.1372 -0.3537  0.5482
  754MPD2     H11144   3.530   1.808  12.792 -1.0374  0.8074 -0.7394
  754MPD2    H111145   3.315   1.446  12.887  0.5523  1.3920  2.1695
  754MPD2    H211146   3.700   1.434  12.716  0.5673  1.4954 -1.1706
  754MPD2    H311147   3.479   1.323  12.779  0.1108 -0.3497  0.0871
  754MPD2     N11148   3.281   1.699  12.888 -1.0110 -0.3602 -0.3771
  754MPD2    H511149   3.209   1.642  12.931 -0.7154  1.6437  2.7856
  754MPD2    N111150   3.759   1.684  12.738  0.1688 -0.0607 -0.5081
  754MPD2    H711151   3.833   1.621  12.711 -1.6509 -2.2054 -0.4351
  755MPD2     C11152   3.528   2.338  13.530 -0.3410 -0.0905 -0.7569
  755MPD2    C111153   3.397   2.310  13.560  0.4461 -1.0767  0.2664
  755MPD2    C211154   3.323   2.229  13.481  0.6739 -0.6738  0.4381
  755MPD2    C311155   3.384   2.161  13.383 -0.4621  0.6840 -0.4296
  755MPD2    C411156   3.518   2.184  13.349 -0.0066 -0.5289 -0.1544
  755MPD2    C511157   3.585   2.269  13.431 -0.2049 -0.2098  0.1711
  755MPD2     H11158   3.220   2.212  13.511 -0.3274  2.8293 -0.9799
  755MPD2    H111159   3.573   2.133  13.270 -0.3940 -1.2381  0.0299
  755MPD2    H211160   3.589   2.406  13.588 -0.5894  1.2975 -2.1268
  755MPD2    H311161   3.691   2.287  13.420 -0.2572 -0.3600 -0.5762
  755MPD2     N11162   3.311   2.079  13.294  0.1940  0.0439 -0.4776
  755MPD2    H511163   3.362   2.055  13.209 -1.1386 -1.9035 -0.7079
  755MPD2    N111164   3.336   2.364  13.677  0.1368 -0.2370  0.5425
  755MPD2    H711165   3.236   2.344  13.685  0.1028 -0.2165  0.1466
  756MPD2     C11166   0.067   1.218   9.442  0.1690 -0.2208  0.3823
  756MPD2    C111167   4.696   1.308   9.475  0.5899  0.1077 -0.2715
  756MPD2    C211168   4.570   1.299   9.411 -0.0332  0.0320 -0.5465
  756MPD2    C311169   4.539   1.192   9.329 -0.0978 -0.1032 -0.0311
  756MPD2    C411170   4.647   1.115   9.283 -0.1794  0.6949  0.0125
  756MPD2    C511171   0.046   1.130   9.336 -0.1831  0.7550 -0.4587
  756MPD2     H11172   4.493   1.371   9.437  0.2582 -0.5826  2.0210
  756MPD2    H111173   4.636   1.044   9.202 -1.2805  0.2805  0.5242
  756MPD2    H211174   0.158   1.206   9.500 -0.9025 -1.3852  1.8210
  756MPD2    H311175   0.127   1.062   9.313 -1.3753 -0.1725 -1.9456
  756MPD2     N11176   4.414   1.179   9.272 -0.6576 -0.1510 -0.1843
  756MPD2    H511177   4.343   1.248   9.295  0.8226  0.7833  1.5490
  756MPD2    N111178   4.716   1.415   9.575  0.2145 -0.0156  0.0648
  756MPD2    H711179   4.641   1.481   9.592 -0.8018 -1.3465  0.6798
  757MPD2     C11180   3.905   0.404   8.866  0.5746 -0.0118  0.2265
  757MPD2    C111181   3.996   0.416   8.971 -0.1550 -0.1030  0.8341
  757MPD2    C211182   4.024   0.550   9.018 -0.2858  0.5200  0.7271
  757MPD2    C311183   3.970   0.659   8.966 -0.0141  0.2340  0.0870
  757MPD2    C411184   3.882   0.639   8.858 -0.0007  0.2889 -0.3402
  757MPD2    C511185   3.841   0.515   8.816  0.7061 -0.6393  0.0093
  757MPD2     H11186   4.096   0.567   9.097  0.9032  2.8456 -0.8391
  757MPD2    H111187   3.814   0.717   8.826 -0.5308  0.0851  0.2817
  757MPD2    H211188   3.869   0.309   8.828 -0.0263  0.8616 -1.3889
  757MPD2    H311189   3.755   0.503   8.751 -0.5175  1.2248  1.3091
  757MPD2     N11190   4.016   0.781   9.019  0.3898 -0.0909 -0.4623
  757MPD2    H511191   4.076   0.780   9.101  1.1978 -0.1381 -1.0684
  757MPD2    N111192   4.043   0.306   9.040 -0.2651  0.0291 -0.2825
  757MPD2    H711193   3.993   0.219   9.026 -0.5350  0.3655 -1.3725
  758MPD2     C11194   4.659   0.565  16.021  0.1158  0.2143  0.6168
  758MPD2    C111195   0.001   0.671  16.075  0.8012 -0.7132  0.1050
  758MPD2    C211196   4.660   0.745  16.169  0.5768 -0.6198 -0.4366
  758MPD2    C311197   4.524   0.716  16.197 -0.1657 -0.1937  0.0200
  758MPD2    C411198   4.460   0.604  16.138  0.3641 -0.2834 -0.0823
  758MPD2    C511199   4.535   0.528  16.054 -0.0999  0.0269  0.2601
  758MPD2     H11200   4.698   0.843  16.198 -3.4036  1.7213 -3.0602
  758MPD2    H111201   4.354   0.590  16.154  0.1183  2.2750  0.4946
  758MPD2    H211202   4.710   0.502  15.949 -1.7692 -0.6591  0.0485
  758MPD2    H311203   4.479   0.448  16.006 -0.3545 -1.3018  2.7856
  758MPD2     N11204   4.453   0.802  16.283  0.7288 -0.9014  0.0872
  758MPD2    H511205   4.353   0.788  16.276  0.7831 -1.1082 -0.2549
  758MPD2    N111206   0.130   0.701  16.027  0.3224  0.3433  0.0704
  758MPD2    H711207   0.159   0.669  15.935 -0.8641 -2.3127  0.6407
  759MPD2     C11208   3.009   4.428  10.010  0.2080 -0.4339 -0.2338
  759MPD2    C111209   3.017   4.296   9.977  0.0563 -0.0935 -0.4556
  759MPD2    C211210   3.088   4.251   9.870  0.2308  0.6948 -0.0967
  759MPD2    C311211   3.164   4.340   9.791  0.4161 -0.1687 -0.0039
  759MPD2    C411212   3.154   4.472   9.822  0.2010 -0.1375 -0.3118
  759MPD2    C511213   3.076   4.516   9.931 -0.1476 -0.0477  0.7622
  759MPD2     H11214   3.106   4.145   9.852 -0.1047  0.5948  0.1662
  759MPD2    H111215   3.196   4.550   9.760 -1.7938  1.3339  0.1690
  759MPD2    H211216   2.955   4.467  10.095  2.3439  0.1761  0.8370
  759MPD2    H311217   3.077   4.622   9.957  0.4464  0.0930  0.1573
  759MPD2     N11218   3.234   4.288   9.685 -0.1012  0.3638  0.2415
  759MPD2    H511219   3.235   4.188   9.669 -1.7694 -0.0820  2.9654
  759MPD2    N111220   2.972   4.195  10.063  0.4106  0.5621  0.5994
  759MPD2    H711221   3.006   4.100  10.053  0.2821  0.3433  2.1910
  760MPD2     C11222   2.781   1.810  12.272 -0.4661  0.4156  0.1486
  760MPD2    C111223   2.851   1.826  12.157 -0.0790 -0.2370 -0.0357
  760MPD2    C211224   2.905   1.715  12.097  0.0406 -0.5117  0.1992
  760MPD2    C311225   2.909   1.589  12.155 -0.5360  0.3152  0.0036
  760MPD2    C411226   2.846   1.577  12.284 -0.5348 -0.0106 -0.9674
  760MPD2    C511227   2.780   1.691  12.343 -0.7904  0.5033  1.1100
  760MPD2     H11228   2.960   1.735  12.005  1.4628 -1.6045  0.8058
  760MPD2    H111229   2.857   1.488  12.345 -1.3799  0.7521  0.2861
  760MPD2    H211230   2.731   1.889  12.327  3.5706  0.5390  3.5985
  760MPD2    H311231   2.731   1.676  12.438 -3.1019 -2.1089 -0.4709
  760MPD2     N11232   2.974   1.479  12.096 -0.9156 -0.4422 -0.3543
  760MPD2    H511233   2.978   1.396  12.154  2.5629 -0.2440 -0.3124
  760MPD2    N111234   2.874   1.951  12.094 -0.2554  0.4065 -0.4672
  760MPD2    H711235   2.914   1.947  12.001  0.1536  0.9627 -0.3149
  761MPD2     C11236   4.261   0.987  10.828 -0.2728  0.0848 -0.3800
  761MPD2    C111237   4.327   0.960  10.712  0.3513  0.5197 -0.6972
  761MPD2    C211238   4.450   1.013  10.688  0.3204 -0.8568 -0.1074
  761MPD2    C311239   4.510   1.095  10.780  0.1335 -0.5786 -0.9365
  761MPD2    C411240   4.445   1.133  10.890 -0.6130 -0.6550 -0.2498
  761MPD2    C511241   4.329   1.066  10.919 -1.3271  0.2636 -0.8689
  761MPD2     H11242   4.507   0.975  10.604  1.2376  0.9930 -0.3278
  761MPD2    H111243   4.490   1.197  10.965  1.0522 -1.3026 -0.7010
  761MPD2    H211244   4.168   0.939  10.856 -0.6345  0.2740 -1.2579
  761MPD2    H311245   4.274   1.082  11.011 -0.2336  0.1175 -0.1884
  761MPD2     N11246   4.641   1.137  10.771  0.4344 -0.4581 -0.1680
  761MPD2    H511247   4.675   1.192  10.850  0.4874 -1.6261  0.6164
  761MPD2    N111248   4.278   0.869  10.618 -0.0571  0.0931 -1.2027
  761MPD2    H711249   4.209   0.798  10.641  2.1482 -1.2856  1.2200
  762MPD2     C11250   4.606   1.072  10.302  0.4241 -1.0792  0.5471
  762MPD2    C111251   4.612   0.961  10.221 -0.0810  0.1098  0.1137
  762MPD2    C211252   0.010   0.921  10.172  0.5686 -0.1080  0.1180
  762MPD2    C311253   0.120   1.006  10.185  0.3806  0.8330  0.0019
  762MPD2    C411254   0.109   1.115  10.268 -0.7079  0.0455 -0.7489
  762MPD2    C511255   4.710   1.156  10.324  0.2167  0.0523  0.3339
  762MPD2     H11256   0.014   0.826  10.120  2.4648  0.4607 -0.7980
  762MPD2    H111257   0.189   1.182  10.297 -0.8219  0.3689 -1.1739
  762MPD2    H211258   4.515   1.097  10.356 -0.6934  0.9011 -2.2394
  762MPD2    H311259   4.693   1.239  10.392  0.0347 -0.1033  0.4794
  762MPD2     N11260   0.244   0.970  10.116  0.0490  0.1015 -0.0884
  762MPD2    H511261   0.235   0.882  10.064  0.8661 -0.7946  1.2993
  762MPD2    N111262   4.508   0.872  10.221  0.7272  0.0244 -0.1912
  762MPD2    H711263   4.428   0.908  10.273  1.8886 -0.5675  1.9751
  763MPD2     C11264   1.282   1.341  16.436 -0.3188 -0.2491 -0.3214
  763MPD2    C111265   1.349   1.405  16.336  0.5570  0.1769 -0.4147
  763MPD2    C211266   1.398   1.532  16.363 -0.2218  0.5911  0.0361
  763MPD2    C311267   1.374   1.593  16.483  0.2063 -0.3365 -0.6549
  763MPD2    C411268   1.309   1.523  16.584 -0.3903  0.4463  0.0149
  763MPD2    C511269   1.270   1.397  16.560 -0.1732 -0.0222  0.0709
  763MPD2     H11270   1.454   1.592  16.292 -0.2955 -0.7500 -1.1631
  763MPD2    H111271   1.291   1.570  16.680  0.7984 -0.2714  0.5882
  763MPD2    H211272   1.235   1.246  16.413 -0.7856  0.0610 -0.6716
  763MPD2    H311273   1.203   1.345  16.627 -0.3368  0.7180  0.4839
  763MPD2     N11274   1.428   1.723  16.501 -0.3097  0.8774 -0.1040
  763MPD2    H511275   1.489   1.767  16.433  0.0502 -0.8249 -0.8792
  763MPD2    N111276   1.383   1.353  16.206 -0.5133 -0.0028 -0.1799
  763MPD2    H711277   1.427   1.413  16.137 -2.1594  1.2169 -0.1471
  764MPD2     C11278   3.666   3.124  17.489 -0.2623 -0.4413  0.6454
  764MPD2    C111279   3.778   3.093  17.421 -0.5039  0.3128  0.3580
  764MPD2    C211280   3.804   2.957  17.393 -0.0126 -0.4114 -0.3602
  764MPD2    C311281   3.712   2.861  17.431  0.8276  0.7137 -0.3773
  764MPD2    C411282   3.599   2.898  17.501 -0.9603  0.2876  0.2200
  764MPD2    C511283   3.579   3.030  17.521 -0.2529 -0.0473  0.3720
  764MPD2     H11284   3.895   2.923  17.344 -0.3120 -1.5200 -0.1358
  764MPD2    H111285   3.530   2.826  17.543 -1.1824  1.1997  1.3941
  764MPD2    H211286   3.644   3.229  17.509  0.9474 -0.0763  0.0866
  764MPD2    H311287   3.490   3.059  17.576  0.2852  0.2476  1.0868
  764MPD2     N11288   3.735   2.722  17.388  0.6321 -0.6989  0.7122
  764MPD2    H511289   3.819   2.695  17.338 -0.2901 -0.2217 -1.0875
  764MPD2    N111290   3.862   3.195  17.365  0.4490 -0.1710 -0.6969
  764MPD2    H711291   3.945   3.170  17.313  1.3521  0.6032  0.3965
  765MPD2     C11292   4.010   0.525  16.018  0.3086  0.2719  0.4546
  765MPD2    C111293   4.060   0.647  15.986 -0.0743  0.1396 -0.1419
  765MPD2    C211294   4.155   0.657  15.884 -0.7020  0.1647 -0.3456
  765MPD2    C311295   4.211   0.544  15.832 -0.0306 -0.0400  0.2139
  765MPD2    C411296   4.174   0.425  15.878  0.2785 -0.1617 -0.0641
  765MPD2    C511297   4.071   0.415  15.966 -0.2769 -0.1687  0.1652
  765MPD2     H11298   4.191   0.753  15.850  0.6156  0.1344  0.9809
  765MPD2    H111299   4.220   0.339  15.831  0.0278  1.5328 -3.4332
  765MPD2    H211300   3.933   0.513  16.093  0.1340  2.2253  0.5786
  765MPD2    H311301   4.035   0.316  15.992  1.0282 -0.7379 -0.1477
  765MPD2     N11302   4.325   0.540  15.743  0.8082  1.4098  0.4058
  765MPD2    H511303   4.345   0.450  15.701 -3.5634 -0.9568  3.4593
  765MPD2    N111304   3.993   0.770  16.035 -0.1113  0.1173  0.4906
  765MPD2    H711305   3.908   0.758  16.090 -0.5790  0.8394 -0.0610
  766MPD2     C11306   3.467   1.021  15.604  0.2222 -0.0210 -0.5676
  766MPD2    C111307   3.603   1.052  15.611 -0.0029 -0.0348 -0.5620
  766MPD2    C211308   3.669   1.076  15.491 -0.3292  0.4654  0.3142
  766MPD2    C311309   3.605   1.065  15.367  0.4844  0.7674  0.1599
  766MPD2    C411310   3.470   1.041  15.370 -0.2881 -0.0957  0.6258
  766MPD2    C511311   3.409   1.008  15.489  0.4556 -0.2683 -0.0933
  766MPD2     H11312   3.774   1.100  15.500  0.5312 -1.8675 -3.4332
  766MPD2    H111313   3.412   1.038  15.278 -1.3836 -0.6989  1.3370
  766MPD2    H211314   3.407   1.013  15.694  1.4871  1.5158  0.3960
  766MPD2    H311315   3.303   0.986  15.482  0.0187  2.2032 -1.3873
  766MPD2     N11316   3.662   1.088  15.239 -0.3907 -0.5855 -0.1576
  766MPD2    H511317   3.601   1.077  15.159  1.1045 -0.4321 -1.3079
  766MPD2    N111318   3.668   1.071  15.736  0.4531  0.2851  0.8476
  766MPD2    H711319   3.763   1.107  15.738  0.4255  0.3556  0.9035
  767MPD2     C11320   3.316   1.300  15.304 -0.0038  0.3964 -0.4316
  767MPD2    C111321   3.408   1.363  15.222  0.1715  0.4564  0.5960
  767MPD2    C211322   3.406   1.332  15.085 -0.3573  0.0565  0.2732
  767MPD2    C311323   3.294   1.283  15.025  0.0457  0.0077  0.8043
  767MPD2    C411324   3.195   1.239  15.110  0.0389 -0.0136  0.1483
  767MPD2    C511325   3.208   1.242  15.247 -0.2967  0.3653  0.4410
  767MPD2     H11326   3.492   1.355  15.024 -0.3366  0.6485  0.5164
  767MPD2    H111327   3.106   1.192  15.071  1.4614 -0.9285 -1.9371
  767MPD2    H211328   3.318   1.315  15.411  1.3831  0.0566 -0.4183
  767MPD2    H311329   3.128   1.197  15.306  0.6390 -2.0409 -0.1314
  767MPD2     N11330   3.294   1.269  14.888  0.5948  0.5191 -0.4453
  767MPD2    H511331   3.384   1.290  14.846  0.8461  0.0089 -0.1628
  767MPD2    N111332   3.520   1.440  15.269  0.5029 -0.0047 -0.1153
  767MPD2    H711333   3.536   1.433  15.369 -0.4718  0.8068  0.0969
  768MPD2     C11334   4.022   4.149  10.657  0.2389  0.9061  0.6108
  768MPD2    C111335   4.149   4.190  10.613  1.0504 -0.4018  0.4211
  768MPD2    C211336   4.261   4.109  10.636  0.1973  0.0710 -0.6696
  768MPD2    C311337   4.243   3.997  10.708 -0.0843  0.3301  0.4138
  768MPD2    C411338   4.131   3.975  10.772  0.2924  0.8646  0.0683
  768MPD2    C511339   4.015   4.042  10.744 -0.0982 -0.0990  0.5984
  768MPD2     H11340   4.356   4.131  10.587  0.2294  1.1406 -0.1299
  768MPD2    H111341   4.127   3.891  10.841  0.7307 -0.2677 -1.2918
  768MPD2    H211342   3.927   4.194  10.632  0.0737 -0.9067 -1.9972
  768MPD2    H311343   3.922   4.000  10.780  0.5521  0.9069  3.4891
  768MPD2     N11344   4.346   3.907  10.735  0.0098 -0.0841  0.1038
  768MPD2    H511345   4.329   3.833  10.803 -3.3571  0.6997  0.1118
  768MPD2    N111346   4.170   4.302  10.527 -0.5369 -0.7835  0.0399
  768MPD2    H711347   4.266   4.323  10.504  0.7165 -2.8006  3.3212
  769MPD2     C11348   0.541   2.478  15.118  0.2117  0.3854  0.2057
  769MPD2    C111349   0.454   2.495  15.221  0.9375  0.1687 -0.2349
  769MPD2    C211350   0.504   2.518  15.349  0.2631 -0.7881  0.1621
  769MPD2    C311351   0.641   2.533  15.361  0.6636  0.3457  0.0606
  769MPD2    C411352   0.729   2.537  15.251 -0.1374  0.0443 -0.3849
  769MPD2    C511353   0.678   2.499  15.131 -0.5623 -0.0200  0.1240
  769MPD2     H11354   0.443   2.527  15.437 -0.5363 -1.7268 -0.2989
  769MPD2    H111355   0.835   2.560  15.261  0.3733 -1.4304 -2.3639
  769MPD2    H211356   0.511   2.447  15.019  0.4768  0.3248  0.1438
  769MPD2    H311357   0.738   2.484  15.041  1.1897  0.3378  1.2453
  769MPD2     N11358   0.689   2.558  15.492 -0.1139 -0.0412 -0.2064
  769MPD2    H511359   0.624   2.539  15.567  0.7848 -0.9366  0.3359
  769MPD2    N111360   0.316   2.471  15.185  0.5490  0.3070  0.2278
  769MPD2    H711361   0.296   2.454  15.087  1.1181  2.6713 -0.2912
  770MPD2     C11362   4.598   1.718  15.363  0.5910  0.1472 -0.3845
  770MPD2    C111363   4.659   1.760  15.241 -0.0272 -0.6504  0.0742
  770MPD2    C211364   4.650   1.890  15.205  0.4781  0.9644  1.0590
  770MPD2    C311365   4.579   1.985  15.280 -0.7090 -0.3248 -0.4825
  770MPD2    C411366   4.531   1.946  15.403  1.0164  0.0873 -0.3085
  770MPD2    C511367   4.536   1.812  15.443  0.3714 -0.2397 -0.4994
  770MPD2     H11368   4.705   1.919  15.116 -2.3096 -0.8156 -1.2353
  770MPD2    H111369   4.478   2.008  15.475 -0.7317 -1.1956 -0.4925
  770MPD2    H211370   4.595   1.614  15.395  0.7340  0.4585  0.6135
  770MPD2    H311371   4.491   1.778  15.536  1.3616  2.1672  0.8676
  770MPD2     N11372   4.581   2.122  15.237  0.7051 -0.9093 -0.3198
  770MPD2    H511373   4.616   2.134  15.142  1.5691 -1.4243 -0.0694
  770MPD2    N111374   4.722   1.658  15.169  0.4225  0.0732 -0.0916
  770MPD2    H711375   0.003   1.568  15.217 -1.2101  0.0994  0.0841
  771MPD2     C11376   0.919   0.540  13.809 -0.4518  0.5954  0.6582
  771MPD2    C111377   0.988   0.649  13.758 -0.0512  0.0387  0.1911
  771MPD2    C211378   1.070   0.627  13.645 -0.6225 -0.1863 -0.1593
  771MPD2    C311379   1.088   0.500  13.589 -0.4189  0.5866 -0.6488
  771MPD2    C411380   1.014   0.394  13.640  0.3566  0.0205 -0.3229
  771MPD2    C511381   0.935   0.417  13.749  0.4936  0.3887 -0.3222
  771MPD2     H11382   1.121   0.716  13.609 -0.8508 -0.1980 -0.5012
  771MPD2    H111383   1.030   0.289  13.619 -1.2503  0.0642 -1.7653
  771MPD2    H211384   0.858   0.547  13.899  0.1050  1.3807  0.9729
  771MPD2    H311385   0.877   0.335  13.790 -0.5188  0.8940 -0.7417
  771MPD2     N11386   1.190   0.479  13.494 -0.7302  0.2286 -0.3040
  771MPD2    H511387   1.241   0.558  13.455  0.2748 -1.3331 -2.1895
  771MPD2    N111388   0.992   0.778  13.825 -0.1744  0.4327  0.2284
  771MPD2    H711389   1.051   0.847  13.780 -3.6090  2.1430 -1.7063
  772MPD2     C11390   0.507   1.256  14.317  0.3327 -0.3248  0.0910
  772MPD2    C111391   0.509   1.165  14.222 -0.2147  0.0077  0.4249
  772MPD2    C211392   0.391   1.110  14.179  0.0711 -0.8937  0.1393
  772MPD2    C311393   0.271   1.155  14.233  0.6227 -0.1700  0.3453
  772MPD2    C411394   0.271   1.255  14.326  0.7285 -0.9579  0.6716
  772MPD2    C511395   0.391   1.310  14.366 -0.5543  0.1607 -0.0583
  772MPD2     H11396   0.397   1.032  14.104 -0.3879 -1.0729  0.2869
  772MPD2    H111397   0.183   1.301  14.369 -0.0108 -0.8973 -0.8920
  772MPD2    H211398   0.598   1.310  14.341  0.7559 -1.5713  1.3072
  772MPD2    H311399   0.406   1.390  14.438  4.4283 -0.2632 -0.6258
  772MPD2     N11400   0.145   1.099  14.204  0.3804 -0.2559  0.4501
  772MPD2    H511401   0.066   1.133  14.259 -0.1270 -0.3057 -0.2564
  772MPD2    N111402   0.634   1.129  14.158  0.2020 -0.1600 -0.5502
  772MPD2    H711403   0.621   1.061  14.084  0.7887  0.2814 -1.0655
  773MPD2     C11404   0.065   1.817   0.840  0.1213  0.2055  0.1351
  773MPD2    C111405   0.086   1.750   0.728  0.0472  0.3898  0.2517
  773MPD2    C211406   0.175   1.645   0.732  0.4209 -0.0991 -0.4086
  773MPD2    C311407   0.236   1.616   0.852  0.1516 -0.0224 -0.1473
  773MPD2    C411408   0.204   1.681   0.969  0.1756 -0.2921 -0.1062
  773MPD2    C511409   0.119   1.783   0.961 -0.7602  0.8351  0.2620
  773MPD2     H11410   0.204   1.591   0.643  1.5891 -1.5200  0.8367
  773MPD2    H111411   0.256   1.661   1.062  1.7033 -0.9567 -1.0995
  773MPD2    H211412   4.712   1.894   0.847 -0.3026 -0.2612  0.6583
  773MPD2    H311413   0.105   1.836   1.055  0.2652 -1.1875  1.5507
  773MPD2     N11414   0.339   1.520   0.842 -0.8103  0.3281  0.1120
  773MPD2    H511415   0.360   1.475   0.753  2.1692 -0.8718  1.3989
  773MPD2    N111416   0.025   1.803   0.605 -0.0635  0.5588 -0.2560
  773MPD2    H711417   0.028   1.746   0.521 -1.7885 -1.7012  1.2029
  774MPD2     C11418   4.175   1.256  13.315  0.1216 -0.8344 -0.1798
  774MPD2    C111419   4.048   1.305  13.302 -0.5943  0.2024  0.1388
  774MPD2    C211420   4.019   1.413  13.218  0.0737  0.6281 -0.2334
  774MPD2    C311421   4.125   1.458  13.139  0.4482 -0.2783 -0.1394
  774MPD2    C411422   4.245   1.397  13.140 -0.4923 -0.1987 -0.3787
  774MPD2    C511423   4.273   1.286  13.225 -0.1275  0.1192 -1.5104
  774MPD2     H11424   3.930   1.476  13.225 -0.1753  0.1333  1.1576
  774MPD2    H111425   4.330   1.428  13.081 -0.3073  0.0261  0.0019
  774MPD2    H211426   4.203   1.189  13.395  2.8160  0.2010 -0.2803
  774MPD2    H311427   4.368   1.234  13.217  0.4449  0.9857 -0.3357
  774MPD2     N11428   4.095   1.564  13.048  0.4402 -0.8688 -0.3914
  774MPD2    H511429   3.996   1.584  13.035  0.8824  1.4744 -0.0406
  774MPD2    N111430   3.949   1.258  13.392 -0.0424 -0.4240 -0.5264
  774MPD2    H711431   3.978   1.192  13.463  3.0725 -0.7148 -2.0901
  775MPD2     C11432   0.873   2.218  16.248 -0.2854 -0.5190  0.1199
  775MPD2    C111433   0.834   2.350  16.227 -0.0942 -0.3337 -0.3071
  775MPD2    C211434   0.908   2.445  16.168  0.3600 -0.1744  0.6657
  775MPD2    C311435   1.021   2.405  16.101  0.1341  0.4764  0.6803
  775MPD2    C411436   1.066   2.276  16.114  0.1598 -0.0025 -0.0426
  775MPD2    C511437   0.994   2.183  16.187 -0.4670  0.0335 -0.2959
  775MPD2     H11438   0.877   2.548  16.164  1.1201  0.0363  0.0537
  775MPD2    H111439   1.153   2.244  16.058 -0.2063 -0.2803 -0.4578
  775MPD2    H211440   0.824   2.149  16.315 -1.3318 -0.2144 -0.3366
  775MPD2    H311441   1.034   2.083  16.193 -0.5006  0.0945  0.9733
  775MPD2     N11442   1.088   2.489  16.011 -0.3356 -0.2130 -0.0095
  775MPD2    H511443   1.164   2.442  15.965 -2.0595 -0.4601 -2.6012
  775MPD2    N111444   0.718   2.382  16.306  0.2908 -0.5232  0.5459
  775MPD2    H711445   0.667   2.301  16.340  0.7432 -0.2595  1.8344
  776MPD2     C11446   0.608   2.368  11.514  0.2621  0.4444  0.6009
  776MPD2    C111447   0.475   2.378  11.517  0.3904 -0.4181  0.5035
  776MPD2    C211448   0.418   2.496  11.558  0.0829  0.2241  0.6092
  776MPD2    C311449   0.495   2.600  11.597  0.6365  0.4772  0.4598
  776MPD2    C411450   0.634   2.583  11.592  0.0944 -0.3855 -0.1738
  776MPD2    C511451   0.691   2.467  11.555 -0.2608 -0.4255 -0.4528
  776MPD2     H11452   0.312   2.519  11.553 -0.1763 -1.2570 -0.9077
  776MPD2    H111453   0.699   2.666  11.614  1.4311 -2.0391  2.0691
  776MPD2    H211454   0.644   2.269  11.489  0.7551  1.2639 -2.0122
  776MPD2    H311455   0.799   2.468  11.553 -0.2767  0.5603 -0.5494
  776MPD2     N11456   0.442   2.734  11.629 -0.1344  0.1829  0.1197
  776MPD2    H511457   0.512   2.802  11.657 -0.8869  0.8591  0.3434
  776MPD2    N111458   0.396   2.271  11.465  0.1191  0.0896 -0.3764
  776MPD2    H711459   0.442   2.187  11.434 -0.6266 -0.6742  0.5807
  777MPD2     C11460   0.176   0.672   1.198  0.0331 -0.3274 -0.3319
  777MPD2    C111461   0.198   0.554   1.267 -0.0848  0.3864 -0.2552
  777MPD2    C211462   0.181   0.431   1.205 -0.3774  0.3955 -0.0131
  777MPD2    C311463   0.144   0.422   1.074 -0.4481 -0.1728 -0.6396
  777MPD2    C411464   0.116   0.545   1.009  0.1428  0.8136  0.6984
  777MPD2    C511465   0.121   0.664   1.078  0.8397 -0.1792 -0.5515
  777MPD2     H11466   0.207   0.345   1.265 -0.7235  0.1534 -0.2075
  777MPD2    H111467   0.081   0.537   0.906  1.7906 -0.2318  0.2232
  777MPD2    H211468   0.192   0.768   1.246  1.2683  1.1889 -3.7443
  777MPD2    H311469   0.101   0.759   1.030  0.7912  0.2551  0.3429
  777MPD2     N11470   0.135   0.293   1.016  0.0129  0.1574  0.4302
  777MPD2    H511471   0.155   0.211   1.072  1.3389  0.7349  0.8252
  777MPD2    N111472   0.225   0.570   1.404  0.8563 -0.3759  0.4553
  777MPD2    H711473   0.244   0.665   1.433  0.2991 -0.2444  0.3938
  778MPD2     C11474   1.432   0.519  15.018 -0.2537 -0.4925 -0.1511
  778MPD2    C111475   1.451   0.421  14.922 -0.2891 -0.1287 -0.6207
  778MPD2    C211476   1.520   0.461  14.805  0.4669 -0.9031  0.7095
  778MPD2    C311477   1.571   0.593  14.792  0.6686  0.6739  0.2902
  778MPD2    C411478   1.553   0.687  14.894 -0.0381  0.5880  0.6903
  778MPD2    C511479   1.485   0.642  15.007 -0.5210  0.1673  0.0781
  778MPD2     H11480   1.544   0.398  14.720 -0.0594 -1.0071  0.6414
  778MPD2    H111481   1.572   0.793  14.887  1.8004  0.2753  1.0943
  778MPD2    H211482   1.387   0.498  15.115 -1.0534 -1.4098 -0.7225
  778MPD2    H311483   1.480   0.717  15.085 -0.2227  0.5644 -0.2838
  778MPD2     N11484   1.640   0.625  14.674  0.8150 -0.5536 -0.2097
  778MPD2    H511485   1.631   0.565  14.592  1.1619 -1.6126  0.5220
  778MPD2    N111486   1.395   0.292  14.928 -0.4281  0.2749 -0.2585
  778MPD2    H711487   1.387   0.240  14.841 -0.7181 -1.0553  0.5657
  779MPD2     C11488   1.327   4.175  14.570 -0.0674 -0.3366  0.4841
  779MPD2    C111489   1.265   4.165  14.448  0.5093  0.1070 -0.1485
  779MPD2    C211490   1.286   4.267  14.352 -0.3130 -0.1750  0.5428
  779MPD2    C311491   1.357   4.378  14.391  0.5346  0.8989 -0.0013
  779MPD2    C411492   1.405   4.392  14.513 -0.4670  0.0540 -0.1028
  779MPD2    C511493   1.405   4.288  14.601 -0.3514 -0.6524 -0.3160
  779MPD2     H11494   1.225   4.260  14.262  0.0957  0.4251  0.2159
  779MPD2    H111495   1.443   4.487  14.548 -0.0059  0.2146 -1.0351
  779MPD2    H211496   1.342   4.087  14.631 -0.8456 -0.5759  0.3251
  779MPD2    H311497   1.462   4.300  14.692  1.4252  0.5770 -1.5881
  779MPD2     N11498   1.382   4.474  14.288  0.0004 -0.3310  0.0287
  779MPD2    H511499   1.333   4.471  14.199 -0.4726 -1.3119  0.3199
  779MPD2    N111500   1.205   4.041  14.418 -0.4399 -0.4348 -0.0476
  779MPD2    H711501   1.180   4.027  14.320 -1.7213 -1.9986  0.5096
  780MPD2     C11502   0.785   3.960   1.344  0.3204  0.1000  0.6236
  780MPD2    C111503   0.668   4.027   1.318 -0.6290 -0.1219 -0.1328
  780MPD2    C211504   0.654   4.052   1.184  0.5233  0.4471  0.8334
  780MPD2    C311505   0.748   4.022   1.088  0.2528  0.0201  0.3334
  780MPD2    C411506   0.856   3.954   1.115 -0.2735 -0.5040  0.1773
  780MPD2    C511507   0.877   3.930   1.249 -0.2759 -0.0252  0.6452
  780MPD2     H11508   0.567   4.108   1.151 -1.4490 -1.4998  2.6886
  780MPD2    H111509   0.938   3.938   1.045  0.4232 -1.4400  1.1973
  780MPD2    H211510   0.802   3.915   1.441 -3.6749  0.4513  1.4908
  780MPD2    H311511   0.964   3.873   1.281 -2.1839 -2.4391  1.4730
  780MPD2     N11512   0.715   4.073   0.960  0.0468 -0.6523  0.0860
  780MPD2    H511513   0.639   4.140   0.954  1.5412  0.8824 -2.1615
  780MPD2    N111514   0.585   4.055   1.425 -0.4052  0.1030 -0.0240
  780MPD2    H711515   0.622   4.028   1.515  0.3442 -1.2076 -0.7227
  781MPD2     C11516   2.798   0.998  11.814  0.0362 -0.0058 -0.0450
  781MPD2    C111517   2.691   0.908  11.837  0.0003  0.8809  0.4166
  781MPD2    C211518   2.653   0.830  11.732  0.5734 -0.2152 -0.2111
  781MPD2    C311519   2.716   0.849  11.608  0.1655 -0.1057 -1.3034
  781MPD2    C411520   2.829   0.927  11.601  0.5895 -0.2690  0.6565
  781MPD2    C511521   2.867   1.012  11.702  0.3173 -0.0741  0.7934
  781MPD2     H11522   2.578   0.753  11.748 -1.1575  1.1358 -1.8943
  781MPD2    H111523   2.869   0.957  11.505  1.3158  1.1440  1.3938
  781MPD2    H211524   2.837   1.056  11.896 -0.8696  0.7746 -0.1717
  781MPD2    H311525   2.940   1.091  11.684  1.0014 -0.3376  2.4521
  781MPD2     N11526   2.688   0.784  11.481  0.3911 -0.1228  0.4755
  781MPD2    H511527   2.746   0.811  11.403 -0.6271  0.7206  0.0189
  781MPD2    N111528   2.625   0.895  11.959 -0.2766 -0.0959 -0.2823
  781MPD2    H711529   2.565   0.813  11.965  3.3195 -2.8302 -1.8357
  782MPD2     C11530   0.850   1.447  10.229  0.6952  0.5367 -0.5920
  782MPD2    C111531   0.985   1.436  10.239  1.2448 -0.1056  0.0987
  782MPD2    C211532   1.059   1.538  10.301 -0.3937 -0.2347 -0.7419
  782MPD2    C311533   0.986   1.636  10.370 -0.4096 -0.3032  0.0367
  782MPD2    C411534   0.847   1.648  10.349 -0.3088  0.1258  0.0511
  782MPD2    C511535   0.780   1.549  10.279 -0.2290 -0.3741  1.0844
  782MPD2     H11536   1.164   1.514  10.317  0.0269  0.5447 -2.2937
  782MPD2    H111537   0.785   1.731  10.380 -2.8782 -2.2596  1.3194
  782MPD2    H211538   0.800   1.362  10.185 -2.3851  1.1036  1.7801
  782MPD2    H311539   0.674   1.573  10.276 -0.1940 -0.3473 -0.0395
  782MPD2     N11540   1.060   1.729  10.452 -0.1594  0.0203 -0.1296
  782MPD2    H511541   1.158   1.705  10.462 -0.8454 -2.6698  0.0910
  782MPD2    N111542   1.041   1.314  10.193 -0.4010 -0.2551 -0.3445
  782MPD2    H711543   0.973   1.239  10.180 -0.3393 -0.1992 -1.0156
  783MPD2     C11544   0.545   0.741  10.440  0.1955 -0.0937  0.0618
  783MPD2    C111545   0.567   0.873  10.457 -0.6696  0.7189  0.6331
  783MPD2    C211546   0.677   0.924  10.389  1.3271 -0.4202  0.6540
  783MPD2    C311547   0.763   0.845  10.319  0.0513  0.1486 -1.0582
  783MPD2    C411548   0.736   0.712  10.308 -0.0412 -0.7168 -0.0276
  783MPD2    C511549   0.627   0.655  10.368  0.9260  0.1776  0.3982
  783MPD2     H11550   0.707   1.028  10.402 -2.1369  0.6931 -0.3600
  783MPD2    H111551   0.801   0.651  10.246  0.2309 -1.0586  0.5978
  783MPD2    H211552   0.451   0.705  10.480  0.7291 -0.5915  0.8581
  783MPD2    H311553   0.596   0.552  10.353  2.3346 -0.7905  4.1219
  783MPD2     N11554   0.878   0.907  10.269 -0.0561  0.2085 -0.0382
  783MPD2    H511555   0.897   1.006  10.284 -0.0081 -0.1289  2.0669
  783MPD2    N111556   0.469   0.945  10.530  0.9228  0.4083  0.2032
  783MPD2    H711557   0.389   0.886  10.553  1.2365 -1.1500 -2.6596
  784MPD2     C11558   3.070   1.800   0.303 -0.3335  0.2365  0.6886
  784MPD2    C111559   3.017   1.864   0.412  0.0204  0.1063  0.1430
  784MPD2    C211560   2.903   1.941   0.402  1.3013  0.3658 -0.4472
  784MPD2    C311561   2.842   1.961   0.278  0.6903  0.0443  0.1650
  784MPD2    C411562   2.899   1.914   0.158 -0.1295  0.0631  0.0598
  784MPD2    C511563   3.022   1.840   0.178 -1.1918  0.0059 -0.3817
  784MPD2     H11564   2.857   1.970   0.495  1.9468 -0.6563  0.1952
  784MPD2    H111565   2.843   1.929   0.067 -0.2392  1.4783  0.3496
  784MPD2    H211566   3.151   1.727   0.304 -0.5045  0.0711  2.0957
  784MPD2    H311567   3.067   1.802   0.087  2.6926 -1.3057  2.1182
  784MPD2     N11568   2.716   2.019   0.261 -0.1077  0.4625  0.4705
  784MPD2    H511569   2.692   2.035   0.164  1.1075  1.7933  0.3862
  784MPD2    N111570   3.066   1.839   0.543 -0.0923  0.5098  0.2481
  784MPD2    H711571   3.033   1.916   0.599 -0.4230 -0.8412  1.9095
  785MPD2     C11572   3.113   4.591  10.641 -0.3574 -0.5534  0.6506
  785MPD2    C111573   3.017   4.678  10.564 -0.2732 -0.4892 -0.4548
  785MPD2    C211574   2.894   4.623  10.523  0.0417  0.2356 -0.0426
  785MPD2    C311575   2.857   4.500  10.570 -0.5908 -0.5476 -0.0354
  785MPD2    C411576   2.935   4.426  10.658  0.6844  0.1628 -0.1074
  785MPD2    C511577   3.060   4.473  10.694  0.0196 -0.8025 -0.2598
  785MPD2     H11578   2.823   4.674  10.458 -1.8736 -0.2183  1.6937
  785MPD2    H111579   2.896   4.341  10.714  1.1730  0.4294  0.6310
  785MPD2    H211580   3.214   4.618  10.669  0.3535 -1.4714 -1.0992
  785MPD2    H311581   3.117   4.401  10.751  1.8067  0.6279 -0.2402
  785MPD2     N11582   2.735   4.449  10.518 -0.7211 -0.4632  0.2299
  785MPD2    H511583   2.699   4.512  10.447  0.6968  1.3535  1.1136
  785MPD2    N111584   3.029   0.088  10.535  0.0102  0.5816  0.3463
  785MPD2    H711585   2.951   0.130  10.485 -0.2461 -0.6886 -0.3153
  786MPD2     C11586   1.331   3.107  14.864  0.5689 -0.0616 -0.7835
  786MPD2    C111587   1.457   3.170  14.873 -0.1232  0.0945 -0.1095
  786MPD2    C211588   1.504   3.195  15.002 -0.9410 -0.0590  0.4094
  786MPD2    C311589   1.441   3.137  15.109  0.2042 -0.2155 -0.1042
  786MPD2    C411590   1.326   3.075  15.094  0.2548  0.3474  0.3313
  786MPD2    C511591   1.272   3.060  14.976 -0.1374 -0.2723 -0.6801
  786MPD2     H11592   1.587   3.265  15.010  1.7276 -3.1388 -0.1353
  786MPD2    H111593   1.268   3.040  15.179  2.0274 -1.0469  0.9601
  786MPD2    H211594   1.282   3.077  14.772 -1.6652  1.6498 -0.1776
  786MPD2    H311595   1.176   3.010  14.968  1.1437 -3.1985  2.3006
  786MPD2     N11596   1.504   3.142  15.235  0.6140 -0.3484  0.2784
  786MPD2    H511597   1.444   3.106  15.309 -0.0815 -0.0599 -0.1493
  786MPD2    N111598   1.551   3.203  14.766  0.2628  0.1720 -0.1583
  786MPD2    H711599   1.644   3.226  14.798 -0.3541  1.3566  0.8076
  787MPD2     C11600   1.782   2.759  14.700 -0.2432 -0.7145 -0.1601
  787MPD2    C111601   1.889   2.827  14.644 -0.1756 -0.5175  0.4628
  787MPD2    C211602   2.017   2.785  14.660  0.1729  0.2258  0.0497
  787MPD2    C311603   2.038   2.657  14.717  0.5525 -0.2890 -0.4653
  787MPD2    C411604   1.935   2.588  14.764  0.0571 -0.4202  0.3460
  787MPD2    C511605   1.812   2.650  14.769  0.2222  0.1447  0.1459
  787MPD2     H11606   2.109   2.840  14.644  0.0464 -0.3182 -2.4736
  787MPD2    H111607   1.939   2.496  14.821 -0.7686  0.2289  1.4585
  787MPD2    H211608   1.681   2.798  14.697  0.4343  1.1131  0.6674
  787MPD2    H311609   1.731   2.601  14.822 -1.5996  0.4070 -2.4058
  787MPD2     N11610   2.166   2.616  14.734 -0.1537 -0.3935  0.2442
  787MPD2    H511611   2.235   2.685  14.709 -2.8620  2.7393  1.4829
  787MPD2    N111612   1.850   2.936  14.574 -0.3603  0.1986  0.0554
  787MPD2    H711613   1.751   2.950  14.559  0.0458  0.1617 -2.7274
  788MPD2     C11614   3.801   1.655   0.374  0.0634 -0.0110 -0.3311
  788MPD2    C111615   3.805   1.528   0.315 -0.0430  0.5204 -0.1430
  788MPD2    C211616   3.843   1.520   0.183 -0.5637  0.0053  0.8530
  788MPD2    C311617   3.871   1.638   0.110 -0.4956 -0.0065  0.5918
  788MPD2    C411618   3.872   1.763   0.172 -0.1660  0.4337 -0.6123
  788MPD2    C511619   3.827   1.768   0.299 -0.3838  0.2279 -0.1141
  788MPD2     H11620   3.842   1.420   0.140  0.2111 -0.7403  2.5658
  788MPD2    H111621   3.890   1.858   0.123 -0.7262 -0.1801 -2.0041
  788MPD2    H211622   3.789   1.672   0.480  0.6476  1.5259 -0.5084
  788MPD2    H311623   3.797   1.865   0.338  2.6388  0.4347  1.7027
  788MPD2     N11624   3.891   1.635  17.666 -0.2994 -0.1079 -0.0763
  788MPD2    H511625   3.903   1.722  17.615 -0.6787 -1.1867 -2.0085
  788MPD2    N111626   3.788   1.409   0.390  0.3728 -0.1658  0.2280
  788MPD2    H711627   3.792   1.324   0.335 -2.3934  0.2607 -0.6300
  789MPD2     C11628   3.976   0.946  16.351  0.4092 -0.2562  0.2575
  789MPD2    C111629   3.903   0.836  16.395 -0.3542 -0.0934 -0.1580
  789MPD2    C211630   3.778   0.864  16.459  0.2408 -0.2212  1.0854
  789MPD2    C311631   3.732   0.995  16.472 -0.3072  0.2426  0.0367
  789MPD2    C411632   3.802   1.092  16.410 -0.0296 -0.0238 -0.3531
  789MPD2    C511633   3.915   1.067  16.343 -0.4819  0.2196  0.0351
  789MPD2     H11634   3.722   0.780  16.497 -0.8930 -0.9948 -2.2673
  789MPD2    H111635   3.757   1.191  16.415  2.1892  0.9566  0.2422
  789MPD2    H211636   4.077   0.940  16.312 -0.0395  1.1911 -1.1382
  789MPD2    H311637   3.966   1.143  16.284  1.9624 -0.6665  0.9981
  789MPD2     N11638   3.608   1.032  16.536 -0.0092  0.2462  0.1483
  789MPD2    H511639   3.577   1.128  16.528  1.0756  0.5005 -0.9875
  789MPD2    N111640   3.945   0.707  16.395  0.4152 -0.1157 -0.2238
  789MPD2    H711641   3.882   0.642  16.442  0.6373  0.4099  0.7937
  790MPD2     C11642   4.539   3.372  13.566 -0.0304  0.1526  0.1355
  790MPD2    C111643   4.613   3.266  13.615 -0.2191  0.5806 -0.0704
  790MPD2    C211644   4.665   3.174  13.528  0.0109  0.4582 -0.4965
  790MPD2    C311645   4.644   3.191  13.391 -0.2602  1.2347 -0.7147
  790MPD2    C411646   4.571   3.296  13.347  0.3828  0.2902 -0.0260
  790MPD2    C511647   4.518   3.388  13.433 -0.0405 -0.0419 -0.6088
  790MPD2     H11648   4.707   3.080  13.562 -1.1955  0.1686  0.1883
  790MPD2    H111649   4.552   3.310  13.242  0.0024  1.3019  0.1798
  790MPD2    H211650   4.498   3.447  13.632  0.3687 -1.5773  2.3836
  790MPD2    H311651   4.460   3.471  13.395  2.3022  2.1201  0.5429
  790MPD2     N11652   4.684   3.087  13.300  0.1112 -0.1422  0.6665
  790MPD2    H511653   4.719   3.005  13.349 -0.9229 -0.7950  0.3002
  790MPD2    N111654   4.648   3.258  13.756 -0.0107 -0.0198 -0.1784
  790MPD2    H711655   4.601   3.321  13.821 -1.8615 -1.0976 -0.4518
  791MPD2     C11656   4.099   2.938  12.925  0.4743 -0.2311  0.0860
  791MPD2    C111657   4.177   2.824  12.910  0.4316 -0.8656  0.0041
  791MPD2    C211658   4.115   2.716  12.848 -0.3021 -0.2993 -0.0421
  791MPD2    C311659   3.980   2.717  12.811 -0.5541 -0.7722  0.6272
  791MPD2    C411660   3.907   2.831  12.828  0.5766 -0.6650  0.2821
  791MPD2    C511661   3.968   2.937  12.883 -0.5818 -0.1826 -0.1021
  791MPD2     H11662   4.178   2.634  12.815  0.4021 -0.4449  1.6706
  791MPD2    H111663   3.806   2.843  12.788  0.0031 -2.2870  1.2343
  791MPD2    H211664   4.144   3.033  12.953 -1.7572  0.8358  0.0087
  791MPD2    H311665   3.919   3.034  12.892 -1.8603 -0.7725 -0.7905
  791MPD2     N11666   3.924   2.597  12.765  0.5002  0.2317 -0.1324
  791MPD2    H511667   3.980   2.522  12.726  0.0903  0.1981 -0.6611
  791MPD2    N111668   4.309   2.833  12.948  0.3648 -0.0060  0.1250
  791MPD2    H711669   4.337   2.922  12.989 -2.0828  0.7997  0.0466
  792MPD2     C11670   0.704   2.337  11.087 -0.5340 -0.3606  0.1578
  792MPD2    C111671   0.568   2.364  11.100 -0.0689 -0.4693  0.0857
  792MPD2    C211672   0.474   2.271  11.056 -0.2978  1.3301  0.3197
  792MPD2    C311673   0.517   2.160  10.978 -0.0940  0.4883 -0.2409
  792MPD2    C411674   0.652   2.140  10.962 -0.2738  0.4794 -0.7191
  792MPD2    C511675   0.742   2.224  11.016 -0.0326  0.2257  0.3466
  792MPD2     H11676   0.367   2.276  11.071 -0.5695  0.3615 -1.1910
  792MPD2    H111677   0.693   2.054  10.910  0.0813  1.4081 -1.9764
  792MPD2    H211678   0.770   2.398  11.147 -1.5728  1.3623 -0.4478
  792MPD2    H311679   0.848   2.207  10.998  0.0921 -0.3937  1.6541
  792MPD2     N11680   0.429   2.071  10.914 -0.0566 -0.0190 -0.0991
  792MPD2    H511681   0.471   2.003  10.850 -2.1141 -1.5097  0.1479
  792MPD2    N111682   0.547   2.483  11.176 -0.4243 -0.4208 -0.5943
  792MPD2    H711683   0.626   2.543  11.196 -0.5798 -0.4782  0.1774
  793MPD2     C11684   4.451   1.823  10.203  0.3836 -0.0628  0.0923
  793MPD2    C111685   4.589   1.811  10.190 -0.3517 -0.5200 -0.3340
  793MPD2    C211686   4.663   1.825  10.309  0.1074 -0.2474 -0.1917
  793MPD2    C311687   4.593   1.852  10.427 -0.1990 -0.0222  0.1836
  793MPD2    C411688   4.460   1.872  10.429 -0.1472  0.1668 -0.5452
  793MPD2    C511689   4.383   1.845  10.323 -0.4864 -0.0195  0.1977
  793MPD2     H11690   0.049   1.825  10.308  0.1030  2.5931 -0.1639
  793MPD2    H111691   4.412   1.887  10.525  1.5344  0.4000  0.2511
  793MPD2    H211692   4.386   1.790  10.122  1.0093  1.3145 -0.9787
  793MPD2    H311693   4.276   1.856  10.329 -0.3883  1.4415 -0.6623
  793MPD2     N11694   4.680   1.864  10.544  0.3825 -0.5083 -0.2600
  793MPD2    H511695   0.056   1.857  10.524  0.0535  0.0121 -2.0638
  793MPD2    N111696   4.646   1.771  10.067 -0.1470 -0.0933 -0.8287
  793MPD2    H711697   0.025   1.776  10.070 -0.1399 -2.5555  3.1304
  794MPD2     C11698   4.461   2.519   0.151 -0.6313 -0.5035 -0.6668
  794MPD2    C111699   4.493   2.408   0.077  0.0705 -0.2796  0.0333
  794MPD2    C211700   4.497   2.407  17.633 -0.6479 -0.1754  0.5268
  794MPD2    C311701   4.456   2.519  17.559  0.8039  0.2108  0.3601
  794MPD2    C411702   4.424   2.632  17.639 -0.3186 -0.1169 -0.4364
  794MPD2    C511703   4.425   2.633   0.080  0.0604  0.3800  0.2925
  794MPD2     H11704   4.534   2.320  17.580 -1.0826 -0.0025 -0.0594
  794MPD2    H111705   4.392   2.726  17.595  0.7294  0.3850 -0.1067
  794MPD2    H211706   4.438   2.522   0.258  1.2426  0.2022 -0.2945
  794MPD2    H311707   4.387   2.714   0.140 -1.8717 -0.6588  0.4653
  794MPD2     N11708   4.467   2.541  17.417  0.2130  0.7546 -0.3276
  794MPD2    H511709   4.439   2.635  17.388  1.0685  1.1487  0.1338
  794MPD2    N111710   4.544   2.292   0.133  0.3897  0.7658  0.5675
  794MPD2    H711711   4.560   2.216   0.067 -2.0569  0.2581  0.5688
  795MPD2     C11712   2.418   4.535  13.703  0.0669  0.5829 -1.0848
  795MPD2    C111713   2.364   4.423  13.652 -0.4938 -1.1899 -0.4916
  795MPD2    C211714   2.440   4.310  13.653 -0.2558  0.2143 -0.4814
  795MPD2    C311715   2.564   4.301  13.708  0.6724 -0.1771  0.0182
  795MPD2    C411716   2.616   4.418  13.753  0.1644  0.0012 -0.2100
  795MPD2    C511717   2.542   4.529  13.756  0.0463  0.0609  0.3083
  795MPD2     H11718   2.399   4.219  13.610 -0.2692 -0.8917  1.8769
  795MPD2    H111719   2.714   4.423  13.799  0.8033 -1.6694 -1.3855
  795MPD2    H211720   2.371   4.633  13.703  0.9434  0.9962  0.1542
  795MPD2    H311721   2.582   4.624  13.790  0.8472  0.0810 -0.6971
  795MPD2     N11722   2.650   4.186  13.705  0.2246 -0.0639 -0.6290
  795MPD2    H511723   2.747   4.200  13.733  0.5345  0.5752 -2.0513
  795MPD2    N111724   2.235   4.419  13.593  0.2607  0.4896  1.0170
  795MPD2    H711725   2.199   4.335  13.549 -1.7377  0.7476  2.1856
  796MPD2     C11726   2.084   1.158  15.957 -0.4366  0.1785  0.2969
  796MPD2    C111727   2.062   1.204  16.083 -0.4037  0.7957 -0.3756
  796MPD2    C211728   2.011   1.330  16.095  0.2385  0.2693 -0.4330
  796MPD2    C311729   1.985   1.404  15.985 -0.2223  0.2248  0.5047
  796MPD2    C411730   2.019   1.364  15.859  0.6666 -0.2610 -0.0989
  796MPD2    C511731   2.055   1.233  15.847  0.2537  0.3542 -0.1453
  796MPD2     H11732   1.977   1.375  16.188  0.7602 -0.0257 -0.0933
  796MPD2    H111733   1.994   1.424  15.772 -1.6204 -0.8122  0.1913
  796MPD2    H211734   2.133   1.061  15.949 -2.2034 -0.6040 -0.9205
  796MPD2    H311735   2.075   1.186  15.752  1.5875 -0.1142  0.3644
  796MPD2     N11736   1.940   1.537  15.994 -0.0919 -0.0924 -0.0462
  796MPD2    H511737   1.936   1.596  15.912 -0.9011 -0.9875 -0.6378
  796MPD2    N111738   2.077   1.118  16.192  0.7356 -0.0297 -0.5099
  796MPD2    H711739   2.079   1.020  16.164  2.4877 -0.8120  2.3498
  797MPD2     C11740   2.742   0.352  17.670  0.3967  0.9570 -0.5637
  797MPD2    C111741   2.790   0.460  17.600  0.1927  0.4774  0.0578
  797MPD2    C211742   2.702   0.555  17.555  0.0985 -0.4472 -0.2026
  797MPD2    C311743   2.571   0.561  17.607  0.5997  0.3814 -0.7164
  797MPD2    C411744   2.528   0.453  17.676  0.0914  0.2155 -0.2607
  797MPD2    C511745   2.610   0.346   0.011  1.0124  0.5506 -0.5922
  797MPD2     H11746   2.744   0.640  17.502  0.6466  0.8523  2.3002
  797MPD2    H111747   2.427   0.447   0.021  0.1205  0.2024 -0.1861
  797MPD2    H211748   2.808   0.278   0.022 -1.0001 -0.1723 -0.3729
  797MPD2    H311749   2.570   0.269   0.076 -0.1629  1.6899  0.0322
  797MPD2     N11750   2.484   0.678  17.599 -0.0015 -0.2498 -0.1134
  797MPD2    H511751   2.399   0.674  17.655 -0.0265  0.9020 -0.0686
  797MPD2    N111752   2.922   0.482  17.583  0.7360  0.1398 -0.1934
  797MPD2    H711753   2.947   0.570  17.539 -2.5418  2.5037  2.7693
  798MPD2     C11754   2.956   1.213  17.626 -0.1094 -0.5280 -0.1154
  798MPD2    C111755   2.889   1.118  17.691  0.4042  0.5455  0.2817
  798MPD2    C211756   2.952   1.000   0.028  0.3603 -0.0877  0.3011
  798MPD2    C311757   3.090   0.982  17.693  0.6461  0.0170  0.2946
  798MPD2    C411758   3.164   1.087  17.635  0.7206 -0.1468  0.4168
  798MPD2    C511759   3.092   1.203  17.618  0.2151  0.2629  0.5728
  798MPD2     H11760   2.914   0.912   0.080  1.4638 -0.4052  0.5721
  798MPD2    H111761   3.264   1.072  17.596  0.3707 -3.3563  0.7148
  798MPD2    H211762   2.913   1.310  17.602  0.1225 -0.4918 -0.3849
  798MPD2    H311763   3.141   1.287  17.570  2.7968 -1.3718  0.3678
  798MPD2     N11764   3.139   0.851   0.014  0.6869 -0.3335  0.1387
  798MPD2    H511765   3.071   0.786   0.053 -0.0907  0.4731  0.1524
  798MPD2    N111766   2.748   1.126  17.688 -0.3205  0.4220  0.1871
  798MPD2    H711767   2.718   1.212  17.643  2.4401  0.1031 -2.2407
  799MPD2     C11768   1.631   2.567  15.103 -0.6552 -0.0527 -0.0318
  799MPD2    C111769   1.558   2.493  15.016 -0.0348 -0.3320 -0.5220
  799MPD2    C211770   1.474   2.551  14.927 -0.1626  0.0101  0.4843
  799MPD2    C311771   1.465   2.691  14.910  0.2014  0.7601  0.6606
  799MPD2    C411772   1.549   2.764  14.999  0.1121 -0.0022 -0.6569
  799MPD2    C511773   1.613   2.703  15.100  0.3452 -0.2518 -0.0596
  799MPD2     H11774   1.408   2.485  14.873  0.8469 -0.1726 -0.5193
  799MPD2    H111775   1.542   2.872  14.996 -1.5145 -0.1349 -1.7020
  799MPD2    H211776   1.696   2.526  15.180  2.4968  1.3933 -1.9250
  799MPD2    H311777   1.664   2.768  15.171  1.4590 -1.1278 -0.0594
  799MPD2     N11778   1.383   2.758  14.817 -0.4576 -0.1352  0.3215
  799MPD2    H511779   1.402   2.855  14.795  0.2698 -0.2761  0.3443
  799MPD2    N111780   1.570   2.353  15.011  0.0749  0.0126  0.1700
  799MPD2    H711781   1.520   2.306  14.936 -0.2345  0.6013  0.0077
  800MPD2     C11782   2.633   3.566  14.671  0.5820 -0.4467 -0.3441
  800MPD2    C111783   2.585   3.567  14.542  0.1837 -0.1375  0.1244
  800MPD2    C211784   2.487   3.482  14.496  0.0846 -0.1384 -0.1326
  800MPD2    C311785   2.446   3.380  14.575 -0.3045  0.2160  0.1761
  800MPD2    C411786   2.481   3.385  14.707  0.3174  0.5754  0.6013
  800MPD2    C511787   2.573   3.473  14.756  0.5180  0.2952 -0.0033
  800MPD2     H11788   2.441   3.483  14.398  0.2899 -0.0904 -0.2295
  800MPD2    H111789   2.450   3.309  14.777 -1.1111  0.8673  0.2867
  800MPD2    H211790   2.707   3.637  14.705 -1.0938  1.5288 -0.7964
  800MPD2    H311791   2.617   3.452  14.852  0.1655  1.8012  0.4893
  800MPD2     N11792   2.369   3.272  14.516 -0.1645  0.1618  0.1305
  800MPD2    H511793   2.336   3.289  14.422 -1.1687  2.3037  0.8666
  800MPD2    N111794   2.633   3.674  14.456 -0.2595 -0.1234  0.3747
  800MPD2    H711795   2.706   3.734  14.494 -0.6561  0.0296  0.9007
  801MPD2     C11796   2.459   4.297  14.059 -0.6074  0.5146 -1.0412
  801MPD2    C111797   2.539   4.246  14.157 -0.0323  0.0912 -0.4765
  801MPD2    C211798   2.513   4.282  14.293  0.0216  0.8965 -0.2497
  801MPD2    C311799   2.386   4.328  14.323  0.1310 -0.5860  0.0233
  801MPD2    C411800   2.306   4.379  14.222 -0.2505 -0.6922 -0.0137
  801MPD2    C511801   2.350   4.375  14.091  0.1979 -0.4828  0.4477
  801MPD2     H11802   2.586   4.255  14.368  2.9006  0.3896 -3.2212
  801MPD2    H111803   2.212   4.432  14.234 -1.0116 -1.7480 -1.4337
  801MPD2    H211804   2.491   4.279  13.957 -0.4784  0.7229 -1.0380
  801MPD2    H311805   2.295   4.398  14.001 -1.2710 -0.6448  1.3008
  801MPD2     N11806   2.328   4.339  14.455  0.1622  0.0821  0.0717
  801MPD2    H511807   2.242   4.391  14.470 -0.2739 -1.0248  1.3573
  801MPD2    N111808   2.659   4.171  14.136 -0.1003 -0.3206 -0.4777
  801MPD2    H711809   2.723   4.162  14.215 -0.1845  0.2607 -0.3489
  802MPD2     C11810   1.239   4.567  17.560  0.5323 -0.1666  0.6172
  802MPD2    C111811   1.297   4.588  17.686 -0.7102 -0.5768  0.3858
  802MPD2    C211812   1.394   4.498   0.037  0.1310 -0.6406  0.1694
  802MPD2    C311813   1.422   4.387  17.655  0.0547  0.2924  0.8868
  802MPD2    C411814   1.347   4.363  17.542 -0.2652 -0.0836  0.3369
  802MPD2    C511815   1.277   4.462  17.482 -0.0392  0.1892  0.1959
  802MPD2     H11816   1.459   4.533   0.116  1.6719 -0.2759 -1.2691
  802MPD2    H111817   1.352   4.279  17.474 -1.2645  0.6115 -0.5884
  802MPD2    H211818   1.164   4.636  17.524 -0.3090 -1.6803 -0.5368
  802MPD2    H311819   1.229   4.454  17.385  0.6753  1.2374 -0.2519
  802MPD2     N11820   1.528   4.296  17.692  0.2180  0.4059  0.0479
  802MPD2    H511821   1.539   4.214  17.633  0.0759  0.0715  0.4792
  802MPD2    N111822   1.268   4.695   0.078  0.0910 -0.7577 -0.1859
  802MPD2    H711823   1.317   4.697   0.166  0.8448 -1.8876 -0.5768
  803MPD2     C11824   2.757   2.504  11.857 -0.1360 -0.3403 -0.3518
  803MPD2    C111825   2.827   2.573  11.952 -0.0463 -0.6304  0.2411
  803MPD2    C211826   2.771   2.571  12.083  0.4575 -0.5850  0.6165
  803MPD2    C311827   2.675   2.478  12.121 -0.2721 -0.4175 -0.2126
  803MPD2    C411828   2.608   2.411  12.025  0.1485  0.1400 -0.5139
  803MPD2    C511829   2.641   2.435  11.891 -0.6291  0.2552  0.2511
  803MPD2     H11830   2.811   2.641  12.155 -0.5859  0.2614  0.3740
  803MPD2    H111831   2.523   2.346  12.043  0.1469  0.1579 -0.4578
  803MPD2    H211832   2.779   2.498  11.751 -2.0321  0.7515 -0.8021
  803MPD2    H311833   2.592   2.388  11.807  2.2985 -0.9011 -0.7951
  803MPD2     N11834   2.648   2.463  12.261  0.1666 -0.5442 -0.1743
  803MPD2    H511835   2.565   2.412  12.289  0.2113 -1.6957 -2.1813
  803MPD2    N111836   2.935   2.658  11.925 -0.0718  0.0754  0.6272
  803MPD2    H711837   2.961   2.721  12.000 -0.5927  0.7556  0.2397
  804MPD2     C11838   2.633   4.167  17.509  0.2022  0.8355  0.2570
  804MPD2    C111839   2.569   4.214  17.397  0.0134  0.4171  0.3470
  804MPD2    C211840   2.588   4.345  17.347  0.6637  0.1975 -0.1056
  804MPD2    C311841   2.670   4.433  17.414  0.1118  0.6202 -0.3975
  804MPD2    C411842   2.739   4.381  17.528  0.2378  0.3726  0.1549
  804MPD2    C511843   2.721   4.253  17.567 -0.5038  0.4873 -0.2678
  804MPD2     H11844   2.544   4.377  17.253 -0.5179 -1.2337 -0.0379
  804MPD2    H111845   2.804   4.440  17.592  0.0908 -0.0234  0.6673
  804MPD2    H211846   2.627   4.067  17.552  1.3756  0.9157  0.5917
  804MPD2    H311847   2.782   4.219  17.650 -2.5197 -1.6194  0.3801
  804MPD2     N11848   2.681   4.571  17.369  0.2818 -0.2694  0.2866
  804MPD2    H511849   2.643   4.585  17.275  0.6560 -0.5035  0.1009
  804MPD2    N111850   2.491   4.120  17.334 -0.3126  0.2003 -0.3692
  804MPD2    H711851   2.480   4.029  17.377 -0.5751  1.0852  1.4579
  805MPD2     C11852   1.262   2.188  15.789  0.2433 -0.5644  0.1214
  805MPD2    C111853   1.280   2.193  15.657  0.0627 -0.0919  0.1381
  805MPD2    C211854   1.406   2.181  15.604  0.4909  0.6553  0.2656
  805MPD2    C311855   1.512   2.180  15.693  0.3122  0.0714  1.4316
  805MPD2    C411856   1.498   2.165  15.827 -0.2966  0.4211  0.0131
  805MPD2    C511857   1.367   2.170  15.873 -0.3969  1.0306  0.3147
  805MPD2     H11858   1.417   2.176  15.497 -2.1576 -1.2809  0.0850
  805MPD2    H111859   1.584   2.166  15.893  0.0612  0.0727 -0.4484
  805MPD2    H211860   1.159   2.194  15.824  0.4843  2.2136  0.3543
  805MPD2    H311861   1.349   2.164  15.979  0.5200 -1.4478  0.3166
  805MPD2     N11862   1.637   2.190  15.633 -0.2191  0.4192  0.0168
  805MPD2    H511863   1.643   2.209  15.533  0.5358 -0.1255 -0.0468
  805MPD2    N111864   1.180   2.226  15.566  0.0192 -0.3572 -0.4734
  805MPD2    H711865   1.211   2.230  15.470 -0.1240 -0.2700 -0.5160
  806MPD2     C11866   1.618   1.606   0.230  0.3000 -0.2221 -0.1951
  806MPD2    C111867   1.688   1.692   0.309  0.3533 -0.0763 -0.7669
  806MPD2    C211868   1.790   1.764   0.247  0.2779  0.0929 -0.0433
  806MPD2    C311869   1.817   1.753   0.116  0.8297 -0.3316  0.5636
  806MPD2    C411870   1.757   1.653   0.044  0.4770  0.5125 -0.1483
  806MPD2    C511871   1.662   1.580   0.099  0.0608  0.5888 -0.0194
  806MPD2     H11872   1.853   1.836   0.298  1.4362 -0.3943 -0.7759
  806MPD2    H111873   1.786   1.639  17.634  3.2759  0.1967  0.6670
  806MPD2    H211874   1.546   1.539   0.275 -0.5207 -1.5326 -3.4739
  806MPD2    H311875   1.617   1.507   0.031  0.5888  0.4870 -0.2601
  806MPD2     N11876   1.914   1.844   0.060  0.0510 -0.3572  0.3065
  806MPD2    H511877   1.926   1.919   0.127  0.2979 -0.5329  0.4579
  806MPD2    N111878   1.634   1.722   0.443 -0.2039  0.3409  0.3876
  806MPD2    H711879   1.543   1.688   0.474 -0.1578  1.5619  1.8467
  807MPD2     C11880   1.369   1.454   1.117  0.9139 -0.1068 -0.2233
  807MPD2    C111881   1.501   1.482   1.090  0.5362 -0.1488 -0.3713
  807MPD2    C211882   1.596   1.430   1.176  0.0700 -0.3473 -0.1372
  807MPD2    C311883   1.567   1.343   1.270  0.6272  0.4768 -0.4547
  807MPD2    C411884   1.434   1.309   1.295 -0.0750  0.1053 -0.6215
  807MPD2    C511885   1.341   1.375   1.216  0.0833 -0.2425  0.5432
  807MPD2     H11886   1.698   1.464   1.163  0.2014 -0.9500 -0.6880
  807MPD2    H111887   1.407   1.246   1.379  0.9085  1.4713  0.7154
  807MPD2    H211888   1.295   1.496   1.051  0.2666 -1.4715 -0.3722
  807MPD2    H311889   1.238   1.366   1.248  0.6543  0.3770  2.6196
  807MPD2     N11890   1.677   1.284   1.332 -0.1362  0.4881  0.2191
  807MPD2    H511891   1.768   1.307   1.292 -1.9435  1.5354 -3.2723
  807MPD2    N111892   1.548   1.584   1.007 -0.5886  0.0442  0.2636
  807MPD2    H711893   1.648   1.598   0.999 -0.9039  1.8454 -0.5799
  808MPD2     C11894   2.650   2.282   9.967 -0.9563  0.7904  0.5611
  808MPD2    C111895   2.584   2.401   9.995 -0.0070  0.2062 -0.7443
  808MPD2    C211896   2.654   2.510  10.025  0.0869 -0.3609 -0.8604
  808MPD2    C311897   2.789   2.513  10.008 -1.2118 -0.4368 -0.2240
  808MPD2    C411898   2.854   2.401   9.965 -0.1246  0.1746  0.1332
  808MPD2    C511899   2.782   2.288   9.950  0.5884 -0.5761  0.4679
  808MPD2     H11900   2.597   2.602  10.035 -0.9327 -1.0202 -0.6786
  808MPD2    H111901   2.962   2.397   9.958 -0.2738 -0.7521 -1.5468
  808MPD2    H211902   2.605   2.185   9.951  2.3235 -0.9691  2.0362
  808MPD2    H311903   2.838   2.199   9.925  0.8641 -0.2766  0.0207
  808MPD2     N11904   2.872   2.625   9.999  0.1532 -0.5519 -0.3904
  808MPD2    H511905   2.973   2.611   9.999 -0.1600 -2.8372 -0.0187
  808MPD2    N111906   2.447   2.413  10.010  0.8802 -0.1115  0.3993
  808MPD2    H711907   2.411   2.500  10.048  0.7381  0.0781 -0.1724
  809MPD2     C11908   3.643   2.553  10.291  0.1237 -0.2150 -0.4094
  809MPD2    C111909   3.635   2.688  10.292  0.1924 -0.6268 -0.3405
  809MPD2    C211910   3.515   2.743  10.239 -0.0297 -0.0435 -0.3621
  809MPD2    C311911   3.417   2.671  10.170 -0.6635 -0.3629 -0.3557
  809MPD2    C411912   3.442   2.535  10.158 -0.5465 -0.5646 -0.1987
  809MPD2    C511913   3.556   2.483  10.218 -0.2233  0.3066 -0.1436
  809MPD2     H11914   3.503   2.851  10.244 -0.3259  0.0162 -2.2668
  809MPD2    H111915   3.380   2.472  10.095 -1.4705  0.0614  0.0937
  809MPD2    H211916   3.718   2.494  10.343  2.5499  3.7634  0.5783
  809MPD2    H311917   3.565   2.376  10.229  0.1255  0.4985  1.4881
  809MPD2     N11918   3.312   2.732  10.092 -0.1097 -0.7301  0.1378
  809MPD2    H511919   3.274   2.670  10.021  0.2811  2.2533 -2.6692
  809MPD2    N111920   3.736   2.766  10.355  0.2113 -0.2087  0.2447
  809MPD2    H711921   3.712   2.865  10.357 -0.2211 -0.2664 -1.5680
  810MPD2     C11922   2.654   2.085  10.530 -0.2013 -0.6335  0.5559
  810MPD2    C111923   2.555   2.141  10.449 -0.5379 -0.4514 -0.7013
  810MPD2    C211924   2.585   2.258  10.379  0.3927 -0.4390 -0.5381
  810MPD2    C311925   2.707   2.317  10.401 -0.0668 -0.2136  0.4161
  810MPD2    C411926   2.810   2.248  10.456 -0.1399 -0.7330  0.2332
  810MPD2    C511927   2.782   2.124  10.515  0.1566  0.0543  0.3674
  810MPD2     H11928   2.510   2.311  10.322 -0.4694 -1.0230  0.0331
  810MPD2    H111929   2.912   2.285  10.459 -0.3523 -0.0368 -1.2509
  810MPD2    H211930   2.642   1.988  10.577 -0.4834  0.6479  3.0981
  810MPD2    H311931   2.856   2.061  10.563  1.5509 -0.7941 -2.8839
  810MPD2     N11932   2.732   2.455  10.388  0.1128 -0.1529 -0.2105
  810MPD2    H511933   2.824   2.493  10.408 -0.2807  0.5003  0.3311
  810MPD2    N111934   2.422   2.087  10.455 -0.0748 -0.6872  0.4728
  810MPD2    H711935   2.399   2.015  10.523 -0.7149 -1.1003 -0.1800
  811MPD2     C11936   1.532   2.278  10.324  1.1839 -0.2456  0.9020
  811MPD2    C111937   1.660   2.307  10.345  0.0312  0.2499 -0.5284
  811MPD2    C211938   1.706   2.439  10.336  0.5017  0.3064  0.0639
  811MPD2    C311939   1.621   2.548  10.304  0.0589 -0.6497  0.2595
  811MPD2    C411940   1.488   2.514  10.288 -0.5075 -0.1067  0.2496
  811MPD2    C511941   1.447   2.380  10.286 -0.2648 -0.0983 -0.3257
  811MPD2     H11942   1.813   2.458  10.342  0.6552 -0.8589  1.0896
  811MPD2    H111943   1.405   2.580  10.266  0.0420 -0.3500 -2.5383
  811MPD2    H211944   1.491   2.177  10.320  1.0819 -0.1902  0.5125
  811MPD2    H311945   1.344   2.359  10.263 -0.6396  0.8888  0.4376
  811MPD2     N11946   1.676   2.675  10.287 -0.5259  0.1147  0.1622
  811MPD2    H511947   1.778   2.677  10.284 -0.5179 -0.3753  0.1453
  811MPD2    N111948   1.744   2.196  10.383  0.4077 -0.0677 -0.1270
  811MPD2    H711949   1.709   2.102  10.366  0.2181 -0.1044  0.4681
  812MPD2     C11950   1.125   2.584  12.273  0.7914 -0.2788  0.0063
  812MPD2    C111951   1.047   2.653  12.366 -0.2407 -0.0454  0.2942
  812MPD2    C211952   1.019   2.598  12.490 -0.1709  1.0785 -0.2287
  812MPD2    C311953   1.058   2.467  12.520 -0.0545  1.0128  0.0251
  812MPD2    C411954   1.138   2.397  12.426 -0.5405  0.5174  0.0017
  812MPD2    C511955   1.164   2.455  12.305  0.1835  0.2187  0.0120
  812MPD2     H11956   0.954   2.653  12.557 -0.6212  0.6892 -0.3451
  812MPD2    H111957   1.175   2.296  12.441 -1.9759  0.0684  0.5222
  812MPD2    H211958   1.144   2.628  12.176 -2.0584  0.5381 -0.1832
  812MPD2    H311959   1.217   2.400  12.227 -0.6601 -1.5138  0.6481
  812MPD2     N11960   1.025   2.424  12.652  0.0148  0.0019 -0.4086
  812MPD2    H511961   0.959   2.488  12.696  1.1519  3.1022 -3.1606
  812MPD2    N111962   1.012   2.789  12.332 -0.2281 -0.4378  0.1297
  812MPD2    H711963   1.060   2.831  12.253  1.3509 -0.3622  1.1466
  813MPD2     C11964   4.647   4.285  12.317  0.5603  0.2320  0.2947
  813MPD2    C111965   4.685   4.331  12.440  0.4664 -0.1847  0.6038
  813MPD2    C211966   4.589   4.381  12.531  0.1618  0.0368 -0.3714
  813MPD2    C311967   4.459   4.390  12.493 -0.1852 -0.4819  1.4486
  813MPD2    C411968   4.420   4.347  12.372  0.0872  0.2502 -0.4654
  813MPD2    C511969   4.508   4.300  12.281  0.1404 -0.5436 -0.1500
  813MPD2     H11970   4.630   4.398  12.631 -0.4463 -0.0462 -0.1114
  813MPD2    H111971   4.320   4.372  12.339  1.5817  4.6186 -1.6992
  813MPD2    H211972   4.721   4.257  12.244  0.9136 -2.6091  1.7594
  813MPD2    H311973   4.473   4.274  12.182  0.8625  0.7968 -0.7500
  813MPD2     N11974   4.380   4.469  12.584  1.0370  0.0453  0.0620
  813MPD2    H511975   4.420   4.497  12.672 -1.1156  0.0096  1.0469
  813MPD2    N111976   0.093   4.330  12.479  0.1583 -0.2151  0.3876
  813MPD2    H711977   0.109   4.368  12.572 -1.1669 -0.0884  0.5699
  814MPD2     C11978   0.139   1.028  11.960  0.4994  0.5142 -0.2083
  814MPD2    C111979   0.245   1.029  11.866 -0.1060 -0.8784  0.0303
  814MPD2    C211980   0.336   1.128  11.896 -0.1204 -0.8220  0.2382
  814MPD2    C311981   0.332   1.209  12.008 -0.2251 -0.3015  0.1809
  814MPD2    C411982   0.229   1.190  12.100 -0.0726  0.2738  0.0603
  814MPD2    C511983   0.134   1.098  12.077  0.1955  0.5789 -0.0821
  814MPD2     H11984   0.417   1.143  11.826 -1.7622  0.6505 -1.3340
  814MPD2    H111985   0.220   1.244  12.193 -2.0057  1.0080 -0.5635
  814MPD2    H211986   0.051   0.971  11.930 -1.7610  2.8603  1.9669
  814MPD2    H311987   0.052   1.097  12.147  0.7055  1.2031  0.5172
  814MPD2     N11988   0.419   1.314  12.037 -0.8470 -0.2266  0.8355
  814MPD2    H511989   0.404   1.372  12.119 -0.6937  2.0467 -0.7324
  814MPD2    N111990   0.248   0.947  11.748  0.0500 -0.0299 -0.4518
  814MPD2    H711991   0.310   0.987  11.678  2.3823 -1.0588  1.0684
  815MPD2     C11992   0.872   4.283  11.286  0.2362 -0.3170  0.0133
  815MPD2    C111993   0.885   4.181  11.378 -0.8471  0.2500  0.1649
  815MPD2    C211994   0.787   4.155  11.472 -0.0014  0.6321  0.0095
  815MPD2    C311995   0.667   4.217  11.448  0.4003  0.0510  0.4184
  815MPD2    C411996   0.652   4.312  11.348 -0.7580  0.7107 -0.1427
  815MPD2    C511997   0.755   4.339  11.263  0.2135 -0.4323 -0.4657
  815MPD2     H11998   0.799   4.078  11.548  1.7796  1.9914  1.1056
  815MPD2    H111999   0.563   4.372  11.335 -1.1942 -0.2494 -1.5689
  815MPD2    H212000   0.950   4.307  11.214  1.0702 -0.2911  0.9286
  815MPD2    H312001   0.750   4.416  11.186 -0.4924  1.2547  1.2468
  815MPD2     N12002   0.557   4.165  11.520 -0.8421 -0.3547  0.1826
  815MPD2    H512003   0.583   4.091  11.584  0.6645  1.3009  1.4793
  815MPD2    N112004   1.010   4.104  11.361 -1.0668 -0.1195 -0.4791
  815MPD2    H712005   1.071   4.121  11.283 -2.4688  3.0030 -0.8703
  816MPD2     C12006   0.375   3.343  17.341  0.2409 -0.8432  0.1885
  816MPD2    C112007   0.433   3.452  17.276 -0.8261 -0.4127 -0.5999
  816MPD2    C212008   0.561   3.437  17.220 -0.2414  0.3438  0.3206
  816MPD2    C312009   0.627   3.311  17.217  0.5505 -0.5044 -0.0282
  816MPD2    C412010   0.554   3.203  17.270 -0.9415 -0.1808 -0.4983
  816MPD2    C512011   0.428   3.216  17.336 -0.3552 -0.3155 -0.2097
  816MPD2     H12012   0.599   3.523  17.165  1.1000  0.4447  1.3961
  816MPD2    H112013   0.587   3.101  17.260  0.3535  0.1893  0.1006
  816MPD2    H212014   0.272   3.349  17.375 -0.4538  0.6184 -2.1236
  816MPD2    H312015   0.377   3.132  17.381  0.3580 -0.3228  0.5888
  816MPD2     N12016   0.746   3.296  17.150  0.0102 -0.0061  0.0182
  816MPD2    H512017   0.770   3.375  17.092  1.9926 -0.9702 -0.4540
  816MPD2    N112018   0.356   3.572  17.264  0.6940 -0.2789  0.1077
  816MPD2    H712019   0.263   3.582  17.305  1.4139  1.5655  1.3230
  817MPD2     C12020   4.406   3.752   9.627 -0.1307 -0.2823 -0.4530
  817MPD2    C112021   4.319   3.679   9.548  0.4316  0.2153  1.2205
  817MPD2    C212022   4.246   3.745   9.451 -0.1854 -0.1403 -0.5517
  817MPD2    C312023   4.249   3.880   9.431  0.3440 -0.7278 -0.0005
  817MPD2    C412024   4.335   3.946   9.523 -0.3457  0.1070  0.3280
  817MPD2    C512025   4.410   3.886   9.621  0.1250  0.0127 -0.0070
  817MPD2     H12026   4.171   3.700   9.386  0.6746  1.5250 -2.7067
  817MPD2    H112027   4.338   4.054   9.511 -0.8072  0.2674  1.7095
  817MPD2    H212028   4.484   3.715   9.693 -0.0587 -0.1041 -0.4406
  817MPD2    H312029   4.484   3.943   9.676 -0.8301 -1.3238  2.6751
  817MPD2     N12030   4.181   3.937   9.321 -0.3111 -0.2064 -0.0340
  817MPD2    H512031   4.152   3.880   9.242  2.3292 -1.5453 -0.0232
  817MPD2    N112032   4.311   3.540   9.545  0.0766  0.1405 -0.2322
  817MPD2    H712033   4.270   3.493   9.464  0.6984 -2.1239  0.7691
  818MPD2     C12034   4.280   0.554   9.974  0.0851 -0.2560 -0.1624
  818MPD2    C112035   4.148   0.528  10.005  0.0315  0.7701 -0.1601
  818MPD2    C212036   4.108   0.388   9.991 -0.1471 -0.4586 -0.3048
  818MPD2    C312037   4.197   0.288   9.979 -0.1696 -0.3744 -0.0290
  818MPD2    C412038   4.332   0.313   9.960 -0.0467 -0.0167  0.2042
  818MPD2    C512039   4.374   0.445   9.960  0.5798  0.6149  0.2049
  818MPD2     H12040   4.003   0.370  10.007  0.4590 -3.7335 -0.0631
  818MPD2    H112041   4.404   0.235   9.938 -0.3076 -0.0900 -0.3786
  818MPD2    H212042   4.323   0.653   9.964 -3.0856  1.2999  1.5930
  818MPD2    H312043   4.474   0.461   9.922 -0.3409 -0.9343 -2.8997
  818MPD2     N12044   4.147   0.157   9.969  0.4717  0.9812  0.2225
  818MPD2    H512045   4.211   0.086  10.001 -0.1761 -0.6778 -2.1889
  818MPD2    N112046   4.043   0.621  10.036 -0.4608  0.5789 -0.9572
  818MPD2    H712047   3.949   0.587  10.056  0.1668  0.3091  1.6569
  819MPD2     C12048   2.119   1.483  15.503 -0.1404 -0.4333 -0.1930
  819MPD2    C112049   2.121   1.611  15.559  0.0708 -0.2662  0.6834
  819MPD2    C212050   2.233   1.642  15.636  0.1302  0.6873 -0.2676
  819MPD2    C312051   2.333   1.554  15.658  1.2094 -0.4386  0.1638
  819MPD2    C412052   2.324   1.427  15.604 -0.4403  0.0603 -0.1730
  819MPD2    C512053   2.218   1.390  15.530 -0.3171 -0.8242  1.4858
  819MPD2     H12054   2.254   1.743  15.669  1.5992  0.1871  0.3634
  819MPD2    H112055   2.403   1.358  15.631  0.7535  1.7048  0.5819
  819MPD2    H212056   2.032   1.447  15.450 -1.0911  1.0507  0.3627
  819MPD2    H312057   2.218   1.288  15.493 -0.3423 -0.2486 -0.0726
  819MPD2     N12058   2.450   1.597  15.723  0.0662  0.3477 -0.1788
  819MPD2    H512059   2.444   1.697  15.739 -3.0104  0.3105 -1.0232
  819MPD2    N112060   2.008   1.698  15.531 -0.3090  0.2641 -0.1261
  819MPD2    H712061   1.946   1.668  15.457 -1.4543 -0.1552  1.0057
  820MPD2     C12062   1.258   1.914  14.974  0.1962  0.1631  0.2821
  820MPD2    C112063   1.279   1.999  15.076  0.1704 -0.3134 -0.0255
  820MPD2    C212064   1.375   1.956  15.167 -0.4048  0.3389 -0.1824
  820MPD2    C312065   1.448   1.837  15.147  0.1991 -0.9968 -0.1571
  820MPD2    C412066   1.413   1.751  15.044 -0.9195  0.1888 -0.7184
  820MPD2    C512067   1.317   1.792  14.957  0.5962 -0.4376 -0.0081
  820MPD2     H12068   1.396   2.026  15.247  0.1539  0.2651 -0.2613
  820MPD2    H112069   1.474   1.661  15.036 -1.5017 -0.3894  1.1837
  820MPD2    H212070   1.188   1.924  14.892 -0.2800 -0.9163  0.5628
  820MPD2    H312071   1.290   1.735  14.869 -3.3390  2.2418 -0.5460
  820MPD2     N12072   1.545   1.793  15.236  0.5133  0.1990 -0.8472
  820MPD2    H512073   1.583   1.699  15.226  1.1212  0.6177 -2.5374
  820MPD2    N112074   1.188   2.105  15.105 -0.4643  0.4350  0.3293
  820MPD2    H712075   1.112   2.120  15.039 -0.3190 -1.6465 -0.2968
  821MPD2     C12076   2.141   3.145  13.849  0.0284 -0.0861  0.3052
  821MPD2    C112077   2.277   3.156  13.863 -0.1499  0.6727 -0.2927
  821MPD2    C212078   2.357   3.195  13.756 -0.3978  0.1426 -1.2170
  821MPD2    C312079   2.304   3.208  13.629  0.3764 -0.1563 -0.6298
  821MPD2    C412080   2.165   3.196  13.616 -0.5037  0.2412 -0.1262
  821MPD2    C512081   2.089   3.166  13.725  0.2873  0.2712  0.0696
  821MPD2     H12082   2.463   3.208  13.776  0.1024 -3.2386 -1.5935
  821MPD2    H112083   2.117   3.200  13.519 -2.6715  2.0912  0.9870
  821MPD2    H212084   2.074   3.122  13.932 -2.7353 -1.1254 -2.2214
  821MPD2    H312085   1.981   3.156  13.715 -0.0197  2.1048  1.5891
  821MPD2     N12086   2.382   3.239  13.511 -0.6994  0.2054 -0.2509
  821MPD2    H512087   2.322   3.266  13.433  0.8496  0.5889 -1.3041
  821MPD2    N112088   2.343   3.146  13.989  0.5670  0.0037  0.5727
  821MPD2    H712089   2.434   3.187  14.004  1.1271 -1.3838  0.9916
  822MPD2     C12090   3.139   3.161  16.020  0.1271 -0.4196  0.0228
  822MPD2    C112091   3.231   3.253  16.069  0.3106  0.2135 -0.3811
  822MPD2    C212092   3.194   3.386  16.077 -0.2319  0.4433 -0.4749
  822MPD2    C312093   3.075   3.430  16.042 -0.6922 -0.1018  0.4276
  822MPD2    C412094   2.982   3.342  15.986  0.2908  0.1211  0.1136
  822MPD2    C512095   3.021   3.209  15.976 -0.3970 -0.7214  0.2191
  822MPD2     H12096   3.265   3.456  16.120 -1.5233  3.2093 -2.8667
  822MPD2    H112097   2.883   3.365  15.949  0.3650  0.7303  0.2938
  822MPD2    H212098   3.155   3.054  16.008 -1.7243 -0.5557 -1.2471
  822MPD2    H312099   2.960   3.143  15.915 -0.4439 -0.3341 -0.1546
  822MPD2     N12100   3.025   3.554  16.092  0.0671  0.3542  0.0360
  822MPD2    H512101   2.924   3.556  16.101 -0.1217  0.5754 -2.0711
  822MPD2    N112102   3.362   3.219  16.113  0.5584  0.3225 -0.3628
  822MPD2    H712103   3.399   3.297  16.167 -1.8880 -0.1293  1.9906
  823MPD2     C12104   2.770   3.840  16.847 -0.6043  0.0085  0.1888
  823MPD2    C112105   2.779   3.750  16.740  0.6954  0.0764  0.0198
  823MPD2    C212106   2.749   3.618  16.771 -0.1193  0.7557  0.1837
  823MPD2    C312107   2.713   3.568  16.902 -0.7696  0.0890 -0.0502
  823MPD2    C412108   2.694   3.659  16.996 -0.2770 -0.0591  0.2583
  823MPD2    C512109   2.727   3.789  16.968  0.1309 -0.7340  0.0449
  823MPD2     H12110   2.752   3.539  16.697 -0.9287  1.6717 -0.8275
  823MPD2    H112111   2.680   3.621  17.097  0.8808  1.4287  0.9809
  823MPD2    H212112   2.790   3.945  16.833 -1.6210  0.4481  1.9583
  823MPD2    H312113   2.725   3.853  17.056 -0.5690  0.3090 -0.7349
  823MPD2     N12114   2.689   3.436  16.927 -0.1279  0.2544 -0.4853
  823MPD2    H512115   2.659   3.409  17.020  0.9802 -0.9288 -0.4582
  823MPD2    N112116   2.813   3.793  16.614  0.1510 -0.2729  0.4063
  823MPD2    H712117   2.841   3.890  16.604 -2.3324  0.5958  1.8475
  824MPD2     C12118   4.053   2.620  16.315 -0.3408  0.1101  0.0010
  824MPD2    C112119   3.986   2.667  16.207 -0.4890 -0.3806  0.4476
  824MPD2    C212120   3.984   2.585  16.088 -0.1302  0.4500  1.0348
  824MPD2    C312121   4.048   2.467  16.087  0.6887 -0.3900  0.6189
  824MPD2    C412122   4.120   2.429  16.198 -0.2429 -0.6517  1.0594
  824MPD2    C512123   4.129   2.500  16.305  1.1107  0.7357  0.2546
  824MPD2     H12124   3.927   2.607  15.999 -0.6945 -1.4193  0.9367
  824MPD2    H112125   4.177   2.337  16.207 -0.2039 -0.7620 -0.3033
  824MPD2    H212126   4.052   2.672  16.409 -0.8007  1.0468 -0.5261
  824MPD2    H312127   4.182   2.471  16.395 -1.1227 -2.4081  0.5757
  824MPD2     N12128   4.036   2.393  15.967  0.3081 -0.2735 -0.6813
  824MPD2    H512129   3.986   2.431  15.887  1.9676  1.5304 -0.8724
  824MPD2    N112130   3.907   2.783  16.226  0.7977 -0.6981 -0.3283
  824MPD2    H712131   3.927   2.835  16.311 -3.0689 -1.0306  0.7704
  825MPD2     C12132   4.215   2.355  15.134  0.3283 -0.5388 -0.1244
  825MPD2    C112133   4.211   2.413  15.258  0.2450 -0.2197 -0.1884
  825MPD2    C212134   4.207   2.555  15.264 -0.6335 -0.7009 -0.7234
  825MPD2    C312135   4.206   2.628  15.139  0.1710 -0.4769  0.9101
  825MPD2    C412136   4.204   2.562  15.021  0.3212 -0.0216  1.0198
  825MPD2    C512137   4.210   2.424  15.018 -0.2534  0.3029  0.0433
  825MPD2     H12138   4.184   2.606  15.357  1.7195  0.4345 -0.7589
  825MPD2    H112139   4.185   2.609  14.925 -1.4374  1.1323  1.9228
  825MPD2    H212140   4.196   2.248  15.137 -2.2065 -0.0318  1.9678
  825MPD2    H312141   4.208   2.369  14.925 -0.9828  0.4801 -0.0455
  825MPD2     N12142   4.201   2.769  15.120  0.1138 -0.3949  0.2245
  825MPD2    H512143   4.207   2.806  15.026  2.5080 -2.4812 -0.4171
  825MPD2    N112144   4.183   2.328  15.365  0.0295  0.1502  0.0825
  825MPD2    H712145   4.181   2.230  15.338  0.1047  0.0839  0.3202
  826MPD2     C12146   3.674   2.749  13.723 -0.3510  0.1509  0.3237
  826MPD2    C112147   3.553   2.746  13.665  0.2844  0.5771  0.1406
  826MPD2    C212148   3.452   2.789  13.748  0.4894 -0.7244 -0.4079
  826MPD2    C312149   3.471   2.816  13.878 -0.0766  1.1198  0.1600
  826MPD2    C412150   3.596   2.811  13.935  0.6038 -0.1710  0.0536
  826MPD2    C512151   3.703   2.784  13.853  0.2699  0.4198  0.5238
  826MPD2     H12152   3.353   2.801  13.706  1.4908  2.2988 -1.8614
  826MPD2    H112153   3.610   2.826  14.042 -2.8370 -0.4790  0.5375
  826MPD2    H212154   3.757   2.715  13.661 -1.9925 -0.3177 -1.6027
  826MPD2    H312155   3.795   2.751  13.900  1.3996  0.8081 -1.4012
  826MPD2     N12156   3.369   2.866  13.961  0.5601  0.4453  0.6020
  826MPD2    H512157   3.392   2.913  14.048  0.0358 -2.6125  2.3824
  826MPD2    N112158   3.537   2.708  13.529  0.3597 -0.4115  0.5257
  826MPD2    H712159   3.620   2.697  13.472  0.1155  3.4747 -0.6081
  827MPD2     C12160   4.195   3.115  10.217 -0.5159 -0.7430  0.3366
  827MPD2    C112161   4.271   3.059  10.318 -0.7729  0.1178 -0.2325
  827MPD2    C212162   4.273   2.916  10.317 -0.1165 -0.6575  0.1293
  827MPD2    C312163   4.209   2.832  10.230 -0.2100  0.2040 -1.0170
  827MPD2    C412164   4.141   2.896  10.130 -0.8843 -0.4772 -0.3503
  827MPD2    C512165   4.125   3.030  10.125 -0.4554  0.8218 -0.0570
  827MPD2     H12166   4.342   2.885  10.396 -2.8267 -1.9396  1.9797
  827MPD2    H112167   4.075   2.841  10.064  1.0256 -0.3348 -2.3788
  827MPD2    H212168   4.173   3.221  10.207  0.2269 -0.5612  0.7031
  827MPD2    H312169   4.058   3.068  10.049 -2.1903  1.6893  1.9068
  827MPD2     N12170   4.198   2.692  10.239  0.0836 -0.3024 -0.8951
  827MPD2    H512171   4.138   2.648  10.170  0.7032 -1.0605 -0.9619
  827MPD2    N112172   4.338   3.141  10.411  0.0389  0.2547 -0.2698
  827MPD2    H712173   4.326   3.242  10.406  1.7448  0.5374  1.5620
  828MPD2     C12174   2.978   3.682  11.930  0.3317  1.0059  0.1545
  828MPD2    C112175   2.909   3.588  11.854  0.9631  0.5461 -0.0019
  828MPD2    C212176   2.983   3.490  11.791  0.0797 -0.6549 -0.2352
  828MPD2    C312177   3.118   3.481  11.814  0.0036 -0.6266  0.2922
  828MPD2    C412178   3.178   3.582  11.888 -0.3159  0.0008  0.0270
  828MPD2    C512179   3.107   3.675  11.954 -0.0776 -0.3395  0.0943
  828MPD2     H12180   2.937   3.415  11.727  0.2983 -0.9446 -0.0513
  828MPD2    H112181   3.284   3.584  11.910  0.0142  2.4842 -1.8322
  828MPD2    H212182   2.925   3.762  11.981 -0.8777  0.8638 -0.8625
  828MPD2    H312183   3.160   3.748  12.016  0.9410  0.3450 -1.5964
  828MPD2     N12184   3.208   3.386  11.763  0.3094 -0.1889 -0.1761
  828MPD2    H512185   3.302   3.388  11.801 -0.3418 -0.0942  1.4168
  828MPD2    N112186   2.763   3.584  11.834 -0.8663 -0.2541  0.1819
  828MPD2    H712187   2.727   3.521  11.763 -0.4763  0.6675 -0.8261
  829MPD2     C12188   2.251   3.334  11.158 -0.2844 -0.0788  0.0260
  829MPD2    C112189   2.182   3.300  11.268 -0.4154 -0.1926 -0.1517
  829MPD2    C212190   2.240   3.329  11.390 -0.4797 -0.0944 -0.4119
  829MPD2    C312191   2.359   3.394  11.401 -0.5585  0.2476 -0.0059
  829MPD2    C412192   2.432   3.428  11.288  0.9519 -0.0451 -0.5487
  829MPD2    C512193   2.373   3.402  11.170 -0.2373  0.0680  0.9278
  829MPD2     H12194   2.176   3.312  11.476 -1.5816  1.7756 -0.8543
  829MPD2    H112195   2.531   3.473  11.292  0.6532  0.6513 -1.1005
  829MPD2    H212196   2.210   3.321  11.059 -0.7784 -0.1694  0.2411
  829MPD2    H312197   2.433   3.421  11.082 -0.9076 -2.5293 -0.0706
  829MPD2     N12198   2.406   3.436  11.528  0.0679  0.2151  0.3843
  829MPD2    H512199   2.498   3.478  11.535 -0.3032  1.1596 -0.4318
  829MPD2    N112200   2.056   3.242  11.248 -0.4130  0.2749 -0.2484
  829MPD2    H712201   2.027   3.241  11.151 -0.8442 -0.3464 -0.1134
  830MPD2     C12202   3.215   1.959  15.917 -0.3837  0.2605  0.0048
  830MPD2    C112203   3.098   1.952  15.842 -0.1751  0.3171  0.6726
  830MPD2    C212204   3.091   2.022  15.716 -0.0246 -0.2520  0.6189
  830MPD2    C312205   3.192   2.109  15.672  0.8365  0.6855 -1.3237
  830MPD2    C412206   3.305   2.115  15.755 -0.2509  0.7588 -0.2776
  830MPD2    C512207   3.317   2.039  15.868  0.3649  0.1373 -0.6118
  830MPD2     H12208   2.994   2.021  15.668 -0.7189 -0.1072  2.0190
  830MPD2    H112209   3.384   2.182  15.723 -0.9999  1.6280 -0.2787
  830MPD2    H212210   3.237   1.907  16.009 -3.0741 -1.4433 -0.3360
  830MPD2    H312211   3.415   2.042  15.913  0.7335 -0.7080 -1.3332
  830MPD2     N12212   3.195   2.172  15.540  0.7030 -0.6226  0.5759
  830MPD2    H512213   3.278   2.226  15.515  0.1025 -1.1541 -2.4584
  830MPD2    N112214   2.990   1.870  15.896 -0.1464 -0.1608  0.8170
  830MPD2    H712215   3.000   1.848  15.995  0.5892 -0.8547  0.5846
  831MPD2     C12216   3.286   3.713  16.505  0.1932  0.2513  0.8643
  831MPD2    C112217   3.318   3.603  16.422 -0.2474  0.2153  1.0145
  831MPD2    C212218   3.240   3.489  16.432 -0.8154 -0.1569  0.4698
  831MPD2    C312219   3.126   3.488  16.516  0.4278  0.2396 -0.2264
  831MPD2    C412220   3.097   3.598  16.589  0.3797 -0.0406  0.8842
  831MPD2    C512221   3.175   3.708  16.589  0.1366  0.3813  0.0382
  831MPD2     H12222   3.269   3.409  16.364 -1.7053 -0.6005  0.6191
  831MPD2    H112223   3.018   3.603  16.663 -1.9641  0.0024 -1.6154
  831MPD2    H212224   3.348   3.800  16.522 -0.4226  0.6857  0.8828
  831MPD2    H312225   3.144   3.793  16.649  0.8601 -0.1616  1.1878
  831MPD2     N12226   3.035   3.380  16.523  0.3557 -0.7318 -0.6171
  831MPD2    H512227   2.947   3.388  16.573  0.9149  0.2587  0.2266
  831MPD2    N112228   3.427   3.632  16.336 -0.1856 -0.4075 -0.1190
  831MPD2    H712229   3.461   3.727  16.341 -3.7627  0.7206  2.2219
  832MPD2     C12230   1.462   4.361  17.198 -0.3686  0.3193 -0.1642
  832MPD2    C112231   1.450   4.495  17.215 -0.7013  0.2270  0.1259
  832MPD2    C212232   1.334   4.552  17.155  0.2662 -0.0946  0.0160
  832MPD2    C312233   1.236   4.470  17.106  0.4720  0.6672 -0.6029
  832MPD2    C412234   1.247   4.334  17.098  0.2010 -0.1474 -0.2034
  832MPD2    C512235   1.366   4.287  17.135 -0.8120  0.7679 -0.4335
  832MPD2     H12236   1.299   4.652  17.175 -1.6002 -0.5599 -0.9984
  832MPD2    H112237   1.178   4.275  17.039 -0.8099  0.2794  0.5418
  832MPD2    H212238   1.552   4.305  17.222 -0.7537 -0.4952 -0.5917
  832MPD2    H312239   1.383   4.182  17.118  0.7865  1.3957 -2.7740
  832MPD2     N12240   1.116   4.525  17.057  0.5078  0.0433  0.1159
  832MPD2    H512241   1.046   4.458  17.026  0.2324 -0.6226  2.1681
  832MPD2    N112242   1.552   4.565  17.276 -0.4553  0.1372  0.7013
  832MPD2    H712243   1.637   4.512  17.288  1.4918  2.5787 -2.2351
  833MPD2     C12244   3.089   1.185  12.780 -0.0645  0.2463  0.0397
  833MPD2    C112245   3.146   1.249  12.677 -0.3877  0.1845 -0.2100
  833MPD2    C212246   3.209   1.170  12.581 -0.3450 -0.0727  0.0494
  833MPD2    C312247   3.234   1.035  12.596 -0.3590 -0.7312  0.4463
  833MPD2    C412248   3.177   0.972  12.703 -0.2717  0.0086 -0.0402
  833MPD2    C512249   3.097   1.049  12.785 -0.0498 -0.7506 -0.5473
  833MPD2     H12250   3.237   1.212  12.485  0.2048  0.2855  0.3652
  833MPD2    H112251   3.184   0.865  12.719  0.5305  0.4001  2.1920
  833MPD2    H212252   3.044   1.246  12.857  0.3824 -2.2157  2.2097
  833MPD2    H312253   3.058   0.994  12.870  0.2860 -1.2527 -0.7216
  833MPD2     N12254   3.318   0.972  12.506 -0.4291 -0.1178  0.3213
  833MPD2    H512255   3.371   1.035  12.446 -2.0286  1.1227  0.2152
  833MPD2    N112256   3.132   1.384  12.662  0.1633 -0.2720 -0.4772
  833MPD2    H712257   3.091   1.435  12.740  1.3518 -0.8678  0.5512
  834MPD2     C12258   3.370   0.479  11.601  0.2621  0.3933  0.0373
  834MPD2    C112259   3.462   0.586  11.596  0.3895  0.0871 -0.0063
  834MPD2    C212260   3.462   0.676  11.701  0.7381 -0.0280  0.5848
  834MPD2    C312261   3.379   0.660  11.812  0.0966  0.5257  1.0271
  834MPD2    C412262   3.288   0.550  11.806  0.1218  0.1960 -0.0182
  834MPD2    C512263   3.289   0.465  11.708 -0.0265 -0.6526  0.3120
  834MPD2     H12264   3.536   0.755  11.699 -0.7431  1.4009  2.8806
  834MPD2    H112265   3.205   0.541  11.876  2.3224  2.7123  2.9114
  834MPD2    H212266   3.370   0.394  11.534  2.0272  0.0566  0.4526
  834MPD2    H312267   3.212   0.388  11.708  1.2081 -1.8860  0.6910
  834MPD2     N12268   3.393   0.740  11.924 -0.4516  0.6414  0.8846
  834MPD2    H512269   3.457   0.819  11.917 -0.1700  0.5129  2.0616
  834MPD2    N112270   3.551   0.588  11.482 -0.5014 -0.5273  0.7384
  834MPD2    H712271   3.550   0.503  11.427  2.9333  0.9916 -1.6941
  835MPD2     C12272   3.614   3.423  11.349  0.5325 -0.6141  0.2771
  835MPD2    C112273   3.515   3.507  11.395 -0.3668  0.2998 -0.2749
  835MPD2    C212274   3.514   3.564  11.516  0.6102  0.4782  0.0858
  835MPD2    C312275   3.623   3.536  11.599 -0.0946  0.4750  0.3265
  835MPD2    C412276   3.720   3.449  11.561 -0.0276 -0.2972  0.1175
  835MPD2    C512277   3.717   3.392  11.435  0.7007 -0.1072 -0.4980
  835MPD2     H12278   3.433   3.630  11.545  1.8077  2.3593 -0.8526
  835MPD2    H112279   3.806   3.415  11.618  0.5501 -2.5738 -2.0965
  835MPD2    H212280   3.612   3.392  11.246 -0.8825  0.2130  0.0473
  835MPD2    H312281   3.798   3.326  11.407  0.2075 -0.8280 -0.2028
  835MPD2     N12282   3.620   3.570  11.737  0.3723 -0.0876 -0.1931
  835MPD2    H512283   3.700   3.541  11.793 -1.1232  1.1169  2.5682
  835MPD2    N112284   3.410   3.547  11.313  0.1981  0.4768 -0.5760
  835MPD2    H712285   3.362   3.630  11.346 -0.2921  0.2087 -0.6230
  836MPD2     C12286   3.188   4.135  12.032 -0.0604  0.4647  0.9979
  836MPD2    C112287   3.229   4.060  12.142  0.6519  0.5967 -0.2200
  836MPD2    C212288   3.146   4.060  12.256 -0.4131  0.0796  1.3286
  836MPD2    C312289   3.045   4.146  12.262  0.6811  0.2658  1.2490
  836MPD2    C412290   3.024   4.238  12.163 -0.0915 -0.0609  0.1460
  836MPD2    C512291   3.087   4.229  12.042  0.1565  0.6448  0.1429
  836MPD2     H12292   3.164   3.989  12.336  0.7626  0.1902  1.1637
  836MPD2    H112293   2.953   4.317  12.183  0.3185  0.0718  1.0761
  836MPD2    H212294   3.253   4.144  11.945 -2.1091  2.1422 -0.3627
  836MPD2    H312295   3.084   4.317  11.979 -1.0260  0.3195 -0.2612
  836MPD2     N12296   2.960   4.160  12.376 -0.2169  0.1064 -0.6426
  836MPD2    H512297   2.877   4.217  12.364 -0.1643  0.2473 -0.3064
  836MPD2    N112298   3.343   3.984  12.127  0.6825 -0.4264 -0.1843
  836MPD2    H712299   3.401   4.002  12.045  0.6260  2.5415  0.4097
  837MPD2     C12300   2.096   2.860   9.667 -0.3021  0.3160  0.1920
  837MPD2    C112301   2.082   2.958   9.760 -0.2581 -1.0210 -0.5401
  837MPD2    C212302   2.136   3.078   9.730 -0.8803  0.1568 -0.0939
  837MPD2    C312303   2.225   3.104   9.622 -0.3705 -0.6069  0.0268
  837MPD2    C412304   2.257   2.997   9.537 -0.4031 -0.0803  0.0469
  837MPD2    C512305   2.197   2.873   9.567  1.4190 -0.3097 -0.7046
  837MPD2     H12306   2.104   3.160   9.794  0.2339 -1.6041  2.7663
  837MPD2    H112307   2.320   3.003   9.449 -0.9466  0.7433 -0.2831
  837MPD2    H212308   2.056   2.761   9.687  2.7272 -0.6569  1.4342
  837MPD2    H312309   2.228   2.783   9.514 -0.0402 -1.7426  0.8614
  837MPD2     N12310   2.272   3.236   9.600  0.2905 -0.6453  0.6047
  837MPD2    H512311   2.236   3.301   9.669 -1.4855  0.6656 -1.5608
  837MPD2    N112312   1.984   2.962   9.861  0.0684  0.1446 -0.2848
  837MPD2    H712313   1.987   3.051   9.909 -0.2029  0.2118 -0.3936
  838MPD2     C12314   0.301   1.888  11.993  0.5266 -0.0423  0.1484
  838MPD2    C112315   0.252   1.763  11.949  0.1583  0.0819 -0.4223
  838MPD2    C212316   0.132   1.715  11.996 -0.2158 -0.0236  0.0565
  838MPD2    C312317   0.055   1.786  12.097 -0.4883  0.3060 -0.3681
  838MPD2    C412318   0.107   1.912  12.133 -1.1413  0.4213 -0.3220
  838MPD2    C512319   0.218   1.959  12.068 -0.3028 -0.2877 -0.2107
  838MPD2     H12320   0.093   1.626  11.947  0.1696  0.8958 -1.9397
  838MPD2    H112321   0.055   1.983  12.196  1.1527  2.2923 -0.5669
  838MPD2    H212322   0.401   1.925  11.972  1.5747 -2.3965  1.0590
  838MPD2    H312323   0.248   2.063  12.079  2.2991 -1.2095  1.6254
  838MPD2     N12324   4.652   1.741  12.133  0.4582  0.0202 -0.3894
  838MPD2    H512325   4.637   1.644  12.107  0.3115 -0.0970  0.1370
  838MPD2    N112326   0.321   1.691  11.848  0.4602  0.3443 -0.5461
  838MPD2    H712327   0.296   1.594  11.831  4.2043 -0.5032 -1.3853
  839MPD2     C12328   4.655   1.064  11.469 -0.2571 -0.2599  0.0689
  839MPD2    C112329   0.002   1.104  11.357 -0.2093  0.0081  1.0560
  839MPD2    C212330   0.088   1.206  11.367 -0.3133  0.1895  0.0263
  839MPD2    C312331   0.098   1.276  11.483 -0.0678 -0.8026 -0.2268
  839MPD2    C412332   0.029   1.238  11.599  0.2028  0.0034  0.4029
  839MPD2    C512333   4.661   1.139  11.583 -0.6498  0.5838  0.0918
  839MPD2     H12334   0.134   1.229  11.272 -2.4766 -1.1127 -1.3279
  839MPD2    H112335   0.051   1.286  11.694 -2.6875  0.8571  0.6430
  839MPD2    H212336   4.585   0.981  11.464  0.4643 -0.8589 -0.0117
  839MPD2    H312337   4.602   1.114  11.670 -1.3773 -0.4161 -0.6964
  839MPD2     N12338   0.186   1.384  11.496 -0.2510 -0.4131 -0.0057
  839MPD2    H512339   0.168   1.435  11.582 -2.1110 -0.9446 -0.0729
  839MPD2    N112340   4.705   1.047  11.231  0.4383 -0.0140  0.0015
  839MPD2    H712341   0.032   1.094  11.155 -2.4668  2.9243 -0.0774
  840MPD2     C12342   0.123   3.623  10.461 -0.4536 -0.3990 -0.8449
  840MPD2    C112343   0.166   3.536  10.548  0.4924  0.2497 -0.3757
  840MPD2    C212344   0.285   3.559  10.611  0.3535 -0.9694 -0.4523
  840MPD2    C312345   0.361   3.665  10.571  0.2400  0.5226 -0.1592
  840MPD2    C412346   0.309   3.760  10.490  0.5949  0.4370  0.6174
  840MPD2    C512347   0.195   3.732  10.424 -0.0728 -0.0577 -0.1816
  840MPD2     H12348   0.331   3.489  10.680  0.6856  0.0945  0.4154
  840MPD2    H112349   0.365   3.848  10.460  3.0034 -1.3269 -0.0948
  840MPD2    H212350   0.025   3.619  10.414 -0.3812 -1.1666 -0.9315
  840MPD2    H312351   0.160   3.808  10.355 -1.0938  2.2152  2.8591
  840MPD2     N12352   0.471   3.707  10.647 -0.1532 -0.7398 -0.7065
  840MPD2    H512353   0.517   3.795  10.624 -0.7826 -0.5092 -1.0989
  840MPD2    N112354   0.075   3.427  10.574 -0.1019 -0.1770  0.2352
  840MPD2    H712355   4.718   3.418  10.513 -0.0449 -0.3696  0.1870
  841MPD2     C12356   4.523   4.290  14.954  0.7228 -0.4412  0.6148
  841MPD2    C112357   4.529   4.226  14.830 -0.1437  0.1542  0.3226
  841MPD2    C212358   4.591   4.285  14.726  0.1858 -0.8007  0.4994
  841MPD2    C312359   4.658   4.399  14.740  0.2538 -0.9203  0.4942
  841MPD2    C412360   4.663   4.457  14.865  0.5123  0.3935 -0.1694
  841MPD2    C512361   4.600   4.400  14.970 -0.2499 -0.7758 -0.4567
  841MPD2     H12362   4.594   4.237  14.628 -1.1115 -0.5360  0.3350
  841MPD2    H112363   0.000   4.542  14.895  0.3503  0.9937 -1.5348
  841MPD2    H212364   4.487   4.241  15.044 -2.3382 -0.3585 -0.5753
  841MPD2    H312365   4.609   4.442  15.070 -2.0095 -1.8049  0.1156
  841MPD2     N12366   0.008   4.447  14.628 -0.3562 -0.2476 -0.7614
  841MPD2    H512367   0.019   4.383  14.549  1.3218  0.4224 -1.0560
  841MPD2    N112368   4.464   4.102  14.799 -0.1880  0.1556 -0.3161
  841MPD2    H712369   4.464   4.074  14.701  0.7361  1.6863 -0.7537
  842MPD2     C12370   0.825   0.338  16.872  0.0520 -1.0426 -0.5602
  842MPD2    C112371   0.702   0.272  16.866  0.1274  0.1733 -0.1642
  842MPD2    C212372   0.660   0.205  16.979 -0.8741  0.2543 -0.2363
  842MPD2    C312373   0.734   0.228  17.096 -0.2831  0.0143 -0.1798
  842MPD2    C412374   0.855   0.293  17.096 -0.3986  0.3496  0.1905
  842MPD2    C512375   0.910   0.342  16.983  0.4106 -0.1489 -0.3638
  842MPD2     H12376   0.559   0.167  16.983 -1.3529  1.3789 -1.7546
  842MPD2    H112377   0.914   0.305  17.187  0.2780 -0.9041 -0.0741
  842MPD2    H212378   0.855   0.382  16.778  0.5650 -1.9111 -0.7958
  842MPD2    H312379   1.010   0.385  16.981  0.6413 -0.5972  1.8726
  842MPD2     N12380   0.675   0.209  17.222 -0.4597 -0.1219  0.4133
  842MPD2    H512381   0.738   0.239  17.296 -1.1785  0.5759  0.7392
  842MPD2    N112382   0.635   0.276  16.741  0.2382  0.1370  0.0717
  842MPD2    H712383   0.679   0.339  16.674 -1.2111  2.5476  1.4135
  843MPD2     C12384   2.360   1.182   0.332 -0.1593  0.2307 -0.2581
  843MPD2    C112385   2.453   1.091   0.370  0.2531  0.4179 -0.5886
  843MPD2    C212386   2.583   1.135   0.373 -0.6929 -0.1796 -0.2504
  843MPD2    C312387   2.618   1.268   0.341 -0.2008 -0.0470  0.0463
  843MPD2    C412388   2.519   1.350   0.298  0.1355  0.3865 -0.1295
  843MPD2    C512389   2.390   1.304   0.292  0.1006 -0.8235 -0.2934
  843MPD2     H12390   2.667   1.070   0.392 -1.5724 -1.1782  0.1639
  843MPD2    H112391   2.533   1.455   0.274 -0.1451 -0.0419 -2.1340
  843MPD2    H212392   2.254   1.161   0.327 -0.5418  2.2366 -0.9373
  843MPD2    H312393   2.312   1.370   0.255 -1.1251 -2.2343 -0.2274
  843MPD2     N12394   2.742   1.319   0.344  0.0836 -0.1713 -0.0123
  843MPD2    H512395   2.755   1.417   0.320 -0.5393 -1.0808 -3.9911
  843MPD2    N112396   2.415   0.962   0.397 -0.1895  0.1466  0.4393
  843MPD2    H712397   2.315   0.945   0.394 -0.1680  0.0941  0.1013
  844MPD2     C12398   1.099   4.320  16.584  0.7806 -0.3222  0.0170
  844MPD2    C112399   1.222   4.266  16.549 -0.5665  0.0028  0.5956
  844MPD2    C212400   1.338   4.318  16.603 -0.3600  0.6809 -0.5715
  844MPD2    C312401   1.332   4.434  16.686  0.3456  0.1719  0.0630
  844MPD2    C412402   1.209   4.479  16.721 -0.2777  0.4062  0.1444
  844MPD2    C512403   1.090   4.422  16.670  0.0702 -0.5748 -0.5495
  844MPD2     H12404   1.432   4.268  16.581 -0.8167 -0.0188 -0.9372
  844MPD2    H112405   1.200   4.558  16.795 -0.6256  0.0454  0.4929
  844MPD2    H212406   1.008   4.272  16.548  0.7985  2.7068 -4.0607
  844MPD2    H312407   0.991   4.455  16.700  0.6303 -1.1365  1.9194
  844MPD2     N12408   1.455   4.492  16.731  0.5360 -0.6100  0.2027
  844MPD2    H512409   1.531   4.426  16.733  0.9209 -0.0548  3.6621
  844MPD2    N112410   1.236   4.161  16.451 -0.0513  0.5849  0.5596
  844MPD2    H712411   1.325   4.143  16.405  0.0986  0.5525  0.8633
  845MPD2     C12412   1.569   0.669  17.179 -0.1238  0.1863  0.0940
  845MPD2    C112413   1.465   0.582  17.193  0.4357  0.7632  0.2348
  845MPD2    C212414   1.495   0.449  17.155 -1.1471 -0.1525 -0.0148
  845MPD2    C312415   1.613   0.403  17.107 -0.4772 -0.4516  0.5437
  845MPD2    C412416   1.716   0.489  17.114  0.5371 -0.3392  0.1732
  845MPD2    C512417   1.698   0.622  17.146 -0.0941  0.0632 -0.0709
  845MPD2     H12418   1.420   0.371  17.166 -0.6872 -0.7137 -0.8187
  845MPD2    H112419   1.820   0.461  17.103  0.6147 -0.6511  1.6721
  845MPD2    H212420   1.560   0.773  17.209  0.1994  0.7720 -1.8293
  845MPD2    H312421   1.780   0.692  17.135 -1.3793  1.4033 -1.1093
  845MPD2     N12422   1.620   0.271  17.057 -0.0814  0.0589 -0.4149
  845MPD2    H512423   1.534   0.219  17.042 -1.6740  2.3271  1.0190
  845MPD2    N112424   1.340   0.624  17.244 -0.0161  0.3599 -0.1768
  845MPD2    H712425   1.327   0.722  17.265  1.4689  1.1449 -2.8683
  846MPD2     C12426   2.614   1.059  13.512 -0.9140 -0.7608  0.4287
  846MPD2    C112427   2.595   1.182  13.570  0.0247  0.1881  0.1239
  846MPD2    C212428   2.592   1.186  13.706 -0.1843 -0.2550 -0.3500
  846MPD2    C312429   2.620   1.075  13.785  0.3287  0.3379 -0.4584
  846MPD2    C412430   2.655   0.957  13.720  0.5761 -0.1712 -0.1976
  846MPD2    C512431   2.653   0.949  13.581 -0.2173  0.2008  0.5983
  846MPD2     H12432   2.573   1.278  13.760  0.3784  0.4593 -1.3647
  846MPD2    H112433   2.673   0.863  13.771  2.1890 -0.4287 -1.2267
  846MPD2    H212434   2.612   1.038  13.406  2.0015 -0.1262  0.2506
  846MPD2    H312435   2.660   0.849  13.542  1.1711  0.4933  0.1248
  846MPD2     N12436   2.607   1.089  13.921 -0.4737  0.0957  0.2399
  846MPD2    H512437   2.552   1.169  13.951  1.7483  1.4903  0.6197
  846MPD2    N112438   2.556   1.305  13.499 -0.1856 -0.1860  0.4091
  846MPD2    H712439   2.560   1.396  13.545 -1.5931  0.5663 -0.9779
  847MPD2     C12440   3.256   2.181  14.563 -0.1727 -0.9177 -0.1577
  847MPD2    C112441   3.332   2.162  14.678  0.6134 -0.4786 -0.3563
  847MPD2    C212442   3.353   2.031  14.719 -0.0818  0.6645  0.1267
  847MPD2    C312443   3.280   1.930  14.671 -0.1990  0.3819  1.0194
  847MPD2    C412444   3.200   1.951  14.563  0.0222 -0.3925 -0.2463
  847MPD2    C512445   3.202   2.069  14.501  0.0602 -0.0380 -0.0152
  847MPD2     H12446   3.426   2.000  14.792  2.6143  1.6215 -2.1713
  847MPD2    H112447   3.148   1.876  14.505 -2.0903  0.8807 -0.0295
  847MPD2    H212448   3.239   2.275  14.512 -1.9443 -0.8915  0.5048
  847MPD2    H312449   3.143   2.092  14.413 -1.1537  0.3712  0.9064
  847MPD2     N12450   3.287   1.802  14.732  0.0078  0.1639 -0.0046
  847MPD2    H512451   3.350   1.802  14.812 -2.4325 -0.1552  1.9047
  847MPD2    N112452   3.382   2.269  14.751 -0.6529 -0.3233 -0.2830
  847MPD2    H712453   3.427   2.235  14.836 -0.8827 -0.7751 -0.3427
  848MPD2     C12454   0.777   0.174  16.372 -0.0245  0.2466 -0.2199
  848MPD2    C112455   0.879   0.213  16.457  0.4224 -0.8423 -0.4344
  848MPD2    C212456   0.964   0.317  16.433  0.3744 -0.4770 -0.2078
  848MPD2    C312457   0.962   0.383  16.307  0.0030 -0.7279 -0.6947
  848MPD2    C412458   0.866   0.334  16.217 -0.6284  0.6697  0.7490
  848MPD2    C512459   0.779   0.237  16.252 -0.0613  0.2795  0.6003
  848MPD2     H12460   1.039   0.344  16.507 -1.9268  1.5638  1.3779
  848MPD2    H112461   0.843   0.380  16.122  0.0433  1.9338  1.1977
  848MPD2    H212462   0.700   0.106  16.407 -0.4477  1.0667  0.4431
  848MPD2    H312463   0.708   0.212  16.174  0.4542 -3.6857  1.4251
  848MPD2     N12464   1.036   0.500  16.264  0.2932 -0.1072  0.0689
  848MPD2    H512465   1.022   0.539  16.172 -0.0235 -1.0453 -0.2870
  848MPD2    N112466   0.898   0.142  16.579 -0.4795  0.0973 -0.4495
  848MPD2    H712467   0.959   0.196  16.639 -1.5034 -1.1321  1.7154
  849MPD2     C12468   0.258   0.181  14.067  0.0860 -0.7416 -0.1661
  849MPD2    C112469   0.364   0.146  13.989 -0.4208 -0.4075 -0.2199
  849MPD2    C212470   0.457   0.062  14.046  0.5134  0.2971 -0.4758
  849MPD2    C312471   0.458   0.020  14.179  0.6355  0.6976  0.3376
  849MPD2    C412472   0.352   0.068  14.260 -0.1911  0.1169  0.3823
  849MPD2    C512473   0.255   0.147  14.201 -0.9070  0.0663  0.6253
  849MPD2     H12474   0.539   0.038  13.980  0.2559 -0.1262 -0.6406
  849MPD2    H112475   0.339   0.053  14.366  0.3112  2.4821  0.7637
  849MPD2    H212476   0.182   0.253  14.039 -0.4106 -1.4659 -0.6810
  849MPD2    H312477   0.179   0.190  14.266 -0.0156 -0.6945  2.1651
  849MPD2     N12478   0.554   4.656  14.233 -0.2948 -0.3412  0.0717
  849MPD2    H512479   0.549   4.631  14.331 -2.5875  0.2267  0.0838
  849MPD2    N112480   0.368   0.188  13.857  0.3369 -0.1853  0.0724
  849MPD2    H712481   0.288   0.233  13.812 -0.4978 -1.2531  0.4762
  850MPD2     C12482   2.600   3.193  14.962  0.8058  0.3634 -0.3433
  850MPD2    C112483   2.659   3.276  15.050  0.2230 -0.1793 -0.6670
  850MPD2    C212484   2.794   3.282  15.061  0.2640  0.0100 -0.2177
  850MPD2    C312485   2.875   3.193  14.988 -0.2254  0.9970 -0.7868
  850MPD2    C412486   2.817   3.111  14.897 -0.2073 -0.7445  1.1612
  850MPD2    C512487   2.679   3.116  14.878 -0.5599 -0.1537 -0.2828
  850MPD2     H12488   2.837   3.356  15.127 -3.1524 -0.0557  2.1151
  850MPD2    H112489   2.876   3.043  14.836 -1.0743 -0.3206 -0.1568
  850MPD2    H212490   2.493   3.195  14.947  0.6822 -1.0036  0.4176
  850MPD2    H312491   2.630   3.051  14.806 -2.1862  2.2485 -1.3240
  850MPD2     N12492   3.016   3.179  15.014 -0.7303  0.0304  0.1648
  850MPD2    H512493   3.069   3.127  14.945 -0.9040 -1.0323  0.8214
  850MPD2    N112494   2.574   3.329  15.145 -0.2242  0.1981 -0.3713
  850MPD2    H712495   2.485   3.283  15.161 -1.9892  3.5365 -0.6696
  851MPD2     C12496   3.086   3.041  15.688  0.0788  0.0925 -0.4643
  851MPD2    C112497   2.982   3.016  15.602  0.9125  0.6280  0.7081
  851MPD2    C212498   2.994   2.901  15.520  0.2056 -0.2061 -0.2223
  851MPD2    C312499   3.106   2.820  15.520 -0.3476 -0.2757 -0.1463
  851MPD2    C412500   3.209   2.855  15.606 -1.4062  0.0045  1.0443
  851MPD2    C512501   3.196   2.960  15.691  0.9006 -0.7008  0.2079
  851MPD2     H12502   2.920   2.872  15.446 -0.7798 -0.2511  0.7790
  851MPD2    H112503   3.305   2.805  15.601 -0.9641  1.0592 -0.9872
  851MPD2    H212504   3.086   3.130  15.750  0.1239  0.2188 -0.6466
  851MPD2    H312505   3.280   2.992  15.751  2.1823 -0.1262 -1.8853
  851MPD2     N12506   3.107   2.712  15.430 -0.3561  0.6220 -0.8684
  851MPD2    H512507   3.025   2.705  15.371 -0.9593 -2.0813  0.2484
  851MPD2    N112508   2.879   3.108  15.598 -0.5530  0.0174 -0.3552
  851MPD2    H712509   2.894   3.187  15.661 -0.7342 -0.8251  0.7566
  852MPD2     C12510   2.574   4.190   9.849  0.0916 -0.3944 -0.2556
  852MPD2    C112511   2.620   4.305   9.906 -0.3563 -0.3278  0.0961
  852MPD2    C212512   2.685   4.391   9.820 -0.0849 -0.0845  0.1102
  852MPD2    C312513   2.727   4.350   9.690 -0.4808  0.1363  0.1086
  852MPD2    C412514   2.681   4.233   9.638  0.2698 -0.2121 -0.4954
  852MPD2    C512515   2.602   4.158   9.717 -0.0112  0.2040  0.7159
  852MPD2     H12516   2.719   4.487   9.856 -1.3034 -0.5088  2.3519
  852MPD2    H112517   2.701   4.197   9.538  3.8678 -0.5082  0.3500
  852MPD2    H212518   2.511   4.114   9.894  0.5279 -0.2656  0.5643
  852MPD2    H312519   2.547   4.075   9.672  1.5211 -1.1050  1.2532
  852MPD2     N12520   2.831   4.428   9.628 -0.2503 -0.3231  0.0113
  852MPD2    H512521   2.862   4.506   9.685 -2.0428  1.9265 -2.0871
  852MPD2    N112522   2.575   4.338  10.038  0.3327  0.1622 -0.1863
  852MPD2    H712523   2.593   4.436  10.056  0.9930  0.2994 -1.5979
  853MPD2     C12524   0.076   0.356  11.830  0.0779  0.3005  0.2619
  853MPD2    C112525   4.692   0.398  11.755 -0.1382 -0.1770 -0.0115
  853MPD2    C212526   4.683   0.355  11.625  0.3560 -0.1889 -0.0854
  853MPD2    C312527   0.064   0.270  11.578 -0.6900  0.1884  0.8786
  853MPD2    C412528   0.168   0.231  11.659 -0.2368 -0.3564  0.2489
  853MPD2    C512529   0.178   0.273  11.788 -0.0970 -0.4498 -0.4173
  853MPD2     H12530   4.610   0.377  11.548 -0.4576  2.7690  1.5574
  853MPD2    H112531   0.252   0.175  11.620 -0.7992 -1.2132  0.2753
  853MPD2    H212532   0.097   0.400  11.927 -2.4216 -0.7929  1.3014
  853MPD2    H312533   0.258   0.248  11.857 -0.9386 -0.1854  0.6504
  853MPD2     N12534   0.061   0.226  11.441 -0.1521 -0.2765  0.0328
  853MPD2    H512535   4.696   0.242  11.393 -0.3290 -0.3879  0.3199
  853MPD2    N112536   4.587   0.479  11.817  0.0918  0.5282  0.1090
  853MPD2    H712537   4.606   0.495  11.916  0.9839 -2.1404  0.3679
  854MPD2     C12538   1.751   0.642  12.791  0.0756  0.1030  0.7073
  854MPD2    C112539   1.822   0.567  12.693  0.5529 -0.5968 -0.8894
  854MPD2    C212540   1.902   0.464  12.730 -0.5010  0.3857 -0.3860
  854MPD2    C312541   1.902   0.413  12.861  0.6533 -0.1760  0.2298
  854MPD2    C412542   1.836   0.491  12.959 -0.5376  0.0496  0.3559
  854MPD2    C512543   1.760   0.601  12.922  0.6752  0.4204 -0.0330
  854MPD2     H12544   1.961   0.418  12.652  0.7510  0.5463  0.4633
  854MPD2    H112545   1.844   0.468  13.064 -0.3938  0.4271  0.4281
  854MPD2    H212546   1.683   0.723  12.765  0.8152  0.1636 -1.0227
  854MPD2    H312547   1.707   0.666  12.991 -0.5810 -0.1053 -0.5035
  854MPD2     N12548   1.979   0.300  12.889  0.1711  0.0058 -0.3947
  854MPD2    H512549   1.977   0.271  12.986  1.5629 -0.6644 -0.5634
  854MPD2    N112550   1.804   0.612  12.558  0.3428  0.1139 -0.4046
  854MPD2    H712551   1.739   0.689  12.547 -0.4560 -0.0246  3.4110
  855MPD2     C12552   2.367   0.354  13.589  0.1742 -1.3915 -0.0571
  855MPD2    C112553   2.320   0.227  13.590  0.1925 -0.0049 -0.0160
  855MPD2    C212554   2.287   0.171  13.465 -0.1142  0.6027 -0.2013
  855MPD2    C312555   2.298   0.241  13.344  0.1575  0.0716  0.1014
  855MPD2    C412556   2.349   0.368  13.348 -0.2346  0.5538 -0.1575
  855MPD2    C512557   2.379   0.421  13.470 -0.1304  0.1553 -0.1927
  855MPD2     H12558   2.245   0.071  13.462  0.7450  0.2676 -1.0531
  855MPD2    H112559   2.362   0.417  13.251 -0.8449 -0.8613 -0.9558
  855MPD2    H212560   2.407   0.394  13.681  1.0570 -0.1553 -0.9702
  855MPD2    H312561   2.414   0.523  13.475  0.8802 -0.2013 -0.0375
  855MPD2     N12562   2.277   0.181  13.220  0.3047  0.1184 -0.0574
  855MPD2    H512563   2.285   0.235  13.134  2.1146  0.0468  0.0775
  855MPD2    N112564   2.305   0.155  13.713 -1.3467  0.1793  0.7117
  855MPD2    H712565   2.252   0.069  13.709 -1.8293  0.4781  0.6992
  856MPD2     C12566   3.236   1.267  13.819  0.5746 -0.8027 -0.0089
  856MPD2    C112567   3.339   1.343  13.867  0.6573 -0.1268 -0.4865
  856MPD2    C212568   3.339   1.481  13.842 -0.6898 -0.5392 -0.7508
  856MPD2    C312569   3.245   1.543  13.771  0.3530  0.7243  0.4386
  856MPD2    C412570   3.147   1.464  13.709  0.2333  0.1089 -0.3244
  856MPD2    C512571   3.145   1.327  13.736 -0.5243 -0.1138 -0.3443
  856MPD2     H12572   3.431   1.525  13.877 -1.8743  2.1339 -1.0071
  856MPD2    H112573   3.064   1.512  13.658 -0.0946 -0.6453 -0.4971
  856MPD2    H212574   3.222   1.162  13.842 -0.7472 -0.6387 -0.0390
  856MPD2    H312575   3.068   1.263  13.696 -0.9439  0.6162 -0.7179
  856MPD2     N12576   3.232   1.685  13.761  0.1063 -0.2865 -0.5495
  856MPD2    H512577   3.141   1.717  13.730  0.5635  2.8300  1.3599
  856MPD2    N112578   3.445   1.284  13.943 -0.6196  0.6042  0.1794
  856MPD2    H712579   3.527   1.339  13.966  0.9767 -1.1656 -1.2572
  857MPD2     C12580   0.690   3.405  12.732 -0.3271  0.0761 -0.0253
  857MPD2    C112581   0.814   3.389  12.795  0.7647  0.0916 -0.3405
  857MPD2    C212582   0.888   3.502  12.823  0.0553  0.2020 -0.2415
  857MPD2    C312583   0.835   3.631  12.806 -0.0307  0.4150 -0.3809
  857MPD2    C412584   0.708   3.643  12.745 -0.3772  0.5096  0.6282
  857MPD2    C512585   0.645   3.532  12.699  0.7750 -0.0091 -0.7281
  857MPD2     H12586   0.982   3.504  12.876  0.2630 -2.5433 -0.5169
  857MPD2    H112587   0.672   3.738  12.707 -1.2920  0.7518  2.1015
  857MPD2    H212588   0.642   3.320  12.686  0.5393  0.1229 -1.0195
  857MPD2    H312589   0.556   3.541  12.639 -0.0901 -0.6393  0.4645
  857MPD2     N12590   0.907   3.743  12.852 -0.4912  0.2043 -0.4149
  857MPD2    H512591   1.002   3.721  12.879 -0.2971 -0.0697 -1.3063
  857MPD2    N112592   0.853   3.254  12.821 -0.0266 -0.3428  0.4332
  857MPD2    H712593   0.783   3.182  12.813 -0.6832  0.1204  1.8952
  858MPD2     C12594   1.141   2.303  16.991 -0.2682  0.1369 -0.0971
  858MPD2    C112595   1.281   2.311  16.972 -0.0485 -0.2244 -0.0488
  858MPD2    C212596   1.348   2.408  17.037 -0.5171  0.5713 -0.6032
  858MPD2    C312597   1.291   2.509  17.122 -0.4049  0.7574  0.6649
  858MPD2    C412598   1.159   2.500  17.135 -0.5806 -0.4877 -0.1792
  858MPD2    C512599   1.085   2.399  17.074 -0.1534  0.7059  0.0817
  858MPD2     H12600   1.456   2.411  17.030 -0.5175  0.8597 -0.4538
  858MPD2    H112601   1.123   2.575  17.204 -0.0092  0.2333 -0.6753
  858MPD2    H212602   1.077   2.226  16.950  0.8775 -0.3893 -0.8977
  858MPD2    H312603   0.980   2.390  17.098 -0.2310 -0.5777 -0.7466
  858MPD2     N12604   1.360   2.608  17.195 -0.4984 -0.4306  0.3942
  858MPD2    H512605   1.305   2.680  17.242  1.5284  1.4948 -0.1660
  858MPD2    N112606   1.348   2.210  16.893  0.0775 -0.2065  0.1374
  858MPD2    H712607   1.308   2.118  16.878  0.2588 -0.7357  2.9072
  859MPD2     C12608   4.658   4.708  15.395  0.4262 -0.1146 -0.2088
  859MPD2    C112609   0.049   4.663  15.335  0.1170 -1.1768  0.1877
  859MPD2    C212610   0.068   4.524  15.325 -0.5604  0.7774 -0.0043
  859MPD2    C312611   4.694   4.436  15.376  0.1856  0.0664  0.0022
  859MPD2    C412612   4.582   4.483  15.421  0.0612  0.2536 -0.6314
  859MPD2    C512613   4.562   4.620  15.431  0.0473 -0.5416  0.5956
  859MPD2     H12614   0.150   4.496  15.260  0.4690  0.8738  1.2505
  859MPD2    H112615   4.503   4.414  15.450  1.5715 -0.6114  1.4140
  859MPD2    H212616   4.641   0.092  15.403  0.5388 -0.0619 -0.6814
  859MPD2    H312617   4.466   4.655  15.466  1.5826  1.9651  2.2465
  859MPD2     N12618   4.690   4.301  15.337 -0.1696 -0.0306  0.3599
  859MPD2    H512619   4.603   4.250  15.347 -0.5627  0.8809  1.6508
  859MPD2    N112620   0.127   0.035  15.272 -0.9194  0.8301 -0.2787
  859MPD2    H712621   0.085   0.128  15.263  1.0327  1.6154 -1.1780
  860MPD2     C12622   3.234   4.517  11.742 -0.5083 -0.2765 -0.3151
  860MPD2    C112623   3.187   4.632  11.803  0.1196 -0.6643 -0.0464
  860MPD2    C212624   3.057   4.638  11.846 -0.6355 -0.2158  0.1842
  860MPD2    C312625   2.968   4.539  11.808 -0.4978 -0.5357  0.2908
  860MPD2    C412626   3.015   4.434  11.733 -0.3898  0.5523 -0.3489
  860MPD2    C512627   3.147   4.419  11.707 -0.4570 -0.1421  0.8468
  860MPD2     H12628   3.036   0.007  11.899 -0.5854  0.3606 -0.7852
  860MPD2    H112629   2.949   4.357  11.695 -0.7625  1.4032 -1.3961
  860MPD2    H212630   3.338   4.516  11.715 -0.9473  0.4720 -1.9741
  860MPD2    H312631   3.191   4.335  11.653  0.6938  1.8826 -1.3470
  860MPD2     N12632   2.830   4.550  11.849  0.8837  0.2201 -0.0434
  860MPD2    H512633   2.804   4.619  11.919 -0.3276  0.0755 -0.3572
  860MPD2    N112634   3.271   0.018  11.840  0.1514 -0.0183  0.5241
  860MPD2    H712635   3.223   0.095  11.885  0.5630  0.5308  0.0294
  861MPD2     C12636   1.313   2.871  11.138  0.6582  0.0098 -0.1638
  861MPD2    C112637   1.199   2.877  11.203 -0.3448  0.5119 -0.0345
  861MPD2    C212638   1.079   2.912  11.138 -0.3119  0.1816 -0.6815
  861MPD2    C312639   1.088   2.936  11.002 -0.1642  0.2236 -0.5895
  861MPD2    C412640   1.208   2.938  10.938 -0.5112  0.2384 -0.5304
  861MPD2    C512641   1.316   2.895  11.001 -0.7514  0.1470  0.7108
  861MPD2     H12642   0.992   2.913  11.202  0.9686  0.7712  1.0584
  861MPD2    H112643   1.211   2.958  10.832  0.4796  0.0126 -0.5431
  861MPD2    H212644   1.408   2.851  11.186 -0.2355  0.8890  1.9522
  861MPD2    H312645   1.413   2.897  10.953  0.6917  1.1836  3.6820
  861MPD2     N12646   0.973   2.959  10.919 -0.2443  0.8745 -0.8193
  861MPD2    H512647   0.988   2.958  10.819 -1.2949  1.1151 -0.9775
  861MPD2    N112648   1.191   2.848  11.344 -0.3999  0.2039 -0.0669
  861MPD2    H712649   1.105   2.872  11.393  1.4805  1.1834  2.7680
  862MPD2     C12650   0.395   2.991  10.350 -0.5020  0.4101  0.3758
  862MPD2    C112651   0.507   2.953  10.421 -0.4889  1.2689 -0.8599
  862MPD2    C212652   0.551   2.822  10.416 -0.4324  0.0050 -0.0809
  862MPD2    C312653   0.481   2.719  10.342  0.6343  0.4704 -0.1809
  862MPD2    C412654   0.373   2.764  10.269 -0.4325  0.7329 -0.0197
  862MPD2    C512655   0.328   2.897  10.280  0.4550  0.2357 -0.3087
  862MPD2     H12656   0.641   2.797  10.471  0.6083  1.7276 -1.0010
  862MPD2    H112657   0.312   2.689  10.219  0.7309 -1.8754  2.5254
  862MPD2    H212658   0.349   3.089  10.350 -0.0299  0.6261  1.2824
  862MPD2    H312659   0.232   2.913  10.231  0.8827 -1.0470 -1.5680
  862MPD2     N12660   0.510   2.577  10.344  0.2274  0.1793  0.5726
  862MPD2    H512661   0.442   2.516  10.299 -0.6844  0.3649  1.6879
  862MPD2    N112662   0.574   3.054  10.495  0.1996  0.1957 -0.0375
  862MPD2    H712663   0.528   3.144  10.511  0.0641 -0.0882  1.1505
  863MPD2     C12664   4.475   1.486  16.926  0.0436 -0.0694  0.3351
  863MPD2    C112665   4.510   1.352  16.901  0.4507  0.1455 -0.9108
  863MPD2    C212666   4.612   1.293  16.971 -0.4285 -0.3894 -0.0981
  863MPD2    C312667   4.680   1.370  17.066 -0.6392 -0.2334 -0.5797
  863MPD2    C412668   4.637   1.501  17.093  0.6946  0.4185  0.2034
  863MPD2    C512669   4.535   1.551  17.024  0.2033  0.4137 -0.0421
  863MPD2     H12670   4.636   1.191  16.944  0.9832 -0.0980  0.0667
  863MPD2    H112671   4.678   1.570  17.165  1.9671 -2.1052  1.8936
  863MPD2    H212672   4.387   1.534  16.885 -0.8236 -2.7219 -0.8831
  863MPD2    H312673   4.496   1.639  17.073  0.6967  0.5445  0.1172
  863MPD2     N12674   0.077   1.322  17.133 -0.0583  0.2530  0.4322
  863MPD2    H512675   0.122   1.385  17.198  0.6873  0.1663 -0.0007
  863MPD2    N112676   4.437   1.291  16.791 -0.9790 -0.0468  0.1618
  863MPD2    H712677   4.391   1.347  16.720  0.4228  1.4363  0.4493
  864MPD2     C12678   4.661   2.915  17.478  0.6608  0.1393 -0.0664
  864MPD2    C112679   0.007   2.820  17.403  0.3444  0.5164  0.2949
  864MPD2    C212680   0.083   2.863  17.298 -0.5063  0.6920 -0.2191
  864MPD2    C312681   0.087   3.000  17.260  0.1411  0.5253  0.6709
  864MPD2    C412682   4.720   3.086  17.321  0.7512  0.3756 -0.6102
  864MPD2    C512683   4.650   3.041  17.433  0.1328 -1.2176  0.6744
  864MPD2     H12684   0.146   2.790  17.249 -2.8614 -1.4555 -0.0314
  864MPD2    H112685   4.721   3.193  17.299  1.7006  0.3304 -0.7794
  864MPD2    H212686   4.604   2.904  17.569  1.8130 -1.8328  0.4103
  864MPD2    H312687   4.596   3.118  17.487  0.8237 -0.1101 -0.2421
  864MPD2     N12688   0.168   3.051  17.155  0.1705  0.2939 -0.0966
  864MPD2    H512689   0.145   3.144  17.119  0.5218  0.2520 -0.4242
  864MPD2    N112690   0.018   2.693  17.465  0.8915  0.2804 -0.6359
  864MPD2    H712691   4.708   2.680  17.560  1.9746  2.2127 -0.0032
  865MPD2     C12692   0.436   3.069  16.351  0.7082  0.4787  0.0399
  865MPD2    C112693   0.399   3.015  16.468  0.1991 -0.4302 -0.1558
  865MPD2    C212694   0.347   3.095  16.566 -0.1715 -0.4810  0.4506
  865MPD2    C312695   0.326   3.231  16.538  0.3068 -0.1724 -0.3460
  865MPD2    C412696   0.344   3.283  16.411  0.4038 -0.2603 -0.4893
  865MPD2    C512697   0.409   3.200  16.320 -0.9563 -0.1083  0.2308
  865MPD2     H12698   0.307   3.051  16.657 -0.5191  1.6026  1.3123
  865MPD2    H112699   0.327   3.385  16.379  0.1215 -0.0229  0.4360
  865MPD2    H212700   0.457   3.007  16.265  1.7075  0.8695  0.0072
  865MPD2    H312701   0.430   3.227  16.217  3.2275 -0.7416  0.9550
  865MPD2     N12702   0.269   3.318  16.637  0.8855  0.8416 -0.5062
  865MPD2    H512703   0.223   3.398  16.594 -0.1562 -0.8990 -2.5995
  865MPD2    N112704   0.421   2.876  16.487 -0.3962 -0.4932 -0.2958
  865MPD2    H712705   0.462   2.827  16.409  0.9278 -2.0380  1.3684
  866MPD2     C12706   1.892   2.951  11.067  0.5177 -0.3309  0.2940
  866MPD2    C112707   1.917   3.056  10.974  0.1765  0.6949 -1.3390
  866MPD2    C212708   1.810   3.140  10.932 -0.0010  0.1349  0.5907
  866MPD2    C312709   1.684   3.116  10.982 -0.2885 -0.5075 -0.6682
  866MPD2    C412710   1.659   3.021  11.078 -0.2222 -0.3924  0.5659
  866MPD2    C512711   1.759   2.931  11.108  0.1506  0.3946 -0.6682
  866MPD2     H12712   1.834   3.219  10.862  1.5328 -0.9571 -0.1204
  866MPD2    H112713   1.558   3.012  11.116 -0.1789 -1.1050  0.5084
  866MPD2    H212714   1.974   2.885  11.093  0.8678  0.2550  0.6641
  866MPD2    H312715   1.743   2.853  11.182 -2.0370  2.3126  0.8635
  866MPD2     N12716   1.568   3.203  10.955  0.1553 -0.2102 -0.2604
  866MPD2    H512717   1.484   3.184  11.008  1.9943 -4.7735  1.0958
  866MPD2    N112718   2.058   3.076  10.936  0.5694 -0.5545 -0.2503
  866MPD2    H712719   2.124   3.013  10.981  1.1246 -0.8777 -1.4992
  867MPD2     C12720   4.575   3.098  16.824 -0.2563  0.1339 -0.2038
  867MPD2    C112721   4.499   3.045  16.921  0.1480 -0.1845 -0.5815
  867MPD2    C212722   4.386   3.114  16.975  0.5273  0.1250  0.4116
  867MPD2    C312723   4.363   3.243  16.926  0.1939  0.3463  1.1345
  867MPD2    C412724   4.436   3.292  16.814 -0.3601  0.3103 -0.1473
  867MPD2    C512725   4.551   3.223  16.770  0.1371  0.5368  0.0754
  867MPD2     H12726   4.320   3.065  17.046  1.9643 -2.3034  0.1016
  867MPD2    H112727   4.409   3.389  16.774  0.1392 -0.3707 -2.1484
  867MPD2    H212728   4.661   3.047  16.783  1.3374 -0.4625  3.9483
  867MPD2    H312729   4.620   3.264  16.698 -1.7446 -0.8770 -2.5475
  867MPD2     N12730   4.268   3.334  16.975  0.2271  0.2348 -0.7634
  867MPD2    H512731   4.246   3.417  16.922 -1.7644 -0.2116 -0.6652
  867MPD2    N112732   4.529   2.911  16.956  0.4814  0.3001 -0.0523
  867MPD2    H712733   4.613   2.874  16.913  0.3402 -2.5199  2.1120
  868MPD2     C12734   0.523   2.263  13.299 -0.6627  0.0506  0.3822
  868MPD2    C112735   0.568   2.222  13.421 -0.6269  0.0847  0.4207
  868MPD2    C212736   0.493   2.253  13.535 -0.2186  0.1012  0.1985
  868MPD2    C312737   0.377   2.318  13.530 -1.1189  0.5622 -0.3788
  868MPD2    C412738   0.329   2.353  13.409 -0.4509  0.6056 -0.2347
  868MPD2    C512739   0.406   2.333  13.292 -0.6000  0.3560  0.3585
  868MPD2     H12740   0.529   2.223  13.633  2.4447 -1.6695 -1.3422
  868MPD2    H112741   0.237   2.410  13.393 -0.8511 -0.5652 -2.0828
  868MPD2    H212742   0.583   2.247  13.210  1.2207  3.1762  1.0898
  868MPD2    H312743   0.376   2.380  13.198 -0.0123  1.2461  0.6163
  868MPD2     N12744   0.301   2.316  13.652 -0.7606  0.2019 -0.3421
  868MPD2    H512745   0.352   2.297  13.738  1.4979 -0.3490 -1.7728
  868MPD2    N112746   0.694   2.150  13.413  0.1302  0.8034 -0.2615
  868MPD2    H712747   0.735   2.130  13.323  0.0464  0.3309 -0.1967
  869MPD2     C12748   3.094   0.461   1.470 -0.0956 -0.5319  0.5494
  869MPD2    C112749   3.102   0.344   1.395 -0.2399  0.0489 -0.3714
  869MPD2    C212750   2.986   0.269   1.374  0.0701  0.9731  0.8768
  869MPD2    C312751   2.868   0.330   1.392  0.1892  0.0631 -0.3780
  869MPD2    C412752   2.863   0.453   1.455  0.3985 -0.8187 -0.3995
  869MPD2    C512753   2.973   0.519   1.497 -0.2614  0.7581  0.4945
  869MPD2     H12754   2.991   0.170   1.331  0.0996  1.4968 -0.3197
  869MPD2    H112755   2.768   0.496   1.485  0.4983  0.2165 -1.5727
  869MPD2    H212756   3.177   0.527   1.491 -2.0747  1.2982  2.6268
  869MPD2    H312757   2.961   0.618   1.541  0.4788  0.6351  0.9753
  869MPD2     N12758   2.746   0.272   1.360  1.0020 -0.3436  0.0897
  869MPD2    H512759   2.670   0.339   1.357 -0.5233 -1.9314  3.2302
  869MPD2    N112760   3.228   0.313   1.346 -0.4872 -0.0175  0.2537
  869MPD2    H712761   3.306   0.379   1.347 -0.7742  0.3500 -2.3236
  870MPD2     C12762   2.708   3.557   1.490  0.0373 -0.9931 -0.0408
  870MPD2    C112763   2.592   3.483   1.494  0.6676  0.3174 -0.0743
  870MPD2    C212764   2.501   3.521   1.393 -0.0059 -1.1180  0.1648
  870MPD2    C312765   2.513   3.638   1.314 -0.8807 -0.1136  1.3477
  870MPD2    C412766   2.630   3.703   1.319  0.3271  0.2147 -0.5532
  870MPD2    C512767   2.726   3.658   1.405  0.1219 -0.9835  1.1515
  870MPD2     H12768   2.404   3.473   1.398 -1.1571  1.2493  0.7235
  870MPD2    H112769   2.659   3.785   1.255 -2.8263  0.2602 -1.9248
  870MPD2    H212770   2.790   3.543   1.558  0.4515  1.3037 -0.0703
  870MPD2    H312771   2.814   3.721   1.412  0.2481 -1.1401  0.9809
  870MPD2     N12772   2.409   3.676   1.227  0.0083  0.5015  0.7018
  870MPD2    H512773   2.334   3.610   1.211 -1.6580  2.6460 -0.3745
  870MPD2    N112774   2.584   3.371   1.581  0.0435 -0.0575  0.6843
  870MPD2    H712775   2.666   3.344   1.634  1.1975  0.3079 -0.9363
  871MPD2     C12776   3.272   2.954  16.847 -0.2871 -0.0288  0.4456
  871MPD2    C112777   3.180   2.948  16.747  0.0629  0.3297  0.2410
  871MPD2    C212778   3.213   2.907  16.613 -0.0298 -0.3797 -0.1582
  871MPD2    C312779   3.341   2.867  16.590 -0.7423 -0.5858 -0.4255
  871MPD2    C412780   3.431   2.866  16.693  0.2542  0.2854  0.0175
  871MPD2    C512781   3.399   2.915  16.818  0.1368  0.1327 -0.2366
  871MPD2     H12782   3.142   2.903  16.531  1.3979  1.4022 -1.4828
  871MPD2    H112783   3.524   2.813  16.676 -0.1536 -0.0945 -1.0458
  871MPD2    H212784   3.255   2.981  16.950  3.6449  3.4176  0.1859
  871MPD2    H312785   3.472   2.909  16.897  0.5125  1.2687 -0.5016
  871MPD2     N12786   3.368   2.812  16.462  0.0447  0.0685 -0.0892
  871MPD2    H512787   3.296   2.828  16.393 -1.4894  0.7354  1.6591
  871MPD2    N112788   3.049   2.986  16.788  0.1430  0.4219 -0.3550
  871MPD2    H712789   3.047   3.032  16.878  0.7053 -1.9461  0.8529
  872MPD2     C12790   3.139   0.935  13.565  0.2608  0.5366 -0.0222
  872MPD2    C112791   3.242   0.901  13.653  0.0524 -0.4618  1.1616
  872MPD2    C212792   3.206   0.834  13.773 -0.5384  0.5174  0.2264
  872MPD2    C312793   3.076   0.807  13.803  0.1514 -0.5223 -0.0952
  872MPD2    C412794   2.980   0.833  13.708 -0.0721 -0.3402 -1.0433
  872MPD2    C512795   3.009   0.898  13.588 -0.0042 -0.2383  0.1657
  872MPD2     H12796   3.286   0.815  13.843 -0.1536  0.0971 -0.3258
  872MPD2    H112797   2.876   0.821  13.738  0.2852  2.2552  1.1827
  872MPD2    H212798   3.153   0.980  13.468 -2.1343 -1.0324 -1.1100
  872MPD2    H312799   2.938   0.921  13.510  0.2018 -0.5475 -0.1130
  872MPD2     N12800   3.030   0.733  13.916 -0.2761  0.0064 -0.2429
  872MPD2    H512801   2.932   0.705  13.913 -0.5867  1.1792 -1.2099
  872MPD2    N112802   3.377   0.946  13.631  0.0465 -0.6405  0.2808
  872MPD2    H712803   3.446   0.912  13.698  1.1509 -1.1758 -1.1434
  873MPD2     C12804   0.569   0.448   1.066 -0.1023  0.7954 -0.6226
  873MPD2    C112805   0.570   0.398   1.196  0.1646  0.0836 -0.1171
  873MPD2    C212806   0.542   0.274   1.226 -0.7157 -0.4943 -0.5043
  873MPD2    C312807   0.500   0.187   1.124  0.5338 -0.1972  0.4966
  873MPD2    C412808   0.474   0.231   1.000  0.1573 -0.2545  0.2198
  873MPD2    C512809   0.513   0.361   0.970 -0.2533  0.7385  0.9341
  873MPD2     H12810   0.542   0.246   1.331  0.5912 -0.4954 -0.5059
  873MPD2    H112811   0.453   0.169   0.914 -0.3016  0.6638 -0.3261
  873MPD2    H212812   0.605   0.547   1.043  1.0686  0.0303 -2.0310
  873MPD2    H312813   0.520   0.403   0.870  1.8372  1.0199  1.1924
  873MPD2     N12814   0.476   0.052   1.146  0.0919  0.4064  0.1878
  873MPD2    H512815   0.436   4.714   1.075  1.6882 -1.8724  1.2570
  873MPD2    N112816   0.612   0.499   1.294 -0.2637 -0.5134 -0.1643
  873MPD2    H712817   0.618   0.596   1.264 -1.1659 -0.2588  0.4986
  874MPD2     C12818   0.549   0.536  15.971  0.2160  0.2869 -0.1825
  874MPD2    C112819   0.577   0.544  16.105  0.2831 -0.2229 -0.5164
  874MPD2    C212820   0.664   0.647  16.146 -0.0270  0.3574 -0.6128
  874MPD2    C312821   0.749   0.698  16.061 -0.8686  0.3565  0.4140
  874MPD2    C412822   0.734   0.676  15.927 -0.2953  0.0132 -0.5480
  874MPD2    C512823   0.631   0.596  15.879  0.1509 -0.0955 -0.5773
  874MPD2     H12824   0.669   0.677  16.250 -0.5387 -0.8792 -0.2215
  874MPD2    H112825   0.790   0.731  15.852  1.8631 -2.5917 -0.8434
  874MPD2    H212826   0.475   0.461  15.947 -1.4244  1.2365  1.8644
  874MPD2    H312827   0.621   0.579  15.772  1.3454 -1.2145 -0.4997
  874MPD2     N12828   0.853   0.775  16.115  0.0265  0.5443 -0.2190
  874MPD2    H512829   0.850   0.782  16.216  0.7152  0.4047 -0.1908
  874MPD2    N112830   0.504   0.458  16.191  0.5667 -0.0422  0.2396
  874MPD2    H712831   0.437   0.392  16.154  0.1849  0.7831 -0.5427
  875MPD2     C12832   1.644   3.519  14.599  0.2393 -0.1232 -0.0416
  875MPD2    C112833   1.533   3.545  14.675  0.1800 -0.1589  0.4885
  875MPD2    C212834   1.536   3.553  14.813 -0.1241  0.6420 -0.2417
  875MPD2    C312835   1.660   3.545  14.874  0.2602  1.1308  0.0987
  875MPD2    C412836   1.774   3.529  14.797  0.0685 -0.1441  0.0614
  875MPD2    C512837   1.763   3.505  14.661 -0.2030 -0.9520  0.0563
  875MPD2     H12838   1.438   3.554  14.859 -1.0152 -0.0913 -2.1288
  875MPD2    H112839   1.872   3.509  14.839 -0.7731 -0.7620  1.7245
  875MPD2    H212840   1.650   3.507  14.491 -0.4578 -0.0107 -0.0937
  875MPD2    H312841   1.852   3.502  14.598 -1.1069  2.2026 -1.3597
  875MPD2     N12842   1.681   3.570  15.009 -0.3015 -0.1017  0.2973
  875MPD2    H512843   1.773   3.560  15.049 -0.2998  0.6123  0.4758
  875MPD2    N112844   1.410   3.561  14.606  0.6268  0.3455 -0.3290
  875MPD2    H712845   1.332   3.594  14.662  0.7040  0.5449 -0.3385
  876MPD2     C12846   0.433   0.210  15.823 -0.6418 -0.5460  1.2750
  876MPD2    C112847   0.568   0.198  15.818 -0.4000 -0.2324  0.3341
  876MPD2    C212848   0.636   0.130  15.919  0.2742 -0.5803 -0.3207
  876MPD2    C312849   0.566   0.065  16.023  1.3392  0.2984 -0.3698
  876MPD2    C412850   0.431   0.078  16.021  0.0884  0.1613 -0.5180
  876MPD2    C512851   0.366   0.149  15.922 -0.4976 -0.3659 -0.0435
  876MPD2     H12852   0.741   0.107  15.910 -0.1994 -1.5997 -3.3535
  876MPD2    H112853   0.367   0.021  16.087  1.9878 -0.6546  0.5955
  876MPD2    H212854   0.380   0.256  15.741  0.9876 -1.3167 -0.2187
  876MPD2    H312855   0.258   0.150  15.910 -0.3865 -0.3983 -1.0621
  876MPD2     N12856   0.635   4.697  16.107  0.9495 -0.3973  0.1632
  876MPD2    H512857   0.731   4.682  16.079  1.2547  1.4525  0.2161
  876MPD2    N112858   0.633   0.264  15.706  0.3673  0.5075  0.3247
  876MPD2    H712859   0.564   0.302  15.642  2.1085  0.6566 -1.4684
  877MPD2     C12860   0.499   0.677  15.067  0.2420  0.1982  0.3991
  877MPD2    C112861   0.639   0.680  15.071 -0.0382  0.3420 -0.2595
  877MPD2    C212862   0.710   0.720  14.954  0.3985 -0.1531 -0.1106
  877MPD2    C312863   0.646   0.755  14.835 -0.5211 -0.3166  0.1472
  877MPD2    C412864   0.509   0.739  14.832 -0.0785 -0.4675 -0.0968
  877MPD2    C512865   0.443   0.692  14.945 -0.1756 -0.6666 -0.6810
  877MPD2     H12866   0.818   0.718  14.965  0.2926 -2.6130  0.4069
  877MPD2    H112867   0.450   0.748  14.741 -0.4720 -1.0101  0.1049
  877MPD2    H212868   0.436   0.648  15.151 -1.5992 -2.2471 -1.8371
  877MPD2    H312869   0.336   0.674  14.946 -0.5752  1.7385 -0.1626
  877MPD2     N12870   0.714   0.790  14.720 -0.2360 -0.0192 -0.1690
  877MPD2    H512871   0.663   0.793  14.632 -2.0373 -0.5628  0.8598
  877MPD2    N112872   0.711   0.632  15.189 -0.5244 -0.3165 -0.5654
  877MPD2    H712873   0.812   0.636  15.185 -0.4027 -1.8687  0.8668
  878MPD2     C12874   0.136   4.428  13.020 -0.0636  0.8460  0.0103
  878MPD2    C112875   0.260   4.474  12.989 -0.1152  0.5598  0.3051
  878MPD2    C212876   0.336   4.547  13.079  0.0721  0.4891  0.2698
  878MPD2    C312877   0.285   4.568  13.206  0.7381 -0.3763 -0.0301
  878MPD2    C412878   0.156   4.527  13.241 -0.7183 -0.0821 -0.4340
  878MPD2    C512879   0.090   4.449  13.147 -0.3804  0.1252  0.1259
  878MPD2     H12880   0.435   4.585  13.058  1.0461 -1.8523  0.6036
  878MPD2    H112881   0.112   4.534  13.340  0.6332  1.6238  0.0484
  878MPD2    H212882   0.080   4.368  12.950 -0.1494  1.1564 -0.1861
  878MPD2    H312883   4.716   4.406  13.171 -1.2522  1.8391 -0.3098
  878MPD2     N12884   0.366   4.649  13.292 -0.3458  0.0779 -0.3952
  878MPD2    H512885   0.461   4.666  13.260 -0.3603  2.0577  0.6199
  878MPD2    N112886   0.301   4.444  12.857 -0.2048 -0.5397  0.1200
  878MPD2    H712887   0.230   4.401  12.798 -1.5939  3.3327 -0.9834
  879MPD2     C12888   0.993   1.478  17.407 -0.6769 -0.5035  0.1153
  879MPD2    C112889   0.901   1.391  17.456 -0.5897 -0.2514  0.1410
  879MPD2    C212890   0.821   1.317  17.372 -0.4408  0.7035 -0.2765
  879MPD2    C312891   0.844   1.315  17.233 -0.5767  0.0280 -0.0702
  879MPD2    C412892   0.955   1.388  17.190 -0.4172 -0.3302  0.2054
  879MPD2    C512893   1.015   1.472  17.274 -0.4212 -0.2832 -0.1834
  879MPD2     H12894   0.739   1.260  17.412  0.2402 -0.0318  0.0632
  879MPD2    H112895   0.982   1.376  17.086 -0.6680 -2.0920  0.3463
  879MPD2    H212896   1.057   1.541  17.467 -1.3399  0.1121  0.1707
  879MPD2    H312897   1.094   1.534  17.232  1.7703 -1.3976  2.3077
  879MPD2     N12898   0.770   1.236  17.138  0.4266 -0.5479 -0.3608
  879MPD2    H512899   0.799   1.242  17.041 -1.1334  0.4209 -0.7632
  879MPD2    N112900   0.881   1.405  17.601 -0.2230 -0.3234  0.5863
  879MPD2    H712901   0.933   1.483  17.641 -1.7627 -0.1482  2.2047
  880MPD2     C12902   2.280   2.806  17.517  0.7354  0.6030  0.1608
  880MPD2    C112903   2.234   2.800  17.645  0.3484 -0.5018  0.3156
  880MPD2    C212904   2.237   2.686   0.026  0.3709 -0.1985  0.3573
  880MPD2    C312905   2.298   2.569  17.671 -0.0443 -0.8177  1.1306
  880MPD2    C412906   2.351   2.570  17.542  0.5135  0.2476  0.4494
  880MPD2    C512907   2.331   2.688  17.470 -1.1820  0.5011  0.0429
  880MPD2     H12908   2.193   2.685   0.125 -0.3589  3.2978  0.0943
  880MPD2    H112909   2.386   2.485  17.485  1.1082  0.2788  0.7741
  880MPD2    H212910   2.265   2.889  17.450  1.0037  0.8537  0.4132
  880MPD2    H312911   2.365   2.685  17.367 -0.1599  0.6484  0.3692
  880MPD2     N12912   2.306   2.457   0.063  0.0140 -0.7826  0.5925
  880MPD2    H512913   2.251   2.465   0.147 -1.1137 -4.0631  0.1889
  880MPD2    N112914   2.177   2.924   0.001  0.4956  0.2146 -0.4390
  880MPD2    H712915   2.141   2.984  17.620  1.5535 -0.5531 -1.5700
  881MPD2     C12916   1.912   3.828  17.474  0.1400 -0.5191 -0.2954
  881MPD2    C112917   2.021   3.753  17.459  0.0718  0.5800 -0.0731
  881MPD2    C212918   2.038   3.646  17.541  0.0132 -0.1292  0.8063
  881MPD2    C312919   1.933   3.595  17.615 -0.1916  0.6483  0.3229
  881MPD2    C412920   1.820   3.672  17.632 -0.3617 -0.8404  0.7371
  881MPD2    C512921   1.808   3.785  17.552  0.4050 -0.7325 -0.3189
  881MPD2     H12922   2.134   3.596  17.548 -0.0882 -0.4131  0.1787
  881MPD2    H112923   1.734   3.650   0.001 -0.9615 -1.2559 -0.2208
  881MPD2    H212924   1.891   3.910  17.407 -1.7702  1.3075  2.5262
  881MPD2    H312925   1.717   3.844  17.547  0.2954 -0.8592  0.2379
  881MPD2     N12926   1.949   3.477  17.691 -0.1513  0.4270 -0.1309
  881MPD2    H512927   1.881   3.450   0.067 -1.5337  1.3156 -1.1506
  881MPD2    N112928   2.125   3.809  17.382 -0.5684 -0.0273  0.6221
  881MPD2    H712929   2.105   3.900  17.340 -0.4447  0.7286  2.2002
  882MPD2     C12930   0.551   0.576  14.030 -1.3652  0.0031  0.9223
  882MPD2    C112931   0.538   0.641  14.148 -0.5609  0.0219 -0.6115
  882MPD2    C212932   0.410   0.657  14.200  0.3340  0.2657 -0.1549
  882MPD2    C312933   0.299   0.595  14.134  0.0265 -1.0632 -0.9313
  882MPD2    C412934   0.322   0.517  14.017 -0.4714  0.1347 -0.7843
  882MPD2    C512935   0.447   0.521  13.962  0.1405  0.1493  0.1509
  882MPD2     H12936   0.398   0.710  14.294  2.7276  0.8003 -0.1496
  882MPD2    H112937   0.238   0.478  13.961 -0.6002  0.0979 -0.5644
  882MPD2    H212938   0.647   0.580  13.981 -2.0771  1.7693 -0.2999
  882MPD2    H312939   0.464   0.467  13.869 -0.0633  1.1236 -0.4432
  882MPD2     N12940   0.168   0.603  14.188 -0.1012 -1.2553 -0.1277
  882MPD2    H512941   0.102   0.540  14.142  0.1733 -2.2475  0.8354
  882MPD2    N112942   0.657   0.694  14.200 -0.4170  0.0620  0.4693
  882MPD2    H712943   0.745   0.690  14.150  0.6634  0.3768  2.3420
  883MPD2     C12944   2.263   0.332  16.469  0.2949 -0.1022  0.1446
  883MPD2    C112945   2.344   0.346  16.360  0.1269 -0.0385 -0.0241
  883MPD2    C212946   2.481   0.364  16.387  0.6059 -0.3508 -0.5273
  883MPD2    C312947   2.528   0.390  16.520  0.5072 -0.1759  0.4403
  883MPD2    C412948   2.444   0.365  16.627 -0.6372 -0.1132  0.1702
  883MPD2    C512949   2.310   0.332  16.593 -0.3042 -0.3837  0.3172
  883MPD2     H12950   2.543   0.361  16.299  0.1370  1.1203 -0.9184
  883MPD2    H112951   2.466   0.367  16.734  2.7109 -0.7151 -0.4892
  883MPD2    H212952   2.157   0.313  16.462  0.2829  0.7417 -2.0859
  883MPD2    H312953   2.235   0.321  16.670  0.2890  1.1067  1.1082
  883MPD2     N12954   2.668   0.407  16.533 -0.4993 -0.5132 -0.1746
  883MPD2    H512955   2.729   0.395  16.452  1.6732 -0.5647  1.4578
  883MPD2    N112956   2.298   0.338  16.221 -0.2481  0.2320 -0.5325
  883MPD2    H712957   2.374   0.345  16.155 -0.3147  1.2413 -0.5108
  884MPD2     C12958   4.473   1.199  15.374 -0.0515  0.0777 -0.2209
  884MPD2    C112959   4.470   1.310  15.292 -1.1493  0.8173 -0.8787
  884MPD2    C212960   4.371   1.403  15.296  0.3688 -0.3262 -0.2416
  884MPD2    C312961   4.264   1.376  15.378 -0.1539  0.1596 -0.3107
  884MPD2    C412962   4.256   1.262  15.450  0.6760 -0.3322 -0.3109
  884MPD2    C512963   4.366   1.174  15.455  0.2470  0.0445 -0.2325
  884MPD2     H12964   4.373   1.499  15.245  0.3444 -0.7411 -1.0228
  884MPD2    H112965   4.165   1.232  15.502  1.8113 -2.1001  0.6693
  884MPD2    H212966   4.553   1.126  15.370  0.9433  1.2025 -1.2513
  884MPD2    H312967   4.360   1.080  15.507 -0.7318  1.0238  1.4454
  884MPD2     N12968   4.162   1.467  15.377 -0.0719 -0.1717  0.0237
  884MPD2    H512969   4.173   1.547  15.315  0.5614 -0.7275 -0.5720
  884MPD2    N112970   4.562   1.339  15.191 -0.5034  0.2269  0.1609
  884MPD2    H712971   4.541   1.419  15.132 -0.7989 -1.0959 -1.4984
  885MPD2     C12972   2.303   1.675   0.266  0.2024  0.1772 -0.3745
  885MPD2    C112973   2.439   1.696   0.258  0.0686 -0.2241  0.0498
  885MPD2    C212974   2.502   1.690   0.131  0.5325 -0.5863  0.9337
  885MPD2    C312975   2.426   1.662   0.015  0.3053 -0.1557 -0.0711
  885MPD2    C412976   2.296   1.626   0.033  0.3337  1.1493 -0.4555
  885MPD2    C512977   2.232   1.633   0.156  0.1908 -0.2819  0.4214
  885MPD2     H12978   2.602   1.731   0.118 -0.2586  0.3272 -2.4493
  885MPD2    H112979   2.225   1.593  17.652 -0.5364  3.3126 -0.6146
  885MPD2    H212980   2.253   1.694   0.360  1.8970  0.4282  0.4610
  885MPD2    H312981   2.130   1.598   0.163 -0.1763  0.2816 -1.9623
  885MPD2     N12982   2.486   1.657  17.579 -0.4066  0.0957  1.2938
  885MPD2    H512983   2.582   1.691  17.572 -0.8260  1.1625  0.6519
  885MPD2    N112984   2.508   1.735   0.368 -0.5624 -0.2757 -0.1655
  885MPD2    H712985   2.451   1.766   0.445 -1.9073  0.1822 -1.3395
  886MPD2     C12986   3.865   0.306  15.700  0.3747 -0.0042  0.9063
  886MPD2    C112987   3.954   0.272  15.597  0.4168 -0.3214  0.4611
  886MPD2    C212988   4.012   0.377  15.525 -0.0730  0.6816  0.1075
  886MPD2    C312989   3.986   0.507  15.558 -0.2132 -0.4943 -0.5546
  886MPD2    C412990   3.885   0.530  15.649  0.3899  0.6557 -0.2313
  886MPD2    C512991   3.821   0.430  15.713  1.2397 -0.5157 -0.3161
  886MPD2     H12992   4.077   0.356  15.442 -0.3821 -2.4631  0.6536
  886MPD2    H112993   3.869   0.634  15.676 -0.7836  0.9883 -2.1753
  886MPD2    H212994   3.804   0.225  15.739 -2.0599  1.9299  1.0813
  886MPD2    H312995   3.746   0.442  15.791  0.6059 -0.4691 -0.9379
  886MPD2     N12996   4.031   0.616  15.490 -0.7020 -0.5255 -0.2165
  886MPD2    H512997   3.976   0.701  15.497  0.7519  0.6198 -2.6360
  886MPD2    N112998   3.977   0.141  15.567 -0.4419  0.2138 -0.0755
  886MPD2    H712999   4.022   0.131  15.476 -2.1660 -0.1658 -0.8968
  887MPD2     C13000   4.411   4.693  15.158  0.2005 -0.0979  0.0267
  887MPD2    C113001   4.336   0.025  15.263  0.1503 -0.1838  0.0886
  887MPD2    C213002   4.346   0.157  15.300 -0.0620 -0.7561 -0.2924
  887MPD2    C313003   4.446   0.235  15.240  0.6108 -0.4315 -0.5861
  887MPD2    C413004   4.529   0.180  15.144  0.8591  0.8654 -0.3460
  887MPD2    C513005   4.509   0.052  15.100 -0.3606  0.8074 -0.4619
  887MPD2     H13006   4.283   0.195  15.380  0.0195  0.1947 -0.6841
  887MPD2    H113007   4.606   0.240  15.096  0.0250  1.0049 -1.5157
  887MPD2    H213008   4.405   4.594  15.116 -1.4266  0.5980 -1.3852
  887MPD2    H313009   4.562   0.009  15.016 -0.7444 -1.4252  0.4628
  887MPD2     N13010   4.463   0.367  15.297  1.3126  0.7877  0.7354
  887MPD2    H513011   4.383   0.395  15.352  1.3058  0.9400  0.6458
  887MPD2    N113012   4.241   4.674  15.336 -0.1924  0.2187 -0.0268
  887MPD2    H713013   4.192   0.008  15.405 -1.0618  0.0863 -0.5417
  888MPD2     C13014   1.530   4.702  14.938  0.2678  0.2360  0.2518
  888MPD2    C113015   1.569   0.009  15.068  0.6659 -0.1833  0.4078
  888MPD2    C213016   1.641   0.122  15.102  0.2665  0.4518 -0.6643
  888MPD2    C313017   1.705   0.190  15.003  0.0249 -0.4629  0.1078
  888MPD2    C413018   1.692   0.145  14.874 -0.2280 -0.1932 -0.7633
  888MPD2    C513019   1.600   0.042  14.842 -0.3812  0.6217 -0.4075
  888MPD2     H13020   1.670   0.149  15.203 -0.8059 -0.6573 -0.0606
  888MPD2    H113021   1.742   0.192  14.791  1.1951 -0.9875 -0.3550
  888MPD2    H213022   1.475   4.613  14.909  0.1244 -0.0032  1.2761
  888MPD2    H313023   1.593   0.001  14.742 -2.6951 -2.4368  1.0171
  888MPD2     N13024   1.782   0.296  15.036 -0.0943  0.6505  0.5343
  888MPD2    H513025   1.776   0.326  15.133  3.2716  1.8897  0.3551
  888MPD2    N113026   1.523   4.655  15.175 -0.5551 -0.0581  0.6465
  888MPD2    H713027   1.551   4.687  15.267  2.1051  2.0867 -0.8958
  889MPD2     C13028   1.286   4.496  12.768  0.4047 -0.2100 -0.3169
  889MPD2    C113029   1.224   4.493  12.894 -0.1633  0.3877  0.6629
  889MPD2    C213030   1.268   4.576  12.991 -0.2088 -0.0182 -0.2061
  889MPD2    C313031   1.351   4.686  12.959 -0.4959  0.2040  0.0756
  889MPD2    C413032   1.413   4.683  12.833 -0.4174  0.3298 -0.2440
  889MPD2    C513033   1.387   4.587  12.744  0.0770  0.7133 -0.0390
  889MPD2     H13034   1.216   4.591  13.085  0.1185 -0.7140  0.0894
  889MPD2    H113035   1.485   0.041  12.819  1.1725 -0.6735  1.9684
  889MPD2    H213036   1.274   4.403  12.714  1.5101 -0.4740 -0.1049
  889MPD2    H313037   1.450   4.563  12.658  0.8366 -1.8826  1.2504
  889MPD2     N13038   1.366   0.063  13.060 -0.0230  0.2498  0.1860
  889MPD2    H513039   1.304   0.052  13.140 -1.9288  2.2497 -1.0156
  889MPD2    N113040   1.144   4.391  12.930  0.6023 -0.0898  0.1633
  889MPD2    H713041   1.135   4.371  13.029  0.9998 -0.2739  0.1614
  890MPD2     C13042   4.718   1.430  14.676  0.3896  0.6171  1.0453
  890MPD2    C113043   0.106   1.505  14.667  0.5249  0.5713  0.2773
  890MPD2    C213044   0.222   1.435  14.690  0.1504  0.1730  0.7982
  890MPD2    C313045   0.228   1.297  14.719  0.1594  0.9703  0.2345
  890MPD2    C413046   0.116   1.231  14.729 -0.2592  0.2847 -0.3039
  890MPD2    C513047   4.720   1.300  14.714  0.0545  0.8847 -0.8004
  890MPD2     H13048   0.317   1.488  14.697  0.1629  0.2053  0.3771
  890MPD2    H113049   0.110   1.125  14.750 -0.9153  0.4031  0.1157
  890MPD2    H213050   4.618   1.468  14.657  0.2274  0.1017  0.8607
  890MPD2    H313051   4.628   1.242  14.712 -1.3418  3.0976  0.3178
  890MPD2     N13052   0.358   1.243  14.744  0.3426 -0.3267  0.3422
  890MPD2    H513053   0.439   1.302  14.730 -0.4426  0.6181 -0.2319
  890MPD2    N113054   0.097   1.638  14.636 -0.3627  0.3255 -0.1290
  890MPD2    H713055   0.008   1.685  14.624 -0.1606 -0.1730 -3.3930
  891MPD2     C13056   3.281   4.057  17.062  0.1667 -0.0813 -0.0947
  891MPD2    C113057   3.231   4.185  17.080  0.7806 -0.1303  0.0899
  891MPD2    C213058   3.305   4.280  17.144  0.1799 -0.5089 -0.1529
  891MPD2    C313059   3.439   4.261  17.177  0.2259  0.7810 -0.1552
  891MPD2    C413060   3.481   4.131  17.151  0.2867  0.6836 -0.6416
  891MPD2    C513061   3.406   4.038  17.088 -0.4154  0.0210 -0.4255
  891MPD2     H13062   3.262   4.375  17.176  1.0522 -0.2996  0.3783
  891MPD2    H113063   3.582   4.103  17.178 -0.5024 -1.3670  0.1848
  891MPD2    H213064   3.219   3.982  17.013  2.2385 -1.2613 -0.9048
  891MPD2    H313065   3.457   3.944  17.067 -0.0314  0.6646 -2.4029
  891MPD2     N13066   3.519   4.367  17.217  0.3944  0.3353 -0.1668
  891MPD2    H513067   3.469   4.454  17.232  1.0895  0.5677  0.8295
  891MPD2    N113068   3.100   4.205  17.033  0.0173 -0.1980 -0.1756
  891MPD2    H713069   3.069   4.123  16.982  1.5839 -1.0260  0.1988
  892MPD2     C13070   4.435   1.110  14.924  0.6981  0.1648  0.2854
  892MPD2    C113071   4.327   1.090  14.836 -0.3709 -0.4555 -0.7485
  892MPD2    C213072   4.357   1.024  14.722 -0.1469 -0.0071 -0.1316
  892MPD2    C313073   4.486   0.979  14.698 -0.2099  0.1252  0.2621
  892MPD2    C413074   4.585   0.996  14.794  0.2556  0.7618  0.1394
  892MPD2    C513075   4.554   1.053  14.910 -0.3405 -0.4719 -0.0553
  892MPD2     H13076   4.271   1.011  14.657  0.2169  2.1505 -1.0337
  892MPD2    H113077   4.680   0.944  14.794 -0.0521  0.2203  1.6588
  892MPD2    H213078   4.429   1.168  15.015  1.4733  2.8570 -1.3763
  892MPD2    H313079   4.634   1.071  14.980 -0.2300 -1.0772 -0.0345
  892MPD2     N13080   4.523   0.901  14.585 -0.0382  0.0943  0.5905
  892MPD2    H513081   4.620   0.873  14.578  0.4679  1.8250  0.5748
  892MPD2    N113082   4.197   1.133  14.859  0.0484  0.1005  0.1253
  892MPD2    H713083   4.127   1.104  14.791  0.1800 -2.1172  0.9265
  893MPD2     C13084   3.231   3.931   1.906 -0.4607  1.1730 -0.2314
  893MPD2    C113085   3.176   3.850   1.814  0.3784  0.3536  0.3898
  893MPD2    C213086   3.082   3.765   1.859 -0.3476 -0.2038 -0.1031
  893MPD2    C313087   3.042   3.757   1.987 -0.6998 -0.3211 -0.4643
  893MPD2    C413088   3.123   3.812   2.082  0.1595  0.6705  0.0097
  893MPD2    C513089   3.218   3.902   2.043 -0.0961 -0.5789 -0.3931
  893MPD2     H13090   3.024   3.712   1.783  2.8822 -2.9228 -0.6375
  893MPD2    H113091   3.110   3.789   2.187  0.8622  1.6012  0.3051
  893MPD2    H213092   3.300   4.007   1.873  1.0146  0.3400  0.9174
  893MPD2    H313093   3.290   3.941   2.113  1.5552 -1.7550 -1.4207
  893MPD2     N13094   2.929   3.693   2.033 -0.3388  0.3181  0.1681
  893MPD2    H513095   2.916   3.719   2.130 -0.8716  1.8684 -0.3125
  893MPD2    N113096   3.204   3.860   1.679 -0.0335  0.3859 -0.2154
  893MPD2    H713097   3.264   3.941   1.663  0.3652  0.0391 -0.4485
  894MPD2     C13098   4.117   1.354   0.491 -0.1249  0.5749 -0.0626
  894MPD2    C113099   4.094   1.380   0.621  0.7482  0.5417  0.6061
  894MPD2    C213100   4.080   1.510   0.669 -0.4170 -0.4085  0.3498
  894MPD2    C313101   4.094   1.611   0.580  0.2355 -0.5738  0.2769
  894MPD2    C413102   4.115   1.587   0.448 -0.3267  0.7648 -1.3324
  894MPD2    C513103   4.131   1.460   0.405 -0.0689 -0.2422  0.2795
  894MPD2     H13104   4.050   1.534   0.770 -1.1956 -1.8145  0.4530
  894MPD2    H113105   4.119   1.670   0.378 -2.6197 -0.7571 -3.2623
  894MPD2    H213106   4.116   1.255   0.446 -2.2469  1.0066 -0.9494
  894MPD2    H313107   4.146   1.437   0.300  0.2315  2.6241 -0.3148
  894MPD2     N13108   4.086   1.748   0.623 -0.5321  0.4899 -0.4800
  894MPD2    H513109   4.094   1.821   0.552 -1.5153  0.3735 -0.7087
  894MPD2    N113110   4.063   1.272   0.706 -0.1817  0.0177  0.7410
  894MPD2    H713111   4.024   1.281   0.800  2.3434 -1.8906  1.9722
  895MPD2     C13112   3.752   0.193  13.294  1.1238  0.5161 -0.2259
  895MPD2    C113113   3.636   0.141  13.235  0.0452  0.1366 -0.4933
  895MPD2    C213114   3.611   4.723  13.224 -0.0395 -0.0737 -1.0762
  895MPD2    C313115   3.713   4.642  13.270 -0.9519 -0.5253  0.0903
  895MPD2    C413116   3.821   4.693  13.336 -0.2071 -0.2652 -0.2519
  895MPD2    C513117   3.842   0.108  13.342  0.2170  0.1606  0.2742
  895MPD2     H13118   3.528   4.679  13.169 -0.8991  1.5288 -1.0508
  895MPD2    H113119   3.893   4.623  13.376  1.0858  1.0022 -0.3287
  895MPD2    H213120   3.767   0.300  13.284  2.8581  0.2126 -0.9064
  895MPD2    H313121   3.930   0.147  13.391  0.2480 -0.1602  0.4741
  895MPD2     N13122   3.698   4.509  13.239 -0.4208 -1.1803  0.3113
  895MPD2    H513123   3.609   4.478  13.201 -0.0127  0.1671 -1.7362
  895MPD2    N113124   3.541   0.217  13.165  0.5817  0.0175 -0.2563
  895MPD2    H713125   3.468   0.159  13.125 -1.3122  0.8039  2.0270
  896MPD2     C13126   1.148   2.942   1.917  0.1014  0.8044  0.2178
  896MPD2    C113127   1.136   2.879   1.802 -0.2571 -1.2013 -0.5996
  896MPD2    C213128   1.025   2.805   1.767  1.1156  0.5187 -0.2575
  896MPD2    C313129   0.924   2.798   1.857  0.2477  0.5025 -0.2238
  896MPD2    C413130   0.929   2.867   1.976  0.1141  0.1226  0.2715
  896MPD2    C513131   1.044   2.933   2.003 -0.7330  0.3064  0.2286
  896MPD2     H13132   1.012   2.765   1.667 -1.4900 -1.0048  0.6887
  896MPD2    H113133   0.857   2.867   2.057  0.0538  0.8454  0.2182
  896MPD2    H213134   1.233   3.004   1.942  0.9719 -1.4208  2.7595
  896MPD2    H313135   1.058   2.993   2.092  0.0610 -1.0459  1.0286
  896MPD2     N13136   0.802   2.748   1.804  0.3971  0.5848 -0.3710
  896MPD2    H513137   0.807   2.708   1.710  2.4975 -1.2493  0.5171
  896MPD2    N113138   1.249   2.897   1.710  0.1913 -0.2128 -0.5413
  896MPD2    H713139   1.330   2.946   1.745 -0.6262  0.7198  0.0322
  897MPD2     C13140   1.921   3.507  10.329 -0.1970  0.3281  0.3795
  897MPD2    C113141   1.932   3.641  10.300  0.4253  0.0847 -0.1760
  897MPD2    C213142   1.854   3.736  10.369 -0.6147  0.6076 -0.1300
  897MPD2    C313143   1.768   3.697  10.471  0.0863 -0.0024 -0.8009
  897MPD2    C413144   1.750   3.557  10.495 -0.2971  0.5340  1.1021
  897MPD2    C513145   1.830   3.465  10.425  0.5014  0.3885 -0.5142
  897MPD2     H13146   1.882   3.839  10.350  0.4067  0.6483  1.6054
  897MPD2    H113147   1.672   3.528  10.565  0.2406 -1.2081  1.0012
  897MPD2    H213148   1.981   3.429  10.282 -0.5837  0.9258 -1.1307
  897MPD2    H313149   1.815   3.358  10.433  0.7337  0.5240  1.9567
  897MPD2     N13150   1.706   3.797  10.552 -0.3294 -0.0228 -0.0692
  897MPD2    H513151   1.647   3.773  10.631  0.5555 -0.3722  0.4838
  897MPD2    N113152   2.031   3.684  10.212  0.1009 -0.2744  0.5680
  897MPD2    H713153   2.035   3.785  10.212 -5.1146 -0.0411 -2.7283
  898MPD2     C13154   3.948   0.479   0.207  1.0277  0.4554  0.0437
  898MPD2    C113155   4.039   0.446   0.113 -1.0062 -0.2774 -0.1231
  898MPD2    C213156   4.032   0.510  17.683 -0.0294 -0.1336  0.1615
  898MPD2    C313157   3.957   0.622  17.656 -0.0054  0.7132  0.0357
  898MPD2    C413158   3.864   0.653   0.061 -0.5256 -0.0576 -0.1046
  898MPD2    C513159   3.861   0.576   0.172  0.1158  0.2690 -0.1254
  898MPD2     H13160   4.103   0.468  17.613 -0.1277  0.6406 -0.4003
  898MPD2    H113161   3.786   0.722   0.031  0.1734  0.4368 -0.7720
  898MPD2    H213162   3.934   0.431   0.303  0.7520 -1.0412 -0.7459
  898MPD2    H313163   3.789   0.598   0.250 -1.9906 -0.2930 -1.8994
  898MPD2     N13164   3.961   0.683  17.527 -0.0207  0.0106 -0.1253
  898MPD2    H513165   4.016   0.629  17.461 -1.2064 -2.2836  0.7517
  898MPD2    N113166   4.129   0.338   0.134  0.4814 -0.4388 -0.0748
  898MPD2    H713167   4.187   0.308   0.056 -1.1081 -2.8025 -0.3433
  899MPD2     C13168   0.076   0.685  17.512 -0.1754  0.0085 -0.0445
  899MPD2    C113169   0.126   0.790  17.584 -0.1863 -0.2677  0.3970
  899MPD2    C213170   0.088   0.813   0.023 -0.0775 -0.1372 -0.4696
  899MPD2    C313171   0.027   0.716   0.095 -0.2251 -0.7682  0.4649
  899MPD2    C413172   4.710   0.607   0.026 -0.5235 -0.6405 -0.1717
  899MPD2    C513173   0.012   0.592  17.586  0.2747  0.4396  0.0048
  899MPD2     H13174   0.135   0.894   0.077  0.1240 -0.4622 -0.1563
  899MPD2    H113175   4.671   0.524   0.084  1.8285 -1.2133  0.5784
  899MPD2    H213176   0.090   0.674  17.405 -3.1471  1.2196 -0.5411
  899MPD2    H313177   4.699   0.506  17.531 -0.1480  0.3811  0.3778
  899MPD2     N13178   4.717   0.720   0.233  0.2358  0.1953  0.2607
  899MPD2    H513179   4.644   0.660   0.270 -0.9592  0.1912 -2.1016
  899MPD2    N113180   0.188   0.887  17.501 -0.5422 -0.1111  0.0732
  899MPD2    H713181   0.215   0.865  17.406  1.2709 -1.6652  0.9295
  900MPD2     C13182   4.467   2.269  12.680 -0.6220 -0.0512 -0.1540
  900MPD2    C113183   4.377   2.183  12.612  0.1409  0.5900 -0.4345
  900MPD2    C213184   4.278   2.250  12.541 -0.5249 -0.1125  0.4694
  900MPD2    C313185   4.274   2.387  12.548 -0.0269  0.1571  0.2374
  900MPD2    C413186   4.355   2.466  12.622 -0.1957  0.0171 -0.0414
  900MPD2    C513187   4.457   2.403  12.689 -0.2243 -0.4944 -0.0879
  900MPD2     H13188   4.201   2.187  12.498  0.0848 -1.0408  0.7262
  900MPD2    H113189   4.342   2.573  12.634  0.6918  0.1556 -0.2467
  900MPD2    H213190   4.559   2.227  12.720 -1.2665 -1.8747 -0.5835
  900MPD2    H313191   4.540   2.455  12.736 -0.7174 -0.6362  0.9467
  900MPD2     N13192   4.173   2.445  12.472 -0.6155 -0.0339 -0.1324
  900MPD2    H513193   4.114   2.379  12.423 -1.0865 -1.7228  2.7016
  900MPD2    N113194   4.398   2.041  12.612  0.1020 -0.1352  0.1738
  900MPD2    H713195   4.473   2.007  12.670  1.3374  0.4088 -1.0977
  901MPD2     C13196   4.342   1.005  12.837 -1.0734  0.1225 -0.7994
  901MPD2    C113197   4.427   1.017  12.731  0.0494  0.4093  0.4721
  901MPD2    C213198   4.441   1.135  12.663 -0.9651 -1.1211 -0.7698
  901MPD2    C313199   4.368   1.243  12.707  0.1039  0.5842  0.1572
  901MPD2    C413200   4.275   1.231  12.807 -0.1933  0.0698  0.4655
  901MPD2    C513201   4.261   1.112  12.875 -0.8737 -0.4563  0.1933
  901MPD2     H13202   4.516   1.152  12.587 -1.0268 -1.5395 -0.9229
  901MPD2    H113203   4.228   1.319  12.850  1.9973  0.7362  1.5106
  901MPD2    H213204   4.334   0.911  12.889 -2.4760 -0.1035 -1.4509
  901MPD2    H313205   4.185   1.104  12.952  1.0124 -2.1669  1.8747
  901MPD2     N13206   4.405   1.363  12.642 -0.1297 -0.6040 -0.4190
  901MPD2    H513207   4.485   1.355  12.581  0.8849  0.3197  0.7717
  901MPD2    N113208   4.503   0.904  12.686  0.1463 -0.4789  0.8222
  901MPD2    H713209   4.489   0.816  12.734 -1.6678 -0.8044 -0.3105
  902MPD2     C13210   3.136   0.756  13.304 -0.0480  0.4604  0.4433
  902MPD2    C113211   3.123   0.768  13.171  0.1538 -1.0575  0.3129
  902MPD2    C213212   3.237   0.784  13.088 -0.0827  0.5063  0.5050
  902MPD2    C313213   3.364   0.789  13.145  0.4340  0.2532 -0.0824
  902MPD2    C413214   3.371   0.765  13.284  0.1240  0.1021 -0.3319
  902MPD2    C513215   3.261   0.737  13.358  0.6805  0.3888  0.3490
  902MPD2     H13216   3.231   0.783  12.980  2.8410 -0.1962  0.3367
  902MPD2    H113217   3.466   0.751  13.334  0.5972  2.2460 -0.6271
  902MPD2    H213218   3.048   0.744  13.367 -1.3608 -1.4209 -1.7195
  902MPD2    H313219   3.271   0.719  13.464 -0.5819  1.8765  0.7181
  902MPD2     N13220   3.489   0.779  13.079 -0.3486  0.5716 -0.0330
  902MPD2    H513221   3.575   0.765  13.131 -1.8290 -1.5029  1.8485
  902MPD2    N113222   2.995   0.780  13.110  0.0609  0.1026 -0.5644
  902MPD2    H713223   2.992   0.765  13.010 -0.5140 -1.6288 -0.2800
  903MPD2     C13224   3.804   0.840  12.270  0.4408  0.0930 -1.0104
  903MPD2    C113225   3.772   0.738  12.354 -0.5548 -0.1353  1.1187
  903MPD2    C213226   3.713   0.630  12.293  0.5993  0.1229  0.3688
  903MPD2    C313227   3.702   0.607  12.156  0.3989 -0.1710 -0.2616
  903MPD2    C413228   3.754   0.706  12.075  0.3188  0.7160 -0.2398
  903MPD2    C513229   3.802   0.820  12.134  0.1583 -0.4309  0.2304
  903MPD2     H13230   3.669   0.550  12.352 -1.2349 -0.4297 -1.7187
  903MPD2    H113231   3.741   0.690  11.968 -0.8039 -1.1578  0.1803
  903MPD2    H213232   3.830   0.932  12.321  0.9259 -0.8430  0.4187
  903MPD2    H313233   3.835   0.906  12.078 -3.1902  1.0665  0.5907
  903MPD2     N13234   3.626   0.500  12.106  0.4468 -0.1127 -0.5145
  903MPD2    H513235   3.587   0.436  12.174  0.6864 -0.5093 -0.7567
  903MPD2    N113236   3.772   0.759  12.493  0.5135 -0.4728 -0.0958
  903MPD2    H713237   3.800   0.846  12.538 -1.3481  1.5540 -2.8351
  904MPD2     C13238   3.208   4.383  13.630 -0.2924  0.1993  0.4362
  904MPD2    C113239   3.226   4.444  13.756  0.5970 -0.3795  0.0841
  904MPD2    C213240   3.362   4.452  13.795  0.0099  0.4994  0.0131
  904MPD2    C313241   3.465   4.409  13.715  0.4304 -0.3069  0.4262
  904MPD2    C413242   3.435   4.352  13.595  0.0841  1.0689  0.0764
  904MPD2    C513243   3.308   4.334  13.552  0.4565  0.3510  0.1437
  904MPD2     H13244   3.388   4.505  13.886  0.2643 -0.1638  0.3205
  904MPD2    H113245   3.518   4.317  13.537 -0.5457  0.7543 -0.6279
  904MPD2    H213246   3.107   4.374  13.590 -0.7711  0.6468  1.5503
  904MPD2    H313247   3.282   4.298  13.453 -1.8952 -0.2443  0.9738
  904MPD2     N13248   3.600   4.420  13.752 -0.1168 -0.2361  0.1968
  904MPD2    H513249   3.620   4.467  13.840 -1.4294 -0.1227  0.4233
  904MPD2    N113250   3.130   4.519  13.829  0.3090  0.0136 -0.3362
  904MPD2    H713251   3.160   4.592  13.893 -3.8495 -0.1285  1.7413
  905MPD2     C13252   2.920   4.228  13.294  1.2782  0.0705 -0.1640
  905MPD2    C113253   2.998   4.343  13.288 -0.0263 -0.1688 -0.2811
  905MPD2    C213254   3.126   4.328  13.245  0.1900  0.0531  0.7048
  905MPD2    C313255   3.169   4.209  13.193  0.6907 -0.3216  0.6446
  905MPD2    C413256   3.089   4.099  13.192  0.3453  0.3582 -0.0053
  905MPD2    C513257   2.971   4.106  13.257  0.0942  0.1577 -0.1096
  905MPD2     H13258   3.198   4.409  13.253  1.1663 -1.0123  2.7341
  905MPD2    H113259   3.127   4.001  13.166  0.5753  0.3212  0.4697
  905MPD2    H213260   2.816   4.237  13.322  1.7471 -1.7882  2.1732
  905MPD2    H313261   2.922   4.010  13.257  1.4961 -0.5453  1.3675
  905MPD2     N13262   3.301   4.186  13.141  0.3072  0.5220  0.5145
  905MPD2    H513263   3.320   4.093  13.104  0.2836  1.0027 -0.7081
  905MPD2    N113264   2.960   4.454  13.369  0.0249  0.7274 -0.2466
  905MPD2    H713265   2.877   4.444  13.427 -2.2414  0.8302 -3.4535
  906MPD2     C13266   0.663   3.817  11.474 -0.0104 -0.8448 -0.1584
  906MPD2    C113267   0.561   3.796  11.387  0.7479  0.3800 -0.7793
  906MPD2    C213268   0.455   3.729  11.437  0.4468 -0.0219  0.6328
  906MPD2    C313269   0.437   3.697  11.573 -0.0902  0.1536  0.1765
  906MPD2    C413270   0.538   3.736  11.663 -0.2691 -0.0276 -0.1793
  906MPD2    C513271   0.649   3.794  11.608 -0.5711 -0.4006  0.4007
  906MPD2     H13272   0.374   3.708  11.368  3.0173 -0.7763 -2.1151
  906MPD2    H113273   0.531   3.722  11.770  0.3928 -3.1634 -0.5312
  906MPD2    H213274   0.756   3.866  11.448  0.8235 -2.5700 -0.4334
  906MPD2    H313275   0.719   3.836  11.678  0.0348 -1.3857  0.3782
  906MPD2     N13276   0.323   3.621  11.622 -0.1763  0.4481  0.1521
  906MPD2    H513277   0.328   3.597  11.721 -0.9847  1.6072  0.4772
  906MPD2    N113278   0.564   3.820  11.247  0.0819 -0.1770  0.3830
  906MPD2    H713279   0.488   3.783  11.190  0.8795 -0.4003 -0.5229
  907MPD2     C13280   4.314   3.489  15.579  0.2848  0.1918 -0.2613
  907MPD2    C113281   4.359   3.357  15.559  0.1059  0.3736  0.4435
  907MPD2    C213282   4.436   3.306  15.658  0.1631  0.2012 -0.2316
  907MPD2    C313283   4.490   3.381  15.767  0.8763  0.3522 -0.2277
  907MPD2    C413284   4.445   3.509  15.775  0.3601 -0.6100  0.6276
  907MPD2    C513285   4.359   3.565  15.685  0.3718  0.6237 -0.6548
  907MPD2     H13286   4.470   3.205  15.639 -0.8757  0.1939 -2.0450
  907MPD2    H113287   4.480   3.574  15.855  0.8737 -0.6580  0.4449
  907MPD2    H213288   4.240   3.538  15.516 -0.8657 -1.4776 -0.2300
  907MPD2    H313289   4.334   3.670  15.695 -0.6521  0.3068  0.0566
  907MPD2     N13290   4.590   3.327  15.859 -0.0341 -0.0842 -0.1721
  907MPD2    H513291   4.610   3.228  15.845 -0.8544  0.0136 -1.9631
  907MPD2    N113292   4.331   3.281  15.447  0.1557 -0.0176 -0.4283
  907MPD2    H713293   4.368   3.188  15.460 -1.2399 -0.3203  1.2946
  908MPD2     C13294   2.793   3.297   9.626  0.4440  0.1623  0.0960
  908MPD2    C113295   2.692   3.230   9.686  0.2677  0.2992  0.3506
  908MPD2    C213296   2.608   3.305   9.768  0.4679  0.0123 -0.3511
  908MPD2    C313297   2.612   3.442   9.768 -0.0242 -0.0188 -0.0690
  908MPD2    C413298   2.715   3.504   9.700 -0.1503 -0.2096 -0.5344
  908MPD2    C513299   2.809   3.432   9.637 -0.2109  0.4377 -0.0967
  908MPD2     H13300   2.528   3.256   9.823 -0.2047  0.9333 -0.4996
  908MPD2    H113301   2.734   3.610   9.703  1.4946 -0.5201 -0.1290
  908MPD2    H213302   2.863   3.236   9.570  0.5427  1.2762 -0.9911
  908MPD2    H313303   2.894   3.475   9.586  0.0601  2.2691  1.8839
  908MPD2     N13304   2.511   3.519   9.846 -0.4075  0.2222  0.1899
  908MPD2    H513305   2.442   3.468   9.900  0.2109 -0.8034  0.0123
  908MPD2    N113306   2.695   3.090   9.677  0.2635 -0.6590 -0.7629
  908MPD2    H713307   2.773   3.057   9.621 -1.6077 -1.0698 -3.1426
  909MPD2     C13308   2.489   1.854  11.990 -0.6362  0.0689 -0.4683
  909MPD2    C113309   2.363   1.849  11.930  0.2707 -0.4761 -0.1414
  909MPD2    C213310   2.256   1.902  11.994 -0.1935 -0.1003 -0.6518
  909MPD2    C313311   2.269   1.982  12.107 -0.2174  0.2193  0.5179
  909MPD2    C413312   2.395   1.994  12.160  1.3901  0.0408  0.1773
  909MPD2    C513313   2.501   1.934  12.099  0.5936 -0.1660 -0.0501
  909MPD2     H13314   2.160   1.909  11.945 -1.1587  0.4228  1.3321
  909MPD2    H113315   2.413   2.038  12.257 -0.2958  3.7663 -1.2384
  909MPD2    H213316   2.579   1.809  11.951 -0.0604  0.6151  0.2550
  909MPD2    H313317   2.603   1.944  12.136  1.5724  0.7824 -2.9711
  909MPD2     N13318   2.154   2.039  12.163  0.1666 -0.2351 -0.0424
  909MPD2    H513319   2.066   2.012  12.119  0.0662  2.7892 -1.7229
  909MPD2    N113320   2.341   1.805  11.800  0.5958  0.4710 -0.1668
  909MPD2    H713321   2.245   1.816  11.769 -0.1759  0.3542  2.1382
  910MPD2     C13322   3.508   4.011  15.934  0.1701 -0.4825 -0.0938
  910MPD2    C113323   3.604   3.991  15.828  0.7768  0.3851  0.2562
  910MPD2    C213324   3.586   4.052  15.704  0.0025  0.5041 -0.5158
  910MPD2    C313325   3.463   4.120  15.670  0.6275  0.0856 -0.0935
  910MPD2    C413326   3.366   4.129  15.772  0.3963  0.0390  0.6150
  910MPD2    C513327   3.395   4.078  15.899  0.6963  0.2840  0.2587
  910MPD2     H13328   3.664   4.044  15.629  0.0067  1.6845 -0.6342
  910MPD2    H113329   3.279   4.190  15.750 -0.2736 -1.3262 -0.5211
  910MPD2    H213330   3.502   3.970  16.034  1.5865 -0.0440  0.1750
  910MPD2    H313331   3.329   4.108  15.979  1.3669 -0.3604  1.0534
  910MPD2     N13332   3.438   4.179  15.543  0.1360 -0.2200  0.3719
  910MPD2    H513333   3.347   4.222  15.526  0.1395  0.2332  1.5034
  910MPD2    N113334   3.734   3.931  15.855 -0.0508  0.0007  0.4044
  910MPD2    H713335   3.802   3.937  15.780 -0.9475 -1.8744 -0.5658
  911MPD2     C13336   1.538   4.377  16.060  0.2937  0.4873  0.9832
  911MPD2    C113337   1.543   4.446  16.177  0.2679  0.6988 -0.7136
  911MPD2    C213338   1.463   4.559  16.200 -0.5705  0.0570  0.3265
  911MPD2    C313339   1.370   4.582  16.101  0.2161 -0.5181  0.6206
  911MPD2    C413340   1.360   4.510  15.980  0.5453  0.2898  0.4246
  911MPD2    C513341   1.442   4.402  15.971  0.4074  0.5827 -0.0304
  911MPD2     H13342   1.460   4.616  16.292 -3.7459  1.1529 -0.4539
  911MPD2    H113343   1.290   4.531  15.900  1.2869 -0.5778 -0.4471
  911MPD2    H213344   1.597   4.287  16.047  0.2813  0.4319  1.3138
  911MPD2    H313345   1.444   4.345  15.879  3.5710  0.7766 -0.0688
  911MPD2     N13346   1.269   4.684  16.122  0.2034 -0.1262  0.3731
  911MPD2    H513347   1.197   4.684  16.051  0.0996 -0.0920  0.4779
  911MPD2    N113348   1.644   4.412  16.268 -0.3836  0.4273  0.2340
  911MPD2    H713349   1.694   4.327  16.245  2.2111  1.8345  0.6905
  912MPD2     C13350   1.065   4.501  15.657  0.0368  0.0179 -0.3490
  912MPD2    C113351   1.043   4.544  15.787 -0.4556 -0.6337 -0.7251
  912MPD2    C213352   1.035   4.449  15.889 -0.1315  0.2756  0.1648
  912MPD2    C313353   1.061   4.313  15.856  0.5064 -0.1036  0.5955
  912MPD2    C413354   1.066   4.276  15.723  0.2829  0.9229  0.2645
  912MPD2    C513355   1.068   4.366  15.619  0.1594 -0.6752 -0.2054
  912MPD2     H13356   1.001   4.475  15.989 -0.0524 -1.4746  0.6526
  912MPD2    H113357   1.077   4.174  15.689 -1.3726  0.9158 -0.2553
  912MPD2    H213358   1.075   4.570  15.575 -0.3547  1.8108  1.1147
  912MPD2    H313359   1.059   4.330  15.518  2.9816 -1.8338 -0.0634
  912MPD2     N13360   1.084   4.222  15.953  0.0197  0.1215  0.1315
  912MPD2    H513361   1.065   4.257  16.046  0.5196  0.1460  0.2217
  912MPD2    N113362   1.048   4.683  15.809 -0.0101  0.4777 -0.8838
  912MPD2    H713363   1.098   0.016  15.740  3.7084 -0.7671  0.8515
  913MPD2     C13364   2.250   0.840  10.064  0.7168 -0.0447 -0.2320
  913MPD2    C113365   2.162   0.795  10.160  0.1532 -0.7419  0.9128
  913MPD2    C213366   2.142   0.882  10.265  0.0814 -0.5890 -0.9493
  913MPD2    C313367   2.221   0.992  10.285  0.1808 -0.0833 -0.4743
  913MPD2    C413368   2.315   1.026  10.190 -0.3645 -0.5358 -0.2606
  913MPD2    C513369   2.321   0.958  10.078 -0.3887 -0.5127  0.1541
  913MPD2     H13370   2.067   0.861  10.340  1.8895  0.6774  1.2187
  913MPD2    H113371   2.376   1.115  10.200 -0.5997 -0.5396  1.1934
  913MPD2    H213372   2.269   0.782   9.975 -2.3386 -2.1060  0.4337
  913MPD2    H313373   2.381   0.993   9.994 -1.5795 -1.0491 -0.9135
  913MPD2     N13374   2.214   1.072  10.404  0.0933 -0.0952  0.2903
  913MPD2    H513375   2.269   1.157  10.404 -0.1891  0.0847  1.5248
  913MPD2    N113376   2.085   0.675  10.137  0.3422 -0.3839  0.7503
  913MPD2    H713377   2.105   0.616  10.057 -0.2473  1.9608 -1.1140
  914MPD2     C13378   4.474   1.113  11.888 -0.2515  0.2147 -0.9546
  914MPD2    C113379   4.471   1.164  12.016 -0.4037  0.2523  0.0701
  914MPD2    C213380   4.494   1.068  12.113  0.0474 -0.0491  0.3402
  914MPD2    C313381   4.515   0.933  12.084  0.1559 -0.1507  0.4948
  914MPD2    C413382   4.508   0.892  11.957 -0.2845  0.1258  0.0454
  914MPD2    C513383   4.494   0.985  11.859 -0.7280 -0.2083 -0.4392
  914MPD2     H13384   4.497   1.091  12.219 -0.0256  0.2799  0.2702
  914MPD2    H113385   4.537   0.792  11.928  1.3548  0.3391  0.9617
  914MPD2    H213386   4.466   1.189  11.811 -0.4271  2.7911  1.5683
  914MPD2    H313387   4.506   0.954  11.755  2.6647  2.4620 -0.8136
  914MPD2     N13388   4.550   0.850  12.189  0.0215 -0.5363 -0.0530
  914MPD2    H513389   4.550   0.891  12.282  0.7926 -0.8074  0.0608
  914MPD2    N113390   4.442   1.300  12.028 -0.2139 -0.9087  1.1249
  914MPD2    H713391   4.422   1.349  11.941 -0.5564 -0.8375  1.2433
  915MPD2     C13392   2.404   0.814  15.771 -0.0056  0.3876 -0.4371
  915MPD2    C113393   2.398   0.933  15.702  0.5362 -0.0418 -0.4442
  915MPD2    C213394   2.415   1.051  15.772 -0.2260 -1.1487 -0.1781
  915MPD2    C313395   2.440   1.049  15.905  0.2429 -0.6955  0.1478
  915MPD2    C413396   2.444   0.931  15.971 -0.4576  0.0112  0.6227
  915MPD2    C513397   2.429   0.815  15.901 -0.1252 -0.0846  1.2354
  915MPD2     H13398   2.405   1.147  15.724  3.2881 -1.0920 -0.7807
  915MPD2    H113399   2.457   0.923  16.079 -0.5786  1.8943  0.7754
  915MPD2    H213400   2.389   0.721  15.718  2.0047  0.0858 -0.4754
  915MPD2    H313401   2.434   0.724  15.960  2.3206  0.2943  1.6127
  915MPD2     N13402   2.441   1.172  15.973  0.2794 -0.0394  0.0197
  915MPD2    H513403   2.415   1.256  15.921  2.8444 -0.0979 -1.3717
  915MPD2    N113404   2.388   0.935  15.563 -0.8060 -0.1817  0.4814
  915MPD2    H713405   2.385   0.843  15.519 -0.9537  0.0591 -0.0204
  916MPD2     C13406   0.723   4.285  15.731 -0.7076  0.6818  0.1271
  916MPD2    C113407   0.746   4.210  15.840 -0.7120 -0.2726  0.5654
  916MPD2    C213408   0.781   4.079  15.815  0.5321 -0.0136  0.0154
  916MPD2    C313409   0.777   4.022  15.685 -0.1160 -0.0446  0.0955
  916MPD2    C413410   0.727   4.099  15.581  0.5809  0.4594 -0.3058
  916MPD2    C513411   0.705   4.235  15.600 -0.1227  1.1619  0.3052
  916MPD2     H13412   0.806   4.019  15.902  1.1206 -0.6076 -0.5570
  916MPD2    H113413   0.723   4.066  15.478  2.4170 -1.3736  0.2029
  916MPD2    H213414   0.719   4.389  15.761 -0.0764  0.5509  0.6416
  916MPD2    H313415   0.679   4.296  15.514 -0.3744 -0.3173 -0.6658
  916MPD2     N13416   0.839   3.895  15.671  0.2814  0.2295  0.4423
  916MPD2    H513417   0.887   3.860  15.754  0.6447 -0.7896 -0.2014
  916MPD2    N113418   0.749   4.273  15.968  0.2195 -0.4544  0.4663
  916MPD2    H713419   0.726   4.372  15.971 -0.2564 -0.5501 -0.1347
  917MPD2     C13420   1.318   1.477  11.040  0.2455  0.8843  0.0148
  917MPD2    C113421   1.317   1.561  11.152  0.1214  0.0622  0.2438
  917MPD2    C213422   1.393   1.673  11.151 -0.4776  0.5613  0.0006
  917MPD2    C313423   1.477   1.705  11.045  0.2179  0.3879 -0.4615
  917MPD2    C413424   1.483   1.616  10.940  0.0795 -0.6840 -0.5790
  917MPD2    C513425   1.409   1.503  10.941  0.3469  0.3668  0.4185
  917MPD2     H13426   1.374   1.747  11.228 -0.1696  0.7680 -0.1216
  917MPD2    H113427   1.556   1.610  10.861  1.7581 -0.8043  0.9715
  917MPD2    H213428   1.258   1.387  11.032  0.8199  0.5218 -0.1627
  917MPD2    H313429   1.411   1.438  10.855 -1.4442  0.6072  0.1914
  917MPD2     N13430   1.546   1.829  11.036  0.7654 -0.1338 -0.4231
  917MPD2    H513431   1.587   1.843  10.944  1.9212  1.2906  0.2943
  917MPD2    N113432   1.235   1.519  11.256 -0.2603  0.3506  0.3222
  917MPD2    H713433   1.174   1.438  11.248 -0.2519  0.2975  0.7532
  918MPD2     C13434   1.027   1.960  12.121  0.0646 -0.3520 -0.2098
  918MPD2    C113435   1.140   1.880  12.107 -0.1956 -0.3979  0.2549
  918MPD2    C213436   1.135   1.793  12.001 -0.4149 -0.6292 -0.2684
  918MPD2    C313437   1.018   1.781  11.927 -0.5588  0.4283 -0.6559
  918MPD2    C413438   0.901   1.850  11.952 -0.1224  0.5157  0.2722
  918MPD2    C513439   0.906   1.948  12.043  0.4869 -0.2285 -0.5491
  918MPD2     H13440   1.218   1.727  11.983 -1.0108 -1.5577  0.4335
  918MPD2    H113441   0.809   1.842  11.896 -0.4500  3.4330  0.3883
  918MPD2    H213442   1.025   2.040  12.194  0.8415  0.4025 -1.0042
  918MPD2    H313443   0.823   2.016  12.052  2.2044  1.9422 -0.9503
  918MPD2     N13444   1.026   1.684  11.832 -0.3975 -0.1405 -0.1631
  918MPD2    H513445   1.114   1.632  11.835 -0.5890 -0.4556  0.0703
  918MPD2    N113446   1.253   1.886  12.195  0.0757  0.2720 -1.0279
  918MPD2    H713447   1.324   1.817  12.171  1.6513  1.2767  0.7898
  919MPD2     C13448   1.848   0.733  11.355  0.4080  0.2080  0.1110
  919MPD2    C113449   1.768   0.658  11.278 -0.1241  0.5367 -0.2878
  919MPD2    C213450   1.758   0.681  11.140  0.2309  0.3295 -0.2521
  919MPD2    C313451   1.829   0.786  11.083 -0.6140 -0.4633 -0.0503
  919MPD2    C413452   1.908   0.866  11.162  0.3288  0.7215 -0.4299
  919MPD2    C513453   1.927   0.833  11.297 -0.4905  0.1542  0.2299
  919MPD2     H13454   1.693   0.620  11.078 -1.5651  0.5888  1.3937
  919MPD2    H113455   1.966   0.947  11.117 -0.0269  0.4936 -1.2960
  919MPD2    H213456   1.873   0.719  11.459  2.4018 -3.6046 -0.8971
  919MPD2    H313457   1.979   0.899  11.366 -0.4763  1.1746 -0.7559
  919MPD2     N13458   1.824   0.825  10.944 -0.3172  0.0929  0.3952
  919MPD2    H513459   1.883   0.906  10.923 -1.0275  0.9634  1.7210
  919MPD2    N113460   1.685   0.549  11.326  0.1151  0.5440 -0.1946
  919MPD2    H713461   1.635   0.490  11.260  2.0598  0.6525 -1.7561
  920MPD2     C13462   1.708   1.571  10.294 -0.1055 -0.0258 -0.2010
  920MPD2    C113463   1.588   1.505  10.276  0.2917  0.2779  0.8598
  920MPD2    C213464   1.564   1.397  10.360 -0.0496 -0.5501  0.3952
  920MPD2    C313465   1.664   1.340  10.434 -0.2354  0.2206 -0.5000
  920MPD2    C413466   1.786   1.403  10.452  0.2410  0.0561  0.0792
  920MPD2    C513467   1.809   1.516  10.378  0.4318  0.1382 -0.4659
  920MPD2     H13468   1.472   1.339  10.361  0.4097 -1.2716  1.0233
  920MPD2    H113469   1.874   1.363  10.502  0.2988  1.4867  1.1064
  920MPD2    H213470   1.731   1.660  10.236 -0.3547 -0.8598 -1.5718
  920MPD2    H313471   1.905   1.565  10.386 -0.0640  0.8664  0.9077
  920MPD2     N13472   1.645   1.217  10.506 -0.6121 -0.2401 -0.5677
  920MPD2    H513473   1.561   1.163  10.486 -0.2996 -1.3896  1.3020
  920MPD2    N113474   1.488   1.532  10.177  0.3368 -0.2183  0.5599
  920MPD2    H713475   1.407   1.471  10.180  1.1610 -1.5262 -2.8641
  921MPD2     C13476   2.351   4.722  16.937  0.0644  0.0807 -0.3652
  921MPD2    C113477   2.343   4.583  16.938 -0.7085 -0.3555 -0.1454
  921MPD2    C213478   2.231   4.527  16.879 -0.1356 -0.6372 -0.3358
  921MPD2    C313479   2.124   4.601  16.830 -0.0558 -0.9323 -0.2390
  921MPD2    C413480   2.136   0.015  16.832  0.1572 -1.3959 -0.1976
  921MPD2    C513481   2.242   0.074  16.892  0.3110 -0.1517 -0.6253
  921MPD2     H13482   2.235   4.420  16.863 -1.3434 -1.0628  2.1640
  921MPD2    H113483   2.063   0.076  16.779 -0.7389 -2.0548  0.2765
  921MPD2    H213484   2.437   0.055  16.973 -1.1518  0.7223  1.5721
  921MPD2    H313485   2.240   0.182  16.900 -0.4828 -0.3686  2.1513
  921MPD2     N13486   2.020   4.540  16.751  0.4769  0.0268 -0.1432
  921MPD2    H513487   1.959   4.603  16.699  1.8591  1.3099 -0.2167
  921MPD2    N113488   2.462   4.500  16.955 -0.6069  0.3213  0.3089
  921MPD2    H713489   2.450   4.400  16.942  0.9843  0.2053 -0.2390
  922MPD2     C13490   3.047   2.119  16.789 -0.1919  0.1310 -0.3927
  922MPD2    C113491   3.058   2.134  16.649 -0.0545 -0.0446  0.3391
  922MPD2    C213492   2.949   2.129  16.574  0.2808 -0.1808  0.2821
  922MPD2    C313493   2.822   2.105  16.629  0.6063  0.4009  0.5356
  922MPD2    C413494   2.814   2.088  16.764 -0.4241  0.3414 -0.0454
  922MPD2    C513495   2.925   2.094  16.844 -0.1054 -0.8940  0.2512
  922MPD2     H13496   2.952   2.159  16.470  1.3740 -2.8516 -0.4678
  922MPD2    H113497   2.721   2.061  16.813  1.6694 -3.8880  1.5461
  922MPD2    H213498   3.136   2.121  16.851 -0.6546  1.1331  0.2522
  922MPD2    H313499   2.909   2.074  16.949 -0.2863 -1.3655  0.1340
  922MPD2     N13500   2.713   2.111  16.538 -0.4650  0.6040  0.2452
  922MPD2    H513501   2.736   2.130  16.441  0.3737  1.2323  0.5667
  922MPD2    N113502   3.188   2.162  16.595 -0.3815 -0.3169  0.3047
  922MPD2    H713503   3.270   2.153  16.654  0.4609  1.4208 -0.6427
  923MPD2     C13504   4.132   2.686   9.532  0.2487  0.3584  0.4509
  923MPD2    C113505   4.083   2.792   9.613 -0.4964 -0.3081  0.2641
  923MPD2    C213506   4.161   2.839   9.715 -0.0185  0.2096  0.3117
  923MPD2    C313507   4.292   2.787   9.722 -0.3179 -0.3134 -0.0208
  923MPD2    C413508   4.326   2.680   9.656  0.2232 -0.0713  0.3255
  923MPD2    C513509   4.245   2.620   9.563  0.2039  0.3581 -0.1453
  923MPD2     H13510   4.134   2.925   9.775 -0.3877  1.8054 -2.1498
  923MPD2    H113511   4.432   2.655   9.663  0.0188 -0.9806  0.1425
  923MPD2    H213512   4.076   2.658   9.444  0.7803 -0.7206  0.4583
  923MPD2    H313513   4.277   2.541   9.495 -0.8829  2.1137 -2.6993
  923MPD2     N13514   4.380   2.848   9.806  0.3871  0.6601  0.5302
  923MPD2    H513515   4.471   2.802   9.809  0.4458  0.7325 -0.1411
  923MPD2    N113516   3.954   2.839   9.580  1.0591  0.8010  0.0662
  923MPD2    H713517   3.921   2.820   9.487  1.1559  0.4531  0.1032
  924MPD2     C13518   0.033   2.688  15.594 -0.3563  0.3650  0.2886
  924MPD2    C113519   0.005   2.676  15.727 -0.1932  0.0609 -0.4204
  924MPD2    C213520   0.067   2.761  15.822  0.3516 -0.1469  0.0845
  924MPD2    C313521   0.142   2.872  15.779 -0.0640 -0.4402 -0.0100
  924MPD2    C413522   0.165   2.884  15.643  0.0002  0.3153  0.3466
  924MPD2    C513523   0.108   2.798  15.552 -0.9235  0.8265  0.2101
  924MPD2     H13524   0.056   2.737  15.928 -2.4899  0.3405 -0.0958
  924MPD2    H113525   0.222   2.967  15.602  1.3977 -1.7419 -1.8209
  924MPD2    H213526   0.003   2.611  15.524 -1.3945  0.7310  0.3187
  924MPD2    H313527   0.129   2.805  15.446  0.8702 -3.3837  0.3031
  924MPD2     N13528   0.181   2.975  15.869 -0.2655 -0.0613  0.1847
  924MPD2    H513529   0.230   3.056  15.832 -0.6856 -1.1540 -2.7259
  924MPD2    N113530   4.631   2.582  15.762  0.0802  0.4803 -0.3806
  924MPD2    H713531   4.574   2.546  15.686 -0.5065  1.2133 -0.2895
  925MPD2     C13532   3.252   0.379  14.707  0.0698 -0.5251 -0.2570
  925MPD2    C113533   3.160   0.484  14.702  0.4753  0.4877  0.9696
  925MPD2    C213534   3.113   0.543  14.819 -0.7879  0.0714  0.4902
  925MPD2    C313535   3.165   0.504  14.943  0.2245 -0.2255 -0.1349
  925MPD2    C413536   3.268   0.413  14.947 -0.1600 -0.2974  0.5791
  925MPD2    C513537   3.300   0.345  14.832 -0.2073  0.8758 -0.1213
  925MPD2     H13538   3.039   0.620  14.802 -0.4147  0.0509 -1.2331
  925MPD2    H113539   3.291   0.374  15.046 -0.9221  0.9339  1.2503
  925MPD2    H213540   3.273   0.321  14.618  1.3146 -0.4351 -0.0151
  925MPD2    H313541   3.355   0.252  14.834 -1.5856  0.0607  0.3861
  925MPD2     N13542   3.117   0.542  15.064 -0.2835 -0.1577  0.1111
  925MPD2    H513543   3.159   0.493  15.143 -0.8705 -0.3887  0.2779
  925MPD2    N113544   3.092   0.526  14.582  0.0805  0.6015  0.0442
  925MPD2    H713545   3.013   0.589  14.586 -0.1982  0.2576  0.0100
  926MPD2     C13546   1.241   3.687  13.644  0.4772 -0.2952  0.2713
  926MPD2    C113547   1.371   3.707  13.700  0.1885 -0.3943 -0.0421
  926MPD2    C213548   1.479   3.671  13.627 -0.0085  0.8771 -0.6001
  926MPD2    C313549   1.465   3.632  13.493  0.5695 -0.4919 -0.1217
  926MPD2    C413550   1.344   3.626  13.438 -0.0062 -0.4023  0.3087
  926MPD2    C513551   1.227   3.655  13.512  0.7144  1.1274 -0.0700
  926MPD2     H13552   1.580   3.680  13.664 -1.1050  0.3343  2.4620
  926MPD2    H113553   1.340   3.600  13.333 -0.4494  3.3177 -0.5912
  926MPD2    H213554   1.149   3.705  13.699 -0.7481 -0.4270 -1.7391
  926MPD2    H313555   1.129   3.640  13.469  0.8543 -1.1375  0.4302
  926MPD2     N13556   1.577   3.600  13.418 -0.4114  0.5038 -0.2942
  926MPD2    H513557   1.549   3.585  13.322  0.5320  0.6443 -0.5982
  926MPD2    N113558   1.385   3.766  13.829  0.6545 -0.0603  0.5650
  926MPD2    H713559   1.482   3.769  13.860  0.7273 -0.8214  0.4007
  927MPD2     C13560   1.903   1.391   0.445  0.2923  0.0163  0.1885
  927MPD2    C113561   1.779   1.338   0.399  0.0317 -0.1350  0.2632
  927MPD2    C213562   1.777   1.292   0.262  0.6436  0.2892  0.0288
  927MPD2    C313563   1.889   1.300   0.179  0.3699 -0.0815  0.3435
  927MPD2    C413564   2.008   1.354   0.234 -0.2175  0.4755 -0.2271
  927MPD2    C513565   2.015   1.396   0.363 -0.3608 -0.0898  0.3755
  927MPD2     H13566   1.684   1.248   0.228  0.1937  1.8597 -0.8129
  927MPD2    H113567   2.096   1.365   0.172  0.0564  0.3420  0.1407
  927MPD2    H213568   1.919   1.432   0.544 -1.2698 -0.4092  0.6184
  927MPD2    H313569   2.112   1.434   0.396 -0.6575  1.0496 -0.0581
  927MPD2     N13570   1.875   1.245   0.046  0.0474  0.3986  0.0146
  927MPD2    H513571   1.784   1.209   0.020 -0.7533  1.0736  1.8807
  927MPD2    N113572   1.679   1.326   0.494  0.2641 -0.2216  0.4879
  927MPD2    H713573   1.708   1.347   0.589  0.3380 -0.6089  0.5510
  928MPD2     C13574   4.224   4.338   1.301 -0.5718 -0.1887 -0.0155
  928MPD2    C113575   4.248   4.474   1.304 -0.3167  0.3652 -0.2782
  928MPD2    C213576   4.360   4.531   1.234 -0.6489 -0.1887 -0.9465
  928MPD2    C313577   4.439   4.447   1.154  0.1358 -0.1436  0.6697
  928MPD2    C413578   4.402   4.314   1.150  0.6472  0.2995  0.9370
  928MPD2    C513579   4.299   4.257   1.218  0.1063 -0.0603 -0.3834
  928MPD2     H13580   4.371   4.639   1.238  2.1341 -0.5198  0.7793
  928MPD2    H113581   4.465   4.251   1.089  1.9973  1.7346  0.8652
  928MPD2    H213582   4.153   4.290   1.367  0.9897  0.9939  2.5169
  928MPD2    H313583   4.275   4.152   1.206  0.4089 -0.3826  1.8401
  928MPD2     N13584   4.551   4.490   1.073  0.0213 -0.5488 -0.1175
  928MPD2    H513585   4.598   4.427   1.009  0.1920 -1.1411  0.5963
  928MPD2    N113586   4.172   4.555   1.392  0.2719  0.0486 -0.6826
  928MPD2    H713587   4.122   4.506   1.466 -0.4652 -1.1768 -2.0065
  929MPD2     C13588   4.467   4.177  10.307  0.2295  0.7804 -0.0679
  929MPD2    C113589   4.343   4.123  10.279  0.5328  0.0861  0.2029
  929MPD2    C213590   4.261   4.179  10.176 -0.7049 -0.0331  1.3485
  929MPD2    C313591   4.295   4.301  10.129  0.0824 -0.7411 -0.1892
  929MPD2    C413592   4.424   4.354  10.150 -0.3652 -0.1962 -0.0249
  929MPD2    C513593   4.514   4.278  10.228 -0.7647  0.5998 -0.2322
  929MPD2     H13594   4.164   4.136  10.156  0.4928 -0.9361 -2.4540
  929MPD2    H113595   4.459   4.444  10.100  2.8260 -0.8676  0.9916
  929MPD2    H213596   4.529   4.133  10.384  1.3689 -0.2273 -1.5533
  929MPD2    H313597   4.615   4.314  10.245 -0.6038 -0.8058  1.6977
  929MPD2     N13598   4.212   4.397  10.064 -0.3096  0.3824 -0.1453
  929MPD2    H513599   4.257   4.485  10.043  1.0004 -0.2016  0.2527
  929MPD2    N113600   4.309   4.006  10.349 -0.0043  0.7458  0.2333
  929MPD2    H713601   4.365   3.970  10.425  1.6727 -1.0678 -1.8876
  930MPD2     C13602   1.256   2.059  14.633 -0.5188  0.1110 -0.1170
  930MPD2    C113603   1.295   2.135  14.530  0.2428 -0.7746  0.4867
  930MPD2    C213604   1.271   2.101  14.396 -0.1694  0.0606 -0.2397
  930MPD2    C313605   1.220   1.979  14.358  0.2736  0.4881 -0.7830
  930MPD2    C413606   1.174   1.890  14.455  1.6053 -0.7019  0.4350
  930MPD2    C513607   1.195   1.936  14.590 -0.9158 -0.0737  0.1304
  930MPD2     H13608   1.310   2.177  14.328 -0.3790 -0.9947 -1.5457
  930MPD2    H113609   1.122   1.797  14.439 -0.3078  0.0467  2.2087
  930MPD2    H213610   1.284   2.072  14.737 -0.6210 -3.9318  0.4040
  930MPD2    H313611   1.169   1.855  14.658  2.7590 -0.3749  1.1501
  930MPD2     N13612   1.215   1.932  14.226  0.4805 -0.0234 -0.4795
  930MPD2    H513613   1.193   1.836  14.199 -1.1203  0.5344 -1.1520
  930MPD2    N113614   1.374   2.250  14.549  0.4978  0.1130 -0.1266
  930MPD2    H713615   1.400   2.308  14.470  0.0474 -1.7440 -1.6521
  931MPD2     C13616   1.838   1.143   0.971 -0.6560 -0.9847 -0.0842
  931MPD2    C113617   1.704   1.130   1.002 -0.5449 -0.7167 -0.3517
  931MPD2    C213618   1.663   1.057   1.115 -0.3128 -0.3806 -0.6462
  931MPD2    C313619   1.766   0.998   1.192 -0.7832  0.4102 -0.0759
  931MPD2    C413620   1.897   1.004   1.155  0.2986 -0.0073 -0.0053
  931MPD2    C513621   1.938   1.081   1.049  0.0317 -0.3725 -0.3896
  931MPD2     H13622   1.557   1.043   1.133 -0.5393  0.6092 -1.2380
  931MPD2    H113623   1.970   0.936   1.197  0.9991  0.1965 -0.9091
  931MPD2    H213624   1.862   1.194   0.878  1.4480  0.4172  1.2224
  931MPD2    H313625   2.045   1.091   1.039  0.0001 -1.2760 -1.5863
  931MPD2     N13626   1.754   0.906   1.296 -0.4278  0.8817  0.0911
  931MPD2    H513627   1.832   0.850   1.328 -1.9636 -1.0113  0.5088
  931MPD2    N113628   1.615   1.189   0.914  0.0847  0.3267 -0.5201
  931MPD2    H713629   1.653   1.247   0.840  1.2812  0.5050  0.2478
  932MPD2     C13630   3.969   0.026  11.415  0.1612  0.3495  0.4568
  932MPD2    C113631   3.900   0.121  11.489  0.5924  0.1364 -0.2895
  932MPD2    C213632   3.861   0.096  11.615  0.1326 -0.5973 -0.5277
  932MPD2    C313633   3.879   4.697  11.671 -0.6749  0.4139  0.2134
  932MPD2    C413634   3.947   4.591  11.603  1.0211 -0.3916  0.4306
  932MPD2    C513635   3.991   4.624  11.478 -0.4483  0.1852  0.4510
  932MPD2     H13636   3.795   0.169  11.661  0.8617 -0.0661 -0.3146
  932MPD2    H113637   3.954   4.491  11.643  1.0832 -0.5197  0.0980
  932MPD2    H213638   3.984   0.042  11.309  1.7361 -1.0085  0.4766
  932MPD2    H313639   4.029   4.547  11.412 -0.4947 -1.9923  2.9422
  932MPD2     N13640   3.838   4.677  11.803 -0.1806  0.8258  0.3976
  932MPD2    H513641   3.863   4.589  11.847 -2.0734 -1.6704 -3.5588
  932MPD2    N113642   3.864   0.244  11.437  1.1589 -0.2697 -0.0871
  932MPD2    H713643   3.805   0.306  11.491  0.3875 -0.4056 -0.7628
  933MPD2     C13644   3.666   0.467   1.805  0.5270  0.1517  0.8098
  933MPD2    C113645   3.783   0.475   1.721 -0.5179  0.0277  0.1735
  933MPD2    C213646   3.807   0.595   1.660  0.0983 -1.2416  0.2700
  933MPD2    C313647   3.734   0.706   1.690 -0.0443 -0.6333 -0.0502
  933MPD2    C413648   3.629   0.702   1.783 -0.1825  0.3887 -0.0782
  933MPD2    C513649   3.595   0.586   1.839  0.4891  1.0408 -0.0865
  933MPD2     H13650   3.887   0.607   1.588  1.6069 -3.1999  1.5841
  933MPD2    H113651   3.578   0.794   1.812  1.2122  1.6588 -1.6251
  933MPD2    H213652   3.644   0.372   1.852 -0.9102  0.9062  1.6872
  933MPD2    H313653   3.510   0.567   1.904 -0.5433  3.1637 -0.8074
  933MPD2     N13654   3.776   0.824   1.624 -0.9089  0.4832  0.1925
  933MPD2    H513655   3.860   0.815   1.568 -1.5422 -1.1219 -0.4806
  933MPD2    N113656   3.858   0.358   1.695  0.1519 -0.2677 -0.3930
  933MPD2    H713657   3.843   0.274   1.750 -0.3225 -0.6533 -1.1089
  934MPD2     C13658   0.143   2.570   2.061  0.1409  0.6059 -0.9810
  934MPD2    C113659   0.262   2.509   2.016  0.4768  0.0458 -0.0733
  934MPD2    C213660   0.259   2.418   1.918 -0.0289  0.1847  0.1829
  934MPD2    C313661   0.141   2.382   1.859 -0.5858  0.6778  0.7730
  934MPD2    C413662   0.027   2.433   1.909  0.0334  0.5580  0.4175
  934MPD2    C513663   0.023   2.531   2.007  0.4340 -0.9711 -0.3250
  934MPD2     H13664   0.354   2.376   1.887  0.2828  2.1363 -1.4529
  934MPD2    H113665   4.655   2.404   1.865 -0.3024  3.0065 -0.5176
  934MPD2    H213666   0.141   2.642   2.142  0.9436  0.4449 -0.8160
  934MPD2    H313667   4.654   2.580   2.038  0.4954 -1.0030 -0.0942
  934MPD2     N13668   0.129   2.296   1.747 -0.8174 -0.0002  0.2043
  934MPD2    H513669   0.036   2.280   1.709 -1.9255 -0.9922  3.3012
  934MPD2    N113670   0.391   2.540   2.068 -0.3440  0.5309 -0.1391
  934MPD2    H713671   0.464   2.482   2.027 -0.9684 -1.3314  1.4117
  935MPD2     C13672   0.742   1.608   1.472  0.1341 -0.4802  0.1939
  935MPD2    C113673   0.638   1.561   1.395  0.2256 -0.3733 -0.2883
  935MPD2    C213674   0.535   1.653   1.387 -0.4855 -0.1125 -0.1730
  935MPD2    C313675   0.539   1.781   1.439  0.1811  0.2980 -0.5642
  935MPD2    C413676   0.656   1.829   1.491  0.4212  0.1260  0.5178
  935MPD2    C513677   0.749   1.737   1.515 -0.0997 -0.8402  0.2966
  935MPD2     H13678   0.457   1.620   1.320 -0.4084  0.4623 -0.5343
  935MPD2    H113679   0.668   1.925   1.539  0.5067 -0.9153  2.5868
  935MPD2    H213680   0.822   1.538   1.492  0.7526 -0.7287 -3.1379
  935MPD2    H313681   0.828   1.763   1.584  0.7595 -3.2165  0.2265
  935MPD2     N13682   0.432   1.869   1.446 -0.1592 -0.5831 -0.1780
  935MPD2    H513683   0.456   1.962   1.479 -2.0217 -0.8053  1.8256
  935MPD2    N113684   0.620   1.434   1.341 -0.3295 -0.3272  0.0258
  935MPD2    H713685   0.537   1.417   1.285  0.8282  0.5014 -1.9394
  936MPD2     C13686   3.759   3.740  12.532  0.9099  0.0221 -0.2126
  936MPD2    C113687   3.805   3.632  12.585  0.5814  0.5049  0.0077
  936MPD2    C213688   3.908   3.563  12.518 -0.5678  1.4796  0.0278
  936MPD2    C313689   3.967   3.602  12.399 -0.2149  0.1016  0.3979
  936MPD2    C413690   3.921   3.718  12.340  0.3390  0.1977  0.5229
  936MPD2    C513691   3.820   3.789  12.420 -0.2774  0.2100 -0.7956
  936MPD2     H13692   3.949   3.471  12.558 -0.1231  1.5178 -0.3301
  936MPD2    H113693   3.958   3.750  12.243  0.6811 -0.8870  0.2960
  936MPD2    H213694   3.681   3.799  12.580 -0.5992 -1.8556 -0.3646
  936MPD2    H313695   3.778   3.878  12.374 -1.0111  1.1241  1.6584
  936MPD2     N13696   4.067   3.522  12.348  0.2268  0.4364 -0.3246
  936MPD2    H513697   4.094   3.444  12.407  2.1574  1.4027  0.0772
  936MPD2    N113698   3.766   3.583  12.705 -0.3757  0.1884 -0.0900
  936MPD2    H713699   3.802   3.495  12.739  0.3299  0.9649  1.1737
  937MPD2     C13700   1.503   4.604  11.198 -0.9569  0.1272  0.1813
  937MPD2    C113701   1.579   4.719  11.181 -0.7559  0.1888 -0.0879
  937MPD2    C213702   1.632   0.025  11.054 -0.5502 -0.3335 -0.3551
  937MPD2    C313703   1.633   4.656  10.952 -0.1912  0.4550 -0.0554
  937MPD2    C413704   1.556   4.547  10.964 -0.0949  0.1093 -0.3314
  937MPD2    C513705   1.493   4.522  11.084  0.0044 -0.4695 -0.0242
  937MPD2     H13706   1.693   0.113  11.037  1.4196 -1.5572  0.3735
  937MPD2    H113707   1.560   4.468  10.889 -0.9739  0.7913 -1.0841
  937MPD2    H213708   1.446   4.584  11.287 -0.1194  0.5525  0.8089
  937MPD2    H313709   1.431   4.434  11.099 -0.4122 -0.2377 -0.3750
  937MPD2     N13710   1.709   4.687  10.842  0.0640 -0.2650 -0.7887
  937MPD2    H513711   1.775   0.041  10.851  0.5534 -0.8313  0.5278
  937MPD2    N113712   1.580   0.100  11.274 -0.5630 -0.4196 -0.3566
  937MPD2    H713713   1.632   0.183  11.244 -0.6616 -0.4199 -0.5296
  938MPD2     C13714   4.433   1.730   0.894  0.1084 -0.1471 -0.0451
  938MPD2    C113715   4.470   1.811   1.000 -0.3512 -0.5633 -0.1002
  938MPD2    C213716   4.466   1.761   1.131  0.1021 -0.1962 -0.4793
  938MPD2    C313717   4.447   1.627   1.152  0.0707  0.3544  0.4393
  938MPD2    C413718   4.415   1.549   1.047  0.4093 -0.3872  0.2892
  938MPD2    C513719   4.400   1.600   0.924  0.4756 -1.0581 -0.1007
  938MPD2     H13720   4.483   1.825   1.217 -0.1443 -3.3938  1.9426
  938MPD2    H113721   4.389   1.444   1.057 -2.4079  0.3531  0.8086
  938MPD2    H213722   4.429   1.766   0.791  1.9710  1.0425  0.3056
  938MPD2    H313723   4.381   1.530   0.843 -1.7267  0.7891 -1.1846
  938MPD2     N13724   4.450   1.564   1.279  0.2542  0.0443  0.5416
  938MPD2    H513725   4.432   1.464   1.279  4.0338 -0.6633  1.3322
  938MPD2    N113726   4.506   1.945   0.984  0.1270  0.3090  0.3096
  938MPD2    H713727   4.545   1.997   1.061  0.7234  0.2733  0.0334
  939MPD2     C13728   0.656   2.874   1.443  0.2274  0.3437  0.6713
  939MPD2    C113729   0.769   2.950   1.431 -0.0624  0.0060  0.3122
  939MPD2    C213730   0.840   2.942   1.309 -0.2492 -0.1811  0.3259
  939MPD2    C313731   0.784   2.871   1.202  0.1530 -0.2752 -0.1773
  939MPD2    C413732   0.671   2.796   1.217  0.1959 -0.2690 -0.4542
  939MPD2    C513733   0.607   2.803   1.340 -0.4137  0.4263  0.0654
  939MPD2     H13734   0.929   2.997   1.284  0.0244 -1.3673 -1.2908
  939MPD2    H113735   0.620   2.737   1.141  0.0273 -1.9981  0.9960
  939MPD2    H213736   0.597   2.886   1.533 -1.5644 -1.2880 -0.2870
  939MPD2    H313737   0.516   2.746   1.359 -1.5562  2.1062 -0.3571
  939MPD2     N13738   0.848   2.901   1.080  1.0132 -0.0745 -0.5060
  939MPD2    H513739   0.922   2.969   1.086 -0.5905  1.4915  1.3290
  939MPD2    N113740   0.815   3.022   1.549 -0.4258 -0.0292  0.0037
  939MPD2    H713741   0.752   3.019   1.628 -0.0183  0.1622  0.3345
  940MPD2     C13742   4.217   3.783  13.208 -0.0614 -0.6267  0.5357
  940MPD2    C113743   4.345   3.808  13.257  0.0808  0.5207  0.1169
  940MPD2    C213744   4.447   3.739  13.208  0.4096  0.1070  0.2117
  940MPD2    C313745   4.439   3.659  13.092  0.4891  0.2265 -0.2282
  940MPD2    C413746   4.318   3.653  13.027 -0.7089  0.2510 -0.1297
  940MPD2    C513747   4.207   3.706  13.092  0.1899 -0.0146 -0.6554
  940MPD2     H13748   4.541   3.753  13.258  0.1475  1.2788  0.3668
  940MPD2    H113749   4.298   3.597  12.936 -0.3561 -0.0024 -0.0500
  940MPD2    H213750   4.132   3.832  13.253 -0.4969  1.1026 -2.2221
  940MPD2    H313751   4.108   3.701  13.049  0.1151 -0.9462 -0.3616
  940MPD2     N13752   4.536   3.563  13.050 -0.4813 -0.2007  0.1768
  940MPD2    H513753   4.515   3.508  12.967 -1.0834  1.3942 -0.7331
  940MPD2    N113754   4.376   3.871  13.382  0.3582 -0.0542 -0.3174
  940MPD2    H713755   4.473   3.865  13.413  0.0318  1.5093  1.0686
  941MPD2     C13756   3.613   1.157   9.134 -0.0378  0.8438  0.0668
  941MPD2    C113757   3.694   1.138   9.238  0.4846  0.1870 -1.2488
  941MPD2    C213758   3.686   1.016   9.313  0.6369 -0.5829  0.1267
  941MPD2    C313759   3.583   0.929   9.290  1.1698  0.2180 -0.2925
  941MPD2    C413760   3.498   0.957   9.189 -0.8343 -0.3196  0.7443
  941MPD2    C513761   3.505   1.071   9.114  0.0480 -0.1624  0.3642
  941MPD2     H13762   3.763   1.004   9.389  0.7350  2.3419  0.4823
  941MPD2    H113763   3.410   0.898   9.164 -1.4209  0.9001 -0.0624
  941MPD2    H213764   3.639   1.237   9.066 -0.2776  1.2484  0.4493
  941MPD2    H313765   3.427   1.087   9.040  1.5016  0.1585 -1.1065
  941MPD2     N13766   3.553   0.816   9.368  0.3886  0.6833  0.0750
  941MPD2    H513767   3.468   0.764   9.349 -0.0891  0.9759  1.3929
  941MPD2    N113768   3.782   1.241   9.285  0.5036 -0.3215  0.0798
  941MPD2    H713769   3.852   1.201   9.346 -0.5116  1.3970  2.3583
  942MPD2     C13770   2.176   2.505   9.306  0.1127 -0.0560  0.5754
  942MPD2    C113771   2.201   2.639   9.312  0.2646  0.6452 -0.6521
  942MPD2    C213772   2.333   2.678   9.322 -0.2062 -0.0409  0.0947
  942MPD2    C313773   2.433   2.582   9.330  0.0931  0.2194  0.0530
  942MPD2    C413774   2.404   2.443   9.316  0.0356 -0.0507  0.4736
  942MPD2    C513775   2.274   2.408   9.304 -0.2008  0.3242 -0.2036
  942MPD2     H13776   2.364   2.781   9.335  1.0696 -0.3505 -0.4130
  942MPD2    H113777   2.488   2.376   9.304  0.4291  0.7203 -1.0918
  942MPD2    H213778   2.073   2.478   9.282  0.4047 -1.1381  0.5473
  942MPD2    H313779   2.250   2.310   9.264 -0.3468  0.5246 -0.6080
  942MPD2     N13780   2.576   2.614   9.336  0.1630  0.7649 -0.3102
  942MPD2    H513781   2.640   2.536   9.323 -1.1083 -0.6134  1.5044
  942MPD2    N113782   2.106   2.738   9.300 -0.2248  0.1710  0.1083
  942MPD2    H713783   2.133   2.832   9.271  2.6306 -0.8628 -0.6206
  943MPD2     C13784   2.266   1.813   9.765 -0.6242  0.6338  0.0733
  943MPD2    C113785   2.392   1.835   9.733 -0.3171  0.0485  0.8350
  943MPD2    C213786   2.424   1.861   9.602 -0.2666 -0.1372  0.4702
  943MPD2    C313787   2.321   1.863   9.510  0.0983 -0.1960 -0.1346
  943MPD2    C413788   2.189   1.845   9.550  0.0729  0.2613  0.0241
  943MPD2    C513789   2.164   1.817   9.677 -0.4257  0.4131 -0.2666
  943MPD2     H13790   2.524   1.871   9.560 -0.4239 -1.9727 -0.3649
  943MPD2    H113791   2.111   1.864   9.476  2.8284  0.6657 -2.7778
  943MPD2    H213792   2.244   1.784   9.867 -1.6149 -1.8267 -0.8316
  943MPD2    H313793   2.060   1.797   9.700 -0.5312  0.0561 -1.0506
  943MPD2     N13794   2.335   1.865   9.368  0.9414 -0.3168 -0.3693
  943MPD2    H513795   2.244   1.852   9.324  0.6683  1.1726 -0.2488
  943MPD2    N113796   2.484   1.809   9.832 -0.2134  0.0144 -0.2168
  943MPD2    H713797   2.448   1.784   9.924 -0.8450  0.7475 -0.2713
  944MPD2     C13798   2.254   0.664  11.930  0.8819  0.0129  0.7618
  944MPD2    C113799   2.239   0.721  11.805  0.1631 -0.6549  0.2393
  944MPD2    C213800   2.257   0.859  11.792 -0.3158 -0.0371 -0.1620
  944MPD2    C313801   2.280   0.940  11.904  0.3626  0.0742 -0.3572
  944MPD2    C413802   2.277   0.887  12.029 -0.4386 -0.5190 -0.1053
  944MPD2    C513803   2.266   0.751  12.038 -0.0114  0.5618  0.4485
  944MPD2     H13804   2.269   0.909  11.697 -2.8174  0.0621 -0.4033
  944MPD2    H113805   2.277   0.948  12.119  1.7728  1.4332 -1.4469
  944MPD2    H213806   2.244   0.558  11.948 -0.8693  0.0100 -0.1905
  944MPD2    H313807   2.267   0.710  12.139  1.0121 -3.8436 -1.3490
  944MPD2     N13808   2.312   1.075  11.871 -0.0512  0.5544 -0.3870
  944MPD2    H513809   2.290   1.105  11.777 -2.2980 -0.2666 -0.1317
  944MPD2    N113810   2.237   0.631  11.699 -0.4026  0.1667 -0.3644
  944MPD2    H713811   2.266   0.536  11.721  0.4194  0.8274  1.4249
    1TCq1    O113812   0.266   2.544  14.190 -0.0411 -0.0766 -0.7321
    1TCq1    C113813   0.338   2.523  14.299  0.0742  0.6507  0.5049
    1TCq1    O213814   0.430   2.443  14.318 -0.3839 -0.2700  0.2540
    1TCq1    C213815   0.288   2.620  14.388 -0.6936  0.5436  0.6272
    1TCq1    C313816   0.157   2.661  14.388  0.2493 -0.0957  0.0161
    1TCq1    C413817   0.120   2.770  14.463  0.2478  0.4206  0.2781
    1TCq1    C513818   0.199   2.826  14.558  0.1506 -0.2697  0.2671
    1TCq1    C613819   0.327   2.771  14.565 -0.1312 -0.0283 -0.1042
    1TCq1    C713820   0.370   2.664  14.483  0.1189  0.2466 -0.3943
    1TCq1    C813821   0.430   2.857  14.616 -0.7272 -0.1655  0.3090
    1TCq1    O413822   0.525   2.820  14.681 -0.2792 -0.4210  0.3944
    1TCq1    C913823   4.712   2.828  14.441  0.5044 -0.5398 -0.1174
    1TCq1    O513824   4.639   2.794  14.348 -0.3841  0.0048 -0.6487
    1TCq1    O613825   4.682   2.927  14.520  0.4786  0.1244 -0.5686
    1TCq1    H113826   0.204   2.617  14.211 -1.2343 -1.5012  0.7018
    1TCq1    H213827   0.082   2.607  14.332 -0.3059 -0.3950  1.0385
    1TCq1    H313828   0.168   2.916  14.610  1.2553 -0.3219  1.0081
    1TCq1    H413829   0.469   2.620  14.484 -0.4503 -1.0544 -1.7094
    2MPD2     C13830   0.579   3.349  14.623 -0.6447  0.3168 -0.0091
    2MPD2    C113831   0.479   3.331  14.533  0.1755  0.4391 -0.2497
    2MPD2    C213832   0.417   3.207  14.526 -0.0110  0.3031  0.4050
    2MPD2    C313833   0.457   3.101  14.603  0.2578 -0.3212  0.8384
    2MPD2    C413834   0.567   3.117  14.690  0.3090 -0.3448 -0.7823
    2MPD2    C513835   0.625   3.242  14.696 -0.0598 -0.4570  0.1866
    2MPD2     H13836   0.347   3.188  14.445  0.9872 -2.3172  0.1638
    2MPD2    H113837   0.606   3.038  14.753 -0.0716 -1.2381 -1.6745
    2MPD2    H213838   0.637   3.440  14.627  0.4648 -0.3049 -2.4570
    2MPD2    H313839   0.716   3.258  14.752  0.1475 -1.9867  0.3003
    2MPD2     N13840   0.393   2.985  14.581 -0.3674  0.2176  0.2781
    2MPD2    H513841   0.323   2.990  14.508 -0.8409 -1.1971  0.6395
    2MPD2    N113842   0.455   3.437  14.437  1.1559  0.0605 -0.4206
    2MPD2    H713843   0.513   3.521  14.440 -0.3247  1.0703 -0.0821
    3TMC2    C113844   0.374   3.538  14.241 -0.1658 -0.1552 -0.2790
    3TMC2    C213845   0.355   3.660  14.301  0.4524 -0.0626  0.3984
    3TMC2    C313846   0.332   3.768  14.221 -0.1247  1.5335 -0.2298
    3TMC2    C413847   0.350   3.519  14.112  0.1865  0.1584 -0.3180
    3TMC2    C513848   0.318   3.623  14.034  0.4035 -0.9837 -0.3288
    3TMC2    C613849   0.308   3.751  14.083  0.5015  0.3880 -0.1806
    3TMC2     C13850   0.369   3.421  14.327 -0.9411  0.7156 -0.7771
    3TMC2     O13851   0.292   3.330  14.294 -0.5031  0.0684 -0.6430
    3TMC2     H13852   0.376   3.681  14.405  1.9638 -1.2931  0.3566
    3TMC2    H113853   0.354   3.419  14.071 -0.0878  0.9748 -2.2987
    3TMC2    H213854   0.280   3.837  14.024 -1.9155  1.2806  2.2871
    3TMC2    C713855   0.276   3.594  13.897 -0.0105 -0.1469  0.1291
    3TMC2    C813856   0.388   3.889  14.268  0.6582 -0.3232  0.1427
    3TMC2    O113857   0.229   3.486  13.876  0.0850 -0.0854 -0.1397
    3TMC2    O213858   0.397   3.918  14.385 -0.1546 -0.4672 -0.9908
    3TMC2    O513859   0.444   3.958  14.176  0.1915 -0.5050  0.6803
    3TMC2    H513860   0.448   3.913  14.088 -0.8843  2.0296 -0.6644
    4MPD2     C13861   0.363   3.957  12.518 -0.1647 -0.5092 -0.4955
    4MPD2    C113862   0.242   3.968  12.582  0.4477 -0.5943  0.4230
    4MPD2    C213863   0.240   3.996  12.718  0.8289 -0.2305  0.7988
    4MPD2    C313864   0.359   4.006  12.786 -0.2450  0.2130 -0.8037
    4MPD2    C413865   0.479   3.974  12.730 -0.6040 -0.0457 -0.6663
    4MPD2    C513866   0.477   3.952  12.593 -0.1963  0.4511 -0.3518
    4MPD2     H13867   0.143   4.025  12.757 -0.7232 -3.3537 -0.7577
    4MPD2    H113868   0.570   3.969  12.789 -2.1324  1.8781  1.8773
    4MPD2    H213869   0.375   3.947  12.411  0.0186  0.1444 -0.5368
    4MPD2    H313870   0.574   3.947  12.546  0.5071  0.1319  1.1541
    4MPD2     N13871   0.348   4.066  12.917 -0.9643 -0.3053 -0.1886
    4MPD2    H513872   0.256   4.050  12.958 -0.1200 -2.0614  0.9936
    4MPD2    N113873   0.133   3.971  12.494 -0.1362 -0.7286  0.7095
    4MPD2    H713874   0.157   3.951  12.398  0.7681 -2.1673  1.2393
    5TCq2    C113875   0.453   4.130  12.987  0.2819 -0.3032 -0.0583
    5TCq2    O213876   0.567   4.148  12.947  0.0639  0.1669  0.1687
    5TCq2    C213877   0.420   4.186  13.113  0.1257  0.1761 -0.4850
    5TCq2    C313878   0.507   4.287  13.144  0.3322  0.2768 -0.1424
    5TCq2    C413879   0.527   4.320  13.275  0.3374 -0.5113 -0.4286
    5TCq2    C513880   0.470   4.237  13.371 -0.3943  0.1930 -0.5624
    5TCq2    C613881   0.400   4.127  13.341 -0.3879 -0.1194  0.1325
    5TCq2    C713882   0.381   4.097  13.210 -0.8931  0.4416 -0.0218
    5TCq2    C813883   0.404   4.023  13.433  0.0673  0.5427 -0.6681
    5TCq2    O413884   0.461   4.052  13.535  0.3669  0.0475  0.0843
    5TCq2    C913885   0.605   4.433  13.314 -0.1402 -0.6861  0.4073
    5TCq2    O513886   0.663   4.493  13.226  0.4119  0.9474  0.0276
    5TCq2    O613887   0.594   4.475  13.434  0.6337 -0.0469  0.1194
    5TCq2    H213888   0.558   4.348  13.071  1.1740 -0.5360 -0.2236
    5TCq2    H313889   0.507   4.259  13.471  1.6112 -3.6279 -0.4472
    5TCq2    H413890   0.306   4.028  13.174 -0.1221 -0.6612  0.4579
    6MPD1     C13891   3.968   0.645  11.609 -1.2650 -0.1764 -0.7165
    6MPD1    C113892   4.089   0.608  11.554 -0.6884  0.1035 -0.4948
    6MPD1    C213893   4.155   0.497  11.598 -0.4462  0.0243 -0.0011
    6MPD1    C313894   4.097   0.412  11.692  0.3589  0.0026  0.0097
    6MPD1    C413895   3.975   0.447  11.738  0.8649  0.1303 -1.2814
    6MPD1    C513896   3.912   0.562  11.704 -0.5077  0.6273 -0.1985
    6MPD1     H13897   4.251   0.475  11.554 -0.3668  0.1014  0.1320
    6MPD1    H113898   3.926   0.386  11.813 -1.8246  1.3376 -2.0511
    6MPD1    H213899   3.911   0.736  11.598  0.8972  1.5205  2.0041
    6MPD1    H313900   3.828   0.581  11.770 -1.0325  2.2912 -1.3516
    6MPD1     N13901   4.151   0.289  11.744  0.4299 -0.6506  0.0240
    6MPD1    H513902   4.111   0.243  11.825  3.1288 -3.3408 -0.1591
    6MPD1    N113903   4.146   0.703  11.464 -0.0063 -0.1617  0.0439
    6MPD1    H613904   4.088   0.760  11.403 -3.0736 -1.3899  1.7889
    6MPD1    H713905   4.222   0.670  11.405  0.5877  2.3843 -0.6243
    7MPD2     C13906   4.015   4.324  12.136  0.3026  0.1256 -0.2289
    7MPD2    C113907   4.133   4.310  12.053 -0.7765 -0.2124 -0.0373
    7MPD2    C213908   4.217   4.203  12.069  0.1545 -0.1102 -0.9205
    7MPD2    C313909   4.194   4.108  12.165 -0.0401  0.0303  0.4554
    7MPD2    C413910   4.083   4.126  12.248  0.6926 -0.3243 -0.3559
    7MPD2    C513911   4.000   4.233  12.238 -0.3461  0.1447  0.2640
    7MPD2     H13912   4.305   4.192  12.007  1.7426 -1.8266  1.6218
    7MPD2    H113913   4.045   4.052  12.318  0.2598 -1.5635 -1.8738
    7MPD2    H213914   3.947   4.408  12.137 -0.7485 -0.7374  1.5441
    7MPD2    H313915   3.916   4.257  12.303 -2.3513 -2.4366 -1.3889
    7MPD2     N13916   4.296   4.013  12.190  0.3622 -0.5688 -0.0579
    7MPD2    H513917   4.364   4.002  12.115  2.3484  1.7301  1.3870
    7MPD2    N113918   4.188   4.408  11.970 -0.2507  0.5261 -0.5105
    7MPD2    H713919   4.276   4.384  11.925 -0.0623 -1.1773  0.7318
    8TMC3    C113920   4.437   3.866  12.297  0.5861 -0.4057 -0.3569
    8TMC3    C213921   4.514   3.893  12.410 -0.2562  0.2625 -0.3083
    8TMC3    C313922   4.644   3.940  12.401 -0.3431  0.6271 -0.0423
    8TMC3    C413923   4.494   3.884  12.175  0.3136  0.3726 -0.5569
    8TMC3    C513924   4.612   3.948  12.165 -0.2948  0.3156  0.0971
    8TMC3    C613925   4.690   3.982  12.274 -0.6641  0.4635 -0.2024
    8TMC3     C13926   4.315   3.941  12.307 -0.4370 -0.2452 -0.2432
    8TMC3     O13927   4.254   3.947  12.411 -0.7367 -0.7250  0.8469
    8TMC3     H13928   4.479   3.879  12.511 -0.9139  0.3960 -0.5194
    8TMC3    H113929   4.441   3.853  12.085 -0.2467  1.3760 -0.5686
    8TMC3    H213930   0.057   4.041  12.263 -1.0563  0.2971 -4.4217
    8TMC3    C713931   4.622   4.022  12.041  0.4143  0.6120 -0.3216
    8TMC3    C813932   4.722   3.964  12.520  0.4782  0.1771  0.6153
    8TMC3    O113933   4.509   4.049  11.992  0.6709  0.4430  0.3419
    8TMC3    O213934   4.661   3.962  12.628  0.2806 -0.1953  0.1409
    9TMC3    C113935   4.283   0.097  11.753  0.4068  0.3673 -0.0136
    9TMC3    C213936   4.407   0.049  11.720  0.6033 -0.1400  0.0139
    9TMC3    C313937   4.450   4.650  11.773 -0.4368 -0.6843 -0.5528
    9TMC3    C413938   4.191   0.027  11.833 -0.0064  0.5585  0.4759
    9TMC3    C513939   4.234   4.632  11.891 -0.0810 -0.5346 -0.1706
    9TMC3    C613940   4.363   4.582  11.858 -0.3225 -0.3604  0.3714
    9TMC3     C13941   4.260   0.225  11.695 -0.2610  0.4022 -0.2642
    9TMC3     O13942   4.325   0.250  11.595 -0.6260  0.6384 -0.5422
    9TMC3     H13943   4.485   0.105  11.671  0.2111 -0.6375 -1.1893
    9TMC3    H113944   4.096   0.067  11.867 -1.3512 -1.0309 -1.4045
    9TMC3    H213945   4.399   4.495  11.910  1.0962  1.6512  2.7400
    9TMC3    C713946   4.140   4.537  11.961 -0.0472  0.6621 -0.0390
    9TMC3    C813947   4.585   4.599  11.746 -0.3340  0.1586  0.0910
    9TMC3    O113948   4.041   4.591  12.006 -0.1639  0.2490  0.2154
    9TMC3    O213949   4.673   4.682  11.715 -0.0052 -0.1259  0.2460
   10MPD2     C13950   0.178   4.253  11.941  0.1497 -0.5646 -0.3166
   10MPD2    C113951   0.051   4.193  11.947 -0.0509 -0.1616  0.0785
   10MPD2    C213952   4.673   4.262  11.874  0.4034  0.0506  0.1492
   10MPD2    C313953   4.699   4.387  11.813 -0.0870  0.1439  0.5111
   10MPD2    C413954   0.107   4.442  11.816 -0.3163 -0.0247 -0.0221
   10MPD2    C513955   0.207   4.375  11.876 -0.2078 -0.8342  0.1528
   10MPD2     H13956   4.571   4.225  11.881 -0.6055  2.6303 -0.7644
   10MPD2    H113957   0.114   4.547  11.787 -0.6268  0.3509  1.2503
   10MPD2    H213958   0.263   4.212  11.993 -1.4467 -1.2764  1.7542
   10MPD2    H313959   0.303   4.425  11.888 -0.4416 -0.0299 -1.2243
   10MPD2     N13960   4.587   4.468  11.775  0.4145  0.0012 -0.3040
   10MPD2    H513961   4.498   4.419  11.777  0.6360 -0.3388  1.1033
   10MPD2    N113962   0.020   4.085  12.030 -0.6065 -0.6697 -0.1634
   10MPD2    H713963   0.095   4.046  12.086 -0.5284 -0.0666  0.1543
   11MPD2     C13964   0.205   3.589  13.606 -0.1717 -0.2058 -0.3539
   11MPD2    C113965   0.283   3.685  13.671 -0.0155 -0.0480 -0.2407
   11MPD2    C213966   0.329   3.789  13.596 -0.4621 -0.0461 -0.0124
   11MPD2    C313967   0.319   3.793  13.459 -0.1992 -0.3421  0.2922
   11MPD2    C413968   0.257   3.692  13.393 -0.0357 -0.1688 -0.0681
   11MPD2    C513969   0.203   3.585  13.470  0.6454  0.2048 -0.4325
   11MPD2     H13970   0.373   3.868  13.655 -2.5399 -1.4223  3.3765
   11MPD2    H113971   0.248   3.686  13.285 -1.9680 -0.4175  0.1053
   11MPD2    H213972   0.162   3.502  13.654  0.2238 -1.4639 -2.2652
   11MPD2    H313973   0.148   3.505  13.421 -3.7474  2.4893  0.7392
   11MPD2     N13974   0.352   3.910  13.386  0.7856 -0.5400 -0.1614
   11MPD2    H513975   0.328   3.910  13.287 -1.9492  1.3821  0.5089
   11MPD2    N113976   0.309   3.696  13.808  0.0298  0.2710 -0.6877
   11MPD2    H713977   0.364   3.776  13.838 -1.0100  0.2442  1.3137
    1MPD1     C13978   2.757   0.964  16.982  0.0080  0.3990 -0.1138
    1MPD1    C113979   2.846   0.933  16.887  0.0185  0.2196  0.1982
    1MPD1    C213980   2.930   0.824  16.907  0.3359  0.1611 -0.0290
    1MPD1    C313981   2.900   0.735  17.011 -0.3773  0.3136  0.4157
    1MPD1    C413982   2.788   0.758  17.088 -0.0779  0.5326 -0.4291
    1MPD1    C513983   2.721   0.872  17.082  0.1331  0.3037 -1.3636
    1MPD1     H13984   3.006   0.808  16.831 -0.3621 -1.4039 -0.3925
    1MPD1    H113985   2.758   0.692  17.169 -0.5141  0.3393 -0.7487
    1MPD1    H213986   2.693   1.050  16.967 -1.1059 -0.5398 -0.8326
    1MPD1    H313987   2.648   0.896  17.158  2.0016 -0.3057  0.6142
    1MPD1     N13988   2.965   0.610  17.023 -0.5417  0.0280 -0.0482
    1MPD1    H513989   2.921   0.542  17.085  0.2840  2.9391  3.7264
    1MPD1    N113990   2.862   1.022  16.783  0.0140 -0.1822  0.1498
    1MPD1    H613991   2.774   1.022  16.732  0.8136  0.3713 -1.2209
    1MPD1    H713992   2.922   0.981  16.712  0.6462  1.5603 -0.3257
    2MPD1     C13993   3.839   0.183  16.856 -0.6116  0.6919 -1.2281
    2MPD1    C113994   3.792   0.313  16.851  0.6737 -0.6538 -0.1346
    2MPD1    C213995   3.656   0.334  16.842  0.6303  0.1457  0.0168
    2MPD1    C313996   3.569   0.227  16.855  0.1014  0.8287  0.1105
    2MPD1    C413997   3.623   0.100  16.882  0.5498 -0.2818  0.0907
    2MPD1    C513998   3.756   0.076  16.862  0.1493  0.1780  0.4032
    2MPD1     H13999   3.630   0.438  16.834  4.4338  1.1190  0.4880
    2MPD1    H114000   3.557   0.019  16.912  1.0354 -0.8484 -0.3375
    2MPD1    H214001   3.947   0.170  16.853 -0.5277  0.7267  1.0598
    2MPD1    H314002   3.804   4.704  16.880  1.1006  0.4206 -0.8607
    2MPD1     N14003   3.434   0.260  16.856 -0.3794 -0.5657  0.5445
    2MPD1    H514004   3.410   0.359  16.859  0.9860 -0.2813  2.4155
    2MPD1    N114005   3.883   0.422  16.828  0.0649 -0.3552 -0.0267
    2MPD1    H614006   3.965   0.433  16.886 -0.2431 -3.4780  0.9561
    2MPD1    H714007   3.837   0.513  16.836  1.3504  0.3187 -0.3628
    3TMC3    C114008   3.197   0.233  16.863  0.8803 -0.6609  0.1415
    3TMC3    C214009   3.092   0.152  16.876 -0.2846  1.3541  0.1107
    3TMC3    C314010   2.975   0.205  16.914  0.1886 -0.7487 -0.2769
    3TMC3    C414011   3.189   0.367  16.893 -0.3153  0.0084 -0.2352
    3TMC3    C514012   3.068   0.418  16.924 -0.3706  0.2348 -0.5084
    3TMC3    C614013   2.953   0.342  16.934  0.2386  0.3300  0.2891
    3TMC3     C14014   3.329   0.172  16.847  0.4491 -0.3515 -0.6308
    3TMC3     O14015   3.327   0.046  16.840 -0.6217  0.0047 -0.0342
    3TMC3     H14016   3.106   0.045  16.870 -0.0432  1.4512 -1.1218
    3TMC3    H114017   3.270   0.438  16.879 -0.5108  0.2033 -0.3769
    3TMC3    H214018   2.857   0.384  16.960 -0.4357  1.8153 -4.5383
    3TMC3    C714019   3.063   0.564  16.934 -0.7330  0.4352  0.0483
    3TMC3    C814020   2.852   0.142  16.870 -1.0812 -0.2652  0.7052
    3TMC3    O114021   3.144   0.625  16.862 -0.0258 -0.1503  0.3598
    3TMC3    O214022   2.750   0.160  16.934  0.2728 -0.7797 -0.0511
    4MPD1     C14023   2.559   4.645  16.519 -0.8282 -0.4067 -0.1839
    4MPD1    C114024   2.685   4.619  16.480 -0.9835 -0.2689  0.4207
    4MPD1    C214025   2.784   4.674  16.560  0.0548 -0.3383  0.3418
    4MPD1    C314026   2.756   0.025  16.672 -0.7692  0.5703 -0.4372
    4MPD1    C414027   2.624   0.039  16.714 -0.7738 -0.4089  0.1905
    4MPD1    C514028   2.525   4.716  16.630 -0.2299  0.3992  0.3547
    4MPD1     H14029   2.888   4.662  16.530  0.1124 -1.0838  0.8405
    4MPD1    H114030   2.588   0.096  16.799 -3.1820  0.9369 -1.7289
    4MPD1    H214031   2.472   4.625  16.457  0.6172 -2.2925 -1.5960
    4MPD1    H314032   2.421   0.015  16.653 -1.0135 -2.1402 -0.6964
    4MPD1     N14033   2.865   0.073  16.750  0.4449  0.5716  0.1499
    4MPD1    H514034   2.961   0.055  16.721  0.1923 -0.1961 -0.2293
    4MPD1    N114035   2.726   4.548  16.368 -0.1872  0.3580  0.1595
    4MPD1    H614036   2.817   4.503  16.376  0.7384  2.3104  0.8514
    4MPD1    H714037   2.653   4.482  16.343  0.4436  0.6241 -2.4103
    1TCq1    O114038   3.358   4.310  11.415 -0.2053  0.3562  0.0589
    1TCq1    C114039   3.400   4.223  11.331  0.3622  0.0711  0.1378
    1TCq1    O214040   3.360   4.110  11.323 -0.5775 -0.7097 -0.0897
    1TCq1    C214041   3.537   4.261  11.309  0.6100 -0.5170  0.6677
    1TCq1    C314042   3.629   4.168  11.337  0.8237 -0.0755  0.0734
    1TCq1    C414043   3.764   4.203  11.342  0.8105 -0.6634 -0.0980
    1TCq1    C514044   3.805   4.329  11.294  0.2238  0.1980  0.4313
    1TCq1    C614045   3.710   4.429  11.271 -0.5158  0.4421 -0.1092
    1TCq1    C714046   3.572   4.394  11.282  0.0325 -0.0380 -0.0682
    1TCq1    C814047   3.755   4.557  11.215  0.2415 -0.5515  0.2453
    1TCq1    O414048   3.866   4.571  11.164  0.0868  0.3354 -0.6954
    1TCq1    C914049   3.855   4.098  11.335 -0.1558  0.3317 -0.3320
    1TCq1    O514050   3.980   4.130  11.332  0.1383 -0.0253 -0.3560
    1TCq1    O614051   3.807   3.986  11.358 -0.4593 -0.2460  0.4077
    1TCq1    H114052   3.400   4.398  11.407  0.8509 -0.2748 -1.3838
    1TCq1    H214053   3.592   4.068  11.360 -2.7362  0.9583 -1.1772
    1TCq1    H314054   3.911   4.354  11.295  0.3261 -0.2310  0.1878
    1TCq1    H414055   3.492   4.461  11.254  0.3806 -0.1327 -1.2929
    2MPD1     C14056   3.600   0.313  11.077 -0.2184 -0.0058  0.5449
    2MPD1    C114057   3.524   0.271  11.185 -0.2423 -0.2821  0.0171
    2MPD1    C214058   3.551   0.146  11.239 -0.1031 -0.2901  0.3327
    2MPD1    C314059   3.642   0.057  11.184 -0.6725  0.2955 -1.0661
    2MPD1    C414060   3.706   0.097  11.070  0.1094  0.3133 -0.2486
    2MPD1    C514061   3.685   0.222  11.023  0.5043  0.6745 -0.0252
    2MPD1     H14062   3.503   0.118  11.332 -1.1324  0.8082  0.1222
    2MPD1    H114063   3.774   0.028  11.022 -0.6291  1.2465 -2.6260
    2MPD1    H214064   3.582   0.411  11.034 -0.2406 -0.9656 -1.6202
    2MPD1    H314065   3.733   0.247  10.929 -1.7978 -0.3782 -1.4670
    2MPD1     N14066   3.654   4.648  11.228  0.0112 -0.3043 -0.5098
    2MPD1    H514067   3.584   4.617  11.295 -0.0248  1.0763  0.0743
    2MPD1    N114068   3.450   0.377  11.255 -0.1803 -0.5681 -0.3818
    2MPD1    H614069   3.368   0.347  11.307 -0.2168 -0.7987 -0.5750
    2MPD1    H714070   3.424   0.458  11.199  1.6255  0.8118  0.7776
    1TCq1    O114071   0.769   2.526   1.390  0.0301  0.3519  0.1036
    1TCq1    C114072   0.875   2.576   1.461  0.9912 -0.2602 -0.1244
    1TCq1    O214073   0.875   2.584   1.582 -0.2262 -0.5039 -0.9166
    1TCq1    C214074   0.996   2.552   1.382 -0.5674 -0.6518  0.1475
    1TCq1    C314075   0.982   2.539   1.247 -0.3117  0.0638  0.2254
    1TCq1    C414076   1.089   2.491   1.178 -0.0804  0.1624  0.0905
    1TCq1    C514077   1.205   2.463   1.240 -0.2268  0.5764 -0.3248
    1TCq1    C614078   1.218   2.480   1.382 -0.0721  0.8398 -0.1883
    1TCq1    C714079   1.108   2.513   1.458 -0.1981  0.1406  0.1527
    1TCq1    C814080   1.339   2.434   1.459 -0.0380  0.3142  0.1169
    1TCq1    O414081   1.428   2.377   1.391 -0.4049  0.1682  0.8973
    1TCq1    C914082   1.094   2.509   1.037  0.1604 -0.0709  0.5865
    1TCq1    O514083   1.201   2.476   0.977  0.2728  0.0013 -0.4388
    1TCq1    O614084   0.986   2.507   0.977 -0.1526 -0.2295  0.0866
    1TCq1    H114085   0.797   2.475   1.312 -2.5082 -1.2139  0.2195
    1TCq1    H214086   0.903   2.598   1.201  1.4760  1.4596 -1.0445
    1TCq1    H314087   1.291   2.428   1.183 -0.3863 -0.9123  0.3422
    1TCq1    H414088   1.101   2.514   1.566 -0.2426 -2.6280  0.1742
    2MPD1     C14089   1.669   2.532   1.847 -0.9739 -0.1111 -0.5691
    2MPD1    C114090   1.549   2.592   1.869 -0.3344  0.2906 -0.4314
    2MPD1    C214091   1.446   2.585   1.776 -0.2515 -0.1922  0.8663
    2MPD1    C314092   1.457   2.509   1.663  0.3153  0.6133 -0.7857
    2MPD1    C414093   1.573   2.433   1.648 -0.0700 -0.0716  0.4655
    2MPD1    C514094   1.680   2.454   1.736  0.4890 -0.1072 -0.5334
    2MPD1     H14095   1.355   2.641   1.794 -0.2968  0.1965 -0.5567
    2MPD1    H114096   1.585   2.355   1.574 -0.5203 -0.4896  0.8405
    2MPD1    H214097   1.748   2.544   1.921 -0.4510  0.3796 -1.2069
    2MPD1    H314098   1.775   2.404   1.720  2.6649  3.7561  0.4779
    2MPD1     N14099   1.343   2.502   1.580 -1.2334 -0.4116 -0.1563
    2MPD1    H514100   1.260   2.556   1.603  0.9838  3.2026 -0.6820
    2MPD1    N114101   1.545   2.667   1.987  0.5003  0.6793 -0.3591
    2MPD1    H614102   1.456   2.678   2.033  0.9660 -2.9913  1.3906
    2MPD1    H714103   1.617   2.627   2.047  1.2927  0.2452 -1.5823
    1MPD1     C14104   1.140   3.555  12.580 -0.5500 -0.5367  0.0256
    1MPD1    C114105   1.212   3.675  12.582  0.0547 -0.0704  0.2370
    1MPD1    C214106   1.150   3.792  12.547 -0.1283 -0.4747  0.5378
    1MPD1    C314107   1.022   3.778  12.497 -0.6152  0.9204 -0.4670
    1MPD1    C414108   0.950   3.657  12.476  0.3383 -0.5665 -0.5670
    1MPD1    C514109   1.020   3.543  12.509  0.5172 -0.1901  0.1956
    1MPD1     H14110   1.190   3.893  12.551 -1.2815 -0.0960  2.3702
    1MPD1    H114111   0.852   3.645  12.432 -0.5443  2.2511  0.6448
    1MPD1    H214112   1.183   3.464  12.621  1.2931 -0.6255 -2.0478
    1MPD1    H314113   0.974   3.445  12.513 -0.7876  0.4138 -0.0908
    1MPD1     N14114   0.969   3.903  12.476 -0.4718  0.0635  0.3255
    1MPD1    H514115   1.027   3.979  12.509  0.3806 -0.0511 -0.8987
    1MPD1    N114116   1.330   3.688  12.663  0.4475  0.2263 -0.3567
    1MPD1    H614117   1.367   3.595  12.685  0.7030  0.4379  0.1106
    1MPD1    H714118   1.399   3.756  12.634  0.1454  0.8067  0.2813
    2MPD1     C14119   0.940   0.529  10.494 -0.4902 -0.0615 -0.1710
    2MPD1    C114120   0.959   0.492  10.627 -0.0639 -0.1372 -0.4440
    2MPD1    C214121   0.959   0.358  10.660 -0.1298  0.0721  0.2214
    2MPD1    C314122   0.930   0.262  10.569 -0.3464  0.0096  0.0180
    2MPD1    C414123   0.899   0.300  10.449 -0.8788  0.3077  0.4224
    2MPD1    C514124   0.912   0.427  10.404 -0.3417 -0.3534 -0.3996
    2MPD1     H14125   0.989   0.329  10.760  1.0150 -0.2178 -0.2049
    2MPD1    H114126   0.881   0.222  10.375  0.7237  0.5532 -0.2241
    2MPD1    H214127   0.954   0.631  10.459 -1.4726  0.9632  2.4035
    2MPD1    H314128   0.898   0.450  10.300  0.7784 -0.0608 -0.4876
    2MPD1     N14129   0.932   0.126  10.617  0.4520 -0.7159 -0.0793
    2MPD1    H514130   0.955   0.115  10.715 -0.5009 -1.5742  0.0475
    2MPD1    N114131   1.011   0.587  10.723 -0.3519 -0.0393  0.5698
    2MPD1    H614132   0.980   0.680  10.695 -0.9184 -0.5293 -0.4221
    2MPD1    H714133   0.981   0.565  10.817 -0.2886 -1.1481  0.3318
    3MPD1     C14134   0.285   4.134  10.425 -0.4531 -0.6911 -0.2064
    3MPD1    C114135   0.350   4.219  10.332  0.0600  0.1241  0.2197
    3MPD1    C214136   0.470   4.268  10.374 -0.2451  0.9579  0.3139
    3MPD1    C314137   0.526   4.251  10.504  0.2054  0.3817  0.8017
    3MPD1    C414138   0.454   4.171  10.592  0.5624 -0.3539  0.0795
    3MPD1    C514139   0.335   4.119  10.550  0.3574  0.3704 -0.0013
    3MPD1     H14140   0.533   4.316  10.300  0.8654  0.8022  1.1750
    3MPD1    H114141   0.491   4.150  10.692  1.9245  0.6174 -0.2178
    3MPD1    H214142   0.197   4.078  10.395 -1.0140 -0.1623  0.4675
    3MPD1    H314143   0.271   4.070  10.622  1.1618 -1.2050 -0.3560
    3MPD1     N14144   0.651   4.309  10.531 -0.1687 -0.2376 -0.1853
    3MPD1    H514145   0.702   4.354  10.456 -0.1816  1.0521  0.5789
    3MPD1    N114146   0.318   4.225  10.196 -0.1650 -0.0072  0.0621
    3MPD1    H614147   0.352   4.313  10.157 -1.6012  1.9834  3.2608
    3MPD1    H714148   0.217   4.223  10.182 -0.2173 -1.3335  0.6667
    4MPD2     C14149   0.590   4.350  11.937  0.5641 -0.0288  0.1852
    4MPD2    C114150   0.681   4.402  12.024  0.5355  0.6930 -0.6409
    4MPD2    C214151   0.792   4.474  11.969 -0.2074  0.1852  0.2818
    4MPD2    C314152   0.806   4.487  11.833 -0.2534  0.0851  0.0037
    4MPD2    C414153   0.713   4.430  11.748  0.1581 -0.0365 -0.2056
    4MPD2    C514154   0.609   4.367  11.805 -0.5999 -0.0316 -0.8473
    4MPD2     H14155   0.863   4.511  12.042  1.2875 -1.2524 -0.4364
    4MPD2    H114156   0.712   4.430  11.639  2.7080 -1.3188 -0.2177
    4MPD2    H214157   0.502   4.290  11.958  1.8108 -1.9015 -0.0140
    4MPD2    H314158   0.534   4.309  11.751 -0.3935 -1.5900  0.5246
    4MPD2     N14159   0.920   4.552  11.771 -0.5352 -0.0361  0.7649
    4MPD2    H514160   0.917   4.574  11.672 -0.4839  1.1187  1.0154
    4MPD2    N114161   0.680   4.372  12.160 -0.9716  0.1018  0.4824
    4MPD2    H714162   0.755   4.410  12.216 -0.8402  1.1263 -0.3968
    5TMC3    C114163   0.661   4.233  12.347  0.3847  0.3926 -0.3633
    5TMC3    C214164   0.700   4.097  12.356 -0.0613 -0.0095  0.1133
    5TMC3    C314165   0.817   4.070  12.417  0.2099  0.2433  0.6323
    5TMC3    C414166   0.738   4.329  12.405 -0.6803  0.0062 -0.3031
    5TMC3    C514167   0.865   4.306  12.454 -0.3627  0.9038  0.5023
    5TMC3    C614168   0.909   4.171  12.461  0.3734  0.9473  0.2928
    5TMC3     C14169   0.608   4.273  12.217 -0.7823 -0.1147 -0.3322
    5TMC3     O14170   0.520   4.198  12.180 -0.2695 -0.7746 -0.2641
    5TMC3     H14171   0.651   4.016  12.303 -2.8041  2.5182 -1.2543
    5TMC3    H114172   0.712   4.433  12.389 -2.5364 -0.4255 -0.1252
    5TMC3    H214173   1.004   4.147  12.507 -0.3662 -1.3283  0.6513
    5TMC3    C714174   0.963   4.398  12.401 -0.7695 -0.5438  0.2981
    5TMC3    C814175   0.844   3.930  12.425 -0.0465 -0.7667  0.4478
    5TMC3    O114176   0.917   4.473  12.318 -0.0895 -0.1410 -0.1865
    5TMC3    O214177   0.757   3.849  12.400 -0.0384  0.6420  0.4807
    6TMC3    C114178   0.924   4.606  10.619 -0.1363  0.7122  0.1606
    6TMC3    C214179   0.845   4.503  10.577  0.1222 -0.0120  0.0749
    6TMC3    C314180   0.839   4.395  10.655 -0.2211 -0.5043  1.2198
    6TMC3    C414181   0.994   4.600  10.740  0.8570 -0.4030 -0.5813
    6TMC3    C514182   1.004   4.478  10.801 -0.2379  0.1256  0.3442
    6TMC3    C614183   0.918   4.376  10.764 -0.8204 -0.2642  0.6580
    6TMC3     C14184   0.901   0.012  10.555 -0.3991  0.0348 -0.0004
    6TMC3     O14185   0.892   4.723  10.435 -0.4840  0.1375 -0.1112
    6TMC3     H14186   0.767   4.532  10.507 -0.2762  1.5621  1.1910
    6TMC3    H114187   1.067   4.674  10.770  0.6161  0.2328 -1.5772
    6TMC3    H214188   0.903   4.288  10.825 -0.0627 -0.7859  0.0940
    6TMC3    C714189   1.063   4.473  10.930  0.3230 -0.1139 -0.3144
    6TMC3    C814190   0.708   4.321  10.653  0.0313  0.5564  0.3321
    6TMC3    O114191   1.056   4.574  11.001 -0.5140  0.4510  0.0633
    6TMC3    O214192   0.664   4.285  10.764  0.1082 -0.1949 -0.3991
    7MPD2     C14193   1.452   4.476  12.254  0.4230 -0.0841 -0.0035
    7MPD2    C114194   1.334   4.497  12.187 -0.3378  0.0738  0.1394
    7MPD2    C214195   1.212   4.470  12.250 -0.5507  0.7573 -0.1709
    7MPD2    C314196   1.210   4.412  12.375 -0.0876  0.5830  0.5345
    7MPD2    C414197   1.337   4.384  12.438 -0.3061 -0.8452  0.5463
    7MPD2    C514198   1.454   4.424  12.383 -1.0235  0.7322  0.8093
    7MPD2     H14199   1.118   4.488  12.199 -1.2254 -0.5910  0.5998
    7MPD2    H114200   1.330   4.350  12.540 -1.8259  0.5866  0.9141
    7MPD2    H214201   1.549   4.508  12.217  1.3163 -0.4426  2.0315
    7MPD2    H314202   1.551   4.402  12.427 -0.4940  1.5593  0.0621
    7MPD2     N14203   1.094   4.376  12.446  0.5980  0.0796 -0.0944
    7MPD2    H514204   1.098   4.339  12.540  1.3762 -0.7545 -0.4491
    7MPD2    N114205   1.324   4.557  12.057 -0.0366  0.7432 -0.2534
    7MPD2    H714206   1.230   4.578  12.027 -1.0014 -1.8739  0.9613
    8TMC3    C114207   1.363   4.613  11.840 -0.6449 -0.5387 -0.2806
    8TMC3    C214208   1.385   4.532  11.728 -0.0858  0.1027  0.6807
    8TMC3    C314209   1.287   4.517  11.634  0.1844 -0.8819  0.1740
    8TMC3    C414210   1.243   4.678  11.850  0.5200  0.3628  0.5803
    8TMC3    C514211   1.141   4.648  11.755 -0.0331 -0.3844 -0.0182
    8TMC3    C614212   1.163   4.572  11.642  0.3606 -0.4664 -0.6460
    8TMC3     C14213   1.417   4.565  11.964 -0.8997 -1.1322 -0.0914
    8TMC3     O14214   1.519   4.502  11.953  0.3921 -0.0720  0.2499
    8TMC3     H14215   1.478   4.476  11.723 -0.4609 -0.4151 -0.4792
    8TMC3    H114216   1.216   0.018  11.934  4.8156  0.3509  1.9799
    8TMC3    H214217   1.081   4.548  11.575 -0.3817  2.7880 -0.9435
    8TMC3    C714218   1.031   4.595  11.838  0.0140 -0.0529 -1.0940
    8TMC3    C814219   1.318   4.419  11.532  0.7748 -0.3027  0.2098
    8TMC3    O114220   1.066   4.574  11.954  0.7200  0.0489 -0.2996
    8TMC3    O214221   1.417   4.346  11.560 -1.1433 -0.1765  0.6416
    9MPD2     C14222   1.324   4.233  11.299 -0.4822 -0.5745  0.2359
    9MPD2    C114223   1.252   4.353  11.305  0.2315  0.3767 -0.4065
    9MPD2    C214224   1.185   4.400  11.193  0.9080 -0.1937 -0.5284
    9MPD2    C314225   1.180   4.318  11.076  0.1109  0.2568  0.0875
    9MPD2    C414226   1.255   4.199  11.077  0.3925 -0.1559  0.2737
    9MPD2    C514227   1.329   4.163  11.181 -0.2004  0.5236  0.5767
    9MPD2     H14228   1.132   4.494  11.199  0.2452 -0.7232  1.6966
    9MPD2    H114229   1.253   4.140  10.986  0.1323 -1.0613  0.8662
    9MPD2    H214230   1.375   4.184  11.381 -1.2040 -2.4565 -0.4445
    9MPD2    H314231   1.380   4.067  11.181 -0.2860  0.4785  0.4279
    9MPD2     N14232   1.115   4.353  10.958 -0.3064 -0.3947 -0.3022
    9MPD2    H514233   1.113   4.287  10.881 -3.6294 -1.7225  0.9264
    9MPD2    N114234   1.250   4.439  11.416 -0.2572  0.1591 -0.2628
    9MPD2    H714235   1.198   4.526  11.406  1.8030  1.1714 -2.1405
    1MPD1     C14236   1.690   3.875  16.387 -0.3553  0.4718  0.7210
    1MPD1    C114237   1.585   3.787  16.356  0.1780  0.2165  0.0798
    1MPD1    C214238   1.472   3.790  16.434 -0.0951  0.5296 -0.2458
    1MPD1    C314239   1.471   3.856  16.554 -0.0746 -0.1819  0.8345
    1MPD1    C414240   1.579   3.933  16.592 -0.1036 -0.5107 -0.0886
    1MPD1    C514241   1.690   3.935  16.507  0.1856 -0.1816  0.0828
    1MPD1     H14242   1.388   3.726  16.413 -0.0189 -0.4421  2.4161
    1MPD1    H114243   1.592   3.994  16.681  2.2544  0.3223 -1.0183
    1MPD1    H214244   1.778   3.892  16.327 -0.3520  0.0910  0.6214
    1MPD1    H314245   1.769   4.007  16.524  1.6922 -1.4163 -1.6602
    1MPD1     N14246   1.371   3.846  16.654 -0.9742 -0.7809 -0.3979
    1MPD1    H514247   1.385   3.901  16.738 -1.6844 -0.0339 -0.7688
    1MPD1    N114248   1.574   3.733  16.226 -0.0343  0.8896 -0.2987
    1MPD1    H614249   1.512   3.652  16.217 -0.2150  0.9394  0.4806
    1MPD1    H714250   1.668   3.698  16.207  0.2285 -0.0317  2.6783
    2MPD1     C14251   0.365   3.623  16.680  0.5984 -0.6596 -0.2682
    2MPD1    C114252   0.444   3.707  16.599 -0.0361 -0.0480 -0.7225
    2MPD1    C214253   0.574   3.724  16.630  0.3506  0.3864 -0.4560
    2MPD1    C314254   0.630   3.672  16.743 -0.3469  1.1462 -0.1018
    2MPD1    C414255   0.555   3.603  16.828 -0.0325 -0.1996  1.0332
    2MPD1    C514256   0.419   3.578  16.797  0.3535  0.0565 -0.6071
    2MPD1     H14257   0.644   3.768  16.560  1.2712  2.1036  1.5429
    2MPD1    H114258   0.595   3.566  16.922  2.8723 -0.1541 -0.2141
    2MPD1    H214259   0.263   3.593  16.661  0.7582 -1.3736 -0.0056
    2MPD1    H314260   0.357   3.519  16.863  1.4515 -0.2946  0.1095
    2MPD1     N14261   0.767   3.701  16.768 -0.2941 -0.0544 -0.1197
    2MPD1    H514262   0.805   3.773  16.708  1.0816 -0.2444  0.5231
    2MPD1    N114263   0.403   3.745  16.467  0.5778 -0.3470 -0.0909
    2MPD1    H614264   0.452   3.826  16.430  0.7201  0.2552  1.4020
    2MPD1    H714265   0.305   3.769  16.457  0.7097  0.1300 -0.2238
    3TCq2    C114266   0.842   3.662  16.874  1.0194 -0.7685  0.2363
    3TCq2    O214267   0.829   3.570  16.952 -0.5664 -0.5014 -0.2820
    3TCq2    C214268   0.975   3.725  16.878  0.6471  0.6684 -0.4690
    3TCq2    C314269   1.041   3.720  16.999 -0.6171 -0.0189  0.0050
    3TCq2    C414270   1.177   3.743  17.005 -0.0141  0.6952  0.2067
    3TCq2    C514271   1.248   3.766  16.885  0.6238 -0.1074  0.1855
    3TCq2    C614272   1.184   3.772  16.765 -0.2174 -0.5773 -0.4468
    3TCq2    C714273   1.047   3.750  16.760 -0.1101 -0.0631  0.4353
    3TCq2    C814274   1.261   3.763  16.641  0.2651 -0.6428  0.0375
    3TCq2    O414275   1.212   3.707  16.541  0.0496  0.2441 -0.1287
    3TCq2    C914276   1.254   3.719  17.129  0.3069 -0.4731  0.1725
    3TCq2    O514277   1.192   3.734  17.238  0.0489 -0.0690  0.2005
    3TCq2    O614278   1.381   3.709  17.121  0.3705 -0.2426 -0.5192
    3TCq2    H214279   0.988   3.704  17.092 -0.8187 -1.2301 -0.3082
    3TCq2    H314280   1.356   3.771  16.889  0.6435 -0.3346 -0.1111
    3TCq2    H414281   1.000   3.737  16.664 -0.1159 -1.4507  0.6328
    1TCq1    O114282   2.733   2.801  12.833  0.2179  0.1437  0.7452
    1TCq1    C114283   2.807   2.909  12.824 -0.1164 -0.0869  0.1083
    1TCq1    O214284   2.836   2.959  12.718 -0.2228  0.0080  0.1243
    1TCq1    C214285   2.866   2.926  12.957 -0.0581  0.1301 -0.8496
    1TCq1    C314286   2.801   2.894  13.073 -0.2140  0.1835 -0.2308
    1TCq1    C414287   2.874   2.909  13.188  0.5127 -0.0362 -0.3032
    1TCq1    C514288   3.003   2.958  13.193 -0.8235  0.0341  0.1439
    1TCq1    C614289   3.062   2.998  13.077 -0.3909  0.2651  0.2550
    1TCq1    C714290   2.990   2.987  12.960 -0.0883  0.0902  0.0754
    1TCq1    C814291   3.209   3.010  13.075  0.3304  0.1112 -0.7492
    1TCq1    O414292   3.258   3.035  12.960  0.1336  0.2627 -0.0375
    1TCq1    C914293   2.812   2.880  13.315  0.0574  0.0667 -0.6380
    1TCq1    O514294   2.871   2.928  13.415 -0.4119 -0.2262 -0.0869
    1TCq1    O614295   2.699   2.824  13.320  0.2629  0.1176  0.6638
    1TCq1    H114296   2.745   2.751  12.916 -1.6098  0.3690  1.1276
    1TCq1    H214297   2.700   2.854  13.072 -0.0138 -0.3277 -0.1655
    1TCq1    H314298   3.048   2.967  13.291  2.5216  1.6821 -1.5711
    1TCq1    H414299   3.041   3.012  12.867 -1.8239 -1.1286 -1.2025
    2MPD2     C14300   3.513   2.993  13.118  0.3101  0.0920  0.2112
    2MPD2    C114301   3.418   3.002  13.223 -0.0840  0.6142 -0.0738
    2MPD2    C214302   3.459   3.012  13.349  0.0549  0.8323  0.8310
    2MPD2    C314303   3.596   3.015  13.380  0.8106 -0.2317  0.0735
    2MPD2    C414304   3.687   3.018  13.280 -0.3020 -0.8936 -0.5948
    2MPD2    C514305   3.645   3.000  13.148 -0.8520  0.3580  0.2888
    2MPD2     H14306   3.384   3.012  13.427  2.4382  1.3291  3.1349
    2MPD2    H114307   3.794   3.035  13.284 -0.6569  1.6311 -1.6828
    2MPD2    H214308   3.483   2.990  13.014 -0.7523 -1.8458  0.5709
    2MPD2    H314309   3.728   2.992  13.080  1.5912 -1.6613  3.5107
    2MPD2     N14310   3.630   3.022  13.512  0.0760 -0.3521 -0.2506
    2MPD2    H514311   3.551   3.014  13.576  0.8485  2.3507  0.9959
    2MPD2    N114312   3.276   2.993  13.193  0.4125  0.4061 -1.1596
    2MPD2    H714313   3.221   2.986  13.278  0.4173  0.0330 -1.1869
    3TCq1    O114314   3.584   3.307  14.045  0.3467 -0.0240 -0.0287
    3TCq1    C114315   3.565   3.259  13.923  0.2801 -0.1050  0.7332
    3TCq1    O214316   3.503   3.312  13.835 -0.7571  0.2392 -0.0543
    3TCq1    C214317   3.657   3.150  13.895  0.2157  0.3754 -0.0402
    3TCq1    C314318   3.781   3.152  13.963 -0.2367 -0.2075 -0.2866
    3TCq1    C414319   3.884   3.098  13.897  0.0355 -0.1938 -0.7625
    3TCq1    C514320   3.875   3.049  13.768  0.7891 -0.2114  0.3504
    3TCq1    C614321   3.757   3.057  13.703 -0.6554 -0.0740  0.1066
    3TCq1    C714322   3.640   3.105  13.766  0.7329  1.1791  0.4178
    3TCq1    C814323   3.762   3.028  13.557 -0.1164 -0.1917 -0.0272
    3TCq1    O414324   3.868   3.030  13.501 -0.6012  0.5498 -0.2690
    3TCq1    C914325   4.012   3.096  13.959 -0.3285 -0.0566 -0.2604
    3TCq1    O514326   4.094   3.011  13.916 -0.0532 -0.3437 -0.2225
    3TCq1    O614327   4.039   3.175  14.053  0.7345 -0.1066  0.1083
    3TCq1    H114328   3.616   3.233  14.100 -0.3742 -1.5428 -1.6481
    3TCq1    H214329   3.801   3.179  14.066 -0.0889  0.8560 -0.5940
    3TCq1    H314330   3.968   3.030  13.716  0.8028 -0.7911  0.5853
    3TCq1    H414331   3.543   3.122  13.721  0.5756 -0.7619  0.0482
    1MPD2     C14332   3.633   3.936  15.051 -0.3773  0.2428  0.8274
    1MPD2    C114333   3.505   3.966  15.073 -0.2191 -0.0644  0.1688
    1MPD2    C214334   3.422   3.868  15.127 -0.3386  0.0842  0.0269
    1MPD2    C314335   3.470   3.749  15.179  1.2095 -0.5834 -0.3241
    1MPD2    C414336   3.605   3.724  15.161  0.3604 -0.2088 -0.2732
    1MPD2    C514337   3.679   3.811  15.087  0.3563 -0.5506 -0.0905
    1MPD2     H14338   3.315   3.886  15.125 -0.5825 -1.1045  3.1650
    1MPD2    H114339   3.662   3.636  15.189  0.6567  0.4509  1.1890
    1MPD2    H214340   3.698   4.009  15.004 -0.1305  0.4732  1.5268
    1MPD2    H314341   3.786   3.796  15.074  0.1326 -0.8937 -1.5093
    1MPD2     N14342   3.378   3.657  15.235  0.1344 -0.4189 -0.1010
    1MPD2    H514343   3.283   3.688  15.222  0.8230  2.5831  2.0120
    1MPD2    N114344   3.450   4.085  15.015 -0.2123  0.4627 -0.0134
    1MPD2    H714345   3.511   4.131  14.949 -0.0625 -2.7342 -2.1185
    2TMC3    C114346   3.280   4.244  14.952 -0.0537  0.7365 -0.2167
    2TMC3    C214347   3.152   4.267  14.974 -0.5474 -0.5893 -0.4220
    2TMC3    C314348   3.062   4.291  14.876 -0.8984  0.3665 -0.2266
    2TMC3    C414349   3.330   4.255  14.826  0.4714  0.5124  0.3708
    2TMC3    C514350   3.241   4.284  14.721 -0.1278 -0.6001  0.1685
    2TMC3    C614351   3.104   4.292  14.744  0.9567 -0.8038 -0.0172
    2TMC3     C14352   3.321   4.136  15.044 -0.0704  0.3999 -0.0720
    2TMC3     O14353   3.230   4.091  15.112  0.4115 -0.3878  0.8369
    2TMC3     H14354   3.115   4.269  15.076  0.8039 -0.9729  0.0725
    2TMC3    H114355   3.429   4.221  14.799  0.4159 -1.2383  2.3685
    2TMC3    H214356   3.040   4.324  14.662  1.0857 -0.7064 -0.0798
    2TMC3    C714357   3.279   4.394  14.626 -0.0124 -0.2829 -0.3015
    2TMC3    C814358   2.939   4.223  14.891  0.2290 -0.2857 -1.0046
    2TMC3    O114359   3.223   4.387  14.516  0.2152 -0.2292  0.2471
    2TMC3    O214360   2.842   4.251  14.819  0.7526  0.3123 -0.5160
    3TCq1    O114361   3.553   0.624  15.103 -0.3339 -0.4249 -0.1598
    3TCq1    C114362   3.563   0.665  14.978  0.0632  0.3302  0.0267
    3TCq1    O214363   3.496   0.747  14.918 -0.4517  0.8325 -0.2932
    3TCq1    C214364   3.672   0.582  14.924 -0.3530 -0.7429 -0.1678
    3TCq1    C314365   3.766   0.521  15.008  0.9862  0.3541  0.1650
    3TCq1    C414366   3.805   0.393  14.964 -0.0684 -0.3258 -0.5804
    3TCq1    C514367   3.754   0.336  14.851  0.1140 -0.2385 -0.7261
    3TCq1    C614368   3.678   0.407  14.768 -0.5677  0.4537  0.0502
    3TCq1    C714369   3.632   0.530  14.804  0.0963  0.2409 -0.6030
    3TCq1    C814370   3.611   0.335  14.660  0.1564 -0.4767  0.2278
    3TCq1    O414371   3.590   0.401  14.558  0.1482 -0.3046  0.2154
    3TCq1    C914372   3.873   0.301  15.054 -0.4312  0.4394 -0.6311
    3TCq1    O514373   3.920   0.355  15.156  0.2771  0.0183  0.3202
    3TCq1    O614374   3.894   0.181  15.022 -0.2586 -0.0125  0.5181
    3TCq1    H114375   3.616   0.550  15.119  0.7344 -0.3073 -3.7497
    3TCq1    H214376   3.808   0.557  15.101  0.9861 -1.3146  0.8027
    3TCq1    H314377   3.782   0.236  14.819  0.8349 -0.4992  0.6762
    3TCq1    H414378   3.571   0.589  14.737  1.0191  0.3926 -1.3061
    4MPD2     C14379   3.481   0.128  14.485  0.3701  0.0954 -0.0120
    4MPD2    C114380   3.515   0.108  14.621 -0.1508  0.1702 -0.2134
    4MPD2    C214381   3.480   4.706  14.680 -0.0133 -0.0407  0.0011
    4MPD2    C314382   3.395   4.615  14.612 -0.3726  0.0011  0.3432
    4MPD2    C414383   3.371   4.636  14.479 -0.2985 -0.5238 -0.0438
    4MPD2    C514384   3.419   0.030  14.413  0.0344 -0.3007 -0.3531
    4MPD2     H14385   3.510   4.696  14.784 -0.8770  0.2147  0.2784
    4MPD2    H114386   3.326   4.565  14.411  0.9022  0.2838 -1.7242
    4MPD2    H214387   3.521   0.215  14.435  2.6935 -2.8934 -3.3129
    4MPD2    H314388   3.396   0.050  14.309 -1.0092 -0.9236 -0.2493
    4MPD2     N14389   3.355   4.491  14.680  0.4312  0.3843  0.0951
    4MPD2    H514390   3.379   4.478  14.778 -1.9020 -1.7467  0.3960
    4MPD2    N114391   3.584   0.209  14.695  0.1708  0.4336  0.2752
    4MPD2    H714392   3.597   0.189  14.793 -1.6784 -1.6353  0.0961
    5TMC2    C114393   3.039   3.536  15.271 -0.0811 -0.5958  0.2306
    5TMC2    C214394   3.019   3.516  15.411 -0.3392  0.3892  0.1331
    5TMC2    C314395   3.122   3.492  15.494 -0.1392 -0.0913  0.2117
    5TMC2    C414396   3.167   3.519  15.232  0.6906  0.3789  0.4195
    5TMC2    C514397   3.268   3.484  15.313 -0.4917 -0.4687 -0.1082
    5TMC2    C614398   3.246   3.473  15.446 -0.1061  0.6684 -0.2631
    5TMC2     C14399   3.005   3.674  15.237  0.2331  1.0856 -0.3504
    5TMC2     O14400   3.103   3.737  15.207 -0.2532  1.2187 -0.0897
    5TMC2     H14401   2.918   3.506  15.449  0.3624  0.7336  2.1058
    5TMC2    H114402   3.192   3.521  15.127 -1.0036  0.3347  0.0113
    5TMC2    H214403   3.331   3.468  15.513 -1.1042  1.3153  1.0224
    5TMC2    C714404   3.402   3.537  15.283 -0.5084 -0.1204 -0.0407
    5TMC2    C814405   3.087   3.464  15.630  0.9587  0.6262  0.7092
    5TMC2    O114406   3.501   3.488  15.332 -0.0588 -0.3822 -0.9009
    5TMC2    O214407   2.977   3.483  15.680 -0.1201 -0.2777 -0.0321
    5TMC2    O514408   3.172   3.371  15.671  0.1095 -0.1562 -0.0110
    5TMC2    H514409   3.232   3.364  15.594 -1.2450  1.4784 -1.2204
    6MPD2     C14410   2.740   4.011  14.957  0.1639 -0.1030  0.2078
    6MPD2    C114411   2.867   4.021  15.013  0.0153  0.0164 -0.3973
    6MPD2    C214412   2.915   3.918  15.096  0.6806  0.7438 -0.0588
    6MPD2    C314413   2.833   3.812  15.121  0.3597  0.1788 -0.3059
    6MPD2    C414414   2.702   3.810  15.080  0.5352 -0.3423  0.3696
    6MPD2    C514415   2.659   3.907  14.989 -0.2279 -0.0378 -0.2160
    6MPD2     H14416   3.018   3.920  15.130  1.1426 -1.5527 -1.3124
    6MPD2    H114417   2.637   3.728  15.107 -0.7126  0.2665 -0.8462
    6MPD2    H214418   2.701   4.074  14.878 -1.9117  0.1657  1.4295
    6MPD2    H314419   2.562   3.877  14.950 -0.4689 -0.0365  0.3902
    6MPD2     N14420   2.875   3.699  15.192 -0.1973 -0.0147 -0.1844
    6MPD2    H514421   2.805   3.637  15.230 -1.4829  1.2450 -0.5239
    6MPD2    N114422   2.959   4.121  14.979  0.3800  0.5940 -0.0732
    6MPD2    H714423   3.052   4.107  15.018 -0.0664 -0.6167  0.5599
  945NH4     N114424   1.561   3.777   8.276 -0.0132  0.1380  0.1404
  945NH4     H214425   1.608   3.783   8.184 -0.5788  1.9872 -0.0295
  945NH4     H314426   1.460   3.802   8.263 -0.7185 -2.3074  0.8448
  945NH4     H414427   1.600   3.850   8.338  0.6146 -0.6642  0.6959
  945NH4     H514428   1.575   3.682   8.316 -0.7709  0.3278  0.8759
  946SOD     NA14429   0.605   2.276   0.851  0.2359 -0.2151  0.2747
  947SOD     NA14430   4.290   3.390   2.261  0.2305  0.0103 -0.6828
  948SOD     NA14431   1.157   0.691   0.965  0.3545  0.3611  0.0153
  949SOD     NA14432   0.021   4.518  13.922 -0.3368 -0.2362 -0.1211
  950SOD     NA14433   1.059   2.442   0.793  0.6053  0.1414  0.0544
  951SOD     NA14434   1.091   1.176   2.357 -0.0034 -0.0336  0.5056
  952SOD     NA14435   2.493   3.737   8.805  0.0645  0.0343  0.2148
  953SOD     NA14436   1.847   1.592  11.448 -0.0164 -0.0436  0.4304
  954SOD     NA14437   1.634   4.660   1.715 -0.4774  0.1529 -0.3240
  955SOD     NA14438   4.128   2.552  10.838  0.5832 -0.4339 -0.1224
  956SOD     NA14439   2.624   3.369  10.360  0.4145 -0.0117  0.2078
  957SOD     NA14440   3.210   1.341   9.684 -0.0660  0.2947 -0.5452
  958SOD     NA14441   2.503   2.781  16.100  0.1451 -0.7146  0.1758
  959SOD     NA14442   2.207   2.615  10.624 -0.6229 -0.4608  0.2470
  960SOD     NA14443   3.243   2.966  10.386  0.0650 -0.0838  0.1847
  961SOD     NA14444   1.865   2.590  11.379  0.9098  0.1854 -0.2152
  962SOD     NA14445   3.708   1.086   2.677 -0.5352 -0.3014 -0.5363
  963SOD     NA14446   1.985   1.594   6.182  0.2677 -0.1090  0.6404
  964SOD     NA14447   0.206   3.533  11.192 -0.0592 -0.0877 -0.0291
  965SOD     NA14448   1.498   3.262   0.518  0.4859  0.4593  0.0103
  966SOD     NA14449   2.225   3.136   5.326 -0.0191  0.1797  0.6551
  967SOD     NA14450   3.628   2.066  11.989  0.0007 -0.2094  0.6062
  968SOD     NA14451   4.551   2.488  11.800  0.2907 -0.0846 -0.1677
  969SOD     NA14452   2.468   2.838  13.273 -0.0886 -0.2152 -0.2936
  970SOD     NA14453   3.359   1.765  10.485  0.1150  0.4225  0.4879
  971SOD     NA14454   4.307   4.137  11.133  0.5884 -0.0300 -0.0442
  972SOD     NA14455   4.265   3.110  14.058 -0.3520 -0.1667 -0.0903
  973SOD     NA14456   3.347   3.407  12.421 -0.3917 -0.2447 -0.1376
  974SOD     NA14457   3.895   1.892  11.981  0.0564  0.3966  0.4994
  975SOD     NA14458   2.917   0.216   9.866  0.4710 -0.2538  0.2747
  976SOD     NA14459   2.491   1.966  14.398 -0.2549 -0.0385  0.2673
  977SOD     NA14460   4.001   0.047  14.850  0.5465 -0.0124  0.0092
  978SOD     NA14461   4.026   2.624  11.800  0.0382  0.0693 -0.1061
  979SOD     NA14462   0.762   2.504   0.995  0.1249 -0.0286  0.0708
  980SOD     NA14463   4.470   2.946  14.405  0.1403 -0.7206 -0.0504
  981SOD     NA14464   0.978   3.446   0.600  0.4999 -0.6081  0.6303
  982SOD     NA14465   3.991   4.317   9.441 -0.0781 -0.2479  0.0707
  983SOD     NA14466   3.062   3.249   6.724 -0.3185  0.5507 -0.7112
  984SOD     NA14467   3.667   0.687   1.108 -0.3557 -0.5839  0.2855
  985SOD     NA14468   2.678   4.137  10.816 -0.2465  0.1765 -0.0420
  986SOD     NA14469   2.788   4.593  15.132  0.4168  0.1623 -0.2128
  987SOD     NA14470   4.694   0.986  16.905  0.2436 -0.3526 -0.6869
  988SOD     NA14471   0.302   1.183  16.452  0.0321  0.3686 -0.3413
  989SOD     NA14472   3.732   2.789  11.935 -0.1743  0.1121 -0.4435
  990SOD     NA14473   3.747   3.343   0.229 -0.1164  0.0354 -0.2327
  991SOD     NA14474   1.361   1.104  12.294 -0.1293  0.7121  0.0172
  992SOD     NA14475   2.873   2.006  14.251 -0.2742  0.4350  0.1013
  993SOD     NA14476   1.005   3.509  15.100  0.1108  0.3635  0.3729
  994SOD     NA14477   0.792   1.778  14.712  0.0510 -0.0513 -0.1004
  995SOD     NA14478   1.031   2.010   2.328 -0.0275  0.1850  0.6742
  996SOD     NA14479   0.764   2.275  14.106 -0.1588  0.2817  0.0880
  997SOD     NA14480   2.590   0.547   9.013  0.2212  0.0491 -0.1391
  998SOD     NA14481   2.885   0.405   0.478  0.1605  0.1246 -0.2988
  999SOD     NA14482   3.417   4.213  10.093  0.3445  0.4390  0.0358
 1000SOD     NA14483   3.692   1.898  10.403 -0.5171 -0.0965 -0.0182
 1001SOD     NA14484   0.791   4.666  13.229 -0.1222 -0.2235 -1.0163
 1002SOD     NA14485   2.046   3.985   2.357 -0.4298  0.2325 -0.4885
 1003SOD     NA14486   4.195   0.384  17.149 -0.4603 -0.8099  0.3384
 1004SOD     NA14487   4.640   3.154  14.538  0.0831 -0.0298 -0.2172
 1005SOD     NA14488   4.362   3.614  15.223  0.3529 -0.8624  0.0696
 1006SOD     NA14489   2.693   2.866  13.539 -0.6809  0.2067 -0.1829
 1007SOD     NA14490   2.821   2.441   0.204 -0.2064 -0.3128 -0.0958
 1008SOD     NA14491   0.166   0.732   3.721 -0.0497  0.2662  0.1421
 1009SOD     NA14492   4.226   2.394  11.919  0.3421 -0.1010  0.0214
 1010SOD     NA14493   3.486   3.921  12.742  0.0643  0.3463 -0.0906
 1011SOL     OW14494   2.708   4.470  14.963 -0.0070  0.1818 -0.2081
 1011SOL    HW114495   2.634   4.411  14.975 -0.6376  1.2358  1.1718
 1011SOL    HW214496   2.766   4.412  14.915 -2.7917 -1.0432 -2.1273
 1012SOL     OW14497   4.171   2.961  13.222  0.1917 -1.0638 -0.2686
 1012SOL    HW114498   4.143   3.050  13.240 -1.9676 -1.4116 -1.8010
 1012SOL    HW214499   4.137   2.900  13.288  1.1895 -0.3002  0.9454
 1013SOL     OW14500   4.436   4.132   0.095 -0.0855 -0.1730 -1.2074
 1013SOL    HW114501   4.466   4.188   0.167 -0.7682  0.4188 -1.3784
 1013SOL    HW214502   4.497   4.158   0.026 -0.0886 -0.7729 -1.4352
 1014SOL     OW14503   1.426   0.649   4.631 -0.1788 -0.2704 -0.1745
 1014SOL    HW114504   1.474   0.595   4.568 -0.8702  0.3157 -1.2003
 1014SOL    HW214505   1.448   0.739   4.606 -0.1935 -0.2209 -0.0135
 1015SOL     OW14506   0.289   2.627   8.847  0.9771  0.0874 -0.2843
 1015SOL    HW114507   0.261   2.672   8.927 -3.7617  0.0685 -1.9138
 1015SOL    HW214508   0.338   2.555   8.886 -1.3106 -1.1437  0.3295
 1016SOL     OW14509   1.129   3.349   6.078  0.3771  0.2166  0.3416
 1016SOL    HW114510   1.172   3.426   6.116  0.8367  0.0143  0.2306
 1016SOL    HW214511   1.039   3.365   6.106 -0.1773  0.9187 -1.8676
 1017SOL     OW14512   0.545   2.776  13.624  0.4447  0.0624  0.1044
 1017SOL    HW114513   0.632   2.768  13.662  0.3419 -1.5726  0.0196
 1017SOL    HW214514   0.564   2.753  13.533 -0.7730 -0.1987 -0.0834
 1018SOL     OW14515   4.133   3.647  13.688  0.1596  0.0218  0.6121
 1018SOL    HW114516   4.142   3.580  13.620  0.7143 -0.3211  1.0222
 1018SOL    HW214517   4.067   3.703  13.648  0.9764  0.0223 -0.7012
 1019SOL     OW14518   3.060   2.656   2.064 -0.7612  0.3313 -0.1087
 1019SOL    HW114519   3.097   2.598   2.130 -0.7068  2.2504  1.5675
 1019SOL    HW214520   3.017   2.711   2.130 -0.0383 -0.3638  0.9469
 1020SOL     OW14521   4.480   0.698   5.900 -0.1445  0.5256  0.4450
 1020SOL    HW114522   4.536   0.745   5.839 -1.0461  1.1540  0.1094
 1020SOL    HW214523   4.396   0.744   5.897  0.2204  1.3542  3.2354
 1021SOL     OW14524   3.720   0.972   2.870  0.4030 -0.2753  0.0065
 1021SOL    HW114525   3.675   0.888   2.858 -0.9985  0.2495  1.4603
 1021SOL    HW214526   3.709   0.977   2.965  2.3925 -0.8059  0.2656
 1022SOL     OW14527   2.699   1.473  11.822 -0.0032  0.1284 -0.0303
 1022SOL    HW114528   2.691   1.567  11.839 -1.9072 -0.1051  0.3870
 1022SOL    HW214529   2.773   1.468  11.762 -1.2035  0.0767 -1.5082
 1023SOL     OW14530   2.395   4.086   9.375  0.1701 -0.1893 -0.4710
 1023SOL    HW114531   2.464   4.020   9.387 -0.7474 -1.2770 -1.1319
 1023SOL    HW214532   2.339   4.068   9.451 -0.0987  5.4267  0.6283
 1024SOL     OW14533   0.669   3.604   7.467  0.1035 -0.2992  0.7445
 1024SOL    HW114534   0.754   3.629   7.504  0.7996 -0.3382 -0.7967
 1024SOL    HW214535   0.663   3.662   7.391  0.6118 -0.1347  0.8299
 1025SOL     OW14536   1.258   3.742   7.432 -0.2358  0.6866 -0.1736
 1025SOL    HW114537   1.270   3.727   7.526  3.8876  2.7295 -0.3897
 1025SOL    HW214538   1.293   3.665   7.387 -0.1505  1.3419 -1.2042
 1026SOL     OW14539   2.660   0.314   5.093  0.5519  0.2042  0.5827
 1026SOL    HW114540   2.749   0.323   5.128  0.6169 -1.3804  0.8544
 1026SOL    HW214541   2.624   0.242   5.146  0.8360 -1.3510 -1.3167
 1027SOL     OW14542   3.451   2.388  15.608  0.0678 -0.1188 -0.2094
 1027SOL    HW114543   3.437   2.408  15.701 -0.6310 -1.2565 -0.0739
 1027SOL    HW214544   3.397   2.459  15.573 -0.7387 -0.4616  0.3280
 1028SOL     OW14545   4.590   2.492   3.395 -0.0885 -0.1704  0.2818
 1028SOL    HW114546   4.568   2.444   3.316 -0.8246 -1.4468  1.2628
 1028SOL    HW214547   4.533   2.567   3.378  1.0896  0.5343 -0.6495
 1029SOL     OW14548   4.708   0.647   2.484  0.1265  0.4416 -0.4250
 1029SOL    HW114549   4.679   0.718   2.426  2.1219  0.2229 -1.7241
 1029SOL    HW214550   0.079   0.668   2.487  0.8055 -2.5069 -0.8140
 1030SOL     OW14551   1.438   1.014   8.757 -0.2626  0.5299 -0.0683
 1030SOL    HW114552   1.458   0.922   8.744 -2.5086 -0.0110  0.3414
 1030SOL    HW214553   1.454   1.052   8.670  0.5815 -0.3679 -0.3029
 1031SOL     OW14554   1.616   3.376  17.277 -0.1571  0.2144 -0.3092
 1031SOL    HW114555   1.613   3.447  17.341  0.8467  1.2662 -1.4182
 1031SOL    HW214556   1.565   3.416  17.207 -0.0857  3.7917  1.6901
 1032SOL     OW14557   3.768   1.141   7.540 -0.2145 -0.4343 -0.0229
 1032SOL    HW114558   3.708   1.173   7.472  0.6087 -2.0640 -1.5336
 1032SOL    HW214559   3.816   1.219   7.566  1.8886 -1.4019 -1.0318
 1033SOL     OW14560   3.446   2.004  11.883  0.2527  0.0969  0.1518
 1033SOL    HW114561   3.416   1.973  11.797 -0.4121 -3.2030  1.5517
 1033SOL    HW214562   3.370   1.991  11.941  2.9256 -1.2589  3.3091
 1034SOL     OW14563   2.531   3.384   7.580  0.0044  0.0982  0.1717
 1034SOL    HW114564   2.599   3.432   7.626 -2.6806  1.0126  3.2046
 1034SOL    HW214565   2.489   3.463   7.546  0.6699 -0.8391 -2.8073
 1035SOL     OW14566   0.226   2.278   7.960 -0.4095 -0.3511 -0.0593
 1035SOL    HW114567   0.196   2.355   8.009 -0.5606  0.3067 -1.1750
 1035SOL    HW214568   0.250   2.221   8.033  0.8612 -0.5168 -0.5989
 1036SOL     OW14569   1.882   2.748   3.817 -0.7495 -0.3967  0.3126
 1036SOL    HW114570   1.880   2.783   3.728  0.6440 -1.7254 -0.2551
 1036SOL    HW214571   1.788   2.752   3.835 -0.8512  1.6013 -0.7703
 1037SOL     OW14572   0.870   3.081   4.864  0.2185 -0.3131  0.2258
 1037SOL    HW114573   0.872   3.091   4.959  1.8230 -2.1114  0.3966
 1037SOL    HW214574   0.918   3.000   4.848  2.0767  0.9083 -0.3537
 1038SOL     OW14575   0.673   3.951   5.795 -0.4624  0.0635 -0.5370
 1038SOL    HW114576   0.664   4.035   5.748 -1.1630  1.2728  1.7757
 1038SOL    HW214577   0.753   3.919   5.753  0.0669 -1.6019  1.7436
 1039SOL     OW14578   2.736   2.518  15.518  0.4407  0.5025 -0.0866
 1039SOL    HW114579   2.761   2.544  15.429  2.2432  0.2447  0.3401
 1039SOL    HW214580   2.670   2.450  15.504  1.1875 -0.0915 -0.7435
 1040SOL     OW14581   2.893   2.492   2.929  0.2193 -0.3438  0.0516
 1040SOL    HW114582   2.846   2.537   2.859  0.5975 -0.6069 -0.3734
 1040SOL    HW214583   2.982   2.525   2.914  0.5022 -0.9116  0.4881
 1041SOL     OW14584   3.040   3.294   5.859  0.2113  0.3158 -0.0022
 1041SOL    HW114585   3.073   3.371   5.904 -1.3069  1.0795 -0.2042
 1041SOL    HW214586   3.039   3.335   5.772  1.6282 -1.3332 -0.8090
 1042SOL     OW14587   2.002   0.912  11.680 -0.3510  0.2534  0.5933
 1042SOL    HW114588   2.062   0.867  11.621  0.4277  1.1731  0.6854
 1042SOL    HW214589   1.945   0.841  11.709  0.3942 -0.2025  0.9170
 1043SOL     OW14590   3.107   0.390   5.423 -0.2891  0.5355 -0.5752
 1043SOL    HW114591   3.096   0.313   5.479 -1.4504  0.4039 -0.9983
 1043SOL    HW214592   3.200   0.413   5.433 -0.1846  1.2355 -3.1710
 1044SOL     OW14593   0.979   2.186   8.045  0.8473  0.4826 -0.4139
 1044SOL    HW114594   1.042   2.228   7.987 -1.5052  1.9360 -1.9605
 1044SOL    HW214595   0.936   2.122   7.988  1.3775  0.7222 -1.0814
 1045SOL     OW14596   2.354   2.621   0.686  0.6401 -0.1101 -0.2267
 1045SOL    HW114597   2.355   2.692   0.750  0.9525 -0.0731 -0.2755
 1045SOL    HW214598   2.265   2.617   0.651  0.3201 -2.2452  0.8150
 1046SOL     OW14599   2.731   2.986   2.610  0.3150  0.3034 -0.1510
 1046SOL    HW114600   2.652   2.958   2.565 -0.1430  0.6226  0.4497
 1046SOL    HW214601   2.719   3.081   2.602  1.7906  0.3957 -1.3352
 1047SOL     OW14602   0.697   2.426   6.696 -0.2263 -0.5444  0.0363
 1047SOL    HW114603   0.615   2.439   6.742 -0.6039 -1.1716 -0.4489
 1047SOL    HW214604   0.742   2.372   6.761  0.2641  0.9180  0.8997
 1048SOL     OW14605   3.946   2.617  16.639  0.7261 -0.1749 -0.1429
 1048SOL    HW114606   3.968   2.547  16.700  0.2836  1.8308  2.2955
 1048SOL    HW214607   3.855   2.597  16.616  0.0291  1.7747  0.8821
 1049SOL     OW14608   4.467   0.821   4.642  0.3433  0.8677  0.0651
 1049SOL    HW114609   4.383   0.856   4.673 -0.1922  0.1045 -0.5444
 1049SOL    HW214610   4.447   0.783   4.557  0.9703  0.3004  0.1733
 1050SOL     OW14611   0.278   0.831   9.629 -0.3711  0.1078 -0.1091
 1050SOL    HW114612   0.354   0.888   9.641 -0.6354  0.4449 -0.0226
 1050SOL    HW214613   0.213   0.889   9.668  1.1640  1.3499  0.6069
 1051SOL     OW14614   0.363   3.888   7.188  0.7910  0.0515  0.9231
 1051SOL    HW114615   0.303   3.881   7.114 -0.3890 -0.8882  1.9785
 1051SOL    HW214616   0.329   3.962   7.238 -3.6953 -1.7881  0.5335
 1052SOL     OW14617   4.118   4.335  13.435 -0.1633  0.4397 -0.5105
 1052SOL    HW114618   4.062   4.336  13.358  0.1065  2.2984 -0.6842
 1052SOL    HW214619   4.056   4.285  13.488 -1.1575  1.1526 -1.0087
 1053SOL     OW14620   0.432   1.631   7.074 -0.3555 -0.0161 -0.0095
 1053SOL    HW114621   0.462   1.712   7.115 -0.3493 -0.2375  0.4240
 1053SOL    HW214622   0.381   1.650   6.995 -1.7582  2.9953  1.6024
 1054SOL     OW14623   0.511   4.040  17.081  0.5854  0.3072 -0.0725
 1054SOL    HW114624   0.546   3.961  17.040  1.4437  0.4389  0.4067
 1054SOL    HW214625   0.584   4.089  17.119 -1.3284  1.9271  1.5202
 1055SOL     OW14626   0.354   3.379  12.680 -0.1653  0.5369 -0.4936
 1055SOL    HW114627   0.396   3.352  12.599 -2.2876 -2.1432 -0.7140
 1055SOL    HW214628   0.283   3.439  12.655 -0.0707 -0.0227 -2.0605
 1056SOL     OW14629   3.186   2.231   1.703 -0.0679  0.8043  0.1947
 1056SOL    HW114630   3.142   2.203   1.783  1.8014 -1.0628  0.5893
 1056SOL    HW214631   3.264   2.264   1.746 -1.2181  1.5108  1.7054
 1057SOL     OW14632   0.774   4.662   2.505 -0.0624 -0.1517 -0.0280
 1057SOL    HW114633   0.813   0.009   2.452  0.8835 -0.9353 -0.3713
 1057SOL    HW214634   0.714   4.715   2.556  0.2120 -0.6886  0.8557
 1058SOL     OW14635   2.994   2.574  12.710 -0.2087 -0.9914 -0.1047
 1058SOL    HW114636   3.066   2.528  12.752  1.2741  2.0463  0.6646
 1058SOL    HW214637   2.956   2.632  12.776 -0.8227  0.1822 -1.5011
 1059SOL     OW14638   3.445   3.222  12.894 -0.7456 -0.1614 -0.3440
 1059SOL    HW114639   3.396   3.146  12.925 -0.0569 -0.3741  0.2165
 1059SOL    HW214640   3.394   3.282  12.948 -0.8879 -1.5329  1.0403
 1060SOL     OW14641   1.495   1.721   4.392  0.4004 -0.2732 -0.6531
 1060SOL    HW114642   1.561   1.659   4.362 -0.1835 -0.3492 -1.8158
 1060SOL    HW214643   1.536   1.795   4.346 -0.6547  1.6210  1.4401
 1061SOL     OW14644   0.409   2.451   7.264  0.5778  0.4213  0.1202
 1061SOL    HW114645   0.358   2.495   7.332  0.0278  1.4246 -0.9624
 1061SOL    HW214646   0.344   2.386   7.237  2.3575 -0.4904 -1.9842
 1062SOL     OW14647   0.077   0.066   8.580  0.2224  0.2039 -0.4342
 1062SOL    HW114648   0.096   4.715   8.639  1.4937 -0.2481 -1.4255
 1062SOL    HW214649   0.091   0.134   8.646 -1.8616 -0.0776  0.2980
 1063SOL     OW14650   0.411   4.528   7.384  0.6482  0.2219  0.2727
 1063SOL    HW114651   0.434   4.519   7.291 -0.4846 -0.6681  0.0779
 1063SOL    HW214652   0.370   4.443   7.400 -0.2535  0.5571 -0.1963
 1064SOL     OW14653   0.062   1.996   7.910  0.3930 -0.4390  0.2797
 1064SOL    HW114654   0.126   2.057   7.875 -0.3688 -0.2810 -0.8300
 1064SOL    HW214655   0.011   1.976   7.832  0.6165  3.0982 -0.7343
 1065SOL     OW14656   0.199   3.098   2.352  0.3257 -0.0661 -0.5653
 1065SOL    HW114657   0.209   3.041   2.277 -0.3112 -0.1452 -0.5877
 1065SOL    HW214658   0.267   3.163   2.333 -2.1276  2.1979 -1.7155
 1066SOL     OW14659   2.386   1.495   6.034 -0.6887 -1.2023 -0.3586
 1066SOL    HW114660   2.348   1.501   5.946 -0.8706 -0.7699 -0.2513
 1066SOL    HW214661   2.372   1.588   6.053 -0.0409 -0.8325 -1.6931
 1067SOL     OW14662   4.709   0.410   8.564  0.5885 -0.0989  0.3653
 1067SOL    HW114663   4.628   0.459   8.573  0.5276 -0.6523  2.7255
 1067SOL    HW214664   4.711   0.358   8.644  2.5113  1.4498  1.3280
 1068SOL     OW14665   4.005   3.206   4.426  0.2591 -0.3822  0.1122
 1068SOL    HW114666   3.946   3.266   4.472  0.0991 -0.6072  0.1988
 1068SOL    HW214667   4.045   3.169   4.505  1.1192  0.0271 -0.1382
 1069SOL     OW14668   1.541   3.886   7.659 -0.1429  0.1295 -0.6840
 1069SOL    HW114669   1.589   3.841   7.729 -1.4566 -0.5958 -0.2474
 1069SOL    HW214670   1.603   3.890   7.587 -0.0104  1.1285 -0.5010
 1070SOL     OW14671   4.643   1.689   9.030  0.4098 -0.1642  0.7582
 1070SOL    HW114672   4.706   1.618   9.041 -0.8288 -1.0861  2.0040
 1070SOL    HW214673   4.573   1.669   9.092 -0.1992  0.6540  0.3294
 1071SOL     OW14674   1.221   1.287   2.894 -0.0942  0.0127 -0.2830
 1071SOL    HW114675   1.199   1.199   2.925 -0.3432 -0.2942 -1.3341
 1071SOL    HW214676   1.306   1.301   2.934 -0.9365  1.1171  1.1030
 1072SOL     OW14677   3.849   0.036   7.686 -0.3545  0.5914 -0.8208
 1072SOL    HW114678   3.818   0.068   7.602  0.2135  1.6016 -0.6459
 1072SOL    HW214679   3.915   4.698   7.651  0.7544  1.5622 -0.4445
 1073SOL     OW14680   4.037   4.569   4.776 -0.4940 -0.0600  0.5140
 1073SOL    HW114681   3.965   4.515   4.743  2.0791 -2.0700 -1.6932
 1073SOL    HW214682   4.104   4.543   4.713 -0.5844 -0.5844  0.6334
 1074SOL     OW14683   0.990   1.536   2.273  0.8088 -0.5428 -0.7553
 1074SOL    HW114684   0.965   1.453   2.314 -1.6855  0.4626 -0.2531
 1074SOL    HW214685   0.931   1.536   2.198  0.2568 -2.8606 -0.3160
 1075SOL     OW14686   2.298   0.877   1.307 -0.3374  0.2331 -0.7901
 1075SOL    HW114687   2.216   0.829   1.304 -0.2008 -0.1181  1.2549
 1075SOL    HW214688   2.277   0.963   1.343  1.1952 -1.3876  3.9383
 1076SOL     OW14689   1.758   1.577  11.911  0.1119 -0.0389  0.0276
 1076SOL    HW114690   1.816   1.601  11.983 -0.3436  1.2940 -0.0384
 1076SOL    HW214691   1.779   1.485  11.902 -2.1190 -0.5611  0.2194
 1077SOL     OW14692   1.694   0.096   7.569  0.3614 -0.2523 -0.2096
 1077SOL    HW114693   1.778   0.051   7.572  1.3161  1.5263  0.0207
 1077SOL    HW214694   1.656   0.057   7.490  2.5835  1.1838 -2.0125
 1078SOL     OW14695   1.483   0.827  17.515  0.1705 -0.2747  0.0279
 1078SOL    HW114696   1.435   0.841  17.596  0.8456 -1.4990  0.6490
 1078SOL    HW214697   1.482   0.731  17.519  2.3680 -0.3597 -1.4475
 1079SOL     OW14698   0.914   2.707   6.681 -0.1139  0.2968  0.5381
 1079SOL    HW114699   0.820   2.695   6.686 -0.1896  0.1399 -1.2583
 1079SOL    HW214700   0.935   2.712   6.774 -1.1909  0.0761  0.7932
 1080SOL     OW14701   2.282   1.880  15.437  0.1421  0.6145  0.2389
 1080SOL    HW114702   2.238   1.919  15.362 -1.5100  1.2829  1.5623
 1080SOL    HW214703   2.221   1.807  15.450 -1.1543  1.2321 -2.3615
 1081SOL     OW14704   3.304   3.094  17.245  0.0216 -0.1400 -0.1487
 1081SOL    HW114705   3.365   3.167  17.243  0.3349 -0.4411 -2.3346
 1081SOL    HW214706   3.245   3.128  17.177 -0.8342  1.6082  1.4638
 1082SOL     OW14707   3.861   2.805   8.018 -0.0881  0.1244 -0.5174
 1082SOL    HW114708   3.906   2.852   8.087  1.0371 -1.1641 -0.3668
 1082SOL    HW214709   3.915   2.817   7.939  0.9585  0.8081  0.2976
 1083SOL     OW14710   0.854   1.875   6.518  0.3769  0.4763  0.2851
 1083SOL    HW114711   0.845   1.894   6.611  0.7208  2.9753 -0.1818
 1083SOL    HW214712   0.763   1.853   6.499 -0.0810  1.6656  1.0936
 1084SOL     OW14713   1.931   3.684   4.389  0.2642  0.4315  0.1843
 1084SOL    HW114714   1.979   3.752   4.342  2.3796  0.0497  1.7701
 1084SOL    HW214715   1.847   3.730   4.390 -0.9829 -1.8732  1.5665
 1085SOL     OW14716   2.139   2.432   5.741  0.7279 -0.2508 -0.4926
 1085SOL    HW114717   2.125   2.405   5.651  0.1395  0.3828 -0.5879
 1085SOL    HW214718   2.059   2.479   5.765  0.2131 -0.7476 -1.2694
 1086SOL     OW14719   4.464   2.879  13.732 -0.5731  0.4692 -0.0564
 1086SOL    HW114720   4.439   2.828  13.809  2.4509  0.9328  1.2340
 1086SOL    HW214721   4.388   2.936  13.730 -0.2603  0.8573 -0.8848
 1087SOL     OW14722   1.759   2.110  13.592  0.5156 -0.1303  0.0333
 1087SOL    HW114723   1.749   2.157  13.675  2.0396  0.6039 -0.2016
 1087SOL    HW214724   1.691   2.046  13.612  0.7137 -0.0598  0.9177
 1088SOL     OW14725   4.185   0.599   5.840 -0.8871 -0.1536 -0.6074
 1088SOL    HW114726   4.215   0.652   5.765 -0.4539  0.3549 -0.0739
 1088SOL    HW214727   4.094   0.583   5.816 -1.4855  1.7101  0.4099
 1089SOL     OW14728   0.404   4.313   8.053  0.2467  0.2351  0.3650
 1089SOL    HW114729   0.460   4.385   8.082  1.0901 -1.6731  3.4128
 1089SOL    HW214730   0.392   4.328   7.959 -1.5671  2.9184  1.0001
 1090SOL     OW14731   3.129   0.485   7.478  0.2393 -0.1781 -0.4803
 1090SOL    HW114732   3.209   0.521   7.516  0.9412 -2.6223  0.3283
 1090SOL    HW214733   3.073   0.490   7.556  1.8096 -2.7944  0.8244
 1091SOL     OW14734   2.328   4.538   6.975  0.3002  0.5038 -0.2383
 1091SOL    HW114735   2.270   4.473   7.015  1.6856  0.0710  1.0673
 1091SOL    HW214736   2.405   4.484   6.960  1.6389  1.6603  2.4498
 1092SOL     OW14737   4.073   4.530   3.419 -0.1262  0.0577 -0.2196
 1092SOL    HW114738   4.121   4.451   3.394 -2.3916 -1.2427 -0.4823
 1092SOL    HW214739   3.984   4.499   3.431  0.1042 -0.1799  0.9397
 1093SOL     OW14740   4.129   2.682   2.324  0.1521  0.1062 -0.0253
 1093SOL    HW114741   4.066   2.610   2.322 -3.3762  3.1109  1.1453
 1093SOL    HW214742   4.159   2.675   2.234 -1.0567 -2.0278 -0.2705
 1094SOL     OW14743   4.074   2.392  11.745  0.1113 -0.1474  0.2164
 1094SOL    HW114744   4.082   2.388  11.649  0.0963 -2.6220  0.3261
 1094SOL    HW214745   4.000   2.332  11.756  1.2965 -1.8843 -1.1573
 1095SOL     OW14746   1.022   0.604   0.585 -0.1288  0.5072 -0.5753
 1095SOL    HW114747   1.036   0.585   0.492  0.1165  0.7087 -0.5779
 1095SOL    HW214748   1.112   0.585   0.611 -1.1373 -0.4356  2.2575
 1096SOL     OW14749   1.346   4.217   1.432  0.2125 -0.6477 -0.6634
 1096SOL    HW114750   1.326   4.241   1.522 -0.6604 -0.7411 -0.8225
 1096SOL    HW214751   1.278   4.154   1.406 -1.8798  1.8643 -1.2492
 1097SOL     OW14752   1.647   2.216   3.187 -0.2271 -0.2686 -0.3080
 1097SOL    HW114753   1.726   2.198   3.136 -0.3846 -2.8777  0.3332
 1097SOL    HW214754   1.609   2.130   3.208  1.5752 -1.5150 -2.0877
 1098SOL     OW14755   0.399   1.792   3.366  0.2017 -0.0292 -0.6153
 1098SOL    HW114756   0.431   1.825   3.449 -1.5350  1.4649 -0.5446
 1098SOL    HW214757   0.432   1.857   3.304  2.4393  1.6764  2.3727
 1099SOL     OW14758   0.051   0.788  15.196 -0.0559  0.0645  0.0487
 1099SOL    HW114759   0.074   0.783  15.103  0.2388  1.0265  0.0781
 1099SOL    HW214760   4.680   0.805  15.196 -0.0419  0.1742 -1.3823
 1100SOL     OW14761   0.467   3.086   7.680 -0.2957  0.2043  0.2022
 1100SOL    HW114762   0.413   3.064   7.604  0.1242 -0.1954  0.0175
 1100SOL    HW214763   0.439   3.022   7.745 -0.2772  1.8942  1.8773
 1101SOL     OW14764   0.840   1.406   2.800 -0.0068 -0.1624  0.1084
 1101SOL    HW114765   0.846   1.323   2.847 -0.4829 -0.7051 -0.7987
 1101SOL    HW214766   0.893   1.464   2.854 -1.5705  1.6882 -0.3598
 1102SOL     OW14767   2.756   4.166  11.526  0.0799 -0.1118  0.5542
 1102SOL    HW114768   2.737   4.240  11.584  0.8976  1.5471 -1.2978
 1102SOL    HW214769   2.842   4.197  11.498 -0.5689  2.3416  1.2314
 1103SOL     OW14770   3.122   0.351   4.388 -0.1090  0.3496  0.1778
 1103SOL    HW114771   3.029   0.372   4.383  0.0255  1.1413  0.9011
 1103SOL    HW214772   3.154   0.389   4.306  1.6862 -2.3116 -0.3367
 1104SOL     OW14773   4.719   1.552   5.874 -0.2579  0.0882 -0.3227
 1104SOL    HW114774   4.662   1.475   5.872  0.7900 -0.6809 -0.7603
 1104SOL    HW214775   4.665   1.627   5.852  1.2900  1.6638  1.2800
 1105SOL     OW14776   4.622   0.817   1.477 -0.1273  0.1212 -0.7248
 1105SOL    HW114777   4.585   0.885   1.420  0.9607  0.1234 -1.4338
 1105SOL    HW214778   4.706   0.856   1.502  2.2322 -4.6848 -1.2071
 1106SOL     OW14779   1.782   4.103   8.990  0.2934 -0.7464 -0.2214
 1106SOL    HW114780   1.751   4.039   9.054  1.0970  0.0745  0.9793
 1106SOL    HW214781   1.771   4.174   9.052  2.6821 -0.9463  0.4107
 1107SOL     OW14782   1.276   3.969   9.120 -0.6172 -0.0372  0.3667
 1107SOL    HW114783   1.309   4.009   9.201 -0.4918 -0.5299  0.5534
 1107SOL    HW214784   1.353   3.921   9.091 -0.2043  1.4372 -0.9817
 1108SOL     OW14785   2.006   2.274   1.799  0.1034  0.0242 -0.1319
 1108SOL    HW114786   1.936   2.228   1.844 -0.2368  0.3343 -0.3412
 1108SOL    HW214787   2.015   2.351   1.855  1.2711 -0.1872 -0.0123
 1109SOL     OW14788   4.512   1.433  11.779 -0.3800  0.2053  0.3774
 1109SOL    HW114789   4.557   1.451  11.697 -0.7132  1.3905  0.4634
 1109SOL    HW214790   4.451   1.506  11.787  0.5698  1.3099 -2.8866
 1110SOL     OW14791   1.078   3.992   7.823  0.2725 -0.8000 -0.0435
 1110SOL    HW114792   1.048   4.045   7.897 -0.2595  0.3623 -1.0889
 1110SOL    HW214793   1.097   4.056   7.754 -1.1476  1.0778  1.3050
 1111SOL     OW14794   0.407   1.190   9.834 -0.1044  0.5363  0.0937
 1111SOL    HW114795   0.332   1.239   9.869 -1.4546  0.1442 -2.2292
 1111SOL    HW214796   0.473   1.243   9.878 -0.4179 -0.5940  1.9131
 1112SOL     OW14797   2.416   0.695  13.704 -0.8701  0.1963 -0.3155
 1112SOL    HW114798   2.397   0.709  13.612 -0.2081  1.2724 -0.2855
 1112SOL    HW214799   2.487   0.631  13.695 -3.3682 -2.6332  0.3191
 1113SOL     OW14800   2.517   0.422   4.249 -0.0755  0.2832 -0.1642
 1113SOL    HW114801   2.496   0.473   4.171  1.6270  2.6468  0.9283
 1113SOL    HW214802   2.570   0.483   4.301  1.0983 -2.1933  1.5377
 1114SOL     OW14803   3.069   4.048   8.635 -0.5063  0.8890 -0.4785
 1114SOL    HW114804   3.136   3.989   8.598 -1.4011 -0.2970 -0.1999
 1114SOL    HW214805   3.103   4.071   8.721  0.2817  0.7761 -0.7562
 1115SOL     OW14806   0.112   2.368  14.621  0.1639 -0.2573  0.2123
 1115SOL    HW114807   0.193   2.418  14.630 -0.6568  0.7419  2.0212
 1115SOL    HW214808   0.057   2.414  14.684 -0.5130 -1.2412  0.3539
 1116SOL     OW14809   1.408   4.548   9.606 -0.8118 -0.1063  0.3577
 1116SOL    HW114810   1.345   4.492   9.651  2.1141 -2.1320  1.8844
 1116SOL    HW214811   1.485   4.536   9.661 -1.5000  1.4306  1.6673
 1117SOL     OW14812   0.571   1.155  13.308 -0.5799  0.2464  0.6765
 1117SOL    HW114813   0.635   1.100  13.264 -2.5518 -2.0025  0.6234
 1117SOL    HW214814   0.604   1.160  13.398  1.4486  0.6160 -0.0947
 1118SOL     OW14815   1.620   3.413   8.678 -0.5953  0.3274  0.1422
 1118SOL    HW114816   1.542   3.359   8.666  0.5396 -1.3040  0.1420
 1118SOL    HW214817   1.586   3.503   8.675 -2.5592 -0.4607 -0.8191
 1119SOL     OW14818   1.685   4.254   1.901  0.6174  0.1933  0.4548
 1119SOL    HW114819   1.744   4.211   1.839  3.0554  1.3996  1.9219
 1119SOL    HW214820   1.629   4.181   1.927  0.9629  0.6554  2.5276
 1120SOL     OW14821   2.332   1.635   4.215 -0.3749  0.2237 -0.4943
 1120SOL    HW114822   2.368   1.570   4.276 -2.0500  1.7356  2.1063
 1120SOL    HW214823   2.332   1.710   4.275  0.0925  0.5797 -0.9384
 1121SOL     OW14824   3.731   3.813   0.255 -0.0520  0.7864 -0.3519
 1121SOL    HW114825   3.741   3.777   0.343  0.4179 -0.2989 -0.8504
 1121SOL    HW214826   3.657   3.872   0.270 -1.0436 -0.5915  0.2124
 1122SOL     OW14827   4.379   0.498   4.617  0.6255 -0.1570 -0.2304
 1122SOL    HW114828   4.285   0.508   4.603  0.5036  0.1131  0.7755
 1122SOL    HW214829   4.398   0.532   4.705  0.3238 -0.5818  0.0019
 1123SOL     OW14830   3.784   0.243   8.483  0.1560  0.5068 -0.3682
 1123SOL    HW114831   3.701   0.221   8.439 -0.7838  1.2120  1.0454
 1123SOL    HW214832   3.770   0.337   8.492 -0.1300  0.5092 -0.8051
 1124SOL     OW14833   4.111   2.054   0.068 -0.0610 -0.3258  0.1306
 1124SOL    HW114834   4.038   2.068   0.008 -2.0641  0.6718  2.7674
 1124SOL    HW214835   4.186   2.043   0.010 -1.3999  1.2141 -1.8965
 1125SOL     OW14836   1.489   2.378   5.730  0.6184 -0.5745 -0.3238
 1125SOL    HW114837   1.534   2.421   5.657 -1.4691 -0.7713 -1.7388
 1125SOL    HW214838   1.498   2.446   5.797 -1.3746 -0.5460 -0.0653
 1126SOL     OW14839   3.520   0.047   0.677  0.8762  0.4692 -0.0647
 1126SOL    HW114840   3.576   0.104   0.730 -0.4346  0.4579  1.3364
 1126SOL    HW214841   3.490   4.714   0.749 -0.6035  1.6496  0.2495
 1127SOL     OW14842   3.513   1.853   0.240  0.2058 -0.8356 -0.0344
 1127SOL    HW114843   3.480   1.923   0.183  3.0679  0.3370 -0.2586
 1127SOL    HW214844   3.515   1.897   0.325 -0.4225 -1.4623  0.2984
 1128SOL     OW14845   0.698   1.898   0.582 -0.6368  0.1369  0.2290
 1128SOL    HW114846   0.654   1.850   0.511 -1.5317 -0.2167  1.0180
 1128SOL    HW214847   0.784   1.889   0.542 -0.3510  2.4390  0.3055
 1129SOL     OW14848   3.304   1.783   6.240  0.0495  0.1455  0.1269
 1129SOL    HW114849   3.248   1.832   6.180  1.3456 -0.2744 -1.3991
 1129SOL    HW214850   3.307   1.853   6.305 -0.0744  0.4925 -0.2419
 1130SOL     OW14851   4.212   2.175   5.774  0.2119  0.5044  0.1425
 1130SOL    HW114852   4.231   2.090   5.815 -0.4744 -0.6360 -1.8832
 1130SOL    HW214853   4.210   2.230   5.852  0.1738 -0.1869  0.6307
 1131SOL     OW14854   3.319   1.421  15.712  0.8515 -0.0953  0.1158
 1131SOL    HW114855   3.265   1.353  15.671 -0.4678  1.2497 -0.4171
 1131SOL    HW214856   3.359   1.391  15.793  0.1891 -2.4209 -0.4326
 1132SOL     OW14857   2.627   3.152   6.136  0.3951  0.5831  0.1931
 1132SOL    HW114858   2.706   3.167   6.188 -0.0680 -1.0477  1.3729
 1132SOL    HW214859   2.648   3.216   6.068  0.6852 -0.1580 -0.4146
 1133SOL     OW14860   3.750   2.664  15.080 -0.1948  0.0809  0.1694
 1133SOL    HW114861   3.679   2.728  15.087 -0.3704 -0.1956  0.8807
 1133SOL    HW214862   3.743   2.639  15.172 -1.5068  0.3208  0.1357
 1134SOL     OW14863   1.207   3.136   5.943  0.5248  0.2931 -0.0431
 1134SOL    HW114864   1.178   3.213   5.993  0.5511  1.3320 -1.6114
 1134SOL    HW214865   1.301   3.153   5.939  0.7111 -1.3557 -2.3163
 1135SOL     OW14866   2.623   3.950   8.311  0.3895  0.4710 -0.1596
 1135SOL    HW114867   2.630   3.856   8.293  1.0788  0.4759  0.0691
 1135SOL    HW214868   2.538   3.936   8.353  1.1172  0.3128  1.2617
 1136SOL     OW14869   4.107   4.672  11.099  0.6206  0.0617  0.4679
 1136SOL    HW114870   4.020   4.632  11.107  0.8904 -0.1173  2.5457
 1136SOL    HW214871   4.149   4.615  11.034  2.1867 -0.3180  1.8139
 1137SOL     OW14872   3.515   2.969   5.828  0.2101 -0.0285 -0.3228
 1137SOL    HW114873   3.560   2.884   5.826  0.3852  0.0688 -0.4822
 1137SOL    HW214874   3.435   2.945   5.779  1.9882 -2.4309 -2.0848
 1138SOL     OW14875   1.120   2.990   8.844 -0.5322  0.3661  0.2229
 1138SOL    HW114876   1.064   2.978   8.920  0.5486 -0.2125  0.9230
 1138SOL    HW214877   1.121   3.086   8.842 -0.3568  0.4375  3.1137
 1139SOL     OW14878   2.496   2.959  10.053  0.2702 -0.3891  0.4001
 1139SOL    HW114879   2.482   2.991   9.964  1.0287  3.3743  1.6247
 1139SOL    HW214880   2.557   2.887  10.035  0.4615 -0.0198 -0.4246
 1140SOL     OW14881   2.486   0.871   6.999  0.7562  0.1012 -0.1758
 1140SOL    HW114882   2.440   0.807   7.055  0.7644  1.0485  0.9038
 1140SOL    HW214883   2.525   0.930   7.063  2.0965  1.5040 -2.3168
 1141SOL     OW14884   4.529   3.349   1.686  0.0398 -1.0537  0.6153
 1141SOL    HW114885   4.486   3.300   1.756  1.5640 -2.1643  0.7846
 1141SOL    HW214886   4.470   3.425   1.684 -0.6651 -1.6226 -0.0857
 1142SOL     OW14887   1.755   1.580   6.152 -0.1923 -0.1167 -0.7834
 1142SOL    HW114888   1.760   1.519   6.079  0.6445 -0.7921 -0.1695
 1142SOL    HW214889   1.660   1.589   6.162 -0.0934 -1.1101  1.0608
 1143SOL     OW14890   0.488   3.499   1.019  0.3187  0.1766  0.2136
 1143SOL    HW114891   0.397   3.491   0.991  0.7708  0.9746 -1.4425
 1143SOL    HW214892   0.530   3.444   0.953 -1.4604 -0.8055 -0.1063
 1144SOL     OW14893   4.565   4.606  17.519 -0.2320 -0.4307 -0.1489
 1144SOL    HW114894   4.640   4.552  17.494 -0.7930 -1.0431 -0.5225
 1144SOL    HW214895   4.599   4.696  17.512 -1.5425  0.1023  0.1913
 1145SOL     OW14896   3.226   2.352   3.280  0.4963  0.5401 -0.3412
 1145SOL    HW114897   3.235   2.333   3.187  0.3868  1.2535 -0.4908
 1145SOL    HW214898   3.151   2.410   3.279  1.8255  2.2812  0.0931
 1146SOL     OW14899   0.705   0.924   8.562  0.3656 -0.1737  0.7120
 1146SOL    HW114900   0.753   0.995   8.606  1.9758 -0.1727 -1.0609
 1146SOL    HW214901   0.752   0.851   8.602  0.7288  0.0065  0.6170
 1147SOL     OW14902   3.119   2.915   7.213 -0.0585  0.6940 -0.5271
 1147SOL    HW114903   3.173   2.991   7.232 -1.1528  0.8169  2.1756
 1147SOL    HW214904   3.084   2.903   7.301 -0.0610 -0.6416 -0.7047
 1148SOL     OW14905   0.642   1.824   7.276  0.0234 -0.2647  0.1791
 1148SOL    HW114906   0.727   1.813   7.233 -1.0595 -2.9908 -1.2083
 1148SOL    HW214907   0.661   1.842   7.368  1.2712  1.4138 -0.3901
 1149SOL     OW14908   3.398   4.520  16.749  0.3139 -0.3611  0.5517
 1149SOL    HW114909   3.493   4.527  16.740  0.0710  1.0300 -0.9375
 1149SOL    HW214910   3.368   4.609  16.765  1.9006  0.8059 -2.8775
 1150SOL     OW14911   0.917   4.626   6.641 -0.0820 -0.3341  0.5548
 1150SOL    HW114912   1.004   4.652   6.670 -0.1953  0.3245  0.3067
 1150SOL    HW214913   0.922   4.631   6.546  1.5340  4.1031  0.8940
 1151SOL     OW14914   0.504   0.311   2.648 -0.1357  0.6040 -0.7378
 1151SOL    HW114915   0.422   0.357   2.629  0.3635  1.9072  0.2739
 1151SOL    HW214916   0.469   0.230   2.685  1.0076  1.1601  1.5462
 1152SOL     OW14917   1.394   0.836   7.733  0.4862 -1.0759 -0.4612
 1152SOL    HW114918   1.373   0.821   7.825 -0.4838 -0.9108 -0.6558
 1152SOL    HW214919   1.302   0.845   7.706  0.6105 -0.6988 -0.7544
 1153SOL     OW14920   3.677   3.233   9.887  0.8643 -0.2279  0.2112
 1153SOL    HW114921   3.758   3.183   9.885  0.2414 -1.3234  1.9288
 1153SOL    HW214922   3.632   3.192   9.961  0.7477  1.7882  1.2832
 1154SOL     OW14923   3.990   0.280  17.113 -0.0487 -0.2559  0.5163
 1154SOL    HW114924   4.011   0.234  17.032 -2.1417  0.0529 -0.2026
 1154SOL    HW214925   3.895   0.278  17.106 -0.0588  2.7138 -0.2440
 1155SOL     OW14926   4.510   0.414   6.136  0.2112  0.3068  0.3289
 1155SOL    HW114927   4.549   0.330   6.163  2.5115  0.6193 -2.0219
 1155SOL    HW214928   4.580   0.472   6.166 -1.1305  2.6561 -1.0688
 1156SOL     OW14929   0.038   1.627   0.370 -0.0723  0.1193 -0.6369
 1156SOL    HW114930   0.038   1.541   0.412  0.8829  1.7073  2.6310
 1156SOL    HW214931   0.030   1.588   0.283 -1.2978  0.4222 -0.6576
 1157SOL     OW14932   2.610   3.676  11.173  0.3656  0.6060  0.1780
 1157SOL    HW114933   2.650   3.719  11.248 -0.5898  1.3514  0.2553
 1157SOL    HW214934   2.685   3.632  11.133  2.2184  1.6442  2.4870
 1158SOL     OW14935   0.202   1.935   5.755  0.0705  0.2661  0.4669
 1158SOL    HW114936   0.117   1.925   5.712 -0.0963 -1.6412  1.2485
 1158SOL    HW214937   0.237   2.020   5.730 -0.2341 -0.2186 -1.6221
 1159SOL     OW14938   0.432   3.737   3.881 -0.1025  0.6112 -0.3672
 1159SOL    HW114939   0.473   3.724   3.966 -0.7965  3.4384  0.3964
 1159SOL    HW214940   0.356   3.679   3.869 -0.3571  0.5249  1.6993
 1160SOL     OW14941   4.512   3.621   5.931  0.0254  0.1402  0.2737
 1160SOL    HW114942   4.592   3.660   5.967  0.2395  0.4496 -0.5525
 1160SOL    HW214943   4.454   3.697   5.940 -1.4491 -1.0885  1.1348
 1161SOL     OW14944   2.910   3.996  11.846  0.0241  0.4353 -0.0452
 1161SOL    HW114945   2.968   4.018  11.918 -1.4994  2.6671  0.4822
 1161SOL    HW214946   2.970   4.033  11.781 -3.4138  1.7634 -2.4743
 1162SOL     OW14947   0.038   3.532   3.577  0.6409  0.3871 -0.4518
 1162SOL    HW114948   0.124   3.548   3.614 -0.5897  0.9769  2.1227
 1162SOL    HW214949   0.061   3.482   3.498  2.0466  1.2499 -0.5751
 1163SOL     OW14950   4.367   3.192  16.174 -0.5082 -0.4418 -0.1522
 1163SOL    HW114951   4.413   3.128  16.120  1.6450  1.4735 -0.5917
 1163SOL    HW214952   4.424   3.185  16.250 -1.2879 -0.8611  0.3983
 1164SOL     OW14953   0.076   2.222   4.983  0.0430 -0.3714  0.7538
 1164SOL    HW114954   0.070   2.272   5.065 -0.2268 -0.4350  0.7730
 1164SOL    HW214955   0.114   2.290   4.927 -0.5398 -0.9263 -0.3051
 1165SOL     OW14956   3.543   1.311   2.144 -0.4788  0.0444 -0.0659
 1165SOL    HW114957   3.473   1.264   2.189 -0.2077  0.5730  0.8945
 1165SOL    HW214958   3.567   1.244   2.079 -1.1572  2.6631 -3.0375
 1166SOL     OW14959   4.167   4.393   5.595  0.5027  0.2219  0.1709
 1166SOL    HW114960   4.145   4.426   5.682 -3.6801 -0.5226 -0.6045
 1166SOL    HW214961   4.207   4.310   5.620 -1.8651 -1.4602 -1.5904
 1167SOL     OW14962   0.261   3.661   8.279 -0.0619 -0.5726 -0.8756
 1167SOL    HW114963   0.268   3.748   8.319 -1.4196 -1.5588  1.5258
 1167SOL    HW214964   0.239   3.681   8.188 -2.1391 -1.9013 -0.6753
 1168SOL     OW14965   0.745   2.646  11.036  0.0786 -0.0888 -0.3028
 1168SOL    HW114966   0.758   2.735  11.068 -0.1254 -0.0100 -0.4390
 1168SOL    HW214967   0.731   2.652  10.942 -2.3870 -0.2461  0.0352
 1169SOL     OW14968   0.405   2.422  14.761 -0.1960 -0.2277  0.0574
 1169SOL    HW114969   0.391   2.494  14.823  0.7593  0.9104 -1.0628
 1169SOL    HW214970   0.478   2.462  14.714 -0.1396 -1.4531 -0.8955
 1170SOL     OW14971   0.611   1.909   9.301 -0.0445  0.0011  0.0498
 1170SOL    HW114972   0.700   1.890   9.331  0.1676 -0.6664 -1.0429
 1170SOL    HW214973   0.634   1.989   9.255  0.6639  0.7562  1.6957
 1171SOL     OW14974   2.762   1.730   7.563 -0.2280 -0.7975 -0.2653
 1171SOL    HW114975   2.731   1.815   7.532 -1.0127 -1.0511 -0.1730
 1171SOL    HW214976   2.844   1.760   7.603  0.2551 -0.4624 -1.4942
 1172SOL     OW14977   2.047   4.567   7.637  0.4468 -0.3875  0.4126
 1172SOL    HW114978   2.028   4.645   7.690  0.6724 -0.9742  1.3455
 1172SOL    HW214979   2.027   4.607   7.552  1.4557  0.0457  0.3793
 1173SOL     OW14980   4.109   2.387  10.684 -0.4090  0.1789  0.0536
 1173SOL    HW114981   4.080   2.313  10.631  2.7995 -2.6220  2.1738
 1173SOL    HW214982   4.199   2.397  10.653  0.4090  2.9635  3.3317
 1174SOL     OW14983   0.937   4.283  17.069 -0.0233  0.0431 -0.4963
 1174SOL    HW114984   0.903   4.207  17.022 -1.8573 -0.0332  0.9535
 1174SOL    HW214985   0.981   4.237  17.140 -1.3728  0.0116  0.3254
 1175SOL     OW14986   3.677   2.543  16.604  0.0451  0.7698 -0.4748
 1175SOL    HW114987   3.637   2.608  16.545 -2.8498  1.2793  2.0431
 1175SOL    HW214988   3.600   2.493  16.630  1.8018 -1.6216  0.1055
 1176SOL     OW14989   2.079   3.409  14.061  0.0633 -0.5827  0.0027
 1176SOL    HW114990   2.133   3.448  13.993 -0.5393 -0.4802 -0.4259
 1176SOL    HW214991   2.006   3.367  14.014 -0.7208 -0.4919  1.1521
 1177SOL     OW14992   4.143   4.195   8.404 -0.3488  0.4418 -0.1356
 1177SOL    HW114993   4.074   4.135   8.431  0.3062 -0.4149 -0.3532
 1177SOL    HW214994   4.207   4.206   8.474  0.0751 -1.8118 -0.1710
 1178SOL     OW14995   4.430   3.613   4.390 -0.5361  0.3849 -0.7693
 1178SOL    HW114996   4.404   3.527   4.357  3.3217 -0.7463 -0.8689
 1178SOL    HW214997   4.509   3.594   4.441 -1.4087  0.6069  0.6697
 1179SOL     OW14998   3.635   0.046   4.690 -0.2300 -0.2184 -0.0616
 1179SOL    HW114999   3.731   0.045   4.693 -0.2742  0.9628  1.7220
 1179SOL    HW215000   3.621   4.676   4.708 -0.1607 -0.1659  0.2586
 1180SOL     OW15001   3.933   2.132  10.624 -0.4656  0.7242 -0.6084
 1180SOL    HW115002   3.900   2.153  10.711 -1.5821  0.1977 -0.9113
 1180SOL    HW215003   3.903   2.200  10.563  0.7777  1.2437 -0.6599
 1181SOL     OW15004   3.118   3.047  14.790 -0.1663 -0.2405  0.0094
 1181SOL    HW115005   3.043   3.043  14.730 -0.6892  2.3212  0.5225
 1181SOL    HW215006   3.185   2.998  14.743 -1.2395 -0.7930 -0.9492
 1182SOL     OW15007   0.156   4.565  17.331 -0.3256  0.4098  0.6286
 1182SOL    HW115008   0.193   4.508  17.400 -1.4018 -1.2662 -0.1715
 1182SOL    HW215009   0.163   4.501  17.260 -0.2592  0.3321  0.7031
 1183SOL     OW15010   2.703   4.611  10.049  0.5064  0.3668  0.0749
 1183SOL    HW115011   2.793   4.643  10.054  1.4059 -2.3578  0.9246
 1183SOL    HW215012   2.668   4.630  10.137  0.4268 -0.3711  0.2003
 1184SOL     OW15013   1.439   1.887   2.766  0.4507  0.4613  0.2594
 1184SOL    HW115014   1.499   1.820   2.799 -0.0705  0.3377  0.9707
 1184SOL    HW215015   1.423   1.866   2.674  2.5115 -0.4953  0.1141
 1185SOL     OW15016   3.904   4.056   5.141 -0.8510 -0.1470 -0.1167
 1185SOL    HW115017   3.812   4.076   5.158 -0.1340  1.5327  1.7543
 1185SOL    HW215018   3.945   4.096   5.217  0.2616  0.3178 -0.9602
 1186SOL     OW15019   2.736   0.698   5.333 -0.0995 -0.2392  0.9390
 1186SOL    HW115020   2.689   0.635   5.388 -0.9293 -0.8094 -0.4023
 1186SOL    HW215021   2.825   0.673   5.357 -0.1436 -1.4638 -0.1807
 1187SOL     OW15022   3.837   4.476   7.136  0.3603  0.0319 -0.4700
 1187SOL    HW115023   3.923   4.489   7.096 -0.0257  1.2592 -0.9139
 1187SOL    HW215024   3.801   4.565   7.142  1.3584  0.4167 -0.2271
 1188SOL     OW15025   2.124   0.015  11.673 -0.3543 -0.3493 -0.8736
 1188SOL    HW115026   2.174   0.071  11.614  0.4777  0.6655  0.8175
 1188SOL    HW215027   2.031   0.034  11.657 -0.3529  0.4307  0.0885
 1189SOL     OW15028   2.864   2.813   5.165 -0.3051  0.2066  0.3643
 1189SOL    HW115029   2.777   2.840   5.138 -0.2262  0.7563  0.6703
 1189SOL    HW215030   2.859   2.829   5.259  1.5643  1.6295  0.2368
 1190SOL     OW15031   4.280   2.399  13.512  0.7399 -0.3444  0.0201
 1190SOL    HW115032   4.316   2.426  13.596 -0.3681  0.2529  0.3052
 1190SOL    HW215033   4.306   2.468  13.451 -1.4560  0.3400 -0.1334
 1191SOL     OW15034   1.777   1.106   1.916 -0.2964 -0.1181  0.0301
 1191SOL    HW115035   1.779   1.192   1.872 -1.5762 -0.5081 -0.7867
 1191SOL    HW215036   1.702   1.114   1.974 -1.9507 -0.4695 -2.0339
 1192SOL     OW15037   2.733   4.033   5.203  0.0469  0.2819 -0.1219
 1192SOL    HW115038   2.756   4.100   5.267  0.7964 -0.2916  0.2119
 1192SOL    HW215039   2.693   4.080   5.130  2.7632  0.8803 -1.2380
 1193SOL     OW15040   0.193   1.380   2.419 -0.8732 -0.3268  0.8854
 1193SOL    HW115041   0.161   1.333   2.342  1.2327  2.3620 -1.5887
 1193SOL    HW215042   0.263   1.433   2.381 -1.1225 -0.9676 -0.4780
 1194SOL     OW15043   1.077   0.811  11.419  0.0847 -0.0548  0.2427
 1194SOL    HW115044   1.069   0.907  11.418 -1.7019 -0.2689 -3.3127
 1194SOL    HW215045   0.998   0.788  11.467  0.7063  0.4819  1.5414
 1195SOL     OW15046   1.923   3.652   3.514 -0.1235  0.1150 -0.3058
 1195SOL    HW115047   1.861   3.716   3.551  0.9883  0.5948  0.7357
 1195SOL    HW215048   1.910   3.574   3.567 -0.5716 -1.1035 -2.2163
 1196SOL     OW15049   1.635   2.964   3.407  0.4965  0.3475 -0.0764
 1196SOL    HW115050   1.619   2.900   3.339  0.4439  0.6340 -0.3330
 1196SOL    HW215051   1.623   3.041   3.352 -0.5460 -0.8232 -1.4562
 1197SOL     OW15052   2.454   0.641   9.617  0.2557 -0.6663 -0.0730
 1197SOL    HW115053   2.363   0.616   9.605  0.8832 -1.8624 -2.3598
 1197SOL    HW215054   2.482   0.692   9.541  2.0114 -2.7609 -0.8240
 1198SOL     OW15055   4.364   0.986   8.320  0.6515  0.0720 -0.4959
 1198SOL    HW115056   4.277   0.950   8.301  0.6030  0.6464 -1.3491
 1198SOL    HW215057   4.349   1.075   8.289  0.4675  0.6388  1.2640
 1199SOL     OW15058   4.677   4.437   5.332  0.1694  0.1325  0.3266
 1199SOL    HW115059   4.593   4.395   5.309 -0.6483  0.8196  2.0652
 1199SOL    HW215060   0.011   4.391   5.270 -0.3946  1.9274 -1.4950
 1200SOL     OW15061   4.136   4.453  14.368  0.4550  0.3524  0.0869
 1200SOL    HW115062   4.231   4.452  14.379  0.2371 -0.2385  1.9851
 1200SOL    HW215063   4.124   4.448  14.273  1.5730  0.5278 -0.0609
 1201SOL     OW15064   4.011   3.452  16.686  0.2315  0.0627 -0.4006
 1201SOL    HW115065   3.937   3.418  16.634 -1.5467  0.3782  1.9329
 1201SOL    HW215066   4.075   3.402  16.635  1.0085 -0.1446  0.7839
 1202SOL     OW15067   3.149   1.227   8.663 -0.2834 -0.8951 -0.4952
 1202SOL    HW115068   3.200   1.307   8.658 -0.0813 -0.9983 -0.1406
 1202SOL    HW215069   3.162   1.188   8.750  0.7272  1.5699  0.4491
 1203SOL     OW15070   4.366   3.114   8.091  0.0183 -0.1956 -0.6618
 1203SOL    HW115071   4.272   3.129   8.088 -0.3275 -2.6004 -2.0899
 1203SOL    HW215072   4.397   3.204   8.087 -1.3234  0.3932  2.0295
 1204SOL     OW15073   0.750   3.666   1.063  0.0564  0.3586 -0.3044
 1204SOL    HW115074   0.702   3.715   0.997  0.7194 -0.8085 -1.6305
 1204SOL    HW215075   0.805   3.615   1.004  1.7964  1.7887  0.0682
 1205SOL     OW15076   3.834   3.365   7.388  0.0138  0.2902  0.7994
 1205SOL    HW115077   3.778   3.353   7.464 -1.1613  0.8970  0.0295
 1205SOL    HW215078   3.909   3.409   7.429  0.6019  1.1274 -1.1536
 1206SOL     OW15079   2.987   0.915   6.825 -0.0608  0.0125 -0.5777
 1206SOL    HW115080   2.915   0.909   6.763  0.8049 -0.5956 -1.5241
 1206SOL    HW215081   3.055   0.972   6.789 -1.8893  2.5833  0.0226
 1207SOL     OW15082   2.370   1.555   3.745  0.0963  0.4556 -0.1634
 1207SOL    HW115083   2.305   1.529   3.679 -0.3218 -0.1086  0.4701
 1207SOL    HW215084   2.431   1.604   3.690 -1.2157  2.0319 -0.2134
 1208SOL     OW15085   3.690   4.691   3.736  0.1965 -0.1754  0.1894
 1208SOL    HW115086   3.670   4.720   3.647 -2.6338 -1.1905  0.4909
 1208SOL    HW215087   3.642   0.038   3.781 -0.0045 -0.1230 -0.1015
 1209SOL     OW15088   3.166   0.159   2.132  0.3492 -0.0879 -0.1590
 1209SOL    HW115089   3.098   0.125   2.074  0.0393 -0.5871  0.4963
 1209SOL    HW215090   3.122   0.226   2.185  0.7781  0.5790 -0.6558
 1210SOL     OW15091   2.456   0.099   7.752 -0.0911  0.2510  0.1939
 1210SOL    HW115092   2.368   0.109   7.788 -0.9869  1.9392 -2.4286
 1210SOL    HW215093   2.508   0.090   7.831 -0.6057 -1.3834  0.3667
 1211SOL     OW15094   1.690   1.280   2.981 -0.6308  0.4276  0.0267
 1211SOL    HW115095   1.636   1.208   2.948  0.8885 -1.1822  1.0251
 1211SOL    HW215096   1.747   1.293   2.905 -0.8889  0.6844 -0.1227
 1212SOL     OW15097   1.431   2.717   4.416  0.0520  0.1683 -0.6538
 1212SOL    HW115098   1.519   2.679   4.411 -0.1027 -0.4040  0.9464
 1212SOL    HW215099   1.388   2.639   4.451  0.8372 -0.3657 -0.8781
 1213SOL     OW15100   2.792   3.503   6.258 -0.3817 -0.0833 -0.0028
 1213SOL    HW115101   2.726   3.548   6.310  2.1970  0.5787  2.6938
 1213SOL    HW215102   2.784   3.536   6.168 -1.1830 -0.3442 -0.0257
 1214SOL     OW15103   0.068   0.445   8.092 -0.3021  0.4807  0.4505
 1214SOL    HW115104   0.105   0.523   8.133 -0.5202  0.5574  0.4998
 1214SOL    HW215105   0.018   0.490   8.025 -0.8234 -0.1963  0.3842
 1215SOL     OW15106   4.376   4.394  11.490  0.0618  0.3536 -0.2491
 1215SOL    HW115107   4.341   4.479  11.466 -0.2992  0.3279  0.1914
 1215SOL    HW215108   4.314   4.347  11.433  1.6546 -0.6864 -1.1411
 1216SOL     OW15109   2.002   0.390   2.341  0.0098  0.0199  0.2469
 1216SOL    HW115110   1.933   0.385   2.407 -0.0948  4.3757  0.4528
 1216SOL    HW215111   1.972   0.327   2.276  1.5841  0.0227 -0.4855
 1217SOL     OW15112   0.130   0.186   6.171 -0.4314 -0.4173  0.2080
 1217SOL    HW115113   0.164   0.222   6.253  0.5447 -2.5473  0.7408
 1217SOL    HW215114   0.164   0.253   6.112  0.5767  1.9242  3.4181
 1218SOL     OW15115   2.067   0.644   4.203 -0.4669 -0.3132  0.4695
 1218SOL    HW115116   2.065   0.720   4.262 -0.1231 -0.0936  0.1973
 1218SOL    HW215117   2.101   0.581   4.267  2.1783  1.3653  0.7378
 1219SOL     OW15118   4.120   1.450   4.340 -0.5778  0.0839 -0.0900
 1219SOL    HW115119   4.031   1.431   4.311 -0.7761 -0.4703  0.8888
 1219SOL    HW215120   4.111   1.539   4.375 -2.2788  0.5486 -1.7372
 1220SOL     OW15121   1.465   0.648  16.475  0.2965  0.3088  0.0492
 1220SOL    HW115122   1.434   0.719  16.420  0.0551  1.3945  1.5754
 1220SOL    HW215123   1.394   0.583  16.478  1.1696 -0.6510  0.1991
 1221SOL     OW15124   3.253   2.867   6.962 -0.1015 -0.0690 -0.4105
 1221SOL    HW115125   3.221   2.854   7.052  0.9405 -2.1849 -0.3525
 1221SOL    HW215126   3.346   2.847   6.970  0.2274  1.8746  0.5228
 1222SOL     OW15127   0.261   3.821   7.555  0.2066  0.4133  0.3502
 1222SOL    HW115128   0.319   3.745   7.557  0.4747  0.5926 -0.5355
 1222SOL    HW215129   0.200   3.795   7.624 -0.0659  1.3365  0.4639
 1223SOL     OW15130   3.819   1.454   4.342 -0.4770  1.0676  0.4477
 1223SOL    HW115131   3.796   1.543   4.315 -1.5630  0.4740 -0.5803
 1223SOL    HW215132   3.748   1.401   4.306  0.2685  0.3808 -0.0247
 1224SOL     OW15133   1.637   0.971   6.301 -0.0085  0.2594 -0.1872
 1224SOL    HW115134   1.723   0.979   6.261  1.5485  0.4242  3.2220
 1224SOL    HW215135   1.640   1.045   6.362  1.5857 -1.8414  2.2911
 1225SOL     OW15136   4.702   4.259   3.917 -0.1796  0.4646 -0.3275
 1225SOL    HW115137   4.692   4.279   3.824  1.7982  1.8019 -0.2689
 1225SOL    HW215138   4.614   4.233   3.944 -0.0527  0.6227  0.2466
 1226SOL     OW15139   4.589   3.261  15.007 -0.1258 -0.2932 -0.1681
 1226SOL    HW115140   4.559   3.315  14.934  0.2247  3.7131  2.6099
 1226SOL    HW215141   4.578   3.321  15.081  0.1796  1.1749 -1.3070
 1227SOL     OW15142   1.643   3.347   3.077  0.5355  0.7476 -0.0587
 1227SOL    HW115143   1.605   3.418   3.129  1.3688 -0.1185  1.7465
 1227SOL    HW215144   1.638   3.384   2.989 -0.4386 -1.4341 -0.9232
 1228SOL     OW15145   0.977   1.068   2.723  0.1428  0.2060  0.1634
 1228SOL    HW115146   1.036   0.993   2.718 -0.4999 -0.3100  0.3790
 1228SOL    HW215147   0.891   1.026   2.715 -0.0250  0.5232  0.2823
 1229SOL     OW15148   1.546   1.719   3.085  0.1603  0.2147 -0.3066
 1229SOL    HW115149   1.526   1.702   2.993  1.2793 -0.0722 -0.4926
 1229SOL    HW215150   1.624   1.664   3.095  0.9735  1.2503 -0.9817
 1230SOL     OW15151   0.259   4.171   6.021 -0.5815 -0.0973  0.0517
 1230SOL    HW115152   0.200   4.164   5.946  1.1656  1.4525 -1.4666
 1230SOL    HW215153   0.340   4.195   5.976 -0.1715  0.2607  0.9779
 1231SOL     OW15154   2.144   2.313   5.480 -0.4168  0.0540  0.3093
 1231SOL    HW115155   2.163   2.235   5.427 -3.1439 -0.1166 -0.3883
 1231SOL    HW215156   2.214   2.372   5.450  0.2231  0.1915  2.0705
 1232SOL     OW15157   1.695   3.764   7.863  1.0133  0.0849  0.4097
 1232SOL    HW115158   1.701   3.762   7.959 -0.5395  0.6936  0.5062
 1232SOL    HW215159   1.762   3.698   7.845 -0.5597 -1.7946  1.4511
 1233SOL     OW15160   2.695   3.373   8.830  0.3851  0.5402  0.1710
 1233SOL    HW115161   2.760   3.341   8.892 -0.0238 -0.3475  0.1484
 1233SOL    HW215162   2.692   3.466   8.853 -0.8394  0.2101  1.3517
 1234SOL     OW15163   0.123   1.529   3.483 -0.2622  0.6658  0.1703
 1234SOL    HW115164   0.194   1.486   3.531 -0.5580 -0.8390 -0.7503
 1234SOL    HW215165   0.169   1.573   3.412 -0.0591 -0.2086 -0.2427
 1235SOL     OW15166   2.532   3.269   5.041 -0.0028  0.1708  0.2935
 1235SOL    HW115167   2.473   3.306   5.105  0.7680  0.4232  0.8524
 1235SOL    HW215168   2.510   3.320   4.963  0.7043 -0.6270 -0.4273
 1236SOL     OW15169   1.493   4.122   0.928  0.3859 -0.6369  0.1862
 1236SOL    HW115170   1.493   4.169   1.011  0.2012  1.1110 -0.8113
 1236SOL    HW215171   1.545   4.181   0.874 -2.6191  2.5301  0.7698
 1237SOL     OW15172   2.696   1.026   2.213  0.3145  0.1980 -0.7211
 1237SOL    HW115173   2.679   1.035   2.119 -0.7064  2.5846 -0.3110
 1237SOL    HW215174   2.622   0.975   2.247 -0.1875  0.4833 -1.3880
 1238SOL     OW15175   0.944   2.943  17.367 -0.0579  0.3660 -0.1808
 1238SOL    HW115176   0.888   2.985  17.303 -1.2361  1.2049  1.3924
 1238SOL    HW215177   0.891   2.957  17.446 -1.8386  1.4406 -1.5672
 1239SOL     OW15178   0.695   2.678   5.024  0.2991 -0.1185 -0.2440
 1239SOL    HW115179   0.762   2.617   5.056  0.2250 -0.0758 -0.0043
 1239SOL    HW215180   0.615   2.626   5.014 -0.2700  0.5089  1.0347
 1240SOL     OW15181   2.145   4.409   1.798 -0.5779 -0.5290 -0.0516
 1240SOL    HW115182   2.217   4.383   1.741 -0.6371 -0.7818 -0.0094
 1240SOL    HW215183   2.123   4.494   1.759 -0.3030 -0.3624  0.1515
 1241SOL     OW15184   3.101   4.392   8.708  0.1214 -0.0434  0.2225
 1241SOL    HW115185   3.082   4.313   8.760  2.3608 -2.1161 -2.0983
 1241SOL    HW215186   3.189   4.403   8.744  0.8749 -1.2493 -1.2828
 1242SOL     OW15187   0.761   2.917   8.867  0.2701  0.3502 -0.6293
 1242SOL    HW115188   0.712   2.988   8.908  0.3009 -1.0647  1.8719
 1242SOL    HW215189   0.790   2.957   8.785  0.5296 -0.6156 -1.0144
 1243SOL     OW15190   1.863   3.519   8.569  0.0751 -0.0789 -0.5654
 1243SOL    HW115191   1.799   3.453   8.594 -1.0673  1.6882  1.2027
 1243SOL    HW215192   1.926   3.518   8.641 -1.6806 -3.5821  0.8952
 1244SOL     OW15193   1.280   1.458   8.303  0.4256  0.7761 -0.1565
 1244SOL    HW115194   1.352   1.418   8.254  0.2364  0.2807 -0.0318
 1244SOL    HW215195   1.208   1.407   8.265  0.9872  0.6673 -1.0589
 1245SOL     OW15196   3.072   4.471   7.281  0.2937 -0.3374 -0.4054
 1245SOL    HW115197   3.044   4.396   7.333  0.3479 -0.2304 -0.2207
 1245SOL    HW215198   3.123   4.514   7.349 -1.6706  2.4450 -0.6969
 1246SOL     OW15199   4.515   2.994   2.449  0.3582 -0.6870  0.0399
 1246SOL    HW115200   4.469   3.047   2.515  0.4841 -1.2273  0.5589
 1246SOL    HW215201   4.547   3.061   2.389  0.1450  1.1553  1.9756
 1247SOL     OW15202   2.214   3.104   7.387  0.2804 -0.4706  0.1329
 1247SOL    HW115203   2.173   3.080   7.303 -0.3380  0.5253  0.1536
 1247SOL    HW215204   2.267   3.179   7.359 -0.0537 -1.4579 -3.2433
 1248SOL     OW15205   0.201   3.138   4.565 -0.0894  0.4481  0.1718
 1248SOL    HW115206   0.262   3.174   4.501  0.1510  1.2979  0.8817
 1248SOL    HW215207   0.129   3.106   4.511 -0.5245 -2.8593  2.7200
 1249SOL     OW15208   4.534   2.759   7.490 -0.6278 -0.4727  0.6289
 1249SOL    HW115209   4.545   2.834   7.549 -1.0175  0.5954 -0.6676
 1249SOL    HW215210   4.621   2.719   7.497  0.9455  2.9467  0.6226
 1250SOL     OW15211   3.497   1.296  16.402  0.0214 -0.2004  0.0929
 1250SOL    HW115212   3.475   1.232  16.334  0.3163 -2.0566  1.7260
 1250SOL    HW215213   3.500   1.371  16.342  0.2274  0.7811  1.3373
 1251SOL     OW15214   3.923   2.261   8.814  0.3232  0.7115 -0.0158
 1251SOL    HW115215   3.867   2.184   8.826  0.6175  0.6714  1.0532
 1251SOL    HW215216   3.899   2.294   8.727  1.6217 -0.1074 -0.6806
 1252SOL     OW15217   0.838   2.175   4.772 -0.0416  0.2319 -0.1056
 1252SOL    HW115218   0.864   2.193   4.862 -3.6481 -3.0422  1.5664
 1252SOL    HW215219   0.798   2.261   4.755  0.8448  0.9626  1.5402
 1253SOL     OW15220   1.392   4.103  12.930  0.1754 -0.1040  0.3840
 1253SOL    HW115221   1.340   4.090  12.850 -0.6919  1.9192  0.6082
 1253SOL    HW215222   1.446   4.025  12.929  2.5152  1.5149  0.6734
 1254SOL     OW15223   3.472   1.910   5.619  0.1565  0.1591 -0.7300
 1254SOL    HW115224   3.486   1.876   5.707  0.5373  0.4412 -0.6839
 1254SOL    HW215225   3.559   1.937   5.589  0.3787  1.5131  1.1397
 1255SOL     OW15226   2.935   1.226   9.207  0.3292  0.1424  0.0267
 1255SOL    HW115227   2.992   1.174   9.264  1.8166  1.1914 -0.5311
 1255SOL    HW215228   2.938   1.308   9.257  1.7854  0.3667 -0.4414
 1256SOL     OW15229   1.188   1.829   5.677  0.2257  0.1106  0.0371
 1256SOL    HW115230   1.127   1.896   5.647  0.5038 -1.0320 -3.0282
 1256SOL    HW215231   1.214   1.843   5.768 -0.6491  0.2650  0.2630
 1257SOL     OW15232   1.008   3.490   3.380  0.1698 -0.2816 -0.0087
 1257SOL    HW115233   1.071   3.490   3.307  0.8530  0.1770  0.5868
 1257SOL    HW215234   0.977   3.581   3.374  0.5951  0.0596  3.1575
 1258SOL     OW15235   4.524   2.607   8.490 -0.1982 -0.2455  0.6975
 1258SOL    HW115236   4.599   2.637   8.542 -1.2172  1.3872  1.2195
 1258SOL    HW215237   4.465   2.671   8.531 -1.0681 -0.7144  0.1770
 1259SOL     OW15238   1.788   4.044   3.019  0.2871  0.0592 -0.8792
 1259SOL    HW115239   1.700   4.014   2.998 -1.0905  3.9767 -0.7509
 1259SOL    HW215240   1.782   4.063   3.113  1.6802 -0.1779 -0.7407
 1260SOL     OW15241   2.652   0.557  13.642  0.1102 -0.7100 -0.1869
 1260SOL    HW115242   2.676   0.466  13.659  1.1548 -0.3725  0.1275
 1260SOL    HW215243   2.712   0.589  13.575 -0.9789  0.4474 -0.6246
 1261SOL     OW15244   4.387   0.573   4.897 -0.2640 -0.3517 -0.3190
 1261SOL    HW115245   4.349   0.647   4.945 -1.4659 -0.5924 -0.9157
 1261SOL    HW215246   4.338   0.495   4.924  2.7254 -1.5258  1.8044
 1262SOL     OW15247   1.316   3.061   7.518  0.6921 -0.3096  0.3210
 1262SOL    HW115248   1.271   2.986   7.479 -0.7673  1.1802 -0.8831
 1262SOL    HW215249   1.239   3.094   7.563  0.8107 -0.2691  0.4935
 1263SOL     OW15250   1.675   1.148   5.864  0.0549 -0.2683  0.5465
 1263SOL    HW115251   1.767   1.167   5.884  0.3347 -0.1647 -0.8592
 1263SOL    HW215252   1.658   1.220   5.803  2.2856  0.7315  1.1044
 1264SOL     OW15253   2.725   2.838   7.904  0.2041 -0.3760  0.1149
 1264SOL    HW115254   2.710   2.746   7.884  0.8197 -0.0326 -1.9411
 1264SOL    HW215255   2.713   2.871   7.815  3.6502  1.8133  0.4948
 1265SOL     OW15256   1.912   3.496   2.322  0.2348  0.4645 -0.1971
 1265SOL    HW115257   1.836   3.502   2.380 -0.0918 -1.0367 -0.4691
 1265SOL    HW215258   1.885   3.440   2.249 -1.5994  0.2694  0.6432
 1266SOL     OW15259   0.543   4.683   3.689 -0.2844 -0.0189  0.2127
 1266SOL    HW115260   0.512   4.637   3.611 -0.0825 -0.3426  0.3237
 1266SOL    HW215261   0.636   4.665   3.697  0.1518  2.6077  1.1269
 1267SOL     OW15262   1.434   1.775   5.558  0.3669  0.0500 -0.7759
 1267SOL    HW115263   1.343   1.785   5.587  0.2002  0.7697 -1.5327
 1267SOL    HW215264   1.428   1.691   5.512  0.2807 -0.1801 -0.3418
 1268SOL     OW15265   0.858   1.195   8.287 -0.8569  0.2088 -0.2663
 1268SOL    HW115266   0.865   1.290   8.277  0.7574  0.1855  0.6301
 1268SOL    HW215267   0.807   1.203   8.368 -0.1200 -1.0536  0.3073
 1269SOL     OW15268   2.742   0.428  12.216  0.1219  0.0385 -0.1998
 1269SOL    HW115269   2.835   0.450  12.216 -0.2090  1.4693  0.0339
 1269SOL    HW215270   2.726   0.366  12.286  3.3970 -0.3731  0.1846
 1270SOL     OW15271   2.804   3.214   5.218  0.5347  1.3608  0.3152
 1270SOL    HW115272   2.709   3.230   5.216 -0.0221 -1.7314  1.7301
 1270SOL    HW215273   2.820   3.188   5.308  0.4481  0.0767 -0.0439
 1271SOL     OW15274   4.638   4.503   4.161 -0.3422 -0.3971  0.7792
 1271SOL    HW115275   4.627   4.420   4.115 -0.9778 -0.1699  0.5325
 1271SOL    HW215276   4.548   4.536   4.161 -0.1177  0.2122 -0.3187
 1272SOL     OW15277   0.243   4.399  14.996 -0.0333  0.6968 -0.2336
 1272SOL    HW115278   0.207   4.403  15.085 -1.2459  0.0103 -0.6969
 1272SOL    HW215279   0.213   4.487  14.972  1.1545  2.0732  3.2974
 1273SOL     OW15280   2.161   0.840   8.803 -0.2033  0.0759  0.0442
 1273SOL    HW115281   2.129   0.818   8.890  1.3487  1.1181  0.8806
 1273SOL    HW215282   2.247   0.876   8.826  0.2935 -0.8858 -0.2967
 1274SOL     OW15283   1.208   3.049   9.122  0.7009  0.4287 -0.2763
 1274SOL    HW115284   1.155   2.974   9.096  1.5639 -0.6218  0.9575
 1274SOL    HW215285   1.224   3.025   9.214  0.1307  0.1116 -0.2586
 1275SOL     OW15286   4.201   1.719   8.169 -0.6366 -0.1213 -0.6993
 1275SOL    HW115287   4.260   1.665   8.221  0.8828  2.1489 -0.0767
 1275SOL    HW215288   4.147   1.769   8.231  1.9458  0.7654  0.7922
 1276SOL     OW15289   2.193   1.970   5.607 -0.1532  0.0823 -0.1020
 1276SOL    HW115290   2.102   1.978   5.633 -0.2794  1.1120 -0.8577
 1276SOL    HW215291   2.194   1.916   5.527  1.0404  2.1606 -1.4971
 1277SOL     OW15292   2.426   2.625   2.039 -0.2647  0.5668 -0.1019
 1277SOL    HW115293   2.520   2.634   2.054 -0.2947  0.2846  0.2706
 1277SOL    HW215294   2.407   2.656   1.951 -0.9934  1.9120  0.5409
 1278SOL     OW15295   0.383   0.131   3.300 -0.1881  0.2431 -0.0374
 1278SOL    HW115296   0.353   0.206   3.351  1.1739  1.6585 -1.3275
 1278SOL    HW215297   0.470   0.160   3.273 -0.5789 -0.4113 -1.9465
 1279SOL     OW15298   1.780   1.087   7.597  0.2620  0.5368 -0.3360
 1279SOL    HW115299   1.730   1.083   7.515  2.3812 -0.9724 -1.5409
 1279SOL    HW215300   1.737   1.007   7.629 -0.7067  1.8821  1.8024
 1280SOL     OW15301   3.064   0.786   7.442  0.0280  0.6487  0.6988
 1280SOL    HW115302   3.035   0.832   7.521  2.1765  4.3294 -0.6629
 1280SOL    HW215303   3.149   0.751   7.467 -0.9883 -3.0804 -1.0159
 1281SOL     OW15304   0.714   1.960  15.513 -1.1000 -0.0746  0.5101
 1281SOL    HW115305   0.676   1.893  15.456  0.1887 -1.8338  1.7407
 1281SOL    HW215306   0.805   1.942  15.488 -1.0055 -0.9805  1.5338
 1282SOL     OW15307   0.777   4.500   2.197 -0.2690 -0.2161 -0.1582
 1282SOL    HW115308   0.712   4.501   2.267 -1.2990 -0.6977 -1.1165
 1282SOL    HW215309   0.828   4.420   2.207  0.5955  0.7271  3.0065
 1283SOL     OW15310   1.568   2.703   8.081  0.1596  0.1637  0.6730
 1283SOL    HW115311   1.660   2.702   8.108 -0.7125 -0.2427  3.6394
 1283SOL    HW215312   1.522   2.688   8.164 -1.5860  0.2725 -0.2693
 1284SOL     OW15313   2.653   2.974  13.740  0.0820  0.0202 -0.0721
 1284SOL    HW115314   2.668   3.002  13.830 -0.7574 -0.1122  0.1113
 1284SOL    HW215315   2.613   3.056  13.713 -1.9159 -0.3851  1.6660
 1285SOL     OW15316   0.526   4.643   5.439  0.0426  0.6371  0.2521
 1285SOL    HW115317   0.509   4.580   5.369  0.3934 -2.2094  2.7147
 1285SOL    HW215318   0.520   4.593   5.521  1.3946  0.6066  0.3382
 1286SOL     OW15319   1.483   1.540   8.465  0.1174 -0.3743 -0.0826
 1286SOL    HW115320   1.402   1.520   8.417  1.5322  1.2999 -3.1403
 1286SOL    HW215321   1.522   1.615   8.419  1.0123 -0.7251  0.1071
 1287SOL     OW15322   4.614   1.936  12.790 -0.5330 -0.6385 -0.2830
 1287SOL    HW115323   4.698   1.893  12.806 -0.4013 -0.3891 -0.2898
 1287SOL    HW215324   4.570   1.930  12.875 -0.0941  0.2115  0.0041
 1288SOL     OW15325   0.756   1.490   7.400  0.0050 -0.4274 -0.4444
 1288SOL    HW115326   0.819   1.561   7.413  0.9655 -1.3385 -0.1646
 1288SOL    HW215327   0.675   1.534   7.426  0.2241  0.5279 -1.3830
 1289SOL     OW15328   1.502   4.296   7.905 -0.3010  0.0840  0.5667
 1289SOL    HW115329   1.533   4.206   7.903  2.6585  1.1670 -2.0508
 1289SOL    HW215330   1.414   4.292   7.868 -0.9251 -0.7207  2.1681
 1290SOL     OW15331   2.203   2.663  12.986  0.2046 -0.5207 -0.3910
 1290SOL    HW115332   2.169   2.577  12.963 -1.7873 -0.0290  0.6213
 1290SOL    HW215333   2.227   2.693  12.899  0.2524  3.6096  1.0319
 1291SOL     OW15334   4.521   2.738   4.231  0.4417  0.1160  0.1924
 1291SOL    HW115335   4.483   2.780   4.308  0.3587  1.0849 -0.3737
 1291SOL    HW215336   4.526   2.650   4.270 -0.2672  0.1262  0.3040
 1292SOL     OW15337   1.951   4.188  13.847  0.2686  0.3211  0.5949
 1292SOL    HW115338   1.910   4.193  13.761  1.9690 -1.4989 -0.3085
 1292SOL    HW215339   1.999   4.105  13.840  1.3495  0.9159  0.9326
 1293SOL     OW15340   2.134   1.670   7.419 -0.0344 -0.6471 -0.5368
 1293SOL    HW115341   2.091   1.632   7.495  0.1289  1.6652  0.6942
 1293SOL    HW215342   2.092   1.755   7.417 -1.3296 -1.2334  2.1041
 1294SOL     OW15343   2.652   3.435   3.133  0.2655 -0.1077  0.5891
 1294SOL    HW115344   2.638   3.472   3.220 -1.2067 -2.1147  1.2183
 1294SOL    HW215345   2.606   3.351   3.144 -1.4340  0.4109 -2.3888
 1295SOL     OW15346   4.084   3.054   1.229 -0.9503  0.4669  0.4739
 1295SOL    HW115347   4.083   3.150   1.229  0.1911  0.4758  1.2581
 1295SOL    HW215348   4.142   3.043   1.153  1.1804  2.1512  1.8517
 1296SOL     OW15349   4.663   2.816   2.085 -0.1539 -0.2621 -0.2954
 1296SOL    HW115350   0.018   2.862   2.117 -0.6055 -0.2682  0.8359
 1296SOL    HW215351   4.703   2.732   2.065 -1.5207 -0.6306 -1.4428
 1297SOL     OW15352   4.040   1.455   9.775  0.7784 -0.4140  0.0247
 1297SOL    HW115353   4.007   1.509   9.847 -1.7848 -3.2668  1.0036
 1297SOL    HW215354   4.125   1.493   9.754  0.3101 -0.8036 -2.5534
 1298SOL     OW15355   1.608   1.750   8.374  0.4203  0.1498 -0.3280
 1298SOL    HW115356   1.678   1.750   8.440 -0.1413 -1.6155  0.2480
 1298SOL    HW215357   1.652   1.731   8.292 -0.7826  0.9797 -1.1608
 1299SOL     OW15358   1.027   4.298   1.245 -0.1855 -0.0482  0.0077
 1299SOL    HW115359   0.953   4.256   1.201 -0.7842 -0.0333  1.0037
 1299SOL    HW215360   0.997   4.316   1.334 -0.1194  0.1110 -0.0021
 1300SOL     OW15361   1.645   0.962   7.347  0.3213  0.1848 -0.1100
 1300SOL    HW115362   1.664   0.872   7.320 -1.3369 -0.5662  1.2747
 1300SOL    HW215363   1.550   0.961   7.350  0.4107 -0.0302  2.6244
 1301SOL     OW15364   4.028   2.890   8.243 -0.4912  0.9684  0.5011
 1301SOL    HW115365   4.006   2.932   8.327 -2.9265  0.0336  0.3343
 1301SOL    HW215366   4.112   2.850   8.264 -0.1164  1.6102  0.2071
 1302SOL     OW15367   0.490   1.442   9.666  0.6269  0.1066 -0.1468
 1302SOL    HW115368   0.401   1.406   9.672 -0.7256  3.3098 -0.6629
 1302SOL    HW215369   0.511   1.429   9.759  0.8246 -1.5924 -0.4334
 1303SOL     OW15370   4.600   2.047   5.003  0.6579 -0.1757 -0.1980
 1303SOL    HW115371   4.657   1.981   5.042  0.7424  0.3994  0.6718
 1303SOL    HW215372   4.653   2.127   5.006 -0.5050  0.5481  1.4499
 1304SOL     OW15373   0.660   3.551  15.229 -0.1833  0.2829  0.2056
 1304SOL    HW115374   0.667   3.555  15.134  0.9426  0.2128  0.2846
 1304SOL    HW215375   0.748   3.523  15.251 -0.1709 -1.8040 -2.4868
 1305SOL     OW15376   0.413   2.731   6.812 -0.1288 -0.2298 -0.1097
 1305SOL    HW115377   0.416   2.799   6.880  1.1418 -2.4033  2.0104
 1305SOL    HW215378   0.438   2.665   6.877  0.8144 -2.0055 -2.2872
 1306SOL     OW15379   1.083   3.150   9.792 -0.3219 -0.3356  0.3571
 1306SOL    HW115380   1.107   3.237   9.824 -0.2003  0.1145 -0.9350
 1306SOL    HW215381   1.112   3.162   9.701  2.5280  1.2544  1.4751
 1307SOL     OW15382   2.721   4.689   5.630 -0.5217  0.7022  0.5841
 1307SOL    HW115383   2.678   4.638   5.561  0.5949  2.9811 -1.7866
 1307SOL    HW215384   2.710   0.053   5.593 -0.1106  0.6033  0.2295
 1308SOL     OW15385   3.720   3.912   4.459  0.4793 -0.1622  0.0882
 1308SOL    HW115386   3.661   3.836   4.458 -0.3076  0.4538 -0.5078
 1308SOL    HW215387   3.688   3.953   4.378  0.3708 -0.5670 -0.0728
 1309SOL     OW15388   1.294   1.637   4.121  0.3801  0.5018  0.2201
 1309SOL    HW115389   1.323   1.553   4.156  0.1236  0.7223  0.9629
 1309SOL    HW215390   1.356   1.652   4.049  1.7846 -0.4353  1.2382
 1310SOL     OW15391   2.674   2.104  14.202  0.3410  0.2083  0.1329
 1310SOL    HW115392   2.654   2.075  14.113 -2.3377  0.8178  0.5212
 1310SOL    HW215393   2.640   2.194  14.200 -0.6978 -0.1689  0.5171
 1311SOL     OW15394   3.703   3.065   7.453  0.4644  0.3569  0.8255
 1311SOL    HW115395   3.629   3.015   7.418  0.6968 -0.2485  1.2043
 1311SOL    HW215396   3.665   3.119   7.522 -1.1151  0.1187  0.1498
 1312SOL     OW15397   2.715   1.228   9.835  0.2131 -0.2179  0.6487
 1312SOL    HW115398   2.748   1.174   9.763 -0.5166  1.9450 -1.2988
 1312SOL    HW215399   2.688   1.161   9.898 -2.6945  2.2883  2.0568
 1313SOL     OW15400   0.622   2.247  14.339  0.0351 -0.2592  0.2546
 1313SOL    HW115401   0.549   2.298  14.305  0.0808 -1.1138 -1.1577
 1313SOL    HW215402   0.676   2.311  14.385  0.6697 -0.2515 -0.5051
 1314SOL     OW15403   0.828   0.301   5.717  0.2309 -0.4523  0.7565
 1314SOL    HW115404   0.735   0.296   5.695 -0.5428  0.4452  3.7920
 1314SOL    HW215405   0.832   0.394   5.741 -1.9241  0.0094 -0.6231
 1315SOL     OW15406   2.310   1.962   7.132 -0.2080 -0.2620  0.0001
 1315SOL    HW115407   2.388   1.906   7.137  1.2576  2.0968  3.6983
 1315SOL    HW215408   2.360   2.042   7.119  1.2815 -0.7306  2.7770
 1316SOL     OW15409   1.709   0.630   0.952 -0.1888  0.5337 -0.2605
 1316SOL    HW115410   1.731   0.606   0.862  0.0349  0.9211 -0.3088
 1316SOL    HW215411   1.792   0.644   0.998 -0.8166 -1.7630  1.5416
 1317SOL     OW15412   1.424   4.358   1.736 -0.3397 -0.1461 -0.0748
 1317SOL    HW115413   1.465   4.309   1.807 -0.2918  0.7044  0.4833
 1317SOL    HW215414   1.505   4.382   1.693  0.1377 -0.7052  0.5082
 1318SOL     OW15415   0.488   3.422   4.667 -0.1694  0.3164  0.2093
 1318SOL    HW115416   0.465   3.392   4.579 -2.6722  1.6045  0.4248
 1318SOL    HW215417   0.402   3.454   4.694  0.4027  3.2625 -1.4831
 1319SOL     OW15418   4.097   3.218   7.467  0.2245 -0.2795 -0.0689
 1319SOL    HW115419   4.011   3.213   7.508  0.2577 -1.4122 -0.1260
 1319SOL    HW215420   4.147   3.249   7.542  0.3988  1.5034 -0.9133
 1320SOL     OW15421   0.544   3.628   0.584 -0.5162  0.5932  0.6683
 1320SOL    HW115422   0.456   3.614   0.549 -0.0493  1.7720 -0.9691
 1320SOL    HW215423   0.589   3.678   0.516  0.8285 -2.4604 -0.6760
 1321SOL     OW15424   1.218   3.103   2.444  0.6663  0.3746  0.0812
 1321SOL    HW115425   1.172   3.104   2.528  1.9623  0.3335  0.7913
 1321SOL    HW215426   1.184   3.023   2.405  0.0203 -0.1719  1.7539
 1322SOL     OW15427   4.224   4.293  17.670  0.0690 -0.0135 -0.0208
 1322SOL    HW115428   4.242   4.257  17.584  0.5431 -0.7797  0.4029
 1322SOL    HW215429   4.257   4.227   0.037 -0.9293  1.8941  2.6489
 1323SOL     OW15430   2.554   0.149   5.272 -0.0102  0.0165 -0.4211
 1323SOL    HW115431   2.490   0.079   5.287 -1.0557  0.9193 -0.6149
 1323SOL    HW215432   2.585   0.180   5.357 -0.5234  0.3016 -0.3358
 1324SOL     OW15433   1.530   0.296   7.385  0.0582 -0.2365  0.1083
 1324SOL    HW115434   1.492   0.248   7.312  0.2608  0.5683 -0.5222
 1324SOL    HW215435   1.470   0.266   7.453 -0.8126  0.2060 -0.4720
 1325SOL     OW15436   0.859   2.802   9.701 -0.1749  0.4455  0.3831
 1325SOL    HW115437   0.890   2.782   9.789 -1.6295  1.1410  1.0501
 1325SOL    HW215438   0.923   2.751   9.650 -1.3818 -0.1122 -0.5722
 1326SOL     OW15439   3.725   1.460  13.827 -0.0191  0.0918  0.1676
 1326SOL    HW115440   3.695   1.485  13.740 -1.2493 -2.3729 -0.0949
 1326SOL    HW215441   3.738   1.545  13.871 -1.7773  0.0884  0.7110
 1327SOL     OW15442   1.487   1.659   8.131  0.1183 -0.7484 -0.3167
 1327SOL    HW115443   1.524   1.674   8.044  0.9991 -2.3202 -0.2234
 1327SOL    HW215444   1.398   1.689   8.115  0.1831 -1.0502 -1.2498
 1328SOL     OW15445   0.628   1.935  10.668 -0.2022 -0.2559  0.5183
 1328SOL    HW115446   0.715   1.898  10.650 -0.0561 -0.2475  1.2136
 1328SOL    HW215447   0.569   1.906  10.599 -1.0585  0.6415  0.8859
 1329SOL     OW15448   0.782   0.185   2.327  0.2759  0.4614 -0.2895
 1329SOL    HW115449   0.713   0.151   2.271 -1.0014  1.9816  0.3421
 1329SOL    HW215450   0.732   0.253   2.373  0.2883 -0.5698  1.2652
 1330SOL     OW15451   1.811   1.911   9.982 -0.1208  0.1518 -0.8086
 1330SOL    HW115452   1.840   1.999   9.958  1.7592 -0.6688 -1.5602
 1330SOL    HW215453   1.894   1.887  10.022  0.9983  1.6645 -2.2147
 1331SOL     OW15454   3.086   1.646   8.404  0.2634  0.5433  0.4793
 1331SOL    HW115455   2.998   1.615   8.425  0.1086  0.5240 -0.2226
 1331SOL    HW215456   3.105   1.701   8.481 -0.8169  0.3736  0.8586
 1332SOL     OW15457   0.764   4.127   2.056 -0.2733  0.0499  0.2525
 1332SOL    HW115458   0.822   4.141   2.132  0.2154  1.0371 -0.3010
 1332SOL    HW215459   0.726   4.041   2.072 -0.5728  0.4522  1.7366
 1333SOL     OW15460   0.042   0.861   8.761 -0.5189  0.0468 -0.0941
 1333SOL    HW115461   0.027   0.773   8.796 -0.7670 -0.1952 -0.7994
 1333SOL    HW215462   0.005   0.917   8.829 -0.6308 -0.4396  0.2490
 1334SOL     OW15463   1.787   1.680  11.666 -0.3057  0.5529  0.2470
 1334SOL    HW115464   1.732   1.758  11.664 -0.2287  0.5806 -0.6405
 1334SOL    HW215465   1.753   1.631  11.742 -1.9306 -0.3013 -1.0377
 1335SOL     OW15466   1.061   0.120   6.759 -0.5903 -0.0551 -0.0768
 1335SOL    HW115467   1.019   0.206   6.759  1.4714  0.9551 -1.6252
 1335SOL    HW215468   1.107   0.132   6.676 -0.5126 -0.9331 -0.1595
 1336SOL     OW15469   1.271   2.454   2.979 -0.0111  0.2185  1.0253
 1336SOL    HW115470   1.208   2.524   2.968 -1.6755 -1.4827 -0.2423
 1336SOL    HW215471   1.305   2.432   2.892 -0.7479 -1.7917  1.2447
 1337SOL     OW15472   4.128   4.607   0.160 -0.5384  0.0202  0.3123
 1337SOL    HW115473   4.202   4.556   0.128  0.6833  1.4734  0.8255
 1337SOL    HW215474   4.066   4.592   0.089  0.4615 -0.9073 -0.3751
 1338SOL     OW15475   2.422   3.878   4.426  0.1149  0.0877  0.3361
 1338SOL    HW115476   2.514   3.855   4.420  0.1605  0.3113  0.2080
 1338SOL    HW215477   2.414   3.967   4.392 -1.5619  0.9710  3.0287
 1339SOL     OW15478   0.017   4.497  16.417 -0.0130 -0.9283  0.0334
 1339SOL    HW115479   0.080   4.428  16.440  1.5519  0.9131  1.1994
 1339SOL    HW215480   0.082   4.567  16.407  0.1786 -1.0996  0.0732
 1340SOL     OW15481   3.071   1.525   6.242  0.1760  0.4357  0.4302
 1340SOL    HW115482   3.081   1.616   6.217  2.4876  0.0898  0.0930
 1340SOL    HW215483   2.976   1.514   6.243  0.1531  0.4771 -2.2038
 1341SOL     OW15484   2.729   0.325   7.359  0.5482  0.4935  0.5700
 1341SOL    HW115485   2.671   0.354   7.429  0.2068  1.9476 -0.3117
 1341SOL    HW215486   2.673   0.323   7.281  0.6451  2.2747  0.4562
 1342SOL     OW15487   3.062   3.209   8.492  0.4011 -0.2961 -0.2839
 1342SOL    HW115488   3.059   3.302   8.515 -1.6774 -0.0995 -1.4294
 1342SOL    HW215489   3.156   3.189   8.495  0.7619  1.2796 -1.1347
 1343SOL     OW15490   1.221   1.620   7.792  0.5922  0.1380  0.1752
 1343SOL    HW115491   1.284   1.663   7.849 -0.5217 -0.1241  1.6247
 1343SOL    HW215492   1.135   1.649   7.823 -0.2629 -1.1059 -1.0052
 1344SOL     OW15493   4.025   1.473  11.173  0.3093 -0.5563 -0.4611
 1344SOL    HW115494   4.101   1.526  11.148  0.3755 -1.1473 -1.4886
 1344SOL    HW215495   3.953   1.536  11.174  1.0979  0.3351  0.1694
 1345SOL     OW15496   2.101   1.071   6.930  0.1931 -0.4677  0.0677
 1345SOL    HW115497   2.049   1.007   6.882 -1.5327  0.0050  1.2798
 1345SOL    HW215498   2.183   1.071   6.881 -0.0690  1.0612 -0.3817
 1346SOL     OW15499   3.851   0.436  17.387  0.6726 -0.4073 -0.1496
 1346SOL    HW115500   3.791   0.378  17.340  0.8957 -0.6991 -0.0810
 1346SOL    HW215501   3.798   0.445  17.466 -1.0719 -0.3370 -1.3169
 1347SOL     OW15502   2.763   4.526   1.932  0.2960  0.4903 -0.3978
 1347SOL    HW115503   2.848   4.491   1.904 -0.0446 -1.0570  0.5150
 1347SOL    HW215504   2.779   4.617   1.956 -1.0704  1.1999 -2.1140
 1348SOL     OW15505   2.551   0.823   9.426 -0.2334  0.3477 -0.1013
 1348SOL    HW115506   2.552   0.913   9.458 -0.5339  0.3714 -0.1579
 1348SOL    HW215507   2.582   0.832   9.335  0.0733 -0.2214 -0.0533
 1349SOL     OW15508   0.704   2.866   6.370  0.0943 -0.1223 -0.3758
 1349SOL    HW115509   0.657   2.785   6.384  1.0628 -0.8989 -1.6157
 1349SOL    HW215510   0.630   2.927   6.375  1.4875  1.5237  0.3011
 1350SOL     OW15511   1.150   4.072   1.856 -0.2061 -0.0316 -0.3798
 1350SOL    HW115512   1.069   4.024   1.838  0.9975 -3.6665  3.6085
 1350SOL    HW215513   1.209   4.036   1.789  0.5326 -0.3617  0.4391
 1351SOL     OW15514   3.948   2.820   7.285  0.0628 -0.2068  0.3183
 1351SOL    HW115515   3.994   2.742   7.316  0.3296  0.5413  1.8179
 1351SOL    HW215516   3.945   2.871   7.366 -0.0992  1.1042 -0.5042
 1352SOL     OW15517   1.142   0.174  17.327  0.2521  0.0097 -0.5376
 1352SOL    HW115518   1.184   0.257  17.305  0.6527 -0.3659 -1.2108
 1352SOL    HW215519   1.168   0.135  17.243  1.2222  0.9464 -0.6723
 1353SOL     OW15520   0.925   2.101   8.963  0.0910  0.1375 -0.5272
 1353SOL    HW115521   1.017   2.085   8.984 -0.0549  0.2379  0.1923
 1353SOL    HW215522   0.896   2.184   9.002  0.1423  0.2710 -0.7783
 1354SOL     OW15523   0.553   3.566  15.726 -0.6176 -0.4522  0.3639
 1354SOL    HW115524   0.571   3.502  15.657 -2.2740  0.7765 -1.2278
 1354SOL    HW215525   0.634   3.568  15.776 -0.2282 -0.2550 -0.2799
 1355SOL     OW15526   4.258   2.335   6.429  0.1389  0.1271  0.2179
 1355SOL    HW115527   4.207   2.255   6.423  1.7896 -0.8738 -0.5345
 1355SOL    HW215528   4.348   2.302   6.438  0.3358  0.9904  1.5177
 1356SOL     OW15529   1.684   2.312  17.599  0.1408  0.1080 -0.0972
 1356SOL    HW115530   1.647   2.392  17.638  3.3129  1.7170 -0.4244
 1356SOL    HW215531   1.759   2.306  17.658  0.9712  0.1514 -1.1493
 1357SOL     OW15532   2.482   1.069  11.598 -0.0889 -0.1316  0.5476
 1357SOL    HW115533   2.560   1.066  11.653  0.6619  1.9880 -0.4310
 1357SOL    HW215534   2.518   1.125  11.530  0.5454 -0.9274  0.2374
 1358SOL     OW15535   3.155   3.416   2.802 -0.4595 -0.2072 -0.5284
 1358SOL    HW115536   3.114   3.399   2.717 -1.8029 -0.7401  0.2320
 1358SOL    HW215537   3.096   3.488   2.823  0.2896  0.1845  0.2556
 1359SOL     OW15538   3.492   0.395   7.335 -0.2629  0.3097 -0.0792
 1359SOL    HW115539   3.444   0.447   7.400 -1.6678 -1.1816  0.0842
 1359SOL    HW215540   3.552   0.368   7.405 -1.3773 -0.7340  0.4796
 1360SOL     OW15541   3.379   3.005   0.154  0.3619 -0.1229  0.0421
 1360SOL    HW115542   3.372   3.084   0.100  2.7677  0.7203  0.9595
 1360SOL    HW215543   3.319   3.024   0.225  0.5212  0.3682  0.0441
 1361SOL     OW15544   3.041   1.718   9.271 -0.5884  0.2576  0.1048
 1361SOL    HW115545   3.132   1.739   9.251 -0.1670  0.2559  2.0260
 1361SOL    HW215546   3.041   1.634   9.316  2.8528  0.1091 -0.2042
 1362SOL     OW15547   2.668   3.624   5.594 -0.1416 -0.4359 -0.0669
 1362SOL    HW115548   2.599   3.629   5.659  1.0698 -0.9396  1.2709
 1362SOL    HW215549   2.659   3.705   5.545  0.5858  0.4247  1.2154
 1363SOL     OW15550   1.797   2.748   2.095  0.1420  0.6823 -0.1063
 1363SOL    HW115551   1.761   2.827   2.055  2.8995  2.1666  0.3388
 1363SOL    HW215552   1.873   2.789   2.136 -0.1521 -0.1819  1.3227
 1364SOL     OW15553   2.623   0.655   6.879  0.0509 -0.2663 -0.1258
 1364SOL    HW115554   2.560   0.704   6.932 -0.2580 -0.4083 -0.3628
 1364SOL    HW215555   2.671   0.607   6.947 -0.8451 -0.3976  0.4085
 1365SOL     OW15556   0.638   4.585   7.534  0.0420 -0.6036  0.7719
 1365SOL    HW115557   0.571   4.591   7.466  3.8231  0.0675 -2.9444
 1365SOL    HW215558   0.694   4.518   7.493  0.6068 -0.3009  1.0527
 1366SOL     OW15559   1.153   1.451   7.213 -0.1848 -0.3987  0.4253
 1366SOL    HW115560   1.121   1.436   7.301  2.2781 -0.0328  1.4007
 1366SOL    HW215561   1.232   1.397   7.211  1.9513  2.7431 -0.7086
 1367SOL     OW15562   3.517   0.809   0.933  0.1902 -0.6861  0.0192
 1367SOL    HW115563   3.510   0.892   0.982  1.1825 -0.0991 -0.8207
 1367SOL    HW215564   3.478   0.832   0.849  0.8852  0.1038 -0.0928
 1368SOL     OW15565   4.582   4.682   1.937  0.6692  0.4097 -0.2121
 1368SOL    HW115566   4.647   4.686   1.867  1.4225  1.0486  0.5264
 1368SOL    HW215567   4.509   0.007   1.897 -0.0428  0.3082  0.9683
 1369SOL     OW15568   1.542   3.317   2.127  0.4675  0.6429  0.5882
 1369SOL    HW115569   1.633   3.290   2.117  0.2066  0.6751 -1.8662
 1369SOL    HW215570   1.507   3.257   2.192 -0.2151 -1.9722 -2.1998
 1370SOL     OW15571   0.080   1.035   4.290  0.2461 -0.6140  0.5600
 1370SOL    HW115572   0.068   1.100   4.360  0.2100  1.0351 -0.9904
 1370SOL    HW215573   0.150   1.079   4.241 -0.7744  1.5088  0.9995
 1371SOL     OW15574   1.681   0.608   2.372  0.2020  0.9287 -0.3681
 1371SOL    HW115575   1.616   0.541   2.356 -0.9315  1.9910 -0.2516
 1371SOL    HW215576   1.744   0.556   2.421 -2.1183 -0.7299  0.8489
 1372SOL     OW15577   0.903   1.159   4.908  0.3046  0.1347  0.6615
 1372SOL    HW115578   0.908   1.253   4.922  1.0531  0.1798  0.1112
 1372SOL    HW215579   0.856   1.134   4.988 -1.0466  3.2867  0.8378
 1373SOL     OW15580   3.316   0.257   6.296 -0.1348 -0.1481 -0.1256
 1373SOL    HW115581   3.264   0.221   6.369 -1.4536 -1.2627 -1.6151
 1373SOL    HW215582   3.250   0.244   6.227  0.3975  2.6143 -1.1524
 1374SOL     OW15583   2.172   1.228  13.275 -0.4281  0.4571 -0.4019
 1374SOL    HW115584   2.101   1.168  13.253 -0.4928  0.1875  0.5229
 1374SOL    HW215585   2.184   1.276  13.193  2.1672 -0.1878 -0.4108
 1375SOL     OW15586   4.394   2.108   7.523  0.6860  0.1189  0.1068
 1375SOL    HW115587   4.301   2.130   7.526  0.3704 -1.1923  0.0656
 1375SOL    HW215588   4.404   2.124   7.429  0.5046  2.1315  0.4324
 1376SOL     OW15589   4.660   0.585   4.960 -0.3367 -0.3708  0.3918
 1376SOL    HW115590   4.571   0.554   4.941 -0.2661 -0.1743 -0.2702
 1376SOL    HW215591   4.694   0.605   4.873 -1.8413  2.1965  0.4008
 1377SOL     OW15592   4.445   4.204   8.866  0.2458 -0.6153 -0.0123
 1377SOL    HW115593   4.532   4.214   8.827 -0.0193 -1.5585 -0.8623
 1377SOL    HW215594   4.462   4.198   8.960  1.3593 -1.5665 -0.2712
 1378SOL     OW15595   2.197   2.120  10.917  0.0093  0.3743  0.0011
 1378SOL    HW115596   2.202   2.216  10.916  2.0111  0.2663  1.0900
 1378SOL    HW215597   2.174   2.088  11.004 -0.9568  0.7000 -0.1275
 1379SOL     OW15598   4.256   1.781  15.295 -0.5745  0.0667  0.3889
 1379SOL    HW115599   4.234   1.871  15.269 -1.1701 -0.7153 -1.7615
 1379SOL    HW215600   4.258   1.792  15.390  1.7437  1.4719  0.1882
 1380SOL     OW15601   0.757   2.288   2.362 -0.8203 -0.2293  0.2820
 1380SOL    HW115602   0.835   2.261   2.313 -1.2774 -1.3874  0.1935
 1380SOL    HW215603   0.689   2.231   2.327 -0.4125 -0.9884  0.7277
 1381SOL     OW15604   2.060   2.135   9.034 -0.7320 -0.1775 -0.0266
 1381SOL    HW115605   2.152   2.160   9.043 -0.6027 -1.1171  1.3181
 1381SOL    HW215606   2.024   2.223   9.028 -0.1231  0.1185  0.6890
 1382SOL     OW15607   1.513   4.711  13.365  0.2437  0.4436 -0.4251
 1382SOL    HW115608   1.428   4.684  13.330  0.6798  0.0043 -1.1506
 1382SOL    HW215609   1.471   0.032  13.439  0.4588 -0.8333  0.4680
 1383SOL     OW15610   3.581   1.682   2.512 -0.0764 -0.1549 -0.1187
 1383SOL    HW115611   3.603   1.771   2.486 -0.6162 -0.3135 -1.1412
 1383SOL    HW215612   3.534   1.648   2.436 -0.8083  2.5918 -0.9105
 1384SOL     OW15613   4.339   0.801  13.117  0.3653 -0.8169  0.3141
 1384SOL    HW115614   4.326   0.713  13.083  2.5361  0.5451 -3.9788
 1384SOL    HW215615   4.427   0.827  13.093 -0.1679  0.0377 -0.7183
 1385SOL     OW15616   0.592   3.746   0.836 -0.0749 -0.0003  0.0469
 1385SOL    HW115617   0.564   3.709   0.752 -0.8092  0.5601  0.0391
 1385SOL    HW215618   0.524   3.813   0.842 -0.6911 -0.4685 -1.6863
 1386SOL     OW15619   2.691   0.179   9.172  0.4773  0.7733 -0.1693
 1386SOL    HW115620   2.630   0.231   9.119 -1.4705 -0.8302  0.5271
 1386SOL    HW215621   2.665   0.088   9.162  0.8408  0.9151 -2.5860
 1387SOL     OW15622   4.010   0.025   4.180 -0.6901 -0.1299 -0.3064
 1387SOL    HW115623   4.085   0.083   4.163 -0.5968 -0.7935 -2.2234
 1387SOL    HW215624   3.966   0.018   4.095  0.0968 -1.3083 -0.6088
 1388SOL     OW15625   3.305   3.974  11.752  0.6227 -0.0751  0.4836
 1388SOL    HW115626   3.378   3.912  11.753  2.7173  2.3398 -2.2693
 1388SOL    HW215627   3.348   4.059  11.748 -2.0387  1.2574  0.2611
 1389SOL     OW15628   2.444   0.912   2.304  0.2466 -0.4396 -0.1238
 1389SOL    HW115629   2.443   0.854   2.381  1.4510  0.9778  0.9648
 1389SOL    HW215630   2.401   0.989   2.341  1.2937 -0.2457  0.6961
 1390SOL     OW15631   3.958   2.328   9.059 -1.0352 -0.0009 -0.0180
 1390SOL    HW115632   3.970   2.333   8.964  1.3758  0.9686  0.3357
 1390SOL    HW215633   3.888   2.264   9.074 -0.1683 -0.6787  1.1245
 1391SOL     OW15634   3.744   0.584   3.996 -0.3248  0.5430  0.3942
 1391SOL    HW115635   3.753   0.489   3.992 -2.1212  0.3148  2.2948
 1391SOL    HW215636   3.653   0.595   4.021 -1.1601  1.1116 -2.8626
 1392SOL     OW15637   3.297   3.766  14.222  0.2825 -0.3882 -0.3642
 1392SOL    HW115638   3.367   3.828  14.238 -1.0199  0.8165  0.6247
 1392SOL    HW215639   3.261   3.760  14.311 -1.7179 -0.0518 -1.1520
 1393SOL     OW15640   4.670   3.568   9.816 -0.1689  0.2323  0.0774
 1393SOL    HW115641   4.576   3.555   9.800  0.2562 -1.2848 -1.1413
 1393SOL    HW215642   4.679   3.585   9.910  1.6472 -0.4532  0.0272
 1394SOL     OW15643   1.561   0.368  16.319 -0.6931 -0.4045 -0.2591
 1394SOL    HW115644   1.624   0.325  16.377 -1.1489 -1.4142 -0.5153
 1394SOL    HW215645   1.502   0.390  16.391  1.1914  2.5170  0.4145
 1395SOL     OW15646   2.094   0.591   5.405 -0.6798 -0.4580 -0.0164
 1395SOL    HW115647   2.060   0.680   5.395  3.4031  1.1833  0.7365
 1395SOL    HW215648   2.149   0.583   5.328  1.8159  2.4962  1.4624
 1396SOL     OW15649   4.082   3.916  12.613  0.6301 -0.0461 -0.1747
 1396SOL    HW115650   4.012   3.981  12.613  0.8933  0.2492  0.8590
 1396SOL    HW215651   4.103   3.926  12.521  0.6062  0.4335 -0.1278
 1397SOL     OW15652   2.920   0.544   4.806  0.3062  0.4029  0.3130
 1397SOL    HW115653   2.931   0.607   4.735  0.4550  1.1878  1.0400
 1397SOL    HW215654   2.852   0.484   4.776 -0.5649  0.6899  1.7279
 1398SOL     OW15655   4.424   1.599  13.646 -0.0650  0.6866 -0.9701
 1398SOL    HW115656   4.355   1.561  13.591 -0.7164 -0.6686  0.7798
 1398SOL    HW215657   4.494   1.610  13.582  0.7276 -1.0654 -0.4107
 1399SOL     OW15658   1.310   4.368  13.215 -0.0754 -0.1348 -0.6498
 1399SOL    HW115659   1.309   4.375  13.311 -0.9466  0.1487 -0.6817
 1399SOL    HW215660   1.216   4.368  13.197 -0.1804  0.9923 -0.0960
 1400SOL     OW15661   3.650   0.541   8.064 -0.5417 -0.4411  0.1707
 1400SOL    HW115662   3.600   0.468   8.028  1.6280 -0.9455 -1.8314
 1400SOL    HW215663   3.694   0.576   7.987 -1.9119  2.1515  0.5665
 1401SOL     OW15664   1.268   4.417   8.102  0.2977 -0.4636 -0.1405
 1401SOL    HW115665   1.325   4.446   8.030  1.6474 -0.0154  1.1140
 1401SOL    HW215666   1.183   4.413   8.058  1.8303  1.6179 -3.2821
 1402SOL     OW15667   4.637   0.156  17.494  0.7474  0.2282 -0.4362
 1402SOL    HW115668   4.632   0.182  17.586  1.5048  0.2033 -0.3854
 1402SOL    HW215669   4.568   0.212  17.459  1.2299  0.2167 -1.4087
 1403SOL     OW15670   0.758   2.707   7.991 -0.7031 -0.1233  0.6152
 1403SOL    HW115671   0.811   2.667   8.060  0.5016  1.5064  0.6553
 1403SOL    HW215672   0.781   2.648   7.920  1.2481 -0.1564  1.2809
 1404SOL     OW15673   4.069   1.554   2.457 -0.1000  0.8438 -0.3213
 1404SOL    HW115674   4.005   1.622   2.480 -0.7940  0.1785 -0.2580
 1404SOL    HW215675   4.021   1.471   2.462  0.3190  0.6368  0.2896
 1405SOL     OW15676   0.060   1.558   3.945  0.1732  0.0108 -0.1839
 1405SOL    HW115677   0.003   1.635   3.939 -0.5221 -0.4219  0.8257
 1405SOL    HW215678   0.151   1.588   3.954  0.1405 -0.4121  1.6485
 1406SOL     OW15679   1.490   4.147  16.268 -0.3375  0.6097 -0.2022
 1406SOL    HW115680   1.453   4.093  16.199  1.4091 -1.0013  0.0983
 1406SOL    HW215681   1.535   4.214  16.217  0.2270  0.7564  0.4877
 1407SOL     OW15682   2.658   0.760  14.838 -0.3741 -0.1018  0.2277
 1407SOL    HW115683   2.750   0.786  14.835  0.0574 -1.5845  0.5246
 1407SOL    HW215684   2.668   0.666  14.852 -2.5249  0.0521  2.8813
 1408SOL     OW15685   1.887   2.826   6.890 -0.7218 -0.5342 -0.3568
 1408SOL    HW115686   1.974   2.794   6.864 -1.0221 -1.0817 -0.6698
 1408SOL    HW215687   1.879   2.895   6.824 -0.2653 -0.8345 -0.7236
 1409SOL     OW15688   4.288   1.834   9.492 -0.1942 -0.3423  0.8082
 1409SOL    HW115689   4.292   1.747   9.452  2.3224 -0.2672  0.8933
 1409SOL    HW215690   4.264   1.881   9.412 -2.9616  0.1169  1.9134
 1410SOL     OW15691   4.691   2.373  16.189 -0.2963  0.7653  0.7580
 1410SOL    HW115692   0.014   2.300  16.147 -0.4894  0.0745  1.7592
 1410SOL    HW215693   4.711   2.438  16.121 -0.7410 -0.5313 -0.6051
 1411SOL     OW15694   4.350   4.259  12.869  0.1853  0.5844  0.1935
 1411SOL    HW115695   4.440   4.229  12.854 -0.2414 -1.2407  1.2538
 1411SOL    HW215696   4.297   4.179  12.867  0.0673  0.7121 -1.2415
 1412SOL     OW15697   1.560   1.774   6.405  0.2469 -0.1215 -0.6336
 1412SOL    HW115698   1.511   1.746   6.328  1.0757 -2.5365 -0.2842
 1412SOL    HW215699   1.514   1.854   6.430 -0.2215 -0.7398  0.4387
 1413SOL     OW15700   1.681   4.158  17.380 -0.0784 -0.0607 -0.1193
 1413SOL    HW115701   1.618   4.131  17.447 -2.1869  0.4857 -1.8927
 1413SOL    HW215702   1.647   4.108  17.306  0.3060 -1.5042  0.6719
 1414SOL     OW15703   0.242   1.082   7.193 -0.4690 -1.0776 -0.2295
 1414SOL    HW115704   0.273   1.011   7.248  1.1551 -0.6646 -0.5884
 1414SOL    HW215705   0.153   1.054   7.172 -1.0857  1.1869 -0.6339
 1415SOL     OW15706   4.667   1.181   2.165  0.1264  0.1779  0.4215
 1415SOL    HW115707   4.681   1.275   2.151  1.0113 -0.4056 -2.6675
 1415SOL    HW215708   4.606   1.167   2.092  1.0964  1.2568 -0.6107
 1416SOL     OW15709   3.382   3.363  14.920 -0.4695  0.3104 -0.0646
 1416SOL    HW115710   3.353   3.368  14.829 -1.7730 -1.7934  0.2350
 1416SOL    HW215711   3.425   3.448  14.924  0.8965 -0.4683  1.8037
 1417SOL     OW15712   1.997   0.984   8.653  0.2411 -0.3489 -0.0551
 1417SOL    HW115713   2.033   1.065   8.690 -0.5103  0.0437 -0.1831
 1417SOL    HW215714   2.047   0.915   8.697  2.7781  0.4967 -1.5597
 1418SOL     OW15715   1.148   2.374  11.565  0.6742  0.6000  0.0701
 1418SOL    HW115716   1.198   2.293  11.558  0.9026  0.7944 -0.5588
 1418SOL    HW215717   1.112   2.389  11.478 -0.3194  0.2977  0.4190
 1419SOL     OW15718   2.935   1.058   6.466  0.0435  0.3099  0.0726
 1419SOL    HW115719   2.839   1.057   6.465  0.0511  1.5439 -2.3104
 1419SOL    HW215720   2.954   0.968   6.438 -0.1838  0.8258 -1.7671
 1420SOL     OW15721   2.641   3.993  10.987  0.1218 -0.3083 -0.5547
 1420SOL    HW115722   2.700   3.981  11.062 -1.5454 -1.1553  0.6186
 1420SOL    HW215723   2.563   3.942  11.009  1.7266 -2.1958  0.7832
 1421SOL     OW15724   4.237   4.472   4.244 -0.1461  0.3690 -0.1980
 1421SOL    HW115725   4.234   4.377   4.236 -1.2426  0.2871  1.1855
 1421SOL    HW215726   4.241   4.493   4.337 -1.0781 -3.5866  0.7178
 1422SOL     OW15727   0.708   2.999  13.882  0.0421 -0.3206 -0.5059
 1422SOL    HW115728   0.633   3.057  13.870 -0.0338 -0.3741 -0.2750
 1422SOL    HW215729   0.675   2.911  13.864  1.9519 -1.0833 -0.2634
 1423SOL     OW15730   4.490   3.790   7.971  0.4443 -0.0199  0.4374
 1423SOL    HW115731   4.498   3.851   7.897  2.9760  0.6340  1.2470
 1423SOL    HW215732   4.579   3.793   8.006  0.8111  0.5781 -0.5362
 1424SOL     OW15733   2.199   4.159  13.458 -0.1655  0.2838  0.0105
 1424SOL    HW115734   2.168   4.070  13.442  0.7917 -0.5162  2.5774
 1424SOL    HW215735   2.293   4.145  13.450 -0.2419 -0.7686  0.8891
 1425SOL     OW15736   3.466   2.321   1.141  0.3997  0.2020  0.2793
 1425SOL    HW115737   3.547   2.282   1.172  0.3082 -0.1477  0.0682
 1425SOL    HW215738   3.487   2.318   1.048 -0.2411  0.9358  0.1040
 1426SOL     OW15739   0.870   1.582   5.621 -0.3367 -0.3326  0.7159
 1426SOL    HW115740   0.874   1.512   5.687 -0.1675 -1.7158 -0.7761
 1426SOL    HW215741   0.776   1.583   5.602 -0.2607  0.2865  0.3995
 1427SOL     OW15742   1.162   3.205   7.903  0.1232 -0.4740  0.4601
 1427SOL    HW115743   1.137   3.286   7.859  1.0281 -0.5123 -0.1353
 1427SOL    HW215744   1.079   3.167   7.929 -1.6773  3.1710 -0.0038
 1428SOL     OW15745   3.770   1.905   4.482  0.2050  0.2390  0.2658
 1428SOL    HW115746   3.798   1.873   4.396  1.0977 -1.6230  1.2531
 1428SOL    HW215747   3.721   1.827   4.508  1.4084 -0.5636  0.0918
 1429SOL     OW15748   0.463   2.457  11.896 -0.5676  0.2805 -0.6678
 1429SOL    HW115749   0.411   2.380  11.871 -1.5689  0.1342  1.9283
 1429SOL    HW215750   0.517   2.459  11.817 -0.8341 -1.1081 -0.9040
 1430SOL     OW15751   1.928   2.796  16.330  0.4490  0.3111  0.1527
 1430SOL    HW115752   1.936   2.884  16.367 -2.3980  1.8240 -2.8149
 1430SOL    HW215753   2.011   2.795  16.283  0.4562 -0.1429  0.1746
 1431SOL     OW15754   0.191   3.922   2.473  0.0368  0.1247  0.0397
 1431SOL    HW115755   0.233   3.922   2.559  1.9180 -0.1609 -0.8907
 1431SOL    HW215756   0.215   4.009   2.441 -0.3038  0.0507 -0.4100
 1432SOL     OW15757   0.850   1.198  16.023  0.0169 -0.2619 -0.1681
 1432SOL    HW115758   0.834   1.188  15.929 -1.0426  0.1422 -0.0289
 1432SOL    HW215759   0.936   1.241  16.020  0.1020 -0.3529  0.9193
 1433SOL     OW15760   1.065   3.176   7.545 -0.4698  0.0865 -0.3568
 1433SOL    HW115761   1.008   3.163   7.469  0.7125 -1.2291 -1.0068
 1433SOL    HW215762   1.000   3.178   7.615 -0.1731 -0.4925 -0.0666
 1434SOL     OW15763   1.340   0.048   9.423  0.2823 -0.0558  0.3903
 1434SOL    HW115764   1.341   4.686   9.379  2.7871 -0.1287  0.5881
 1434SOL    HW215765   1.390   0.029   9.503  1.2253 -0.6171 -0.3357
 1435SOL     OW15766   2.355   4.502   8.404  0.1350  0.5331  0.0134
 1435SOL    HW115767   2.424   4.555   8.443 -0.0544 -0.0816  1.1861
 1435SOL    HW215768   2.292   4.571   8.388 -1.1503 -1.2651 -2.7251
 1436SOL     OW15769   0.275   3.763  11.141 -0.1332 -0.3391 -0.0610
 1436SOL    HW115770   0.287   3.814  11.061 -0.9798 -1.3138 -0.7961
 1436SOL    HW215771   0.224   3.819  11.200 -2.8468 -1.2167 -1.5778
 1437SOL     OW15772   3.805   3.904  11.093  0.1575  0.0679 -0.2002
 1437SOL    HW115773   3.796   3.989  11.050 -0.1719  0.0140 -0.2401
 1437SOL    HW215774   3.809   3.926  11.186  1.0203  1.4686 -0.5734
 1438SOL     OW15775   1.472   3.299   6.674 -0.5023  0.2022 -0.1784
 1438SOL    HW115776   1.553   3.294   6.622  0.9451 -0.5405  2.1452
 1438SOL    HW215777   1.422   3.223   6.644  1.6051 -1.0004 -0.7133
 1439SOL     OW15778   4.326   1.809   4.893 -0.2952 -0.0220  0.2965
 1439SOL    HW115779   4.297   1.873   4.958 -2.7145 -0.5968 -0.1950
 1439SOL    HW215780   4.398   1.846   4.842  0.0613 -0.4167  0.5153
 1440SOL     OW15781   4.463   2.076  15.913 -0.3585 -0.6862  0.3242
 1440SOL    HW115782   4.461   2.103  15.821  1.7331 -1.0932  0.1392
 1440SOL    HW215783   4.541   2.120  15.948 -0.7324  0.9096 -0.8588
 1441SOL     OW15784   3.378   3.719   4.974  0.4158  0.1079  0.2199
 1441SOL    HW115785   3.305   3.692   5.028  0.6479  0.7839  0.8616
 1441SOL    HW215786   3.437   3.645   4.991  1.6267  1.1481  0.5933
 1442SOL     OW15787   4.665   3.077   3.582  0.1376  0.2100  0.8906
 1442SOL    HW115788   4.605   3.046   3.650 -1.6761 -0.9529 -1.2379
 1442SOL    HW215789   4.599   3.109   3.521 -0.4060 -0.7388  0.9843
 1443SOL     OW15790   2.977   3.664   8.327 -0.2372  0.4153  0.0841
 1443SOL    HW115791   2.935   3.677   8.242 -0.4781  0.7983  0.2631
 1443SOL    HW215792   3.067   3.648   8.298 -0.3966 -0.8671  0.2730
 1444SOL     OW15793   2.429   1.295   2.864 -0.6350 -0.4530  0.5345
 1444SOL    HW115794   2.427   1.217   2.919 -0.9084 -1.2958 -0.6530
 1444SOL    HW215795   2.335   1.291   2.844 -0.6426 -0.5080  0.5830
 1445SOL     OW15796   3.731   0.039  15.165  0.0198 -0.3005 -0.4881
 1445SOL    HW115797   3.778   4.682  15.188  0.1664 -0.2904 -0.7491
 1445SOL    HW215798   3.798   0.083  15.113  1.4731 -0.8467  0.9216
 1446SOL     OW15799   3.063   1.820   7.524 -0.2146  0.6121  0.2775
 1446SOL    HW115800   3.068   1.891   7.588  1.6766  0.6467  0.0816
 1446SOL    HW215801   3.080   1.861   7.439 -0.1896 -0.7148 -0.3607
 1447SOL     OW15802   2.648   4.617  12.265 -1.2018  0.0484 -0.3668
 1447SOL    HW115803   2.685   4.593  12.350 -0.0722  2.6930 -0.1233
 1447SOL    HW215804   2.728   4.639  12.217 -0.2027 -1.1038  0.7626
 1448SOL     OW15805   1.606   4.257  12.066  0.7008 -0.6105 -0.3214
 1448SOL    HW115806   1.563   4.329  12.021  1.4304  0.6385  0.9881
 1448SOL    HW215807   1.692   4.297  12.079 -0.2403  0.8708  1.2440
 1449SOL     OW15808   1.154   0.999  15.257 -0.1585  0.2529 -0.3346
 1449SOL    HW115809   1.249   0.989  15.261  0.0367  1.8163 -1.2155
 1449SOL    HW215810   1.137   0.948  15.178  0.5731 -1.1154  0.3822
 1450SOL     OW15811   3.804   2.770   1.704  0.1145 -0.0570  0.1474
 1450SOL    HW115812   3.724   2.725   1.733  0.0183  1.8356  2.8623
 1450SOL    HW215813   3.816   2.741   1.614  0.2979  1.6935 -0.3865
 1451SOL     OW15814   1.254   1.518   2.323 -0.2392  0.0610  0.5163
 1451SOL    HW115815   1.163   1.547   2.314 -0.3231  0.1917  1.9173
 1451SOL    HW215816   1.285   1.494   2.235 -0.9403 -0.6319  0.4537
 1452SOL     OW15817   2.477   4.165   8.018 -0.0416 -0.0181 -0.5098
 1452SOL    HW115818   2.539   4.188   8.088 -0.0560 -1.0581 -0.1519
 1452SOL    HW215819   2.423   4.098   8.060 -1.1912  1.3062  0.1448
 1453SOL     OW15820   1.643   3.184   4.014 -0.3135  0.2654 -0.6576
 1453SOL    HW115821   1.674   3.141   3.935  0.3772  0.5063 -0.5185
 1453SOL    HW215822   1.711   3.156   4.075 -0.3789 -0.1512 -0.7769
 1454SOL     OW15823   3.049   3.132   3.874 -0.1886 -0.3352 -0.0078
 1454SOL    HW115824   2.998   3.199   3.918 -0.6839 -2.0452  2.0136
 1454SOL    HW215825   3.038   3.061   3.937  0.5497  0.9298  1.5177
 1455SOL     OW15826   2.277   2.569   7.110  0.5327 -0.1220 -0.2926
 1455SOL    HW115827   2.302   2.652   7.150  0.2099 -2.1055  4.0706
 1455SOL    HW215828   2.345   2.554   7.044  1.6049 -0.3936  0.8759
 1456SOL     OW15829   1.308   0.919  17.313 -0.4395 -0.2306 -0.2078
 1456SOL    HW115830   1.368   0.924  17.388 -1.1792 -2.5393  0.5231
 1456SOL    HW215831   1.288   1.006  17.278  1.9580  0.6739  0.6671
 1457SOL     OW15832   4.305   2.450   1.851  0.3211 -0.0811 -0.1192
 1457SOL    HW115833   4.363   2.376   1.869  2.5095  0.8157 -3.4663
 1457SOL    HW215834   4.360   2.503   1.793 -0.0392  0.3969 -0.0201
 1458SOL     OW15835   0.026   0.916  13.383  0.5147  0.3574 -0.1694
 1458SOL    HW115836   0.116   0.908  13.351  0.1421 -2.6399 -0.4014
 1458SOL    HW215837   0.035   0.877  13.469 -1.2827  1.2599  0.4384
 1459SOL     OW15838   0.409   4.184   9.902 -0.2338 -0.3955  0.4351
 1459SOL    HW115839   0.359   4.197   9.982 -1.5198 -3.2225  0.1019
 1459SOL    HW215840   0.343   4.198   9.834  0.8545 -1.1951 -0.8114
 1460SOL     OW15841   0.096   2.263  16.715  0.0055  0.2091  0.5333
 1460SOL    HW115842   0.044   2.239  16.638  2.7834 -1.2293 -0.9151
 1460SOL    HW215843   0.148   2.183  16.726 -0.1263 -0.2854 -2.3156
 1461SOL     OW15844   2.473   0.582   5.977 -0.4084 -0.2840 -0.3304
 1461SOL    HW115845   2.453   0.665   6.019  0.7120  0.3845 -1.0890
 1461SOL    HW215846   2.463   0.514   6.044  3.4852 -2.2863 -1.7665
 1462SOL     OW15847   4.283   2.822   8.904  0.1921 -0.1727  0.1863
 1462SOL    HW115848   4.327   2.830   8.988  1.4951  1.6759 -0.6713
 1462SOL    HW215849   4.255   2.731   8.904  0.7003 -0.3195  1.3299
 1463SOL     OW15850   0.346   3.106  10.873 -0.1265 -0.1025 -0.2461
 1463SOL    HW115851   0.400   3.183  10.892 -1.5012  0.9204 -0.4896
 1463SOL    HW215852   0.315   3.088  10.962 -1.3706 -3.8284 -1.4347
 1464SOL     OW15853   2.885   4.214  13.891 -0.0845  0.0373  0.1186
 1464SOL    HW115854   2.901   4.299  13.849 -0.8695  0.6261  1.0185
 1464SOL    HW215855   2.979   4.196  13.896  0.1593  1.0434 -0.6748
 1465SOL     OW15856   2.738   2.646  13.617 -0.3217 -0.6580 -0.0516
 1465SOL    HW115857   2.808   2.674  13.675 -0.6345 -0.3164  0.1581
 1465SOL    HW215858   2.732   2.551  13.627 -3.0333 -0.2400  2.3066
 1466SOL     OW15859   3.862   1.355   7.667  0.1623  0.0148  0.4276
 1466SOL    HW115860   3.886   1.407   7.590 -0.2437 -1.7162 -0.8914
 1466SOL    HW215861   3.854   1.419   7.738  0.6507  0.9837 -0.3890
 1467SOL     OW15862   2.577   4.173  15.935  0.1010  0.1750  0.3654
 1467SOL    HW115863   2.622   4.189  15.853 -1.1028  0.0319 -0.3333
 1467SOL    HW215864   2.645   4.137  15.992 -0.2871  1.2281  1.4994
 1468SOL     OW15865   1.845   2.077   9.428  0.2861  0.5074  0.3950
 1468SOL    HW115866   1.806   2.071   9.516 -1.0610  1.6999 -0.1043
 1468SOL    HW215867   1.811   1.996   9.392  0.3287  0.4247  0.5421
 1469SOL     OW15868   1.051   2.873   7.769  0.2187 -0.6441  0.0248
 1469SOL    HW115869   1.048   2.949   7.827 -0.0744 -0.6522  0.0239
 1469SOL    HW215870   0.961   2.839   7.765  0.1836 -0.6116  0.6283
 1470SOL     OW15871   3.667   3.993  12.854 -0.1680  0.0585  0.1902
 1470SOL    HW115872   3.689   4.086  12.860 -0.1745 -0.0083  1.2214
 1470SOL    HW215873   3.745   3.947  12.886  0.4664 -0.2306 -1.7364
 1471SOL     OW15874   0.437   0.968   4.454  0.0633 -0.5029  0.5531
 1471SOL    HW115875   0.455   1.043   4.396 -1.0526  1.1126  2.2864
 1471SOL    HW215876   0.512   0.972   4.515  0.5975 -0.5300 -0.1056
 1472SOL     OW15877   1.716   2.008   7.702  0.1332  0.5235  0.9476
 1472SOL    HW115878   1.808   2.033   7.691  0.2326  0.7900  2.4117
 1472SOL    HW215879   1.732   1.917   7.726  0.7288  0.5748  0.7615
 1473SOL     OW15880   2.754   1.476   1.980 -0.2526 -0.3751  0.2109
 1473SOL    HW115881   2.818   1.546   1.969 -1.0335  0.1844 -0.8212
 1473SOL    HW215882   2.691   1.493   1.910 -3.1140 -1.1517  2.5943
 1474SOL     OW15883   1.580   1.848   5.281 -0.1473  0.3864  0.0416
 1474SOL    HW115884   1.544   1.808   5.360  3.8567 -0.6485  1.3546
 1474SOL    HW215885   1.512   1.839   5.215 -2.5291  1.4012  2.3719
 1475SOL     OW15886   3.492   3.620  14.892 -0.8020 -0.0504 -0.5155
 1475SOL    HW115887   3.464   3.659  14.810 -0.3079  0.2406 -0.5462
 1475SOL    HW215888   3.508   3.694  14.950 -1.6213  0.9426 -1.5599
 1476SOL     OW15889   1.715   0.031   1.141  0.1288  0.1181  0.2482
 1476SOL    HW115890   1.746   0.120   1.153 -2.6011  0.7114  2.6950
 1476SOL    HW215891   1.657   0.036   1.065  0.6005  0.3913 -0.0913
 1477SOL     OW15892   3.017   0.078   4.435  0.2751 -0.1290  0.3156
 1477SOL    HW115893   3.050   0.165   4.412  0.2462 -0.1192  0.3113
 1477SOL    HW215894   3.103   0.038   4.442  1.6424  2.6541 -0.4638
 1478SOL     OW15895   4.081   3.318   1.208 -0.2365 -0.5723 -0.0674
 1478SOL    HW115896   4.173   3.343   1.217 -0.1511 -0.8650 -0.1015
 1478SOL    HW215897   4.054   3.384   1.145 -1.9127 -0.1588  1.1176
 1479SOL     OW15898   4.304   2.776   0.366 -0.2195  0.1767 -0.2736
 1479SOL    HW115899   4.209   2.771   0.376 -0.1550 -1.2859 -0.3971
 1479SOL    HW215900   4.327   2.690   0.403 -1.5162 -0.4735 -0.9771
 1480SOL     OW15901   0.765   0.631   3.503  0.1174  0.0386 -0.0765
 1480SOL    HW115902   0.736   0.557   3.451 -0.5364 -1.3520  2.2412
 1480SOL    HW215903   0.803   0.683   3.432 -0.5934  0.8260  0.1081
 1481SOL     OW15904   3.292   3.179  10.338  0.5946 -0.0734  0.6859
 1481SOL    HW115905   3.381   3.205  10.314  0.0175  1.3281  0.0580
 1481SOL    HW215906   3.299   3.207  10.430  1.0189  1.5058  0.1671
 1482SOL     OW15907   1.661   0.955  11.404 -0.4931 -0.0145 -0.2805
 1482SOL    HW115908   1.696   0.868  11.383  2.0743  1.1211 -0.7456
 1482SOL    HW215909   1.580   0.947  11.354 -1.2945 -0.1893  1.0470
 1483SOL     OW15910   2.890   0.225   8.425  0.1934  0.2373 -0.8537
 1483SOL    HW115911   2.934   0.225   8.340 -0.3449 -0.5356 -1.1296
 1483SOL    HW215912   2.887   0.319   8.442  0.6882  0.2955 -1.0851
 1484SOL     OW15913   0.631   3.651  13.914  0.0681 -0.2320  0.3063
 1484SOL    HW115914   0.724   3.674  13.906  0.2727 -0.6110  1.6256
 1484SOL    HW215915   0.593   3.693  13.991 -1.1125  1.1925 -1.0445
 1485SOL     OW15916   4.023   2.714  15.504 -0.3016 -0.0142  0.0926
 1485SOL    HW115917   4.078   2.774  15.455  0.8196 -1.0097  0.1321
 1485SOL    HW215918   4.087   2.704  15.575 -1.6940 -3.5691  0.8472
 1486SOL     OW15919   1.574   1.334  16.564 -0.3513  0.7371  0.4557
 1486SOL    HW115920   1.490   1.379  16.551 -0.2960  0.1696 -1.8517
 1486SOL    HW215921   1.635   1.401  16.532 -1.3622  0.9501 -1.0206
 1487SOL     OW15922   3.257   4.005   4.235 -0.1843  0.5183 -0.2804
 1487SOL    HW115923   3.312   4.068   4.283 -0.8888  0.5323  0.5091
 1487SOL    HW215924   3.318   3.978   4.166 -1.2340 -1.1628 -0.5213
 1488SOL     OW15925   4.471   1.041   4.385  0.1403 -0.5497  0.7796
 1488SOL    HW115926   4.539   1.001   4.330  0.8469  2.9124 -0.8247
 1488SOL    HW215927   4.396   1.035   4.326  1.7973  0.5674 -1.4427
 1489SOL     OW15928   3.612   1.517  17.671  0.2335  0.3822  0.2116
 1489SOL    HW115929   3.611   1.426  17.641 -0.3960  0.5688 -0.3185
 1489SOL    HW215930   3.699   1.520   0.018 -0.7145 -0.2855  2.2917
 1490SOL     OW15931   3.054   2.948   1.211 -0.7733 -0.0769  0.3914
 1490SOL    HW115932   2.980   2.892   1.187 -3.4781  4.3638 -1.4615
 1490SOL    HW215933   3.052   2.955   1.306 -0.3373 -2.1655  0.5684
 1491SOL     OW15934   1.149   4.278   9.519  0.2091  0.0464 -0.4378
 1491SOL    HW115935   1.097   4.285   9.599 -0.1415 -0.0153 -0.6578
 1491SOL    HW215936   1.106   4.343   9.464 -0.2818 -0.3421 -0.5191
 1492SOL     OW15937   2.899   3.852   5.448  1.1375  0.6499  0.1306
 1492SOL    HW115938   2.870   3.935   5.487  1.2776  1.3430 -1.2361
 1492SOL    HW215939   2.833   3.847   5.379 -0.8986  2.3660  1.9038
 1493SOL     OW15940   0.061   4.391  10.730  0.2879 -0.6200  0.3328
 1493SOL    HW115941   0.129   4.433  10.677 -1.3903  0.7463 -0.7406
 1493SOL    HW215942   0.014   4.465  10.766  1.5337  0.3856 -0.1032
 1494SOL     OW15943   4.479   1.781   5.190 -0.8319 -1.2254 -0.2295
 1494SOL    HW115944   4.465   1.851   5.254 -1.0834 -0.9981 -0.5251
 1494SOL    HW215945   4.395   1.783   5.142 -0.6083  0.9760 -0.5442
 1495SOL     OW15946   4.108   3.206   3.726  0.3535  0.4347 -0.0174
 1495SOL    HW115947   4.161   3.271   3.772  0.8239 -0.3104  0.4983
 1495SOL    HW215948   4.085   3.148   3.798  0.8459 -1.0896 -1.0755
 1496SOL     OW15949   0.155   3.332  17.131 -0.4978 -0.2109 -0.1170
 1496SOL    HW115950   0.109   3.382  17.199  0.3919  1.3692 -0.6764
 1496SOL    HW215951   0.186   3.397  17.069 -0.7972  1.8004  1.8288
 1497SOL     OW15952   3.008   1.876  17.177  0.2374 -0.3800 -0.1541
 1497SOL    HW115953   3.053   1.961  17.174  2.2239 -1.4681 -1.2849
 1497SOL    HW215954   3.050   1.839  17.100 -1.7206 -0.3235 -1.2211
 1498SOL     OW15955   0.176   0.348   8.379 -0.0289  0.2067  0.6433
 1498SOL    HW115956   0.148   0.422   8.326 -1.3216  0.7691  2.1349
 1498SOL    HW215957   0.130   0.372   8.459  0.3933 -0.8967  1.2154
 1499SOL     OW15958   4.194   1.282   1.919  0.6096  0.0665 -0.2312
 1499SOL    HW115959   4.125   1.290   1.985  0.7761  1.5646 -0.2497
 1499SOL    HW215960   4.253   1.356   1.934  1.5671 -0.5882 -0.7246
 1500SOL     OW15961   3.870   1.025   4.690 -0.6484  1.0922  0.0199
 1500SOL    HW115962   3.937   1.049   4.754 -0.0060  0.6836 -0.4953
 1500SOL    HW215963   3.794   1.003   4.743 -1.2655  1.3967 -0.7345
 1501SOL     OW15964   3.138   1.518   6.953 -0.0216  0.2600 -0.0720
 1501SOL    HW115965   3.185   1.471   6.884  1.3785  1.6827 -0.0694
 1501SOL    HW215966   3.099   1.443   6.998 -2.4540  1.7553  0.3375
 1502SOL     OW15967   3.535   2.855   4.779 -0.0032  0.0203 -0.3584
 1502SOL    HW115968   3.536   2.937   4.729 -2.5630  0.0582 -0.3284
 1502SOL    HW215969   3.472   2.879   4.846  1.2724 -2.9356  1.9059
 1503SOL     OW15970   4.375   3.557   6.221 -0.8929 -0.3543  0.2447
 1503SOL    HW115971   4.367   3.642   6.265  1.2739 -0.2206  0.4006
 1503SOL    HW215972   4.322   3.568   6.143 -1.1525 -0.4796  0.4042
 1504SOL     OW15973   4.312   2.531   5.755  0.5535  0.1429  0.2779
 1504SOL    HW115974   4.276   2.480   5.827  2.5344 -1.6120  0.0407
 1504SOL    HW215975   4.256   2.605   5.774 -0.2377 -0.7755  1.4919
 1505SOL     OW15976   2.411   2.195   4.590  0.4933  0.4370 -0.0590
 1505SOL    HW115977   2.502   2.180   4.615  0.5272  0.3300 -0.2504
 1505SOL    HW215978   2.371   2.111   4.610 -2.8639  2.3502  1.2475
 1506SOL     OW15979   1.321   3.804  15.860 -0.3080  0.0440 -0.2873
 1506SOL    HW115980   1.358   3.791  15.773 -1.0589 -0.5627 -0.5192
 1506SOL    HW215981   1.240   3.851  15.843 -0.5213 -0.2286 -0.0393
 1507SOL     OW15982   2.156   0.053  12.495 -0.5610 -0.5423  0.9930
 1507SOL    HW115983   2.123   0.125  12.548  0.6291 -0.4934  1.6540
 1507SOL    HW215984   2.238   0.082  12.456 -0.9907  0.9761  1.2069
 1508SOL     OW15985   4.026   3.755  11.080  0.6162 -0.4350  0.1585
 1508SOL    HW115986   3.950   3.812  11.069  0.5133 -0.5704  0.1651
 1508SOL    HW215987   3.989   3.704  11.152  0.6533  1.8269  1.7625
 1509SOL     OW15988   0.521   2.125   3.941 -0.0709  0.1989 -0.6998
 1509SOL    HW115989   0.453   2.180   3.901  0.5051  1.2388 -0.2521
 1509SOL    HW215990   0.594   2.186   3.942 -0.1520  0.2877  0.2780
 1510SOL     OW15991   0.271   1.192   5.057  0.3560 -0.2021  0.4190
 1510SOL    HW115992   0.186   1.228   5.029  1.3803 -0.9458 -3.6588
 1510SOL    HW215993   0.279   1.121   4.993 -0.1765 -1.4220  1.7135
 1511SOL     OW15994   0.467   4.500   9.786 -0.0054  0.1166 -0.2452
 1511SOL    HW115995   0.459   4.523   9.693  2.2953  0.5175 -0.3439
 1511SOL    HW215996   0.437   4.582   9.825 -3.2375  1.0534 -4.6716
 1512SOL     OW15997   2.855   2.593  17.262 -0.3962 -0.0354 -0.5289
 1512SOL    HW115998   2.861   2.653  17.188  2.0403 -0.6411 -0.8267
 1512SOL    HW215999   2.800   2.524  17.227  0.5252 -1.3283  0.5746
 1513SOL     OW16000   0.044   0.144   2.942 -0.0548 -0.0835  0.2350
 1513SOL    HW116001   0.111   0.091   2.985  0.3366  1.6278  1.7041
 1513SOL    HW216002   4.695   0.100   2.988 -0.7870  2.0842  1.1400
 1514SOL     OW16003   4.513   3.844   5.526 -0.1815  0.1580  0.0173
 1514SOL    HW116004   4.523   3.924   5.577 -1.9122 -0.9697  2.1353
 1514SOL    HW216005   4.493   3.881   5.440 -0.5513 -1.8067 -0.7447
 1515SOL     OW16006   2.983   2.866   6.107  0.2553 -0.9302 -0.9746
 1515SOL    HW116007   3.007   2.781   6.144  3.1840  0.8150  1.2218
 1515SOL    HW216008   2.895   2.868   6.145  0.9265 -2.7776  0.6665
 1516SOL     OW16009   4.007   3.724   6.026  0.0679 -0.3618  0.0831
 1516SOL    HW116010   3.942   3.655   6.036  1.5483 -1.5970  1.1703
 1516SOL    HW216011   4.085   3.673   6.005  0.2332 -0.3965  0.8050
 1517SOL     OW16012   2.382   3.280   2.458 -0.0622 -0.1284 -0.5139
 1517SOL    HW116013   2.466   3.320   2.478  0.1786 -1.1896  0.6274
 1517SOL    HW216014   2.413   3.199   2.417  1.8847  0.7247 -0.7112
 1518SOL     OW16015   0.104   3.847   3.610 -0.8875  0.0468 -0.4207
 1518SOL    HW116016   0.129   3.910   3.677  1.0228 -0.8895 -0.2495
 1518SOL    HW216017   0.081   3.770   3.663  2.6214 -0.4221  0.4008
 1519SOL     OW16018   4.375   3.078   2.044 -0.1028 -0.2653 -0.6039
 1519SOL    HW116019   4.347   2.989   2.065  0.5977 -0.7405 -1.7039
 1519SOL    HW216020   4.376   3.110   2.134 -0.9640 -0.1465 -0.6365
 1520SOL     OW16021   0.082   2.751   0.043  0.0878  0.2426  0.1661
 1520SOL    HW116022   0.138   2.797  17.674  0.2599 -0.0151  0.1305
 1520SOL    HW216023   0.029   2.819   0.085 -1.1016 -0.3576 -0.3667
 1521SOL     OW16024   3.817   1.748   6.007  0.6806 -0.1879  0.3735
 1521SOL    HW116025   3.793   1.702   5.927 -0.3288  0.4255  0.3255
 1521SOL    HW216026   3.766   1.698   6.071 -0.6063  0.8195  0.1223
 1522SOL     OW16027   3.575   0.272  14.148 -0.2300  0.6115  0.1252
 1522SOL    HW116028   3.651   0.312  14.105 -0.3158  0.5311 -0.1005
 1522SOL    HW216029   3.606   0.284  14.237 -2.5834 -2.6792  1.3738
 1523SOL     OW16030   1.428   0.609  12.824  0.1650 -0.2276  0.6594
 1523SOL    HW116031   1.470   0.523  12.818  1.3477  0.3353  0.9878
 1523SOL    HW216032   1.382   0.596  12.907  0.6017  1.3268  1.1262
 1524SOL     OW16033   3.763   3.248  15.385  0.1490  0.2990  0.5650
 1524SOL    HW116034   3.718   3.192  15.448 -0.5531 -2.0845 -2.0705
 1524SOL    HW216035   3.740   3.332  15.425  0.5582 -0.7114  2.9177
 1525SOL     OW16036   0.564   2.847  15.205  0.6650  0.3688 -0.6420
 1525SOL    HW116037   0.523   2.765  15.178  0.3152  0.0019  1.0096
 1525SOL    HW216038   0.549   2.905  15.131 -0.7459  0.6622 -0.1121
 1526SOL     OW16039   3.960   3.799  11.479  0.0163  0.2533 -0.3952
 1526SOL    HW116040   3.896   3.865  11.451 -1.7794 -1.4967 -0.4550
 1526SOL    HW216041   4.036   3.854  11.499  0.2268  0.0164 -0.5491
 1527SOL     OW16042   3.835   1.981   7.124 -0.4926 -0.8948 -0.1140
 1527SOL    HW116043   3.744   2.012   7.127 -0.3450 -0.1534 -3.0703
 1527SOL    HW216044   3.882   2.047   7.073  0.1122 -0.8631  0.4865
 1528SOL     OW16045   0.062   2.066   7.343 -0.1497 -0.1693 -0.0578
 1528SOL    HW116046   0.063   1.975   7.375  0.8007 -0.1373  0.0235
 1528SOL    HW216047   0.087   2.065   7.251 -2.1061  0.5237 -0.6004
 1529SOL     OW16048   2.322   3.680   7.707 -0.4664 -0.1380 -0.5569
 1529SOL    HW116049   2.366   3.764   7.723  2.5402 -1.7245 -0.6056
 1529SOL    HW216050   2.364   3.624   7.772  0.9238 -1.5167 -2.6412
 1530SOL     OW16051   4.414   2.488   2.931 -0.2193 -0.4317 -0.0782
 1530SOL    HW116052   4.445   2.579   2.937 -1.0806 -0.2214  1.1246
 1530SOL    HW216053   4.334   2.486   2.983  0.2181 -0.3070  0.6052
 1531SOL     OW16054   4.547   1.606  13.381 -0.1196 -0.3667 -1.0779
 1531SOL    HW116055   4.590   1.692  13.374 -2.2727  0.8635  0.8701
 1531SOL    HW216056   4.532   1.573  13.293  0.0976 -0.5991 -1.0276
 1532SOL     OW16057   1.995   1.678   0.685  0.4201 -0.5075 -0.1045
 1532SOL    HW116058   1.943   1.676   0.605  2.8216 -3.4711 -1.5937
 1532SOL    HW216059   2.078   1.642   0.653  1.3347  0.8335  0.7311
 1533SOL     OW16060   2.045   1.837  10.080 -0.1903 -0.1242  0.6746
 1533SOL    HW116061   2.065   1.818  10.172  0.2759  2.2213  1.0466
 1533SOL    HW216062   2.126   1.879  10.050 -0.3346  1.1278  2.0364
 1534SOL     OW16063   1.226   1.023  12.135  0.3106 -0.2008 -0.4183
 1534SOL    HW116064   1.131   1.025  12.138  0.3007  0.1201 -1.0915
 1534SOL    HW216065   1.242   0.983  12.050 -0.4460 -1.0908 -0.1412
 1535SOL     OW16066   0.807   4.367   6.503  0.7678 -0.3194  0.7483
 1535SOL    HW116067   0.712   4.377   6.503  0.6460 -1.6417  1.9341
 1535SOL    HW216068   0.831   4.453   6.469 -2.5623  1.3620  2.6463
 1536SOL     OW16069   3.354   4.635  11.134 -0.0935  0.3884 -0.0308
 1536SOL    HW116070   3.280   4.576  11.142  1.2269 -1.4563 -1.5344
 1536SOL    HW216071   3.320   0.002  11.142  2.7952  1.5294 -0.5184
 1537SOL     OW16072   4.429   3.655   3.587 -0.6079  0.2304  0.3739
 1537SOL    HW116073   4.355   3.675   3.645 -0.4275  2.6604 -0.2276
 1537SOL    HW216074   4.458   3.575   3.631  1.0041  1.8460  2.2892
 1538SOL     OW16075   0.546   3.470   8.584  0.3881 -0.1066  0.3428
 1538SOL    HW116076   0.495   3.481   8.503 -0.9662  1.1767  1.3609
 1538SOL    HW216077   0.581   3.381   8.576 -0.5807 -0.3891 -0.8375
 1539SOL     OW16078   2.541   4.410   0.800 -0.0381  0.1961  0.3686
 1539SOL    HW116079   2.633   4.387   0.785 -0.4318 -0.8797 -0.4114
 1539SOL    HW216080   2.536   4.402   0.895 -1.8631 -1.4985  0.1311
 1540SOL     OW16081   1.466   1.293   1.742  0.5399  0.3665  0.0151
 1540SOL    HW116082   1.461   1.253   1.655  1.4606 -0.5400  0.3707
 1540SOL    HW216083   1.519   1.369   1.717  0.2686  0.7075  0.4899
 1541SOL     OW16084   1.415   0.344  16.559  0.1632  0.6641  0.0125
 1541SOL    HW116085   1.437   0.354  16.652 -0.1740 -0.7355  0.2423
 1541SOL    HW216086   1.459   0.261  16.545 -1.1703  0.1855 -1.3569
 1542SOL     OW16087   4.087   1.802   8.433 -0.7189 -0.2423  0.6464
 1542SOL    HW116088   4.119   1.890   8.451 -2.3268  0.5555 -0.3535
 1542SOL    HW216089   4.139   1.746   8.491  0.4405  0.8736  0.6945
 1543SOL     OW16090   1.182   3.640   9.930  0.2874  0.0891 -0.4372
 1543SOL    HW116091   1.268   3.631   9.971 -0.2441  0.5040  0.7628
 1543SOL    HW216092   1.200   3.704   9.860  1.4366 -0.5209 -0.7024
 1544SOL     OW16093   0.272   1.539  13.862 -0.2612  0.2199 -0.3494
 1544SOL    HW116094   0.272   1.635  13.862 -0.7483  0.2128  0.5595
 1544SOL    HW216095   0.237   1.519  13.775 -2.1189  2.4945 -0.1201
 1545SOL     OW16096   0.530   3.691   6.660 -0.1657  0.4092  0.1890
 1545SOL    HW116097   0.458   3.675   6.599 -1.0049  1.5575  0.8823
 1545SOL    HW216098   0.582   3.750   6.606  0.8177 -0.8092 -0.1889
 1546SOL     OW16099   1.254   3.411   3.462 -0.0309 -0.5537  0.3765
 1546SOL    HW116100   1.158   3.416   3.458 -0.0621 -1.6719 -0.2441
 1546SOL    HW216101   1.269   3.372   3.377  1.5201 -2.2776  1.4560
 1547SOL     OW16102   3.615   4.057   4.828 -0.8338  0.2887  0.1908
 1547SOL    HW116103   3.634   3.965   4.806 -1.1223  0.3801 -0.4520
 1547SOL    HW216104   3.681   4.084   4.763 -1.0530 -0.6865 -0.4344
 1548SOL     OW16105   0.189   3.265   1.156 -0.3476 -0.1486 -0.1071
 1548SOL    HW116106   0.120   3.291   1.217  1.1577  2.1679  0.6356
 1548SOL    HW216107   0.194   3.351   1.114  1.1640 -0.4412 -0.5120
 1549SOL     OW16108   2.676   3.269   4.467  0.4269  0.2949 -0.3397
 1549SOL    HW116109   2.741   3.324   4.511  2.0075 -1.6195 -0.3191
 1549SOL    HW216110   2.696   3.288   4.376 -1.0670  0.5947 -0.6039
 1550SOL     OW16111   3.372   4.132  12.782 -0.2202  0.0123 -0.4406
 1550SOL    HW116112   3.375   4.212  12.834  1.5307 -1.8680  2.4075
 1550SOL    HW216113   3.343   4.161  12.696 -3.6443 -1.3524  0.2415
 1551SOL     OW16114   4.309   3.625   8.138 -0.4586 -0.2115 -0.2369
 1551SOL    HW116115   4.221   3.610   8.105 -1.6354 -1.0095  3.1776
 1551SOL    HW216116   4.363   3.673   8.076  0.3576 -0.9366 -0.0925
 1552SOL     OW16117   0.249   0.782  12.827 -0.1372  0.2111  0.1168
 1552SOL    HW116118   0.291   0.862  12.796  2.2187 -0.7667  0.7633
 1552SOL    HW216119   0.242   0.734  12.745 -0.4743  1.3351 -0.4954
 1553SOL     OW16120   1.601   3.291  13.278  0.7085 -0.1888  0.3569
 1553SOL    HW116121   1.590   3.373  13.327  0.0543  2.3100 -3.9864
 1553SOL    HW216122   1.510   3.271  13.258  0.0707  3.4350 -0.3190
 1554SOL     OW16123   3.230   0.729  16.188 -0.4213  0.2327  0.4130
 1554SOL    HW116124   3.248   0.635  16.196  1.3172  0.6068  0.8738
 1554SOL    HW216125   3.135   0.724  16.199 -0.5026 -1.2208 -0.8370
 1555SOL     OW16126   0.878   1.035   6.440 -0.0301  0.1853  0.1835
 1555SOL    HW116127   0.967   1.001   6.433  0.0868  0.5126  0.0638
 1555SOL    HW216128   0.829   0.953   6.432  2.8542 -1.5614  0.3257
 1556SOL     OW16129   4.487   3.031  15.493  0.0491 -0.2649  0.8101
 1556SOL    HW116130   4.490   2.939  15.467 -1.1894  0.5270 -2.1086
 1556SOL    HW216131   4.565   3.057  15.444  0.0793 -1.4715  0.2167
 1557SOL     OW16132   2.945   1.833  11.585 -0.1021 -0.2206 -0.2921
 1557SOL    HW116133   2.972   1.825  11.494 -0.0222  1.5804 -0.4093
 1557SOL    HW216134   2.964   1.925  11.604 -0.9233 -0.0179 -0.4856
 1558SOL     OW16135   1.969   1.056   0.471 -0.1096 -0.0774 -0.4308
 1558SOL    HW116136   1.901   1.036   0.407 -0.0492  0.6199 -0.7144
 1558SOL    HW216137   1.927   1.110   0.539  2.0151 -0.2658  1.0419
 1559SOL     OW16138   2.412   4.227   3.396 -0.4401 -0.7210  0.1531
 1559SOL    HW116139   2.471   4.263   3.462 -0.7133 -0.5044  0.2814
 1559SOL    HW216140   2.362   4.166   3.449  1.5727 -1.4770  1.1508
 1560SOL     OW16141   1.712   3.047   2.895  0.5356 -0.0369  0.4699
 1560SOL    HW116142   1.779   3.115   2.881  1.5698 -1.0977  0.2363
 1560SOL    HW216143   1.763   2.983   2.945  0.5218 -0.4099  0.0124
 1561SOL     OW16144   1.539   0.084   9.077 -0.0825 -0.1487  0.1468
 1561SOL    HW116145   1.455   0.045   9.052 -0.7173  0.5254  1.2152
 1561SOL    HW216146   1.507   0.140   9.148 -1.2175 -1.1376  0.4024
 1562SOL     OW16147   3.701   1.025  11.157  0.1903 -0.2337  0.2828
 1562SOL    HW116148   3.670   1.114  11.143  1.1578  0.4065  2.1649
 1562SOL    HW216149   3.619   0.976  11.159  0.3693 -0.4776  2.0776
 1563SOL     OW16150   0.967   4.500   5.067 -0.1937 -0.0500 -0.4953
 1563SOL    HW116151   0.990   4.546   5.147 -0.0254  0.3501 -0.7771
 1563SOL    HW216152   0.872   4.486   5.073 -0.3387  2.1767  2.1917
 1564SOL     OW16153   2.304   2.456   4.165 -0.0823 -0.0176 -0.1543
 1564SOL    HW116154   2.360   2.418   4.097  0.0346  0.9045 -0.5684
 1564SOL    HW216155   2.349   2.540   4.176  2.1761 -1.3062  0.5171
 1565SOL     OW16156   0.844   0.317   4.142 -0.1390 -0.6360 -0.1875
 1565SOL    HW116157   0.829   0.347   4.231 -0.2640 -0.1814 -0.3648
 1565SOL    HW216158   0.781   0.247   4.124 -0.2439 -1.2154  2.4085
 1566SOL     OW16159   1.250   4.030  15.610  0.3182 -0.0126 -0.4620
 1566SOL    HW116160   1.178   4.000  15.554  1.5267 -0.7308 -1.6214
 1566SOL    HW216161   1.210   4.042  15.696 -0.0951 -1.4949 -0.4431
 1567SOL     OW16162   1.292   4.093   0.566 -0.1715 -0.1566 -0.5119
 1567SOL    HW116163   1.241   4.039   0.627 -0.0207  1.1408  0.7547
 1567SOL    HW216164   1.295   4.177   0.611 -0.0056  0.4563 -1.6554
 1568SOL     OW16165   2.112   2.758  12.224  0.3850 -0.3649 -0.0414
 1568SOL    HW116166   2.079   2.796  12.142  2.1761 -0.1705 -0.6813
 1568SOL    HW216167   2.158   2.684  12.183 -0.3659 -0.8311 -0.0390
 1569SOL     OW16168   0.016   2.365   3.581  0.6953  0.4941  0.1877
 1569SOL    HW116169   4.681   2.409   3.519  1.8969  1.7235 -0.0502
 1569SOL    HW216170   4.680   2.317   3.640  1.6880 -1.5922 -0.5141
 1570SOL     OW16171   3.117   3.558   0.325  0.1524 -0.3435  0.5341
 1570SOL    HW116172   3.126   3.646   0.288  0.1818 -0.8630 -0.6999
 1570SOL    HW216173   3.039   3.558   0.380  0.7997  0.6961  1.4507
 1571SOL     OW16174   2.216   4.258   7.495 -0.1319  0.2079 -0.0583
 1571SOL    HW116175   2.280   4.329   7.498  1.0888 -0.8939 -0.1380
 1571SOL    HW216176   2.140   4.305   7.462  0.1305  0.9705  0.4310
 1572SOL     OW16177   0.311   0.349   3.416 -0.3326  0.0439  0.9045
 1572SOL    HW116178   0.347   0.436   3.399 -0.4000 -0.1584 -0.2660
 1572SOL    HW216179   0.314   0.346   3.511  0.1226 -1.9316  0.8324
 1573SOL     OW16180   2.792   0.543   1.031 -0.4666  0.1248  0.6157
 1573SOL    HW116181   2.887   0.530   1.031 -0.4218  0.6191 -2.5373
 1573SOL    HW216182   2.770   0.460   0.989 -2.0693  0.4484  0.8143
 1574SOL     OW16183   3.839   4.409   5.936  0.1342 -0.2586 -0.1161
 1574SOL    HW116184   3.811   4.318   5.925  1.2530 -0.7039  0.7485
 1574SOL    HW216185   3.785   4.455   5.871  1.0363  0.3627 -0.4304
 1575SOL     OW16186   3.258   0.851   9.488  0.1830  0.2849  0.1904
 1575SOL    HW116187   3.223   0.777   9.537  0.3946  0.7248  1.0039
 1575SOL    HW216188   3.313   0.901   9.549  1.6017  0.1626 -0.9911
 1576SOL     OW16189   2.517   0.338   7.527 -0.1206  0.2205  0.0934
 1576SOL    HW116190   2.448   0.290   7.481  0.0152 -1.1132  1.2886
 1576SOL    HW216191   2.497   0.300   7.612  3.1401  0.8406  1.1541
 1577SOL     OW16192   4.149   2.353   5.966  0.5097  0.6243  0.4712
 1577SOL    HW116193   4.132   2.331   6.058  0.9632 -1.7953 -0.0331
 1577SOL    HW216194   4.089   2.424   5.945 -0.7741 -0.4127  0.6684
 1578SOL     OW16195   3.007   0.669   9.424 -0.1427  0.1609  0.1088
 1578SOL    HW116196   3.012   0.580   9.457 -0.0244  0.6449  1.3912
 1578SOL    HW216197   2.930   0.710   9.464 -1.7973  0.6143 -3.5536
 1579SOL     OW16198   1.175   3.689   1.868 -0.3817  0.2924 -0.3170
 1579SOL    HW116199   1.204   3.699   1.777  0.5168 -1.1018 -0.1698
 1579SOL    HW216200   1.169   3.595   1.884  1.0300  0.3868  0.8502
 1580SOL     OW16201   0.624   3.900   2.109  0.4185  0.1338  0.3000
 1580SOL    HW116202   0.546   3.850   2.134 -0.0888  0.9473  0.3377
 1580SOL    HW216203   0.681   3.832   2.073  0.3580 -0.3622  1.1494
 1581SOL     OW16204   3.052   3.453   5.618 -0.0727  0.0104  0.3851
 1581SOL    HW116205   3.140   3.487   5.603 -0.3287  0.3158 -0.4258
 1581SOL    HW216206   3.002   3.534   5.609 -1.0329 -0.5266  0.8538
 1582SOL     OW16207   4.281   0.981   2.108 -0.6101  0.4542  0.4270
 1582SOL    HW116208   4.234   1.043   2.053 -1.3404 -2.9750 -2.8787
 1582SOL    HW216209   4.219   0.908   2.110 -0.8310  0.6158 -0.6857
 1583SOL     OW16210   2.918   0.163   1.002  0.7346  0.1187 -0.6089
 1583SOL    HW116211   2.915   0.070   0.981  0.5053  0.5057 -2.3091
 1583SOL    HW216212   2.943   0.150   1.094 -1.8512  1.2869  0.2869
 1584SOL     OW16213   3.205   1.165   8.227  0.4290 -0.0200  0.3090
 1584SOL    HW116214   3.207   1.247   8.275  1.1986 -0.4146  0.9452
 1584SOL    HW216215   3.234   1.179   8.137  2.8840  0.0768  1.1308
 1585SOL     OW16216   0.306   3.142   1.565  0.1873  0.5733 -0.4277
 1585SOL    HW116217   0.253   3.139   1.644 -0.0406  1.7456 -0.5258
 1585SOL    HW216218   0.288   3.232   1.537  0.5115  0.9518  0.5936
 1586SOL     OW16219   2.163   2.565   0.505  0.8459 -0.4129 -0.1050
 1586SOL    HW116220   2.147   2.573   0.411 -1.0682 -0.6800  0.2118
 1586SOL    HW216221   2.150   2.470   0.512  0.4105 -0.3052  0.4903
 1587SOL     OW16222   4.700   3.797   1.110  0.1183  0.2440 -0.4565
 1587SOL    HW116223   0.063   3.789   1.152  0.3097  0.9990 -0.7207
 1587SOL    HW216224   4.649   3.780   1.190 -0.1172  2.1230 -0.2110
 1588SOL     OW16225   0.442   2.557   3.688  0.2729  0.1143  0.3769
 1588SOL    HW116226   0.442   2.585   3.596 -0.1948 -0.6994  0.1330
 1588SOL    HW216227   0.348   2.552   3.705  0.2770 -0.6307  0.1389
 1589SOL     OW16228   1.604   2.149   2.529  0.2466  0.1461  0.4454
 1589SOL    HW116229   1.608   2.130   2.436  2.6352  2.1987  0.1497
 1589SOL    HW216230   1.560   2.234   2.520 -0.3760 -0.3744 -1.3607
 1590SOL     OW16231   3.508   1.516   3.269 -0.7817  0.2482  0.2664
 1590SOL    HW116232   3.586   1.570   3.280  0.3532 -0.9550 -1.8194
 1590SOL    HW216233   3.494   1.542   3.178 -0.0639 -2.9579 -0.7769
 1591SOL     OW16234   1.314   2.643   3.806  0.8138 -0.0851  0.5465
 1591SOL    HW116235   1.231   2.663   3.763  0.7648 -0.9426  0.2519
 1591SOL    HW216236   1.315   2.552   3.834 -2.0387  0.2326  1.7046
 1592SOL     OW16237   3.203   3.051  11.195 -0.8166 -0.7523  0.2725
 1592SOL    HW116238   3.296   3.040  11.219 -0.6682  0.8238  0.4092
 1592SOL    HW216239   3.203   3.087  11.107  1.5114  1.6865  1.2772
 1593SOL     OW16240   1.189   0.258   9.695 -0.5476 -0.0748 -0.2207
 1593SOL    HW116241   1.105   0.226   9.663  0.4475 -0.7431 -2.1565
 1593SOL    HW216242   1.223   0.174   9.726 -2.1874  0.4866  3.0987
 1594SOL     OW16243   2.733   0.156   4.262 -0.6165  0.2966  0.4147
 1594SOL    HW116244   2.784   0.223   4.307  0.4763  0.8912 -1.7062
 1594SOL    HW216245   2.799   0.092   4.236  0.0337  0.0614  2.6999
 1595SOL     OW16246   3.388   0.842   6.135 -0.1137 -0.7909  0.6078
 1595SOL    HW116247   3.385   0.807   6.046 -1.7461  0.3028  0.2352
 1595SOL    HW216248   3.311   0.899   6.130  1.2133  0.9039 -0.6450
 1596SOL     OW16249   4.154   2.916  12.537 -0.0495  0.5072 -0.1682
 1596SOL    HW116250   4.196   2.831  12.526  2.5607  1.3958  2.7137
 1596SOL    HW216251   4.135   2.923  12.631  1.9852 -2.0385  0.4359
 1597SOL     OW16252   2.993   1.746  15.532  0.3494  0.0925  0.1074
 1597SOL    HW116253   3.050   1.678  15.567 -0.2879 -0.0853  0.8157
 1597SOL    HW216254   2.931   1.771  15.601 -1.9182 -1.4253 -1.3830
 1598SOL     OW16255   2.134   4.430   8.092  0.0772 -0.2795  0.1402
 1598SOL    HW116256   2.174   4.355   8.136  3.1213  0.3570 -1.5834
 1598SOL    HW216257   2.214   4.481   8.101  0.3324 -0.4646 -1.1775
 1599SOL     OW16258   2.137   1.841  16.427 -0.2446 -0.0790  0.2298
 1599SOL    HW116259   2.100   1.833  16.339  0.0535  0.6840  0.0375
 1599SOL    HW216260   2.065   1.837  16.489  0.2301 -0.6195  0.7527
 1600SOL     OW16261   3.687   1.611   5.772  0.4589 -0.3796  0.3732
 1600SOL    HW116262   3.708   1.517   5.771  1.3732 -0.1709 -0.9280
 1600SOL    HW216263   3.596   1.601   5.745  0.7050 -0.8579 -0.2838
 1601SOL     OW16264   2.089   0.871   2.387 -0.8736  0.2177 -0.5964
 1601SOL    HW116265   2.114   0.782   2.362  1.5142  1.0040 -0.9678
 1601SOL    HW216266   2.067   0.909   2.302  0.8809  0.2329 -1.0295
 1602SOL     OW16267   1.863   3.637  11.670 -0.3934  0.5443 -0.4179
 1602SOL    HW116268   1.908   3.720  11.688 -0.7198  0.4060  1.0245
 1602SOL    HW216269   1.910   3.623  11.587 -0.0002  1.1695 -0.2996
 1603SOL     OW16270   4.007   0.538  14.344 -0.3665 -0.1332  0.2631
 1603SOL    HW116271   3.939   0.490  14.296 -1.2747  1.6158 -0.1909
 1603SOL    HW216272   4.051   0.589  14.276 -1.5928  0.7746  0.1497
 1604SOL     OW16273   0.378   0.125   2.848  0.1704 -0.3634 -0.5136
 1604SOL    HW116274   0.459   0.124   2.898 -0.2466  1.1728  0.2170
 1604SOL    HW216275   0.359   0.032   2.836  1.5032 -0.9838  2.1729
 1605SOL     OW16276   1.613   1.553   6.748  0.1355 -0.1624  0.1162
 1605SOL    HW116277   1.698   1.510   6.745 -0.2306 -0.8958  0.3601
 1605SOL    HW216278   1.623   1.640   6.788  2.1976 -0.0887 -0.5634
 1606SOL     OW16279   4.193   1.543   4.938 -0.1085  0.3589 -0.4131
 1606SOL    HW116280   4.203   1.524   5.031  0.0485 -1.5077 -0.8063
 1606SOL    HW216281   4.239   1.627   4.935 -1.2822  1.0012 -0.1840
 1607SOL     OW16282   3.453   2.760  12.815  0.0970  0.4872  0.8215
 1607SOL    HW116283   3.461   2.841  12.764  0.7218 -0.8866 -1.2736
 1607SOL    HW216284   3.544   2.732  12.826  0.5152  0.4044 -2.8736
 1608SOL     OW16285   2.732   0.480   5.896 -0.0543  0.1977  0.3536
 1608SOL    HW116286   2.775   0.553   5.852  0.0535  0.1181  0.3261
 1608SOL    HW216287   2.656   0.528   5.927 -0.8447 -0.8875  0.1126
 1609SOL     OW16288   3.502   1.885   5.902 -0.3752 -0.0969  0.0332
 1609SOL    HW116289   3.519   1.791   5.915  1.5937  0.0897 -1.2601
 1609SOL    HW216290   3.572   1.918   5.957  0.0565 -0.8360 -0.0641
 1610SOL     OW16291   3.305   1.656   2.722 -0.5176  0.2604  0.2155
 1610SOL    HW116292   3.212   1.660   2.699 -0.7449  1.2956  1.3507
 1610SOL    HW216293   3.326   1.564   2.705 -1.0992  0.7632 -3.3136
 1611SOL     OW16294   4.592   4.540   5.895 -0.1657 -0.1385 -0.4187
 1611SOL    HW116295   4.500   4.561   5.879 -0.8763 -2.4030  0.7546
 1611SOL    HW216296   4.627   4.610   5.950 -0.3564  1.0679 -1.8456
 1612SOL     OW16297   0.406   1.544   5.791  0.0472  0.4188  0.2089
 1612SOL    HW116298   0.446   1.478   5.848 -1.1561  0.9873  1.7040
 1612SOL    HW216299   0.333   1.485   5.772  0.4652 -0.8535  2.5287
 1613SOL     OW16300   3.742   1.994   3.230 -0.1836 -0.0984  0.4043
 1613SOL    HW116301   3.720   1.924   3.170 -0.7116  0.8940 -0.5625
 1613SOL    HW216302   3.696   1.947   3.300 -0.3400 -0.7007 -0.1010
 1614SOL     OW16303   0.466   1.365   5.019 -0.1012  0.2751  0.6344
 1614SOL    HW116304   0.392   1.304   5.019 -0.7233  1.0289 -0.9007
 1614SOL    HW216305   0.516   1.325   4.948 -1.1013 -0.3757  0.2978
 1615SOL     OW16306   4.490   4.053  15.660  0.2474  0.3199  0.7781
 1615SOL    HW116307   4.508   4.006  15.579 -3.7467  1.7499 -0.9498
 1615SOL    HW216308   4.395   4.062  15.652  0.2014  1.1562  2.2703
 1616SOL     OW16309   1.299   2.188   5.205 -0.2308  0.0143  0.5122
 1616SOL    HW116310   1.346   2.251   5.151 -1.2645  0.3540  0.0281
 1616SOL    HW216311   1.282   2.127   5.134  1.5452 -0.7376  0.7315
 1617SOL     OW16312   0.623   2.857   5.644  0.6104 -0.0487  0.1259
 1617SOL    HW116313   0.574   2.910   5.707 -0.4817  0.3694 -1.0695
 1617SOL    HW216314   0.667   2.793   5.700  0.4574  0.6485  1.0349
 1618SOL     OW16315   3.131   3.091   5.600  0.0194 -0.4792 -0.3414
 1618SOL    HW116316   3.078   3.080   5.679  0.0818 -3.3490 -0.7152
 1618SOL    HW216317   3.192   3.018   5.606  1.1549  0.4728 -0.1626
 1619SOL     OW16318   4.291   1.537  10.417  0.1964 -0.2533 -0.0344
 1619SOL    HW116319   4.212   1.497  10.382 -0.7188  0.3566  1.3457
 1619SOL    HW216320   4.255   1.602  10.478 -0.9534 -1.9407  1.0631
 1620SOL     OW16321   0.474   2.158  14.726  0.3218 -0.2422  0.4282
 1620SOL    HW116322   0.429   2.242  14.723  2.0212  0.6436 -0.6262
 1620SOL    HW216323   0.514   2.146  14.639  0.6120 -2.2259  0.8470
 1621SOL     OW16324   1.802   2.516   6.553 -0.2392  0.1473  0.2951
 1621SOL    HW116325   1.738   2.566   6.502  0.3099  1.8649  1.2989
 1621SOL    HW216326   1.830   2.449   6.491 -0.3360  1.5245 -1.2719
 1622SOL     OW16327   4.149   2.654   0.963 -0.0112 -0.1362  0.0265
 1622SOL    HW116328   4.230   2.616   0.928  0.4966  2.8096 -2.0301
 1622SOL    HW216329   4.076   2.603   0.930  0.9193  0.1677 -2.4994
 1623SOL     OW16330   0.750   3.962   8.125  0.1118  0.0529 -0.3505
 1623SOL    HW116331   0.842   3.940   8.137  0.3475  0.5877 -1.1489
 1623SOL    HW216332   0.751   4.036   8.064 -2.9410  0.7891  0.4744
 1624SOL     OW16333   3.857   3.675   6.977  0.0895  0.4407  0.2454
 1624SOL    HW116334   3.847   3.696   7.070 -1.2431 -0.3800  0.2864
 1624SOL    HW216335   3.874   3.582   6.992  0.3596  0.5944  0.8962
 1625SOL     OW16336   2.768   3.994   8.074  0.2389 -0.2095 -0.1762
 1625SOL    HW116337   2.737   3.995   8.165  0.0333  0.1493 -0.2474
 1625SOL    HW216338   2.716   3.921   8.041  2.0470 -1.5144 -0.1430
 1626SOL     OW16339   0.881   1.275   2.384 -0.4417 -0.8345  0.3270
 1626SOL    HW116340   0.868   1.265   2.478  1.0827  1.7071  0.8295
 1626SOL    HW216341   0.794   1.309   2.362  0.0256 -0.3026 -0.7565
 1627SOL     OW16342   2.479   1.166   7.833  0.4453 -0.3357 -0.5540
 1627SOL    HW116343   2.556   1.112   7.849 -0.6462 -1.8118 -0.3583
 1627SOL    HW216344   2.519   1.250   7.809 -0.2602  0.4395  1.0082
 1628SOL     OW16345   3.570   2.691   6.385  0.2120 -0.0112  0.3538
 1628SOL    HW116346   3.514   2.657   6.455 -2.7048  0.7075 -1.6295
 1628SOL    HW216347   3.642   2.735   6.430 -0.3702 -0.1020  1.3826
 1629SOL     OW16348   0.434   4.130   8.433 -0.5709  0.6798 -0.3037
 1629SOL    HW116349   0.479   4.186   8.369  0.3619 -0.7261 -0.8685
 1629SOL    HW216350   0.437   4.184   8.512 -0.1855  0.9741 -0.5220
 1630SOL     OW16351   1.594   3.003   8.988  0.4116  0.1055 -0.6029
 1630SOL    HW116352   1.535   2.988   8.915  0.5675 -0.4863 -0.6017
 1630SOL    HW216353   1.675   2.968   8.953  0.8351  0.0450  0.4207
 1631SOL     OW16354   2.327   4.235  15.872 -0.4529 -0.0941 -0.2843
 1631SOL    HW116355   2.350   4.303  15.809 -0.4120 -2.0777 -2.3930
 1631SOL    HW216356   2.412   4.197  15.892 -0.7799 -0.9915 -0.6112
 1632SOL     OW16357   1.880   4.409   2.492 -0.3138 -0.2350  0.3849
 1632SOL    HW116358   1.930   4.349   2.437  0.1230 -0.7012  1.2884
 1632SOL    HW216359   1.915   4.498   2.486 -1.9271  0.2061 -2.1985
 1633SOL     OW16360   2.948   2.827   2.693 -0.1324 -0.5414  0.6322
 1633SOL    HW116361   2.875   2.877   2.656  0.1236  0.0381  0.8984
 1633SOL    HW216362   3.025   2.884   2.683 -2.8511  3.1785  0.5620
 1634SOL     OW16363   3.933   3.947  15.637 -0.5382  0.0189  0.3477
 1634SOL    HW116364   3.929   3.969  15.544  1.2038 -1.2365 -0.0270
 1634SOL    HW216365   3.987   4.020  15.666  1.2279 -0.4789 -1.6471
 1635SOL     OW16366   3.264   3.240   1.440 -0.5318 -0.0961  0.2670
 1635SOL    HW116367   3.291   3.268   1.528  0.6521 -1.2052  0.2390
 1635SOL    HW216368   3.335   3.268   1.383 -1.3069  1.4943  0.0675
 1636SOL     OW16369   2.598   0.520  15.838  0.5038  0.2083  0.0368
 1636SOL    HW116370   2.635   0.567  15.764 -0.1132 -0.4787 -0.7218
 1636SOL    HW216371   2.506   0.516  15.813  0.3889  0.3749  0.4290
 1637SOL     OW16372   4.166   3.736   0.693  0.5412  0.1576  0.2589
 1637SOL    HW116373   4.255   3.743   0.658  0.4585 -3.0972 -0.6008
 1637SOL    HW216374   4.184   3.702   0.780 -1.2689  2.9784  1.7238
 1638SOL     OW16375   2.498   1.526   9.625 -0.3414 -0.4136 -0.2496
 1638SOL    HW116376   2.418   1.565   9.661 -0.9865 -1.8354 -0.1732
 1638SOL    HW216377   2.512   1.574   9.542  2.0708 -1.1173 -0.2303
 1639SOL     OW16378   3.187   1.020   8.452  0.4309  0.0231 -0.0868
 1639SOL    HW116379   3.241   1.057   8.382 -0.3991  2.4549  0.5471
 1639SOL    HW216380   3.190   1.087   8.521 -1.8296  0.0036  0.0286
 1640SOL     OW16381   3.530   1.898   7.265 -0.6664 -0.4964  0.9337
 1640SOL    HW116382   3.584   1.820   7.280  1.5399  0.7220 -0.5154
 1640SOL    HW216383   3.576   1.953   7.328 -0.1323  1.3837 -1.0980
 1641SOL     OW16384   3.968   0.196  14.669  0.2992 -0.8228  0.1324
 1641SOL    HW116385   3.923   0.275  14.639  0.4866 -1.1698 -1.0442
 1641SOL    HW216386   4.043   0.193  14.610  0.4501  0.7622  0.2198
 1642SOL     OW16387   0.231   3.134   3.755  0.4507 -1.0645  0.5431
 1642SOL    HW116388   0.227   3.055   3.809  1.2548 -1.0488  0.6282
 1642SOL    HW216389   0.158   3.117   3.695  0.5963  0.5114 -0.0888
 1643SOL     OW16390   1.735   0.160   0.833 -0.3224  0.6249 -0.4165
 1643SOL    HW116391   1.765   0.075   0.800  0.1285  1.3781 -1.9622
 1643SOL    HW216392   1.707   0.212   0.758  0.2176  0.9248 -0.4141
 1644SOL     OW16393   3.497   3.376   1.322 -0.0600  0.0285  0.2433
 1644SOL    HW116394   3.470   3.417   1.241 -1.2420  1.5132  1.3881
 1644SOL    HW216395   3.488   3.447   1.386  0.9121 -0.5790  1.0562
 1645SOL     OW16396   0.731   1.156   8.026  0.1911 -0.6731  0.0729
 1645SOL    HW116397   0.775   1.169   8.110 -0.7225 -1.8533  0.7284
 1645SOL    HW216398   0.639   1.167   8.052 -0.5402 -0.8001 -2.4306
 1646SOL     OW16399   2.699   4.113   6.160  0.2613  0.3535  0.4252
 1646SOL    HW116400   2.764   4.183   6.159 -1.0425  1.5747  1.4567
 1646SOL    HW216401   2.674   4.112   6.253 -1.4879  1.0339 -0.0346
 1647SOL     OW16402   1.965   1.009   5.920 -0.1785 -0.2951  0.3634
 1647SOL    HW116403   1.997   0.967   5.840  0.8523  2.0907 -0.4763
 1647SOL    HW216404   2.006   1.095   5.919 -0.9818  0.0849  0.1078
 1648SOL     OW16405   0.477   3.062   6.449 -0.3636 -0.6579  0.1272
 1648SOL    HW116406   0.531   3.069   6.528  0.9357 -0.1193 -0.8239
 1648SOL    HW216407   0.395   3.100   6.483  0.8315  0.1353  2.1521
 1649SOL     OW16408   1.551   2.745   5.581 -0.0582  0.6118 -0.0653
 1649SOL    HW116409   1.565   2.659   5.543  1.6290  0.5063  0.7869
 1649SOL    HW216410   1.634   2.766   5.624 -0.3507 -0.1544  0.8683
 1650SOL     OW16411   3.032   4.493   4.466 -0.4061  0.3757 -0.4493
 1650SOL    HW116412   3.065   4.579   4.492  0.6493 -0.0378 -0.4053
 1650SOL    HW216413   2.940   4.517   4.453 -0.4384  0.7864  0.5083
 1651SOL     OW16414   4.294   2.261   4.903  0.2873  0.4105  0.2310
 1651SOL    HW116415   4.364   2.300   4.850  1.1764  0.5125  1.4870
 1651SOL    HW216416   4.334   2.196   4.960  1.1625 -0.4730 -1.4071
 1652SOL     OW16417   1.307   0.813   8.493 -0.4028  0.5416 -0.2633
 1652SOL    HW116418   1.394   0.785   8.464 -0.8090  0.7013 -1.6566
 1652SOL    HW216419   1.308   0.904   8.463  0.9497  0.5356 -0.2405
 1653SOL     OW16420   2.090   4.722  11.928 -0.5192  0.1000  0.6056
 1653SOL    HW116421   2.108   4.717  11.834 -0.6879  0.5455  0.5502
 1653SOL    HW216422   2.001   0.033  11.937 -1.3561 -1.9688  0.1112
 1654SOL     OW16423   1.510   2.217   8.705  0.6414 -0.0561  0.1619
 1654SOL    HW116424   1.439   2.265   8.665 -0.9585 -0.5043  2.4501
 1654SOL    HW216425   1.463   2.158   8.764  1.3289  0.9168  1.7113
 1655SOL     OW16426   0.525   4.676   4.687 -0.3582 -0.5406 -0.5714
 1655SOL    HW116427   0.478   0.025   4.644 -0.3670 -0.2421 -0.0731
 1655SOL    HW216428   0.614   4.707   4.670 -0.5422  0.6603  0.6040
 1656SOL     OW16429   1.814   0.592   7.475 -0.2273  0.1098  0.4631
 1656SOL    HW116430   1.729   0.614   7.512 -0.0983 -1.2389  1.5794
 1656SOL    HW216431   1.827   0.515   7.530 -0.2874 -1.2973 -1.4977
 1657SOL     OW16432   3.238   4.438   7.084 -0.7572  1.0110  0.2292
 1657SOL    HW116433   3.279   4.354   7.106 -0.7387  1.7793  3.1206
 1657SOL    HW216434   3.171   4.450   7.152 -0.8066  1.4191  0.1056
 1658SOL     OW16435   2.566   3.087  15.873 -0.2958 -0.4681  0.0285
 1658SOL    HW116436   2.568   3.023  15.943  0.9362 -1.3415 -0.8169
 1658SOL    HW216437   2.587   3.165  15.924  1.7523 -2.2448  1.8852
 1659SOL     OW16438   0.592   0.387  13.125 -0.0429  0.8255 -0.2356
 1659SOL    HW116439   0.644   0.467  13.128  0.8913  0.3649 -4.1623
 1659SOL    HW216440   0.520   0.408  13.066  0.1820  1.5130 -0.2546
 1660SOL     OW16441   3.617   0.647  17.304 -0.3319 -0.0086 -0.2448
 1660SOL    HW116442   3.616   0.598  17.386  1.4776  0.2550 -0.0650
 1660SOL    HW216443   3.567   0.725  17.326 -0.9340  0.8512 -4.5854
 1661SOL     OW16444   4.623   2.312   5.483  0.6378  0.2977 -0.0382
 1661SOL    HW116445   4.586   2.376   5.544  3.2777  0.7026  1.1184
 1661SOL    HW216446   4.704   2.294   5.529  0.6268  0.3603  0.0069
 1662SOL     OW16447   4.704   3.747  17.103 -0.6873  0.3272  0.0661
 1662SOL    HW116448   4.618   3.731  17.065  0.0416 -1.8835 -0.6382
 1662SOL    HW216449   0.032   3.764  17.024 -0.6735  1.0041  0.2159
 1663SOL     OW16450   0.089   1.612   8.774  0.3066  0.3692  0.2242
 1663SOL    HW116451   0.098   1.611   8.679  1.0260  0.3668  0.2936
 1663SOL    HW216452   0.182   1.605   8.796 -0.1916  1.3171  2.6504
 1664SOL     OW16453   4.229   3.822   6.257  0.3892  0.1142  0.2195
 1664SOL    HW116454   4.322   3.838   6.278  0.2673 -2.1204  2.5659
 1664SOL    HW216455   4.227   3.816   6.162  1.0803 -1.4650  0.3010
 1665SOL     OW16456   1.337   3.448   0.232  0.2379  0.1519  0.4493
 1665SOL    HW116457   1.407   3.498   0.191  1.3393 -0.7430  1.2544
 1665SOL    HW216458   1.259   3.493   0.200 -1.4249 -2.6345  0.5404
 1666SOL     OW16459   2.519   4.240   2.826  0.4017 -0.0730  0.2629
 1666SOL    HW116460   2.434   4.227   2.784 -0.2313 -0.7547  1.7579
 1666SOL    HW216461   2.495   4.210   2.914 -0.0024  1.8792  0.8110
 1667SOL     OW16462   1.567   2.488   5.422 -0.1371  0.0999  0.0733
 1667SOL    HW116463   1.573   2.521   5.332 -1.7468  1.4518  0.4473
 1667SOL    HW216464   1.554   2.398   5.393  0.5249  0.3502 -0.9860
 1668SOL     OW16465   1.449   2.138   2.115  0.2333  0.2064 -0.1114
 1668SOL    HW116466   1.474   2.125   2.023  0.1582  1.8977 -0.3795
 1668SOL    HW216467   1.357   2.111   2.112  0.7139 -1.5125  0.7325
 1669SOL     OW16468   2.384   3.363   8.139 -0.4456  0.2853  0.8122
 1669SOL    HW116469   2.346   3.301   8.202  2.9237 -2.7832 -0.1926
 1669SOL    HW216470   2.457   3.408   8.181  0.5372 -0.7644  0.2364
 1670SOL     OW16471   2.058   3.715   4.860  0.1155 -0.2385  0.2572
 1670SOL    HW116472   2.017   3.647   4.806 -2.3694  0.6103  1.0769
 1670SOL    HW216473   1.981   3.743   4.910 -0.9938  0.6121 -1.9186
 1671SOL     OW16474   4.259   1.659   7.630 -0.5439  0.3410 -0.4776
 1671SOL    HW116475   4.242   1.634   7.720  1.2159 -1.4125 -0.6327
 1671SOL    HW216476   4.340   1.609   7.614 -0.3773  0.1223  1.1088
 1672SOL     OW16477   1.162   0.752   6.095 -0.0620 -0.1267 -0.4833
 1672SOL    HW116478   1.234   0.773   6.155  0.1646 -2.1135 -0.0674
 1672SOL    HW216479   1.089   0.742   6.156 -0.5946 -0.8712 -1.2453
 1673SOL     OW16480   1.688   0.116   3.178 -0.3233 -0.0078 -0.0518
 1673SOL    HW116481   1.639   0.197   3.194 -0.6007  0.0844 -1.3676
 1673SOL    HW216482   1.738   0.113   3.259 -1.4852 -1.5462  0.6052
 1674SOL     OW16483   3.269   1.681  16.343 -0.3405  0.5437  0.4747
 1674SOL    HW116484   3.340   1.721  16.292 -1.2364 -1.3405 -2.2057
 1674SOL    HW216485   3.258   1.733  16.423 -1.3605 -1.5453  1.6645
 1675SOL     OW16486   0.597   2.258   7.347 -0.0752  0.0721  0.6039
 1675SOL    HW116487   0.575   2.316   7.274 -0.0830  0.2178  0.7226
 1675SOL    HW216488   0.508   2.249   7.379 -0.3595  0.3635 -0.1056
 1676SOL     OW16489   4.593   0.898  17.156  0.6307 -0.2698  0.2429
 1676SOL    HW116490   4.586   0.924  17.247 -0.9607  0.6931 -0.1527
 1676SOL    HW216491   4.553   0.811  17.153 -0.6011  0.3107 -0.1811
 1677SOL     OW16492   1.297   0.298   3.315  0.0867  0.0197 -1.0883
 1677SOL    HW116493   1.392   0.289   3.327 -0.1024 -2.2894 -1.1813
 1677SOL    HW216494   1.278   0.390   3.299  1.9697  0.8402  1.5104
 1678SOL     OW16495   4.046   2.863  14.471 -0.1002 -0.1317 -0.3929
 1678SOL    HW116496   4.018   2.945  14.431 -0.8265 -0.3071 -0.2472
 1678SOL    HW216497   4.135   2.868  14.436 -0.3774 -3.7922 -1.6876
 1679SOL     OW16498   4.682   0.986   2.876  0.2093 -0.1388  0.2374
 1679SOL    HW116499   0.007   0.950   2.801  0.0527 -1.5280  0.8141
 1679SOL    HW216500   4.598   0.942   2.871  1.2833 -2.2156  0.6977
 1680SOL     OW16501   2.033   4.237   9.409  0.0521 -0.4678 -0.4816
 1680SOL    HW116502   1.946   4.205   9.431 -0.4196  0.8704 -0.4509
 1680SOL    HW216503   2.096   4.181   9.455 -1.8800 -2.6480 -0.4493
 1681SOL     OW16504   2.800   4.423  14.041 -0.3673 -0.0044  0.9113
 1681SOL    HW116505   2.808   4.402  14.135  2.4464 -0.9363  0.4806
 1681SOL    HW216506   2.806   4.331  14.013 -0.9739 -0.4085  2.1018
 1682SOL     OW16507   2.106   0.699  15.995  0.2259  0.4017  0.1554
 1682SOL    HW116508   2.049   0.773  16.018 -2.2037 -1.1145 -0.9747
 1682SOL    HW216509   2.062   0.663  15.918 -0.1729 -2.1070  1.5816
 1683SOL     OW16510   2.391   3.879   6.864  0.6685 -0.1165 -0.6355
 1683SOL    HW116511   2.447   3.884   6.942  0.6710 -0.7630 -0.5942
 1683SOL    HW216512   2.420   3.961   6.824  2.7588 -0.5117  0.0820
 1684SOL     OW16513   3.896   2.561   3.184  0.1996 -0.2635 -0.4286
 1684SOL    HW116514   3.926   2.488   3.238 -0.1002  0.7973  1.1589
 1684SOL    HW216515   3.801   2.558   3.180  0.2029 -1.9504  0.8367
 1685SOL     OW16516   2.022   2.930   2.803  0.4635 -0.7163  0.3616
 1685SOL    HW116517   2.108   2.967   2.782  0.3203 -1.2139 -1.0694
 1685SOL    HW216518   1.965   3.006   2.788  0.7893 -0.7567 -1.0348
 1686SOL     OW16519   2.286   4.450   3.780  0.2414 -0.1047 -0.3317
 1686SOL    HW116520   2.306   4.514   3.712  0.4696 -1.5545 -1.6230
 1686SOL    HW216521   2.367   4.420   3.821  0.0649 -0.0256  0.0825
 1687SOL     OW16522   3.631   2.521   3.361 -0.2113 -0.2331 -0.3479
 1687SOL    HW116523   3.702   2.520   3.425  0.0447 -2.2072 -0.6547
 1687SOL    HW216524   3.628   2.427   3.339  2.1915 -0.5181  0.5551
 1688SOL     OW16525   2.172   0.240   6.571  0.1386  0.3158 -0.6866
 1688SOL    HW116526   2.192   0.326   6.608 -1.0295 -0.9666  2.9120
 1688SOL    HW216527   2.196   0.247   6.479 -1.2155  0.5886 -1.0301
 1689SOL     OW16528   4.535   3.464  16.480 -0.1508 -0.2020 -0.4674
 1689SOL    HW116529   4.501   3.375  16.480 -0.0018 -0.2587 -0.0846
 1689SOL    HW216530   4.527   3.497  16.390  3.1655  1.1050 -0.2968
 1690SOL     OW16531   0.694   1.307   6.543 -0.2788  0.0890 -0.1175
 1690SOL    HW116532   0.639   1.266   6.476  0.6825 -0.7267 -0.4029
 1690SOL    HW216533   0.751   1.350   6.480 -3.1591  3.5046 -0.3823
 1691SOL     OW16534   1.837   3.196   2.349  0.2858 -0.2432 -0.0856
 1691SOL    HW116535   1.871   3.114   2.313  0.4155 -0.2915  0.1484
 1691SOL    HW216536   1.832   3.240   2.264  1.6732  0.1831  0.0480
 1692SOL     OW16537   1.382   2.156   3.386 -0.0094 -0.7156 -0.2363
 1692SOL    HW116538   1.425   2.085   3.338 -1.8726 -2.5453  0.8329
 1692SOL    HW216539   1.393   2.221   3.316 -0.1668 -1.2312 -0.7375
 1693SOL     OW16540   3.774   1.324   3.427  0.3555 -0.6425  0.0143
 1693SOL    HW116541   3.783   1.329   3.332 -2.5810  0.1331 -0.2190
 1693SOL    HW216542   3.688   1.281   3.429  0.5208 -1.0242 -1.3651
 1694SOL     OW16543   3.297   1.640   1.314  0.6034  0.3164 -0.3802
 1694SOL    HW116544   3.339   1.678   1.391  1.3791  1.7480 -1.5190
 1694SOL    HW216545   3.332   1.697   1.246 -0.6290 -1.8398 -2.8462
 1695SOL     OW16546   3.117   3.155   6.256  0.0343  0.0140 -0.4272
 1695SOL    HW116547   3.200   3.201   6.249 -0.4263  0.7818 -0.8417
 1695SOL    HW216548   3.127   3.071   6.211 -1.8576 -1.4676  1.8860
 1696SOL     OW16549   3.488   3.867   6.082  0.5003  0.1293 -0.3663
 1696SOL    HW116550   3.530   3.954   6.085 -0.6284  0.6349  0.8679
 1696SOL    HW216551   3.472   3.863   6.176 -0.6018 -2.9666 -0.7157
 1697SOL     OW16552   2.307   0.148   9.059  0.6633 -0.6334 -0.3822
 1697SOL    HW116553   2.335   0.127   9.148  1.0357  2.4839  0.2476
 1697SOL    HW216554   2.237   0.214   9.062 -0.7105 -2.2968  3.8062
 1698SOL     OW16555   4.067   3.435  14.081 -0.4783  0.3097 -0.0283
 1698SOL    HW116556   4.069   3.340  14.079 -1.7044  0.2649  0.9863
 1698SOL    HW216557   4.148   3.465  14.123 -0.0801 -0.6258 -0.1337
 1699SOL     OW16558   1.908   1.346   4.254 -0.2020  0.2414  0.0234
 1699SOL    HW116559   1.908   1.360   4.160 -1.0621  0.6763  0.0918
 1699SOL    HW216560   1.961   1.424   4.273 -0.4596 -0.0246  1.8706
 1700SOL     OW16561   2.287   3.551   7.464 -0.0770  0.4767  0.0755
 1700SOL    HW116562   2.228   3.618   7.428 -1.6636 -0.5286  0.8070
 1700SOL    HW216563   2.296   3.578   7.556 -0.7225 -0.4611  0.4152
 1701SOL     OW16564   0.364   1.534   4.734 -0.3596 -0.0861  0.0223
 1701SOL    HW116565   0.396   1.600   4.796  2.1830 -2.1463  0.9186
 1701SOL    HW216566   0.388   1.572   4.650 -1.0699 -0.1090 -0.1890
 1702SOL     OW16567   2.644   0.522   2.096  0.6153  0.5779 -0.1683
 1702SOL    HW116568   2.571   0.549   2.150 -0.1139 -1.3145 -0.2106
 1702SOL    HW216569   2.716   0.527   2.159  0.3769  0.8709  0.0799
 1703SOL     OW16570   3.134   1.238   6.389 -0.4181 -1.1593 -0.8921
 1703SOL    HW116571   3.076   1.176   6.433  0.1938  0.2264  1.8946
 1703SOL    HW216572   3.089   1.322   6.389 -1.6494 -1.8291 -0.6487
 1704SOL     OW16573   1.235   1.328  14.249  0.3691 -0.0399 -0.9520
 1704SOL    HW116574   1.317   1.313  14.296 -0.2837  0.3258  0.3156
 1704SOL    HW216575   1.258   1.391  14.181 -0.7804 -0.2959 -1.5707
 1705SOL     OW16576   1.421   0.898   2.952 -0.1370  0.2887  0.0469
 1705SOL    HW116577   1.465   0.895   3.037  2.3491 -1.4078 -1.2973
 1705SOL    HW216578   1.360   0.970   2.964 -0.1946  0.2956 -0.2762
 1706SOL     OW16579   3.422   0.583  16.691 -0.6924  0.3249 -0.0261
 1706SOL    HW116580   3.464   0.632  16.762  1.6853 -0.2584 -1.0213
 1706SOL    HW216581   3.358   0.654  16.684  0.4969  1.2773 -1.3535
 1707SOL     OW16582   3.624   1.996   4.782  0.0509  0.5125 -0.1558
 1707SOL    HW116583   3.703   2.010   4.834  0.0832  1.3040 -0.4164
 1707SOL    HW216584   3.639   2.048   4.704 -3.0550 -0.4428 -1.3902
 1708SOL     OW16585   1.124   2.489   5.351 -0.0197  0.4094  0.2496
 1708SOL    HW116586   1.109   2.397   5.330 -1.2881  0.0597  2.6370
 1708SOL    HW216587   1.218   2.485   5.370 -0.0041  1.6895  0.4071
 1709SOL     OW16588   4.516   0.614   6.459 -0.5648 -0.0983  0.0081
 1709SOL    HW116589   4.605   0.622   6.425 -0.6390 -0.5167 -0.2842
 1709SOL    HW216590   4.459   0.650   6.391 -1.2691  1.3959  1.3799
 1710SOL     OW16591   3.203   2.822   3.756 -0.0189  0.1218 -0.7400
 1710SOL    HW116592   3.214   2.914   3.732 -2.3068  1.2747  2.7822
 1710SOL    HW216593   3.293   2.797   3.732 -0.8386 -2.5230 -1.1050
 1711SOL     OW16594   1.144   1.076   1.084 -0.3315 -0.1858 -0.8263
 1711SOL    HW116595   1.158   1.111   1.172 -0.5418 -0.5836 -0.6361
 1711SOL    HW216596   1.227   1.101   1.044 -0.3088  2.0184  0.6389
 1712SOL     OW16597   4.004   1.822   5.169 -0.0637 -0.1269  0.0519
 1712SOL    HW116598   4.031   1.867   5.089  0.6038  0.4960  0.6307
 1712SOL    HW216599   4.078   1.764   5.187 -0.4529 -0.8795 -0.7287
 1713SOL     OW16600   3.551   0.648   3.166 -0.4163 -0.0621 -0.3314
 1713SOL    HW116601   3.556   0.686   3.078 -2.9139  1.9997  0.4038
 1713SOL    HW216602   3.495   0.717   3.202  0.6418  0.7573 -0.2465
 1714SOL     OW16603   1.510   3.523   3.269 -0.0225 -0.3482  0.2580
 1714SOL    HW116604   1.441   3.473   3.311 -0.1950 -0.1404  0.2243
 1714SOL    HW216605   1.522   3.602   3.321 -0.9803 -0.0583  0.0445
 1715SOL     OW16606   2.687   2.310   7.623 -0.1603  0.1172  0.6184
 1715SOL    HW116607   2.689   2.393   7.575  2.8796  0.8061  1.9560
 1715SOL    HW216608   2.673   2.243   7.556  0.2145  0.4042  0.2625
 1716SOL     OW16609   0.318   0.795  13.802  0.1947  0.2036 -0.0616
 1716SOL    HW116610   0.294   0.846  13.879  0.2957 -1.3971  1.0246
 1716SOL    HW216611   0.389   0.747  13.845  0.6077  0.5481 -0.3564
 1717SOL     OW16612   0.921   2.023  17.147 -0.2551 -0.1054 -0.1801
 1717SOL    HW116613   0.913   2.007  17.053 -0.1436  0.0894 -0.2227
 1717SOL    HW216614   0.855   2.092  17.160 -0.8108 -1.1551  2.5864
 1718SOL     OW16615   0.441   0.264   4.687  0.2096 -0.0227 -0.1500
 1718SOL    HW116616   0.425   0.231   4.776 -1.2022  0.5371 -0.1901
 1718SOL    HW216617   0.536   0.269   4.686  0.3021 -2.2083 -1.7853
 1719SOL     OW16618   1.704   0.893  12.479 -0.0807  0.6458  0.4417
 1719SOL    HW116619   1.723   0.935  12.563 -1.2430  0.6307  0.7162
 1719SOL    HW216620   1.618   0.924  12.453 -0.1501 -0.3269 -0.4951
 1720SOL     OW16621   0.992   0.412   6.813 -0.2019  0.4107 -0.6934
 1720SOL    HW116622   0.953   0.476   6.753 -2.9697 -0.1277  0.5286
 1720SOL    HW216623   1.035   0.470   6.877 -1.4212  1.6782 -1.0299
 1721SOL     OW16624   0.251   2.432   2.451  0.5610 -0.1535 -0.1205
 1721SOL    HW116625   0.205   2.511   2.479  1.0211  0.1735 -0.2743
 1721SOL    HW216626   0.185   2.396   2.392 -2.5464  0.0375  3.2335
 1722SOL     OW16627   0.256   0.765   2.497 -1.2968 -0.0730  0.2558
 1722SOL    HW116628   0.326   0.771   2.432 -1.3313  0.1343  0.2375
 1722SOL    HW216629   0.300   0.724   2.571  0.4697  0.9781 -0.2119
 1723SOL     OW16630   4.342   1.408   4.199 -0.0699 -0.4628  0.2886
 1723SOL    HW116631   4.268   1.413   4.260 -0.5715  0.1635 -0.3691
 1723SOL    HW216632   4.294   1.401   4.116  0.6353 -0.5019 -0.1129
 1724SOL     OW16633   4.608   3.481  15.172 -0.3996 -0.4543 -0.0612
 1724SOL    HW116634   4.542   3.500  15.105 -3.1765 -0.9548  2.4718
 1724SOL    HW216635   4.579   3.542  15.240  0.6525 -0.0426  0.0133
 1725SOL     OW16636   3.066   0.688   3.744  0.3116  0.1263  0.2580
 1725SOL    HW116637   3.009   0.677   3.667  0.4812 -0.9364  0.2877
 1725SOL    HW216638   3.126   0.758   3.718 -0.9336  0.6190 -1.3099
 1726SOL     OW16639   1.274   2.086   5.444 -0.3305 -0.3511 -0.9836
 1726SOL    HW116640   1.360   2.070   5.485 -0.6918  1.8949  0.6317
 1726SOL    HW216641   1.297   2.131   5.363  1.6015  2.0919  0.9120
 1727SOL     OW16642   1.622   2.124   7.485  0.4956  0.0069  0.4959
 1727SOL    HW116643   1.609   2.215   7.512 -1.6717 -0.3668  0.7066
 1727SOL    HW216644   1.628   2.085   7.572 -1.8118 -1.7092 -0.1189
 1728SOL     OW16645   4.657   2.442   6.458  0.2625  0.2863  0.1387
 1728SOL    HW116646   4.685   2.464   6.369 -1.8855  2.9024  0.0966
 1728SOL    HW216647   4.616   2.360   6.432 -1.0314  0.9297  0.1718
 1729SOL     OW16648   1.293   1.324  17.516 -0.3297  0.2805 -0.1590
 1729SOL    HW116649   1.223   1.274  17.559 -1.0006  0.8031 -0.6368
 1729SOL    HW216650   1.289   1.296  17.425  0.3312  1.2678 -0.4963
 1730SOL     OW16651   2.385   2.534   5.839 -0.9497  0.3947 -0.2270
 1730SOL    HW116652   2.408   2.509   5.750 -0.2035  3.7162 -0.9562
 1730SOL    HW216653   2.295   2.501   5.845 -0.5400 -0.5254  1.0438
 1731SOL     OW16654   2.144   3.824  11.703  0.1964 -0.0024  0.8336
 1731SOL    HW116655   2.115   3.840  11.613  1.5318 -1.9912  0.0621
 1731SOL    HW216656   2.216   3.888  11.705  0.9326 -0.7347 -1.7570
 1732SOL     OW16657   0.703   3.152   5.788  0.0126  0.7263  0.1409
 1732SOL    HW116658   0.728   3.082   5.849  2.4690  0.3147 -1.3119
 1732SOL    HW216659   0.611   3.131   5.774  0.2541 -0.0065 -0.3965
 1733SOL     OW16660   1.516   1.093  14.093  0.3598 -0.5388  0.1174
 1733SOL    HW116661   1.520   1.145  14.173 -1.1521  1.1617 -0.9159
 1733SOL    HW216662   1.432   1.115  14.053  2.0168  1.2989 -2.3863
 1734SOL     OW16663   1.020   1.103   5.253 -0.6008  0.9579  0.4827
 1734SOL    HW116664   0.948   1.059   5.207  1.6754 -1.9733 -0.2821
 1734SOL    HW216665   1.002   1.065   5.339  2.6968  0.8435  1.1375
 1735SOL     OW16666   1.179   3.959   5.878  0.3516  0.4849  0.0902
 1735SOL    HW116667   1.225   3.961   5.962  2.5015  0.2230 -1.0537
 1735SOL    HW216668   1.117   3.886   5.880 -0.0800  0.8815  1.1542
 1736SOL     OW16669   4.380   1.770   7.964  0.2827  0.6863  0.9908
 1736SOL    HW116670   4.335   1.832   7.906  0.6012 -0.5518 -0.5687
 1736SOL    HW216671   4.311   1.758   8.029  1.1879 -0.5858  1.7171
 1737SOL     OW16672   3.761   0.695  16.792  0.6552  0.1660 -0.7489
 1737SOL    HW116673   3.705   0.765  16.758 -0.5913  0.1058  1.2044
 1737SOL    HW216674   3.706   0.667  16.865  3.3807 -0.9213  0.8678
 1738SOL     OW16675   0.254   2.596   6.277 -0.3627  0.3783 -0.6681
 1738SOL    HW116676   0.163   2.572   6.258 -1.0003  1.9613  0.3634
 1738SOL    HW216677   0.253   2.689   6.252  0.3255  0.4852 -0.2976
 1739SOL     OW16678   2.827   2.010   4.170  0.2087  0.0948 -0.0095
 1739SOL    HW116679   2.824   1.990   4.077  1.8501  1.9175 -0.4774
 1739SOL    HW216680   2.823   1.920   4.203  1.2209 -0.1398 -0.5297
 1740SOL     OW16681   0.779   2.135   7.199  0.3055  0.1039 -0.2937
 1740SOL    HW116682   0.824   2.218   7.193 -0.0938  0.2661 -1.0637
 1740SOL    HW216683   0.738   2.147   7.285  3.9916  0.4186  1.3848
 1741SOL     OW16684   3.902   3.510  15.285 -0.1783  0.4466  0.5350
 1741SOL    HW116685   3.832   3.493  15.349  0.8741  1.8069  2.0630
 1741SOL    HW216686   3.950   3.579  15.331 -0.9569  1.0223  0.4886
 1742SOL     OW16687   1.015   1.258  15.827 -0.1823  0.2679  0.1428
 1742SOL    HW116688   1.009   1.335  15.770 -1.2163 -0.3968 -0.6389
 1742SOL    HW216689   1.035   1.180  15.775  1.2110  1.1828 -0.6756
 1743SOL     OW16690   0.004   4.302  14.007  0.1636  0.2034  0.0014
 1743SOL    HW116691   4.706   4.267  13.920 -2.0042 -1.6203  1.2571
 1743SOL    HW216692   0.065   4.242  14.050  0.1451  0.3862  0.2816
 1744SOL     OW16693   4.630   1.626  13.834 -0.3918 -0.5969  0.0890
 1744SOL    HW116694   4.702   1.603  13.775 -1.1501  0.5787 -1.2915
 1744SOL    HW216695   4.553   1.612  13.779  0.1109 -2.1272 -0.2274
 1745SOL     OW16696   0.161   2.007   0.261 -0.5016  0.3905  0.0293
 1745SOL    HW116697   0.169   2.094   0.221 -4.1024  0.5636 -0.2825
 1745SOL    HW216698   0.140   1.954   0.185 -0.2900  0.9128 -0.3949
 1746SOL     OW16699   1.386   1.425   3.307 -0.0825 -0.0292  0.4986
 1746SOL    HW116700   1.332   1.498   3.336  3.1137  1.2601  3.2855
 1746SOL    HW216701   1.322   1.356   3.325 -0.3647  0.4473  1.2746
 1747SOL     OW16702   0.476   4.568   9.246  0.2472 -0.4540 -0.0614
 1747SOL    HW116703   0.383   4.548   9.256  0.3609  0.0500  2.1234
 1747SOL    HW216704   0.512   4.523   9.322  2.5017  0.7677 -0.3888
 1748SOL     OW16705   1.407   4.520   5.674  0.0346 -0.2517  0.7899
 1748SOL    HW116706   1.377   4.608   5.651 -0.8454 -0.6005  0.6045
 1748SOL    HW216707   1.500   4.528   5.657 -0.5261 -0.1459 -2.2757
 1749SOL     OW16708   0.356   0.411  15.551  0.3215 -0.1370 -0.0991
 1749SOL    HW116709   0.392   0.482  15.497  1.4917 -0.6101  0.0465
 1749SOL    HW216710   0.392   0.335  15.505  2.4211  0.8634 -0.1037
 1750SOL     OW16711   1.824   4.676   4.853 -0.0899  0.3823  0.5150
 1750SOL    HW116712   1.805   4.604   4.793  0.4937 -0.6283  1.5492
 1750SOL    HW216713   1.856   0.023   4.796 -0.4960  0.4747  0.3966
 1751SOL     OW16714   4.505   3.391   3.699  0.3675 -0.3090 -0.1691
 1751SOL    HW116715   4.483   3.327   3.631  1.5143  0.2521 -1.0882
 1751SOL    HW216716   4.601   3.387   3.693  0.3200 -0.1601 -1.1018
 1752SOL     OW16717   2.969   3.703   3.338  0.1072 -0.2585  0.1864
 1752SOL    HW116718   2.947   3.668   3.252  0.9299 -0.9330  0.2458
 1752SOL    HW216719   3.058   3.667   3.337 -1.0226 -2.9256 -1.0712
 1753SOL     OW16720   4.062   4.304   6.824 -0.5212 -0.2382 -0.4526
 1753SOL    HW116721   3.979   4.329   6.783  0.0358  1.3511 -0.6157
 1753SOL    HW216722   4.042   4.334   6.913 -1.4854  0.0063 -0.7558
 1754SOL     OW16723   0.775   4.244   7.919 -0.2402  0.3650  0.0297
 1754SOL    HW116724   0.765   4.332   7.955 -0.4459 -0.3050  1.6209
 1754SOL    HW216725   0.802   4.259   7.828  0.3538  3.7134  0.7725
 1755SOL     OW16726   2.167   3.796   3.528  0.2127 -0.1347 -0.8364
 1755SOL    HW116727   2.223   3.719   3.537 -2.0325 -1.8508 -1.5550
 1755SOL    HW216728   2.080   3.763   3.551 -0.4291  2.6673  0.7692
 1756SOL     OW16729   0.162   2.885   8.304 -0.1628 -0.2876  0.4144
 1756SOL    HW116730   0.195   2.948   8.239 -1.6977 -0.4833 -0.5425
 1756SOL    HW216731   0.134   2.937   8.380 -2.3096  1.2418 -1.4453
 1757SOL     OW16732   2.954   2.696  13.793 -0.4192  0.1138 -0.4323
 1757SOL    HW116733   3.001   2.648  13.725 -1.0470  0.1500 -0.8797
 1757SOL    HW216734   3.029   2.752  13.814  0.4042 -0.9676 -0.4951
 1758SOL     OW16735   4.717   0.352   9.980  0.3033 -0.1641  0.1649
 1758SOL    HW116736   0.082   0.383   9.959 -0.7778  2.1401 -0.9461
 1758SOL    HW216737   4.678   0.389   9.901  1.5934 -0.4926 -0.6214
 1759SOL     OW16738   2.844   3.342   3.947  0.1514 -0.4222  0.2757
 1759SOL    HW116739   2.917   3.397   3.919  0.0687 -0.8471 -0.7613
 1759SOL    HW216740   2.765   3.385   3.916 -0.3258 -1.1268  0.5122
 1760SOL     OW16741   2.540   2.172   9.676 -0.3166 -0.0641  0.0484
 1760SOL    HW116742   2.503   2.163   9.764 -1.2098 -0.1210 -0.3328
 1760SOL    HW216743   2.526   2.266   9.665 -3.0224 -0.5156 -0.4893
 1761SOL     OW16744   0.921   1.345   5.113  0.2361  0.1808 -0.0951
 1761SOL    HW116745   0.866   1.416   5.147  0.6337 -0.3433  1.6119
 1761SOL    HW216746   0.939   1.294   5.192  0.3463  1.8428  0.9616
 1762SOL     OW16747   3.881   3.650  11.281 -0.0143  0.3404  0.0712
 1762SOL    HW116748   3.896   3.687  11.368  1.2616  1.5039 -0.6265
 1762SOL    HW216749   3.785   3.648  11.279 -0.0152  0.0271  0.3843
 1763SOL     OW16750   0.138   3.193   9.999  0.2105  0.5419  0.3693
 1763SOL    HW116751   0.056   3.178   9.952 -0.6935  1.5716  1.5971
 1763SOL    HW216752   0.198   3.124   9.973 -1.0554  0.5779 -2.6777
 1764SOL     OW16753   3.059   4.675  17.189  0.2047 -0.4811  0.2973
 1764SOL    HW116754   2.982   4.634  17.149  0.3940 -1.2824  0.7664
 1764SOL    HW216755   3.125   4.607  17.183 -1.5762 -2.2093  0.3091
 1765SOL     OW16756   1.642   0.077   9.442  0.3653  0.0258  0.9632
 1765SOL    HW116757   1.665   0.021   9.516 -1.3680 -0.1521  1.3551
 1765SOL    HW216758   1.680   0.029   9.367  0.9771  1.0423  0.6179
 1766SOL     OW16759   2.490   3.504  12.404  0.6426  0.2448 -0.4428
 1766SOL    HW116760   2.539   3.582  12.431  0.0151  1.0794 -1.7211
 1766SOL    HW216761   2.402   3.519  12.438  0.9294  1.3299 -0.1773
 1767SOL     OW16762   0.981   2.594   3.712  0.3312  0.2045  0.4496
 1767SOL    HW116763   0.997   2.636   3.628  0.4312  1.6497  1.1881
 1767SOL    HW216764   1.040   2.518   3.707 -1.7253 -1.4280  1.0611
 1768SOL     OW16765   0.862   3.080   6.807  0.3201 -0.1196  0.0595
 1768SOL    HW116766   0.858   3.163   6.761  0.8939 -0.1435 -0.0267
 1768SOL    HW216767   0.947   3.050   6.777  0.9270  0.3218  1.3234
 1769SOL     OW16768   4.317   0.838   5.037 -0.0929  0.8761 -0.4244
 1769SOL    HW116769   4.393   0.869   4.987  0.4772  1.1660  0.6162
 1769SOL    HW216770   4.364   0.812   5.116 -2.1712  1.1517  0.9154
 1770SOL     OW16771   2.014   3.267   6.670  0.4603  0.2241 -0.4448
 1770SOL    HW116772   2.104   3.299   6.672 -0.0486  1.5281  1.3524
 1770SOL    HW216773   1.959   3.344   6.681 -1.7298 -1.4925  0.7911
 1771SOL     OW16774   2.467   2.119   1.777  0.2767 -0.6872 -0.0102
 1771SOL    HW116775   2.393   2.180   1.773  0.1273 -0.7966  1.2756
 1771SOL    HW216776   2.474   2.080   1.690 -0.0155  0.6187 -0.6183
 1772SOL     OW16777   1.179   1.381   1.570  0.3496 -0.0249 -0.1508
 1772SOL    HW116778   1.129   1.343   1.499 -1.3054  1.7253  0.0661
 1772SOL    HW216779   1.174   1.306   1.629 -3.6709 -0.1582 -0.7321
 1773SOL     OW16780   0.487   0.516   0.640 -0.0223 -0.4553 -0.2884
 1773SOL    HW116781   0.418   0.579   0.616 -0.8661 -1.2785 -0.0323
 1773SOL    HW216782   0.525   0.573   0.707 -0.3327 -0.7785  0.1673
 1774SOL     OW16783   2.326   3.785   5.173  0.2515 -0.0252 -0.2932
 1774SOL    HW116784   2.274   3.707   5.193 -1.0253  1.4029  1.9938
 1774SOL    HW216785   2.314   3.789   5.078 -0.8146 -0.9424 -0.2090
 1775SOL     OW16786   1.661   3.992   8.120 -0.0236 -0.2666  0.5358
 1775SOL    HW116787   1.740   4.020   8.166  0.2500 -1.8478  1.0255
 1775SOL    HW216788   1.670   4.024   8.030 -1.2682 -1.4703 -0.0112
 1776SOL     OW16789   0.586   3.371  15.526  0.0205 -0.5161  0.2260
 1776SOL    HW116790   0.626   3.342  15.444  0.9840  2.4326 -0.3498
 1776SOL    HW216791   0.504   3.408  15.493  0.3469 -0.1200 -0.1405
 1777SOL     OW16792   0.861   2.458  14.211  0.2514  0.0424  0.1103
 1777SOL    HW116793   0.900   2.540  14.180  1.2671 -0.6488 -0.4293
 1777SOL    HW216794   0.936   2.419  14.255  0.3820 -0.1546 -0.2899
 1778SOL     OW16795   2.256   1.774   3.069  0.2717 -0.2264 -0.2899
 1778SOL    HW116796   2.232   1.829   2.995  0.2974 -0.7556 -0.6904
 1778SOL    HW216797   2.239   1.684   3.040 -0.7014 -0.3017  0.5159
 1779SOL     OW16798   3.685   3.775  15.468  0.1286 -0.5107 -0.3726
 1779SOL    HW116799   3.614   3.747  15.410  1.1820 -0.6559 -1.5940
 1779SOL    HW216800   3.653   3.738  15.550 -0.1875 -0.7070 -0.5809
 1780SOL     OW16801   2.417   1.534   0.756  0.6371  0.5940 -0.1209
 1780SOL    HW116802   2.469   1.457   0.731  0.5020  1.4814 -3.1553
 1780SOL    HW216803   2.435   1.545   0.850 -2.2480 -1.0980  0.6145
 1781SOL     OW16804   0.857   4.308   7.671  0.6087 -0.2663  0.1155
 1781SOL    HW116805   0.844   4.361   7.593  2.3326  0.3784  0.2767
 1781SOL    HW216806   0.941   4.266   7.652  0.9966  0.6143 -0.0825
 1782SOL     OW16807   3.890   4.098   1.713  0.8815 -0.1398 -0.6660
 1782SOL    HW116808   3.866   4.040   1.785 -0.3698  1.2449  0.0385
 1782SOL    HW216809   3.888   4.186   1.753 -0.6148  0.0944 -1.2740
 1783SOL     OW16810   3.222   1.498   8.675  0.1686 -0.0587  0.2884
 1783SOL    HW116811   3.312   1.499   8.708 -0.3027 -1.8486  1.6733
 1783SOL    HW216812   3.203   1.590   8.657 -3.1584 -0.5228  1.4109
 1784SOL     OW16813   4.161   4.468   8.343  0.2789 -0.4185  0.3274
 1784SOL    HW116814   4.246   4.485   8.304  1.1715 -0.5197  2.2630
 1784SOL    HW216815   4.151   4.373   8.333 -0.7024 -0.2862 -0.0437
 1785SOL     OW16816   4.599   1.399   6.709  0.0521 -0.0756  0.3540
 1785SOL    HW116817   4.528   1.339   6.734  0.2347 -0.7066 -0.6630
 1785SOL    HW216818   4.610   1.367   6.620 -1.0960 -2.0335  0.9055
 1786SOL     OW16819   1.567   0.375  12.776  0.4073  0.0717  0.0372
 1786SOL    HW116820   1.533   0.299  12.823 -0.1783  0.5325  0.3548
 1786SOL    HW216821   1.645   0.386  12.831 -0.0014 -1.1864  0.8708
 1787SOL     OW16822   4.569   2.249   6.250  0.4033  0.4324 -0.1858
 1787SOL    HW116823   4.500   2.304   6.212  0.1916  2.5763  3.2645
 1787SOL    HW216824   4.531   2.162   6.243  0.4145  0.4472 -0.4410
 1788SOL     OW16825   4.517   4.662   5.166  0.2584 -0.4117 -0.4502
 1788SOL    HW116826   4.503   4.586   5.109 -0.7295  0.1902 -1.0014
 1788SOL    HW216827   4.504   4.609   5.245 -1.1595  1.0976  0.3112
 1789SOL     OW16828   2.155   3.430   8.419 -0.1441  1.0715 -0.5685
 1789SOL    HW116829   2.082   3.393   8.369  1.7479  0.3238 -2.7839
 1789SOL    HW216830   2.231   3.373   8.405  0.2617  0.7626  2.9028
 1790SOL     OW16831   3.117   0.949   4.081  0.0316  0.0097 -0.1833
 1790SOL    HW116832   3.024   0.968   4.097 -0.3118 -1.7426 -0.1595
 1790SOL    HW216833   3.159   0.969   4.164  0.2283  0.9642 -0.5087
 1791SOL     OW16834   1.737   4.579   0.503  0.1213 -0.4017 -0.4961
 1791SOL    HW116835   1.773   4.644   0.442 -0.2118 -0.4270 -0.7202
 1791SOL    HW216836   1.660   4.553   0.452  0.0369  0.2206 -0.6821
 1792SOL     OW16837   2.450   1.174  10.528  0.2611  0.1678  0.1336
 1792SOL    HW116838   2.436   1.079  10.521  0.2025 -0.0100  2.5924
 1792SOL    HW216839   2.496   1.183  10.611 -0.7974 -0.9255  0.8400
 1793SOL     OW16840   2.674   0.635   4.635  0.0209 -0.4857  0.2452
 1793SOL    HW116841   2.615   0.696   4.680 -0.2999 -0.8906  0.3798
 1793SOL    HW216842   2.690   0.562   4.695  0.7278 -1.0001 -0.5671
 1794SOL     OW16843   3.403   0.358   6.818  0.1047  0.4762  0.3523
 1794SOL    HW116844   3.314   0.392   6.806  0.5382  1.3593 -0.3510
 1794SOL    HW216845   3.454   0.419   6.764  0.9130 -1.3892 -0.9619
 1795SOL     OW16846   1.985   1.142  11.819  0.4888 -0.3114  0.0966
 1795SOL    HW116847   2.004   1.067  11.762  0.1761  1.5418 -2.4396
 1795SOL    HW216848   1.968   1.095  11.901  2.0606 -1.0542 -0.0045
 1796SOL     OW16849   0.192   3.745   2.253  1.0885  0.8485  0.4845
 1796SOL    HW116850   0.278   3.705   2.244  0.4674 -0.1449 -1.0675
 1796SOL    HW216851   0.192   3.795   2.334 -0.3938  0.0734  0.9590
 1797SOL     OW16852   4.639   0.977   6.325  0.8083  0.0166 -0.3334
 1797SOL    HW116853   4.670   0.887   6.315 -0.0942 -0.3610  0.2999
 1797SOL    HW216854   4.559   0.977   6.377  1.1745 -0.1332  0.2225
 1798SOL     OW16855   3.530   2.330   7.773 -0.3225  0.4691 -0.2026
 1798SOL    HW116856   3.523   2.244   7.730  1.8450 -0.8540  2.1033
 1798SOL    HW216857   3.481   2.309   7.852  1.6439 -3.1449  0.0635
 1799SOL     OW16858   3.245   1.230   5.051 -0.5836 -0.2244  0.6802
 1799SOL    HW116859   3.208   1.302   5.001  0.6209 -1.5405 -2.0833
 1799SOL    HW216860   3.164   1.225   5.101 -1.0670  0.1296 -0.0784
 1800SOL     OW16861   0.593   0.216   9.179  0.4920 -0.2451  0.4731
 1800SOL    HW116862   0.664   0.171   9.134 -0.6316  1.3973 -2.8802
 1800SOL    HW216863   0.625   0.226   9.269  1.2344 -1.3745  0.3318
 1801SOL     OW16864   1.383   0.148   2.321  0.3610 -0.1370  0.2320
 1801SOL    HW116865   1.346   0.184   2.401 -0.9821 -3.4181  1.0665
 1801SOL    HW216866   1.431   0.073   2.357  1.0451  0.2866  0.1997
 1802SOL     OW16867   2.055   1.943   6.743 -0.1675  0.1782 -0.4981
 1802SOL    HW116868   1.982   2.005   6.747  1.3677  1.8607  1.3182
 1802SOL    HW216869   2.112   1.973   6.814 -0.5453 -1.6972  0.5935
 1803SOL     OW16870   3.207   0.320   3.055  1.0357  0.0698 -0.3450
 1803SOL    HW116871   3.113   0.302   3.063  1.3394 -0.9817  0.7623
 1803SOL    HW216872   3.218   0.410   3.024  1.5142  0.4518  0.9490
 1804SOL     OW16873   3.912   0.925   5.816  0.0496  0.2697 -0.4384
 1804SOL    HW116874   3.939   0.852   5.761 -1.0378  0.0556 -0.6973
 1804SOL    HW216875   3.842   0.966   5.765 -0.2331 -0.1417 -0.3789
 1805SOL     OW16876   3.952   1.130   0.191 -0.0445  0.2353  0.4359
 1805SOL    HW116877   4.014   1.121   0.119  0.2137 -1.3105  0.8459
 1805SOL    HW216878   3.890   1.194   0.157  1.3596  0.6251 -1.3520
 1806SOL     OW16879   3.889   3.765   2.774  0.4332  0.3777 -0.2858
 1806SOL    HW116880   3.933   3.827   2.716  1.7508 -1.4056 -1.1826
 1806SOL    HW216881   3.948   3.780   2.848 -0.6137  2.6445  0.1020
 1807SOL     OW16882   3.263   1.640  11.437  0.2094  0.3989  0.6692
 1807SOL    HW116883   3.289   1.555  11.400  1.6272  0.5572  1.2804
 1807SOL    HW216884   3.329   1.697  11.398 -0.5346  0.6640 -0.2100
 1808SOL     OW16885   3.654   0.769  13.797  0.0929  0.0063 -0.3292
 1808SOL    HW116886   3.712   0.843  13.818 -0.8687  0.5676  0.3548
 1808SOL    HW216887   3.676   0.700  13.860 -0.4764 -1.0305 -1.2702
 1809SOL     OW16888   2.796   2.265   9.244  0.3317 -0.0647  0.4256
 1809SOL    HW116889   2.724   2.233   9.299 -0.0345  2.5241  1.4439
 1809SOL    HW216890   2.839   2.183   9.220  0.6668  0.6325 -1.3794
 1810SOL     OW16891   1.184   0.110   2.133 -0.1949 -0.2015 -0.7046
 1810SOL    HW116892   1.235   0.121   2.212 -2.8034  0.2922  0.9150
 1810SOL    HW216893   1.110   0.054   2.157 -0.0525 -0.4696 -0.8950
 1811SOL     OW16894   1.011   3.035   2.585 -0.0984 -0.1764 -0.2933
 1811SOL    HW116895   0.975   2.978   2.516 -1.0177 -0.7496  0.6652
 1811SOL    HW216896   0.941   3.029   2.650 -1.0634 -0.6018 -1.3593
 1812SOL     OW16897   2.647   3.695   0.456 -0.0044 -0.6971 -0.1813
 1812SOL    HW116898   2.617   3.761   0.393  1.1271 -1.2802 -1.3267
 1812SOL    HW216899   2.566   3.692   0.507 -0.4843 -1.3673 -0.9780
 1813SOL     OW16900   2.379   0.288  11.741 -0.4667 -0.0608  0.2244
 1813SOL    HW116901   2.388   0.222  11.810 -1.6047  0.0670  0.4974
 1813SOL    HW216902   2.339   0.236  11.671 -2.4307  0.9504  0.5974
 1814SOL     OW16903   1.541   0.137   2.118  0.2809 -0.4991  0.3748
 1814SOL    HW116904   1.520   0.208   2.058 -0.4883  1.6690  3.2567
 1814SOL    HW216905   1.462   0.127   2.170 -1.0606  0.4831 -1.4922
 1815SOL     OW16906   0.362   4.637   2.091  0.2237 -0.5851  0.3207
 1815SOL    HW116907   0.355   4.574   2.019  0.2936 -1.9708  1.5192
 1815SOL    HW216908   0.270   4.662   2.099  0.2687 -0.4413  0.3825
 1816SOL     OW16909   1.291   3.902  15.085 -0.6766 -0.4424  0.1105
 1816SOL    HW116910   1.327   3.967  15.145 -1.0036  0.7721 -1.0206
 1816SOL    HW216911   1.256   3.963  15.021 -1.7629 -0.3405  0.8148
 1817SOL     OW16912   2.549   0.260   4.458 -0.1108 -0.2566  0.1799
 1817SOL    HW116913   2.521   0.315   4.385  0.2655  0.0734  0.2830
 1817SOL    HW216914   2.590   0.185   4.416 -0.9788 -1.0898  0.8357
 1818SOL     OW16915   3.528   0.723   8.323  0.1392  0.0688  0.3929
 1818SOL    HW116916   3.569   0.646   8.284 -0.5440 -0.7822  1.3510
 1818SOL    HW216917   3.513   0.766   8.239 -1.6264 -1.5978 -0.1577
 1819SOL     OW16918   2.889   0.208  11.343  0.1574  0.0329  0.2111
 1819SOL    HW116919   2.964   0.260  11.313 -0.1706 -0.5244 -1.5340
 1819SOL    HW216920   2.830   0.233  11.272  0.0600 -1.8200 -0.3555
 1820SOL     OW16921   2.807   0.493  14.870  0.5232 -0.0552  0.5268
 1820SOL    HW116922   2.869   0.551  14.914  0.4185  0.2870  0.2205
 1820SOL    HW216923   2.873   0.466  14.806  1.7661 -0.0904  1.8217
 1821SOL     OW16924   0.968   1.531  14.045 -0.3480  0.6197 -0.5688
 1821SOL    HW116925   0.931   1.475  13.977  0.9190 -0.7036 -0.1764
 1821SOL    HW216926   0.910   1.606  14.031 -2.5772 -1.0432 -0.2379
 1822SOL     OW16927   0.542   4.266   7.077  0.6663 -0.3106 -0.7306
 1822SOL    HW116928   0.468   4.262   7.015 -2.1421  2.2114  2.4828
 1822SOL    HW216929   0.510   4.299   7.161  0.8263 -1.3767 -0.2454
 1823SOL     OW16930   4.706   2.514   1.535 -0.2087 -0.0100  0.4971
 1823SOL    HW116931   4.637   2.544   1.594  0.1884 -1.6704  1.7982
 1823SOL    HW216932   4.691   2.562   1.454 -1.2929 -0.9010  0.1725
 1824SOL     OW16933   2.108   0.502   7.591 -0.2028 -0.3950  0.1085
 1824SOL    HW116934   2.072   0.591   7.592 -0.2054 -0.3898 -0.2674
 1824SOL    HW216935   2.187   0.515   7.644 -0.0955  1.5872 -0.5243
 1825SOL     OW16936   3.693   1.549   1.805  0.1001 -0.1102  0.2138
 1825SOL    HW116937   3.629   1.571   1.737 -0.2072  0.7083  0.7637
 1825SOL    HW216938   3.745   1.482   1.760  0.6063  1.1401 -1.0646
 1826SOL     OW16939   3.216   2.155   5.257 -0.4942  0.4721 -0.1042
 1826SOL    HW116940   3.255   2.241   5.243  1.8699 -0.7107 -0.8726
 1826SOL    HW216941   3.239   2.143   5.350 -0.0368 -0.8328 -0.3790
 1827SOL     OW16942   1.895   3.051   3.242 -0.1565 -0.1299 -0.0181
 1827SOL    HW116943   1.867   3.004   3.163  0.2949 -1.0179  0.3533
 1827SOL    HW216944   1.832   3.021   3.308 -1.0448  0.6698 -0.4943
 1828SOL     OW16945   4.522   2.182   8.511 -0.0140  0.3422 -0.3600
 1828SOL    HW116946   4.586   2.235   8.463 -0.9393  1.1705 -0.6681
 1828SOL    HW216947   4.549   2.195   8.602 -1.6746  1.2102  0.0018
 1829SOL     OW16948   4.435   0.527  13.409 -0.6410 -0.5532  0.1579
 1829SOL    HW116949   4.466   0.466  13.475  0.0095 -1.5112 -1.0417
 1829SOL    HW216950   4.437   0.602  13.470  2.7849 -1.8087  1.6065
 1830SOL     OW16951   2.955   4.394   3.113 -0.7697 -0.0990  0.2087
 1830SOL    HW116952   3.007   4.314   3.126 -1.6752 -0.1485  3.3010
 1830SOL    HW216953   3.002   4.437   3.041 -0.2891  0.7801  1.0557
 1831SOL     OW16954   4.083   3.056   4.627  0.2776 -0.2163 -0.3915
 1831SOL    HW116955   4.029   2.982   4.599 -1.7304  1.3845 -0.7482
 1831SOL    HW216956   4.068   3.054   4.721  2.8726  0.0589  0.0200
 1832SOL     OW16957   3.580   1.375  12.433  0.1589  0.2956  0.5461
 1832SOL    HW116958   3.499   1.362  12.482  0.3493  0.8766  1.0128
 1832SOL    HW216959   3.554   1.456  12.389  1.3001  0.3772  0.0159
 1833SOL     OW16960   1.897   3.258   4.726 -0.3572 -0.5739 -0.3745
 1833SOL    HW116961   1.908   3.325   4.659  2.1467  1.0216  1.6218
 1833SOL    HW216962   1.823   3.216   4.683  0.3399 -2.2060  0.0069
 1834SOL     OW16963   1.795   0.898   2.680 -0.5292 -0.0569 -0.5002
 1834SOL    HW116964   1.742   0.881   2.603  0.9034  0.8905 -1.7040
 1834SOL    HW216965   1.723   0.923   2.738  1.2416  0.7601  1.3779
 1835SOL     OW16966   0.217   3.329  10.217  0.1336 -0.6767  0.5057
 1835SOL    HW116967   0.200   3.278  10.138 -1.4547  2.0471 -0.8931
 1835SOL    HW216968   0.136   3.307  10.264 -0.8049 -0.4283 -1.0185
 1836SOL     OW16969   0.246   4.480   8.523  0.2774 -0.0457  0.3714
 1836SOL    HW116970   0.156   4.494   8.552 -0.7481 -0.3757 -2.7306
 1836SOL    HW216971   0.292   4.435   8.594  1.3104 -0.5229 -0.6129
 1837SOL     OW16972   1.206   3.707   3.713 -0.0916  0.8337 -0.1650
 1837SOL    HW116973   1.251   3.718   3.629  1.8925 -0.5609  0.7100
 1837SOL    HW216974   1.155   3.788   3.714  2.2789  2.3328  0.1889
 1838SOL     OW16975   2.378   3.223   6.079 -0.5250  0.1452  0.7372
 1838SOL    HW116976   2.451   3.188   6.130  0.0825 -0.5275 -0.6179
 1838SOL    HW216977   2.355   3.308   6.115  0.0866  0.1139  1.2017
 1839SOL     OW16978   1.003   1.501   1.251 -0.2164  0.2260 -0.2815
 1839SOL    HW116979   1.022   1.582   1.206 -0.7168  0.5271  0.0473
 1839SOL    HW216980   0.967   1.452   1.177 -0.7258 -0.2110  0.2513
 1840SOL     OW16981   4.317   3.271  17.536 -0.0222 -0.5960 -0.5397
 1840SOL    HW116982   4.256   3.327  17.584  1.5223  1.2726 -0.7387
 1840SOL    HW216983   4.343   3.322  17.459  0.1543  1.1910  0.6920
 1841SOL     OW16984   3.250   2.482   6.329  0.1254 -0.7075 -0.2581
 1841SOL    HW116985   3.280   2.409   6.273 -0.6872 -1.0675 -0.2145
 1841SOL    HW216986   3.188   2.440   6.388  1.2086 -0.4883  1.0476
 1842SOL     OW16987   3.059   4.235   2.697  0.1463 -0.4084  0.4236
 1842SOL    HW116988   3.033   4.219   2.607 -0.5626 -0.4298  0.6272
 1842SOL    HW216989   2.989   4.193   2.747  1.6299 -0.9322  2.0788
 1843SOL     OW16990   2.102   4.009   6.205  0.3587 -0.2017  0.8720
 1843SOL    HW116991   2.009   4.005   6.226  0.4755  0.1911  1.4904
 1843SOL    HW216992   2.137   3.933   6.252  2.7373  0.2314 -0.1896
 1844SOL     OW16993   0.542   0.925   0.109 -0.3059 -0.0714  0.4191
 1844SOL    HW116994   0.579   0.935   0.022  1.8130 -1.3087  1.1612
 1844SOL    HW216995   0.488   0.846   0.112  0.6062 -0.7124  0.1353
 1845SOL     OW16996   3.363   0.520   1.684 -0.2115 -0.2578  0.0461
 1845SOL    HW116997   3.290   0.464   1.707 -0.8308  0.3947 -0.3269
 1845SOL    HW216998   3.328   0.606   1.707  0.0768  0.1956 -1.1648
 1846SOL     OW16999   2.735   1.893  14.724 -0.4912 -0.1959  0.1213
 1846SOL    HW117000   2.714   1.830  14.794  1.2786 -1.2293 -0.2845
 1846SOL    HW217001   2.777   1.962  14.775  2.4715 -0.9842 -1.2840
 1847SOL     OW17002   3.379   4.464   0.338 -0.3269 -0.1888 -0.3038
 1847SOL    HW117003   3.391   4.553   0.368 -2.3714  0.0890 -0.2933
 1847SOL    HW217004   3.340   4.422   0.415  1.8322  0.7577  1.2696
 1848SOL     OW17005   4.159   1.920   6.619  0.5428  0.2685 -0.1057
 1848SOL    HW117006   4.116   2.005   6.610  0.6939  0.4413  0.7727
 1848SOL    HW217007   4.225   1.934   6.686  0.8261  0.8074 -0.5013
 1849SOL     OW17008   2.995   0.668   0.172  0.9197  0.0011  0.5408
 1849SOL    HW117009   2.904   0.679   0.200  0.9196  1.6969 -0.1032
 1849SOL    HW217010   3.009   0.581   0.208 -0.2828  0.7408  2.8310
 1850SOL     OW17011   0.076   2.672   3.459 -0.3193  0.5262  0.4113
 1850SOL    HW117012   0.039   2.593   3.419 -0.5341  1.1362 -0.5954
 1850SOL    HW217013   0.001   2.700   3.513 -0.1818  0.0076  0.8767
 1851SOL     OW17014   1.566   0.176   1.773 -0.4006 -0.4760  0.2705
 1851SOL    HW117015   1.519   0.215   1.700 -1.4051 -0.3944  0.9616
 1851SOL    HW217016   1.529   0.222   1.848 -2.4453 -0.5399 -0.7143
 1852SOL     OW17017   0.571   1.375   3.757  0.1336  0.0753  1.1746
 1852SOL    HW117018   0.513   1.332   3.819 -0.5012 -3.0481 -1.5400
 1852SOL    HW217019   0.640   1.417   3.809  1.9827 -3.4736  1.6371
 1853SOL     OW17020   1.449   0.409   3.591  0.0349  0.5828  0.0534
 1853SOL    HW117021   1.453   0.496   3.551  1.0987  0.7578  0.5331
 1853SOL    HW217022   1.366   0.411   3.638 -0.1356 -2.5467 -0.1275
 1854SOL     OW17023   4.263   3.786   5.694  0.4714  0.0186  0.0788
 1854SOL    HW117024   4.228   3.729   5.626 -0.0952 -1.9952  2.0691
 1854SOL    HW217025   4.350   3.805   5.658 -0.0189  1.8203 -0.1525
 1855SOL     OW17026   2.770   1.764   4.816  0.1131  0.6077  0.2767
 1855SOL    HW117027   2.821   1.751   4.735  0.4901 -1.3195  0.8272
 1855SOL    HW217028   2.825   1.831   4.856 -0.4416  0.6610  0.9360
 1856SOL     OW17029   1.551   3.445  11.823  0.2952  0.2809  0.3734
 1856SOL    HW117030   1.612   3.381  11.861  1.2546  0.3186 -1.0629
 1856SOL    HW217031   1.465   3.406  11.835 -0.2290  1.4419  0.4236
 1857SOL     OW17032   0.715   4.115   1.764  0.7193  0.0933  0.1989
 1857SOL    HW117033   0.640   4.169   1.788  2.5727  2.3795  0.9430
 1857SOL    HW217034   0.742   4.104   1.856 -1.1842  0.3571  0.7970
 1858SOL     OW17035   3.584   3.438   7.104 -0.0574 -0.4257  0.3045
 1858SOL    HW117036   3.580   3.504   7.035  0.2479  1.8281  2.4400
 1858SOL    HW217037   3.638   3.373   7.059  1.5669 -0.4566  2.2942
 1859SOL     OW17038   3.106   0.670  10.810 -0.0990 -0.3487 -0.2440
 1859SOL    HW117039   3.061   0.593  10.846  0.3415 -0.6139 -0.2539
 1859SOL    HW217040   3.088   0.666  10.716  1.8405 -0.9114 -0.5877
 1860SOL     OW17041   2.887   2.156   8.319 -0.1575 -0.1192  0.0912
 1860SOL    HW117042   2.812   2.135   8.264 -0.6476  1.8899  0.0025
 1860SOL    HW217043   2.877   2.092   8.390 -1.3004 -1.0784 -0.9314
 1861SOL     OW17044   2.006   4.247   2.298  0.0979  0.5119  0.0582
 1861SOL    HW117045   2.081   4.287   2.254  1.3975 -0.4036  1.4343
 1861SOL    HW217046   1.931   4.285   2.253 -0.1272  1.4156  1.1734
 1862SOL     OW17047   1.558   1.564   7.203  0.3703 -0.2672 -0.3094
 1862SOL    HW117048   1.634   1.527   7.158  0.2751  0.1275 -0.8044
 1862SOL    HW217049   1.549   1.650   7.161 -0.4215  0.3942  1.2453
 1863SOL     OW17050   1.644   3.462   9.283  0.6173  0.4787  0.4648
 1863SOL    HW117051   1.694   3.510   9.216 -0.3977  0.4932 -0.2835
 1863SOL    HW217052   1.633   3.373   9.248 -0.1741  0.8965 -0.3525
 1864SOL     OW17053   4.626   2.408  12.001  0.0052  0.8346  0.2793
 1864SOL    HW117054   4.570   2.430  12.075 -0.1702 -0.8335  0.6394
 1864SOL    HW217055   4.694   2.354  12.042 -0.8075 -0.5556 -0.2063
 1865SOL     OW17056   3.901   3.782   6.577 -0.3838  0.2417 -0.3975
 1865SOL    HW117057   3.827   3.797   6.637  1.0524 -1.3763  1.7816
 1865SOL    HW217058   3.926   3.697   6.614  1.2695  2.0026  2.5224
 1866SOL     OW17059   3.477   0.872  17.404 -0.5398 -0.0848  0.3061
 1866SOL    HW117060   3.406   0.898  17.345 -0.6907 -0.2502  0.4130
 1866SOL    HW217061   3.429   0.845  17.482  2.2250 -2.8247  1.0592
 1867SOL     OW17062   0.488   3.128   3.621  0.2754 -0.4743 -0.2462
 1867SOL    HW117063   0.530   3.051   3.660 -1.8052 -1.0948  0.7677
 1867SOL    HW217064   0.402   3.130   3.664  1.2647  0.4100  1.6582
 1868SOL     OW17065   3.219   1.342   6.063  0.3356  0.6421 -0.2725
 1868SOL    HW117066   3.151   1.346   6.130  0.5503 -1.3837  0.0865
 1868SOL    HW217067   3.292   1.366   6.121  0.2112  0.0058  0.1546
 1869SOL     OW17068   4.103   0.999   2.932  0.2410  0.1014 -0.0259
 1869SOL    HW117069   4.182   0.975   2.884  0.1385  1.1318 -0.7114
 1869SOL    HW217070   4.036   1.016   2.865  2.8411  2.5191 -2.0404
 1870SOL     OW17071   1.989   3.888   3.770 -0.5364  0.0384  0.1932
 1870SOL    HW117072   1.904   3.862   3.733 -0.3950  0.5832 -0.5375
 1870SOL    HW217073   1.963   3.911   3.859 -0.9175 -1.9382  0.5871
 1871SOL     OW17074   1.192   1.704   3.098 -0.0709  0.2004  0.0238
 1871SOL    HW117075   1.262   1.764   3.074  0.0932  0.5379  1.3340
 1871SOL    HW217076   1.215   1.671   3.185 -1.1185 -0.5873 -0.0030
 1872SOL     OW17077   3.004   2.389   5.583  0.0224  0.3587  0.1911
 1872SOL    HW117078   2.970   2.351   5.663  0.1144 -1.3568 -0.5913
 1872SOL    HW217079   3.084   2.436   5.608  0.9263 -1.2742  0.3240
 1873SOL     OW17080   1.635   2.276  13.888  0.4612 -0.4551  0.1706
 1873SOL    HW117081   1.585   2.293  13.808  1.1296  2.2682  0.3570
 1873SOL    HW217082   1.571   2.265  13.958  0.9561  1.4724  0.9219
 1874SOL     OW17083   2.221   0.353   8.155  0.3721 -0.1408  0.1719
 1874SOL    HW117084   2.203   0.277   8.212 -0.3301 -1.8016 -2.2634
 1874SOL    HW217085   2.237   0.308   8.072 -0.0408 -1.5044  0.8262
 1875SOL     OW17086   0.537   0.670   4.052  0.4141  0.5259  0.0058
 1875SOL    HW117087   0.578   0.631   4.129 -1.1264  1.6762  1.3930
 1875SOL    HW217088   0.608   0.654   3.989  0.3788 -0.8900  0.3226
 1876SOL     OW17089   1.988   3.751  14.653 -0.1406  0.1469 -0.4596
 1876SOL    HW117090   1.896   3.730  14.666  0.2217 -1.1798  0.0351
 1876SOL    HW217091   2.008   3.786  14.740 -1.1004 -0.0129 -0.1814
 1877SOL     OW17092   2.541   2.869   7.426  0.5410 -0.3766  0.8059
 1877SOL    HW117093   2.616   2.843   7.372 -0.1374  0.7367 -0.6741
 1877SOL    HW217094   2.479   2.832   7.363 -0.9842  0.7690  1.6184
 1878SOL     OW17095   3.898   3.665  16.457  0.2984 -0.4030 -0.3013
 1878SOL    HW117096   3.962   3.670  16.527  0.0597  2.9903 -0.3119
 1878SOL    HW217097   3.859   3.579  16.472  0.3646 -0.2452  0.7640
 1879SOL     OW17098   1.816   4.022   9.979 -0.0442 -0.2206  0.9209
 1879SOL    HW117099   1.859   3.990   9.900  1.5012 -0.6425  1.9279
 1879SOL    HW217100   1.725   4.014   9.949  0.7974  2.0433 -2.1332
 1880SOL     OW17101   2.155   0.856   0.469  0.2115 -0.1970 -0.2452
 1880SOL    HW117102   2.111   0.804   0.401  1.7844 -1.6823 -0.1107
 1880SOL    HW217103   2.099   0.934   0.477 -0.6992 -0.7552 -1.2102
 1881SOL     OW17104   1.133   0.687   3.095  0.2012 -0.2456 -0.2258
 1881SOL    HW117105   1.187   0.658   3.169  1.8431 -0.3155 -1.4573
 1881SOL    HW217106   1.180   0.637   3.028  0.9113 -1.4034  1.1391
 1882SOL     OW17107   3.560   4.218   8.034 -0.5375 -0.1071  0.4380
 1882SOL    HW117108   3.581   4.281   8.103  0.6760 -2.1561  1.9594
 1882SOL    HW217109   3.580   4.263   7.952  0.0096 -0.4766  0.3717
 1883SOL     OW17110   3.323   0.011   3.315 -0.4747 -0.3933 -0.3679
 1883SOL    HW117111   3.245   0.017   3.369 -1.9130  1.6186 -2.7183
 1883SOL    HW217112   3.354   4.653   3.356  1.1636  0.6688  0.4867
 1884SOL     OW17113   4.454   3.657  17.036  0.0502 -0.3716  0.2986
 1884SOL    HW117114   4.373   3.621  17.002  0.2801  0.2722 -0.9636
 1884SOL    HW217115   4.514   3.582  17.037  0.1756 -0.2901 -0.9071
 1885SOL     OW17116   2.062   1.983   9.255  0.3684 -0.3625  0.6631
 1885SOL    HW117117   2.053   2.043   9.181  1.5111  0.4129  1.1597
 1885SOL    HW217118   2.006   2.023   9.322 -1.6822 -0.5805 -0.9068
 1886SOL     OW17119   1.946   3.983  15.375  0.1725  0.1484  0.0311
 1886SOL    HW117120   1.894   3.970  15.455  0.9902  1.8497  0.8227
 1886SOL    HW217121   1.973   4.074  15.388 -1.6227  0.7087 -0.0892
 1887SOL     OW17122   4.657   3.788  16.051  0.3101  0.3971 -0.1799
 1887SOL    HW117123   4.664   3.700  16.013  2.5174  0.9100 -0.9633
 1887SOL    HW217124   4.673   3.850  15.980  1.5996  0.5806  0.2667
 1888SOL     OW17125   1.900   1.361   7.830  0.1991  0.4373 -0.0131
 1888SOL    HW117126   1.965   1.405   7.885 -0.1653 -0.2384  0.9628
 1888SOL    HW217127   1.931   1.270   7.836 -1.7317 -0.0786  2.2237
 1889SOL     OW17128   1.770   2.880   5.667 -0.8210  0.0311  0.5823
 1889SOL    HW117129   1.740   2.941   5.734 -1.2322  0.5884 -0.1233
 1889SOL    HW217130   1.849   2.841   5.706 -0.2630  0.7284  0.1419
 1890SOL     OW17131   2.453   3.447   4.292 -0.3726  0.1502  0.3765
 1890SOL    HW117132   2.494   3.518   4.341  1.2788 -0.3698 -0.2585
 1890SOL    HW217133   2.361   3.453   4.320 -0.3261  1.6955  0.2287
 1891SOL     OW17134   1.180   2.901   4.073 -0.1167  0.1107  0.0125
 1891SOL    HW117135   1.167   2.825   4.129 -2.9331 -0.6675 -1.6691
 1891SOL    HW217136   1.272   2.892   4.048  0.3043 -0.9150  1.9602
 1892SOL     OW17137   3.874   3.137   8.745 -0.3264  0.2030 -0.1047
 1892SOL    HW117138   3.949   3.081   8.765  0.1974  1.6530  2.1017
 1892SOL    HW217139   3.881   3.148   8.650 -0.2255  1.2037  0.0103
 1893SOL     OW17140   0.255   4.119   6.380 -0.4106  0.0579 -0.1291
 1893SOL    HW117141   0.256   4.213   6.400  3.5157 -0.3521  1.5915
 1893SOL    HW217142   0.339   4.101   6.339 -0.5715  0.9391 -0.8554
 1894SOL     OW17143   4.448   4.017   3.180 -0.2941 -0.1600  0.0047
 1894SOL    HW117144   4.515   3.989   3.118 -0.0875  0.7619 -0.1864
 1894SOL    HW217145   4.390   4.063   3.120 -0.5985  0.8864  1.0910
 1895SOL     OW17146   1.433   2.828   3.985 -0.2926  0.3296  0.0591
 1895SOL    HW117147   1.479   2.824   3.901 -1.8460 -2.7956 -0.6866
 1895SOL    HW217148   1.385   2.746   3.970  0.0573 -0.2367  2.0867
 1896SOL     OW17149   0.368   1.962   7.179  0.5707 -0.5742  0.0316
 1896SOL    HW117150   0.391   1.982   7.270 -2.8680  2.4207  0.2484
 1896SOL    HW217151   0.450   1.970   7.131 -0.7734  0.3307 -2.0683
 1897SOL     OW17152   2.525   2.418   6.721  0.3898  0.1487 -0.1154
 1897SOL    HW117153   2.458   2.356   6.693 -0.5475  0.0017  2.5066
 1897SOL    HW217154   2.603   2.363   6.712 -0.5511 -0.9296 -1.6948
 1898SOL     OW17155   4.491   2.725   2.382 -0.3960  0.1387  0.2611
 1898SOL    HW117156   4.474   2.683   2.467 -0.5692  2.9814  1.6092
 1898SOL    HW217157   4.489   2.817   2.408  0.9311 -0.5376  2.8258
 1899SOL     OW17158   1.089   0.428  11.194  0.2911  0.6155 -0.6985
 1899SOL    HW117159   1.085   0.354  11.134  1.0123 -0.9040  1.1183
 1899SOL    HW217160   1.038   0.389  11.265  0.7292 -1.8169 -1.7194
 1900SOL     OW17161   0.513   3.045   9.513 -0.4317  0.0471 -0.2370
 1900SOL    HW117162   0.560   2.975   9.558  0.7889 -0.3806 -2.1435
 1900SOL    HW217163   0.452   3.079   9.578  1.2345  0.1711  1.2632
 1901SOL     OW17164   1.175   3.525   7.168 -0.4314  0.0718 -0.4911
 1901SOL    HW117165   1.115   3.494   7.236 -1.6284  3.4719  0.0387
 1901SOL    HW217166   1.138   3.478   7.094  1.2905 -1.0465 -0.6364
 1902SOL     OW17167   3.541   2.274  12.048 -0.4559 -0.0730  0.5555
 1902SOL    HW117168   3.458   2.294  12.093 -1.1529 -1.9664  0.1088
 1902SOL    HW217169   3.528   2.313  11.962 -0.9039 -1.3362  0.0470
 1903SOL     OW17170   1.014   3.759   5.907  0.1158 -1.0791  0.8684
 1903SOL    HW117171   0.964   3.685   5.871 -1.5595 -0.7893  2.5978
 1903SOL    HW217172   1.001   3.745   6.001 -0.2265  0.2780  1.0202
 1904SOL     OW17173   1.742   1.839   8.611 -0.3132  0.5928 -0.2038
 1904SOL    HW117174   1.692   1.877   8.683 -0.1100 -0.0095  0.2564
 1904SOL    HW217175   1.815   1.818   8.670  0.5637  0.4408 -1.3427
 1905SOL     OW17176   0.277   0.791   5.769  0.2714  0.1713  0.1492
 1905SOL    HW117177   0.228   0.865   5.805 -1.4968 -0.6749 -0.5128
 1905SOL    HW217178   0.257   0.802   5.676  0.6556  0.2992  0.0809
 1906SOL     OW17179   0.269   2.697   1.387  0.5762  0.1682  0.4452
 1906SOL    HW117180   0.252   2.684   1.293  0.9544 -0.2258  0.4297
 1906SOL    HW217181   0.276   2.792   1.390 -0.2586  0.2410  0.0017
 1907SOL     OW17182   2.819   0.509   2.359 -0.1640  0.4566  0.0655
 1907SOL    HW117183   2.817   0.559   2.441 -0.6764 -0.3185  0.5281
 1907SOL    HW217184   2.788   0.427   2.398 -0.7108  1.7063  2.2168
 1908SOL     OW17185   3.359   3.516  13.769  0.2803 -0.5150  0.1360
 1908SOL    HW117186   3.404   3.438  13.803  0.1923  0.9248  3.5528
 1908SOL    HW217187   3.342   3.557  13.854 -0.8847  3.0395 -1.7981
 1909SOL     OW17188   4.126   0.870   8.260  0.1590 -0.1530  0.1131
 1909SOL    HW117189   4.085   0.939   8.208  0.7444  0.0536 -0.0788
 1909SOL    HW217190   4.054   0.849   8.320  2.4696 -1.1887  2.5288
 1910SOL     OW17191   4.602   1.237  17.348 -0.2523  0.6156 -0.6628
 1910SOL    HW117192   4.524   1.292  17.346  0.6301  1.8309 -1.6003
 1910SOL    HW217193   4.655   1.268  17.275  1.9307  0.6835  0.9589
 1911SOL     OW17194   3.016   1.781  11.309  0.4468  0.7325  0.5730
 1911SOL    HW117195   3.019   1.734  11.226  1.6902  0.2010  0.9250
 1911SOL    HW217196   3.099   1.751  11.346 -0.4088 -1.1930  0.9019
 1912SOL     OW17197   2.163   2.146   5.243  0.0380  0.2023 -0.4605
 1912SOL    HW117198   2.219   2.114   5.173  1.4030 -0.2639  0.8591
 1912SOL    HW217199   2.117   2.068   5.274 -0.1787  1.1273  1.5515
 1913SOL     OW17200   3.454   4.221  13.997  0.1209  0.1316  0.1996
 1913SOL    HW117201   3.530   4.232  14.054  0.8795  1.4487 -1.0922
 1913SOL    HW217202   3.488   4.262  13.917  1.3520 -1.0440  0.1294
 1914SOL     OW17203   3.090   1.013  14.135  0.0654 -0.6567  0.0097
 1914SOL    HW117204   3.129   1.099  14.150  1.2592 -1.6311  2.5104
 1914SOL    HW217205   3.155   0.973  14.078 -1.6950 -2.1538 -0.9403
 1915SOL     OW17206   3.814   3.896   5.957 -0.3029  0.2329 -0.6549
 1915SOL    HW117207   3.890   3.843   5.984 -0.5665 -0.3941 -1.1460
 1915SOL    HW217208   3.738   3.844   5.981  0.6172  0.2614  2.3078
 1916SOL     OW17209   0.091   2.363   3.168  0.1025  0.0103  0.6071
 1916SOL    HW117210   0.093   2.339   3.076 -1.2817  0.8409  0.3518
 1916SOL    HW217211   4.720   2.370   3.188 -0.0930 -0.4929 -0.1337
 1917SOL     OW17212   1.018   4.414  10.153 -0.0371  0.1681 -0.1740
 1917SOL    HW117213   1.103   4.379  10.128 -0.0197 -0.0914  0.2415
 1917SOL    HW217214   1.050   4.476  10.218 -0.0706  0.1579 -0.1478
 1918SOL     OW17215   1.286   2.707   2.099 -0.3162  0.0633 -0.4421
 1918SOL    HW117216   1.278   2.745   2.186  0.7519 -1.4412  0.3100
 1918SOL    HW217217   1.197   2.723   2.067 -0.3815 -0.6070 -0.5883
 1919SOL     OW17218   4.468   4.388   5.628 -0.0045 -0.1223 -0.4355
 1919SOL    HW117219   4.560   4.412   5.632 -0.8338  2.9071  0.1960
 1919SOL    HW217220   4.433   4.460   5.681 -0.9029 -1.0831  0.2776
 1920SOL     OW17221   0.625   4.258   8.300 -0.2594 -0.3251  0.4012
 1920SOL    HW117222   0.672   4.312   8.236  1.0929 -1.2966  0.5794
 1920SOL    HW217223   0.666   4.283   8.382  3.0590  1.0287 -1.6615
 1921SOL     OW17224   3.031   2.845   6.525 -0.1885 -0.0848  0.0724
 1921SOL    HW117225   2.984   2.785   6.468 -1.3265 -0.4752  1.4128
 1921SOL    HW217226   3.037   2.796   6.607 -1.6955 -0.6632 -0.1582
 1922SOL     OW17227   2.073   1.830   3.393 -0.4775 -0.0944 -0.1301
 1922SOL    HW117228   2.152   1.873   3.359  0.2020 -0.9801  0.3460
 1922SOL    HW217229   2.101   1.819   3.483  0.0481  1.6622 -0.0683
 1923SOL     OW17230   2.789   0.741   9.563  1.0609 -0.1827 -0.3216
 1923SOL    HW117231   2.730   0.695   9.623  2.6314 -0.3262  1.0928
 1923SOL    HW217232   2.719   0.762   9.501  0.2001  1.1619  1.0768
 1924SOL     OW17233   2.603   3.647   6.667  0.0213  0.0472 -0.2687
 1924SOL    HW117234   2.568   3.729   6.702  0.5228 -0.0137  0.3655
 1924SOL    HW217235   2.522   3.614   6.628  0.1074  2.0482 -2.1520
 1925SOL     OW17236   0.266   2.899  17.587  0.1430 -0.5924  0.0077
 1925SOL    HW117237   0.222   2.924  17.506 -1.1423 -2.1393  0.2355
 1925SOL    HW217238   0.352   2.870  17.556  0.2960 -0.4722  0.3158
 1926SOL     OW17239   0.311   3.426   5.008 -0.2936 -0.5755  0.0344
 1926SOL    HW117240   0.301   3.341   4.965  1.2660 -0.5648 -0.3564
 1926SOL    HW217241   0.395   3.453   4.972  0.4047  0.7633  2.6754
 1927SOL     OW17242   1.489   0.617   0.713 -0.3363  0.7054 -0.3788
 1927SOL    HW117243   1.574   0.576   0.698  0.9147  3.5777 -1.1927
 1927SOL    HW217244   1.515   0.709   0.714  1.3639  0.2190 -0.2058
 1928SOL     OW17245   0.842   2.985   9.177  0.4801  0.0569  0.5268
 1928SOL    HW117246   0.823   3.029   9.260  4.5150  1.8816  0.4698
 1928SOL    HW217247   0.790   3.039   9.117 -0.3607 -0.2165  1.0140
 1929SOL     OW17248   3.096   0.240   6.115 -0.1500  0.3409  0.5067
 1929SOL    HW117249   3.066   0.161   6.070  1.5043  0.0208 -0.0579
 1929SOL    HW217250   3.019   0.246   6.172 -0.1654 -2.0124  0.7066
 1930SOL     OW17251   4.347   2.962   2.933 -0.5486  0.3726 -0.3487
 1930SOL    HW117252   4.327   3.046   2.975 -3.0824 -0.7015  0.6007
 1930SOL    HW217253   4.330   2.979   2.840 -2.5742  0.8047  0.0985
 1931SOL     OW17254   1.776   3.146   1.183 -0.3473  0.3427 -0.0497
 1931SOL    HW117255   1.729   3.225   1.210 -1.5126  0.0339 -1.1600
 1931SOL    HW217256   1.828   3.108   1.254  0.3254  0.2170 -0.6051
 1932SOL     OW17257   0.898   0.304  11.341 -0.2621  0.1511  0.6357
 1932SOL    HW117258   0.830   0.370  11.357  0.1518  0.2865  1.7953
 1932SOL    HW217259   0.851   0.225  11.314  1.1851  0.4895 -2.8000
 1933SOL     OW17260   3.248   1.953   1.889  0.3533  0.2727  0.3751
 1933SOL    HW117261   3.334   1.978   1.921 -0.3489 -0.0854  2.5857
 1933SOL    HW217262   3.196   2.004   1.951 -1.1659  0.2626 -0.8931
 1934SOL     OW17263   2.341   2.648  12.046  0.6402 -0.3993 -0.4845
 1934SOL    HW117264   2.413   2.668  11.986 -0.4771 -0.8132 -1.9696
 1934SOL    HW217265   2.296   2.590  11.984  0.8504 -0.3677 -0.6664
 1935SOL     OW17266   4.471   4.019  11.017 -0.4165  0.2440  0.0928
 1935SOL    HW117267   4.517   4.065  10.947 -1.9689  2.6710  0.6679
 1935SOL    HW217268   4.544   3.982  11.067 -0.8923  0.6687  1.0944
 1936SOL     OW17269   2.037   4.156   1.848  0.4465  0.5351  0.1698
 1936SOL    HW117270   2.039   4.251   1.852  1.0235  0.5254  0.0687
 1936SOL    HW217271   2.131   4.138   1.857  0.4407  0.1253 -0.6272
 1937SOL     OW17272   2.991   4.706   2.323 -0.0880  0.3581 -0.7292
 1937SOL    HW117273   3.080   4.716   2.290  0.2556  1.2682  0.5059
 1937SOL    HW217274   2.934   0.008   2.250 -0.4423 -1.1113 -0.9587
 1938SOL     OW17275   2.380   1.232   6.161 -0.1123 -0.1384  0.3071
 1938SOL    HW117276   2.399   1.306   6.102  1.0699  0.3627  1.3280
 1938SOL    HW217277   2.442   1.165   6.135  1.7931  1.0653  1.7532
 1939SOL     OW17278   1.877   2.990  16.836 -0.5714  0.1242  0.4910
 1939SOL    HW117279   1.803   3.033  16.880 -1.2608  1.2427 -1.7515
 1939SOL    HW217280   1.937   3.062  16.818 -2.5053  1.5718 -0.2960
 1940SOL     OW17281   1.654   3.060  17.015 -0.7366 -0.3221 -0.0450
 1940SOL    HW117282   1.687   2.970  17.018 -1.0038 -0.3795  1.2448
 1940SOL    HW217283   1.657   3.082  17.108 -0.1982  1.6565 -0.5286
 1941SOL     OW17284   2.343   3.622  15.254 -0.0614 -0.0430  0.1317
 1941SOL    HW117285   2.299   3.549  15.296 -0.7218  0.6730  0.6993
 1941SOL    HW217286   2.358   3.688  15.322  2.5546 -0.9524  0.4473
 1942SOL     OW17287   1.533   3.133   7.839  0.0083  0.0022 -0.2477
 1942SOL    HW117288   1.445   3.148   7.873  0.3129  1.5000 -0.1289
 1942SOL    HW217289   1.572   3.058   7.885 -0.5435 -0.5682 -0.7233
 1943SOL     OW17290   4.016   2.862   6.600  0.0698 -0.3317 -0.8247
 1943SOL    HW117291   4.032   2.956   6.606 -0.8417 -0.3506  2.1374
 1943SOL    HW217292   4.086   2.838   6.662  0.3232  3.2603  0.2829
 1944SOL     OW17293   2.264   2.445   8.964 -0.1637  0.0253 -0.6856
 1944SOL    HW117294   2.174   2.466   8.989  0.4379  0.3936  1.1752
 1944SOL    HW217295   2.265   2.473   8.873 -0.7612 -0.8549 -0.9601
 1945SOL     OW17296   1.257   2.654   6.996 -0.3968 -0.0549  0.2563
 1945SOL    HW117297   1.242   2.574   7.047  2.3478  0.5732  1.9965
 1945SOL    HW217298   1.317   2.699   7.055 -0.7216  1.4945 -0.5903
 1946SOL     OW17299   1.371   4.167   2.256 -0.0645 -0.1910 -0.2922
 1946SOL    HW117300   1.350   4.197   2.344 -0.8623  0.1777 -0.6122
 1946SOL    HW217301   1.467   4.168   2.257 -0.0847  0.0497  0.9192
 1947SOL     OW17302   2.038   4.579   3.230 -0.2221  0.5027  0.8212
 1947SOL    HW117303   1.971   4.526   3.188  0.8610  0.1503 -0.4363
 1947SOL    HW217304   2.064   4.523   3.303 -0.7293 -2.3369 -1.2051
 1948SOL     OW17305   2.604   2.719  15.340  0.5853 -0.1573  0.2328
 1948SOL    HW117306   2.624   2.653  15.275  3.7558 -0.8449  1.9071
 1948SOL    HW217307   2.682   2.776  15.342  0.0671  0.5644  0.0926
 1949SOL     OW17308   0.321   2.245   2.905  0.7717 -0.2335 -0.3586
 1949SOL    HW117309   0.292   2.163   2.944 -0.8865  0.6810  0.3428
 1949SOL    HW217310   0.240   2.292   2.884  0.5200 -0.9207 -0.9196
 1950SOL     OW17311   3.540   2.374   3.700 -0.7885  0.0771  0.7155
 1950SOL    HW117312   3.465   2.338   3.652  1.1378 -0.9722 -1.4914
 1950SOL    HW217313   3.521   2.468   3.698  0.7418  0.3943  0.8521
 1951SOL     OW17314   2.849   4.435   2.466 -0.6050 -0.2405 -0.0819
 1951SOL    HW117315   2.779   4.403   2.523 -0.0613  1.3549  1.4874
 1951SOL    HW217316   2.869   4.517   2.510 -1.6534 -0.4984  0.8784
 1952SOL     OW17317   0.824   2.176  15.851  1.1437  0.1804  0.5609
 1952SOL    HW117318   0.900   2.214  15.807 -0.5193  0.4854 -2.0740
 1952SOL    HW217319   0.760   2.226  15.800  0.6554 -0.1160  0.8845
 1953SOL     OW17320   0.043   2.155   6.721 -0.3889 -0.3430  0.1725
 1953SOL    HW117321   0.027   2.062   6.709 -3.0862  0.1186  0.1947
 1953SOL    HW217322   0.135   2.164   6.747 -0.1391 -3.6555  0.3336
 1954SOL     OW17323   0.884   3.455   8.489 -0.2390  0.6964 -0.4070
 1954SOL    HW117324   0.898   3.533   8.434 -1.0496  1.1665  0.0487
 1954SOL    HW217325   0.891   3.497   8.574 -3.6360  1.4594 -0.4976
 1955SOL     OW17326   3.866   4.231  16.032 -0.2408  0.1467  0.5477
 1955SOL    HW117327   3.932   4.281  15.983 -0.2264 -2.2089 -1.8769
 1955SOL    HW217328   3.787   4.280  16.007 -0.2824  0.3408  1.0724
 1956SOL     OW17329   2.828   2.067   1.794  0.0154  0.1338  0.2058
 1956SOL    HW117330   2.750   2.093   1.843 -0.7758  1.1018 -1.5294
 1956SOL    HW217331   2.895   2.120   1.837  1.7088 -0.7567 -1.3356
 1957SOL     OW17332   1.109   3.696   5.303 -0.0083 -0.7201 -0.0230
 1957SOL    HW117333   1.079   3.783   5.329 -1.8676 -1.6769  1.0629
 1957SOL    HW217334   1.177   3.721   5.241 -1.9400  0.0407 -1.8452
 1958SOL     OW17335   1.052   3.806  10.255 -0.3415 -0.0371  0.1477
 1958SOL    HW117336   0.963   3.795  10.287 -0.1413  0.3698  0.8554
 1958SOL    HW217337   1.094   3.746  10.317  1.9274  0.3549 -0.9767
 1959SOL     OW17338   2.000   0.597   7.023  0.2811 -0.7358 -0.2691
 1959SOL    HW117339   2.000   0.522   7.083  0.9159  1.1137  2.0397
 1959SOL    HW217340   1.907   0.616   7.024  0.5507  0.4850  2.0281
 1960SOL     OW17341   3.074   4.038  11.645  0.0138 -0.2812 -0.1326
 1960SOL    HW117342   3.064   4.003  11.556 -1.3760 -1.5996  0.5480
 1960SOL    HW217343   3.163   4.004  11.657  0.3889  0.5330 -0.6352
 1961SOL     OW17344   0.634   3.850   5.441  0.2920  0.0923  0.4288
 1961SOL    HW117345   0.588   3.768   5.421  0.0951  0.8805 -2.3854
 1961SOL    HW217346   0.709   3.810   5.485  1.9499 -1.3085 -3.6847
 1962SOL     OW17347   1.399   1.204   6.346  0.4353 -0.0738  0.3903
 1962SOL    HW117348   1.415   1.182   6.254 -0.3832  0.2023  0.1834
 1962SOL    HW217349   1.484   1.241   6.368  0.8160 -0.4073 -0.5130
 1963SOL     OW17350   1.807   4.317   8.000  0.0469  0.0326  0.3212
 1963SOL    HW117351   1.725   4.272   7.978 -0.6966  1.9109 -0.7112
 1963SOL    HW217352   1.870   4.280   7.938 -0.9340  1.5619 -1.5633
 1964SOL     OW17353   2.369   0.565   4.515  0.1765  0.1087 -0.1995
 1964SOL    HW117354   2.464   0.550   4.519  0.3989  1.2672 -1.2107
 1964SOL    HW217355   2.354   0.639   4.456 -1.7080 -0.6481 -0.6757
 1965SOL     OW17356   2.414   4.143   6.756  0.4206 -0.3325  0.3489
 1965SOL    HW117357   2.434   4.156   6.664  1.8234 -1.4966  0.4827
 1965SOL    HW217358   2.430   4.225   6.803  0.3133 -0.5611  0.7813
 1966SOL     OW17359   0.853   3.705  14.582 -0.2760  0.1466  0.0883
 1966SOL    HW117360   0.831   3.744  14.666  3.3746  2.6460 -0.1115
 1966SOL    HW217361   0.897   3.623  14.604  1.5143  0.6569 -1.4855
 1967SOL     OW17362   1.878   2.102   7.359 -0.1044  0.3580  0.0033
 1967SOL    HW117363   1.805   2.116   7.420 -0.4695 -0.1611 -0.3048
 1967SOL    HW217364   1.861   2.171   7.296  0.6772  1.4401  0.9723
 1968SOL     OW17365   3.783   1.233  12.329 -0.0823  0.2962  0.0677
 1968SOL    HW117366   3.780   1.291  12.252 -2.6908  0.0729 -0.0183
 1968SOL    HW217367   3.717   1.276  12.384 -0.1687  0.4726 -0.1718
 1969SOL     OW17368   0.570   2.399   0.363 -0.1292 -0.3568 -0.4963
 1969SOL    HW117369   0.547   2.485   0.399  2.4480 -0.0440  0.3587
 1969SOL    HW217370   0.524   2.340   0.423  0.4945 -1.1038 -0.7640
 1970SOL     OW17371   3.238   2.405   3.024  0.0893  0.5458  0.5326
 1970SOL    HW117372   3.209   2.478   2.969 -1.2061 -0.4953 -0.1774
 1970SOL    HW217373   3.255   2.336   2.959 -1.2889  1.1512 -0.4659
 1971SOL     OW17374   0.438   2.927   5.469 -0.2353 -0.3515  0.2973
 1971SOL    HW117375   0.497   2.896   5.538 -1.1496 -2.4967  0.1197
 1971SOL    HW217376   0.503   2.987   5.432 -0.1707 -0.3537  0.4058
 1972SOL     OW17377   0.264   2.886   8.761  0.2884  0.4803 -0.1334
 1972SOL    HW117378   0.316   2.879   8.681  0.0577  0.6176 -0.2962
 1972SOL    HW217379   0.301   2.810   8.806  0.7780 -0.1874 -1.6596
 1973SOL     OW17380   3.761   3.255   8.501  0.3077 -0.1433 -0.1743
 1973SOL    HW117381   3.718   3.281   8.583 -0.0167 -1.0230 -0.0670
 1973SOL    HW217382   3.730   3.329   8.449  2.4565  2.3624  2.0902
 1974SOL     OW17383   3.328   4.412  10.168 -0.1344 -0.1344 -0.1317
 1974SOL    HW117384   3.268   4.435  10.239 -0.6693 -3.5699  0.5267
 1974SOL    HW217385   3.357   4.498  10.140  0.0509 -0.4663 -0.9397
 1975SOL     OW17386   3.513   3.078   6.077 -0.0671 -0.2391  0.3151
 1975SOL    HW117387   3.491   3.044   5.991 -1.2073 -1.8418  1.2490
 1975SOL    HW217388   3.446   3.144   6.096 -0.3769 -0.1792 -0.9615
 1976SOL     OW17389   4.322   4.317   8.049  0.5981 -0.1080 -0.1064
 1976SOL    HW117390   4.381   4.286   7.981  1.5440  1.1706  0.1455
 1976SOL    HW217391   4.336   4.409   8.028  1.4370 -0.3193 -0.4704
 1977SOL     OW17392   3.024   3.061   1.724 -0.0667 -0.1402  0.2173
 1977SOL    HW117393   3.005   2.967   1.730 -0.1755 -0.1578 -0.4217
 1977SOL    HW217394   3.089   3.082   1.791 -0.3120 -2.3764  1.1482
 1978SOL     OW17395   2.498   3.105  12.682 -0.2034  0.3675 -0.2962
 1978SOL    HW117396   2.444   3.116  12.604 -2.4397 -1.8154  0.9598
 1978SOL    HW217397   2.513   3.011  12.678  0.0237  0.2721  2.9687
 1979SOL     OW17398   1.480   1.198  12.475 -0.3643  0.7251  0.4495
 1979SOL    HW117399   1.463   1.242  12.558 -2.3456 -1.4844  1.2093
 1979SOL    HW217400   1.550   1.254  12.442 -0.7185 -0.1314 -1.7892
 1980SOL     OW17401   2.957   1.650  14.054  0.1542  0.6675  0.3213
 1980SOL    HW117402   2.922   1.567  14.085  1.5631  0.3158  0.9903
 1980SOL    HW217403   3.047   1.627  14.078  0.3917  0.3049 -0.9096
 1981SOL     OW17404   2.399   1.932   1.973 -0.2288 -0.2482 -0.0066
 1981SOL    HW117405   2.410   2.027   1.963  2.9263 -0.8953 -2.2946
 1981SOL    HW217406   2.438   1.897   1.893  2.1021 -2.7721  2.2263
 1982SOL     OW17407   3.548   4.262   6.997 -0.2886  0.3826  0.5086
 1982SOL    HW117408   3.592   4.220   6.923  0.0079  0.5973  0.5664
 1982SOL    HW217409   3.578   4.353   6.988  1.0620 -0.3124 -2.0987
 1983SOL     OW17410   1.825   2.076   1.936 -0.1441  0.2244 -0.5501
 1983SOL    HW117411   1.837   2.021   2.013  1.3671 -0.2113 -1.1041
 1983SOL    HW217412   1.751   2.027   1.898 -1.7573  2.5188 -0.3875
 1984SOL     OW17413   0.330   3.433   8.392 -0.3138 -0.3462 -0.1302
 1984SOL    HW117414   0.244   3.391   8.402 -0.7847  0.3551 -1.3115
 1984SOL    HW217415   0.309   3.516   8.350 -2.2099  0.0337  1.5392
 1985SOL     OW17416   0.936   1.240  10.937 -0.0977  0.2263 -0.1711
 1985SOL    HW117417   0.850   1.217  10.903 -0.0007 -1.3865  0.6704
 1985SOL    HW217418   0.902   1.298  11.006  0.1887  0.4130 -0.1890
 1986SOL     OW17419   1.783   1.671   4.591  0.0575 -0.5261 -0.7035
 1986SOL    HW117420   1.752   1.731   4.659 -1.1213 -0.0457 -1.6706
 1986SOL    HW217421   1.737   1.589   4.609 -0.9961  0.4428  1.0366
 1987SOL     OW17422   0.342   2.764   5.195 -0.3112  0.4415 -0.1535
 1987SOL    HW117423   0.411   2.820   5.162 -1.1135  0.5238 -1.6837
 1987SOL    HW217424   0.330   2.808   5.280  1.7415  0.5452  0.0650
 1988SOL     OW17425   0.052   2.941   2.882  0.3245 -0.6236 -0.4817
 1988SOL    HW117426   0.108   3.007   2.843  0.2983 -0.8187 -0.8481
 1988SOL    HW217427   0.011   2.900   2.805 -0.0227 -0.6872 -0.2631
 1989SOL     OW17428   1.781   0.284  11.176 -0.1070 -0.2023 -0.6877
 1989SOL    HW117429   1.858   0.226  11.173 -1.0080 -1.3414 -1.8531
 1989SOL    HW217430   1.826   0.366  11.155 -0.8251 -0.2005 -2.2432
 1990SOL     OW17431   3.690   1.784  12.015  0.7186  0.1432  0.1640
 1990SOL    HW117432   3.641   1.747  12.089  0.9459 -1.2991 -0.4088
 1990SOL    HW217433   3.645   1.742  11.942 -0.4345  2.4826 -0.4981
 1991SOL     OW17434   0.154   0.239   6.433  0.4191 -0.1365 -0.1046
 1991SOL    HW117435   0.178   0.148   6.451  2.1823  0.5095  0.8412
 1991SOL    HW217436   0.124   0.267   6.520 -1.3003 -1.1531 -0.3612
 1992SOL     OW17437   2.329   2.925   3.670  0.0848 -0.0734 -0.2790
 1992SOL    HW117438   2.251   2.979   3.689  2.4000  1.9098  3.6394
 1992SOL    HW217439   2.376   2.974   3.604 -2.4938  1.6533 -0.8499
 1993SOL     OW17440   0.663   3.921   9.483 -0.5180  0.0048  0.1720
 1993SOL    HW117441   0.613   4.000   9.501 -0.7384 -0.6173  2.3506
 1993SOL    HW217442   0.713   3.949   9.406 -1.1783  0.0145 -0.2494
 1994SOL     OW17443   2.671   4.466   1.454  0.2539 -0.2336 -0.0017
 1994SOL    HW117444   2.707   4.495   1.370  2.4370 -1.5901  0.4803
 1994SOL    HW217445   2.708   4.381   1.476  0.9631  0.0608 -0.0580
 1995SOL     OW17446   1.695   3.540   2.893  0.0870 -0.6158 -0.0586
 1995SOL    HW117447   1.698   3.540   2.798 -0.5748 -0.9582 -0.0760
 1995SOL    HW217448   1.786   3.524   2.922  0.5009  0.0201 -1.0348
 1996SOL     OW17449   2.893   3.308   1.357  0.7530 -0.7862  0.5735
 1996SOL    HW117450   2.907   3.341   1.445 -2.9573  2.9645 -0.2832
 1996SOL    HW217451   2.940   3.224   1.360  2.3165  0.0337 -0.6383
 1997SOL     OW17452   1.388   1.676  10.467  0.0750  0.2027 -0.1733
 1997SOL    HW117453   1.471   1.635  10.491  1.0406  1.6576 -1.0268
 1997SOL    HW217454   1.323   1.621  10.510  0.2164 -0.4044 -0.7318
 1998SOL     OW17455   1.848   2.684  16.562 -0.8064 -0.1241 -0.1203
 1998SOL    HW117456   1.884   2.704  16.476 -0.1838 -1.2264 -0.1118
 1998SOL    HW217457   1.808   2.767  16.588  0.8520  1.5017 -2.7971
 1999SOL     OW17458   2.028   2.409  13.669 -0.0517  0.3649 -0.7269
 1999SOL    HW117459   1.999   2.427  13.758 -0.0861  0.1960 -0.7043
 1999SOL    HW217460   1.946   2.412  13.618  0.0006  0.8562 -0.7813
 2000SOL     OW17461   0.430   1.537  16.242 -0.1853  0.0570 -0.0134
 2000SOL    HW117462   0.429   1.479  16.166  0.8263  0.1010 -0.0558
 2000SOL    HW217463   0.501   1.597  16.217 -1.4513  1.7303  0.3803
 2001SOL     OW17464   2.142   3.377   1.598 -0.2832 -0.3253  0.1382
 2001SOL    HW117465   2.225   3.356   1.556  0.0549  1.7470 -0.2175
 2001SOL    HW217466   2.157   3.465   1.632  4.2764 -1.1914  0.3388
 2002SOL     OW17467   2.506   0.735   2.514  1.2168  0.4541  0.0741
 2002SOL    HW117468   2.428   0.720   2.568  0.8242  0.4301 -0.5053
 2002SOL    HW217469   2.573   0.739   2.583  1.5310 -0.3976 -0.1861
 2003SOL     OW17470   1.010   0.477   3.602 -0.0880  0.5971  0.0264
 2003SOL    HW117471   1.095   0.443   3.575 -0.7070 -1.3178  0.4986
 2003SOL    HW217472   0.966   0.470   3.516 -0.9702 -2.9674  0.7682
 2004SOL     OW17473   3.043   1.171   9.655  0.2540  0.1652 -0.4435
 2004SOL    HW117474   3.046   1.092   9.708 -0.1989 -0.7880 -1.8402
 2004SOL    HW217475   2.952   1.168   9.627  0.2962 -2.2634 -0.3269
 2005SOL     OW17476   4.187   2.296   7.309 -0.2552 -0.1206  0.2597
 2005SOL    HW117477   4.261   2.236   7.295  2.1626  2.9317  0.0133
 2005SOL    HW217478   4.145   2.244   7.378  0.9205 -2.2395 -0.6042
 2006SOL     OW17479   4.544   2.510   4.384 -0.2565  0.4202  0.0909
 2006SOL    HW117480   4.593   2.428   4.377  0.8182  0.8270  2.5921
 2006SOL    HW217481   4.547   2.540   4.475 -3.8282  1.3750 -0.1210
 2007SOL     OW17482   0.900   0.747   6.207 -0.3759 -0.3662 -0.3483
 2007SOL    HW117483   0.845   0.753   6.129 -0.6395  3.0663  0.0875
 2007SOL    HW217484   0.856   0.672   6.247  0.1583 -0.7823 -0.5427
 2008SOL     OW17485   4.387   4.667  12.315  0.0880  0.4423  0.4224
 2008SOL    HW117486   4.341   0.024  12.288  0.1339  0.8118  1.4391
 2008SOL    HW217487   4.321   4.602  12.290  1.4955 -0.2903 -1.4333
 2009SOL     OW17488   2.685   3.348  12.519  0.8863 -0.4734 -0.2476
 2009SOL    HW117489   2.604   3.390  12.490  1.2774 -2.5382 -4.2327
 2009SOL    HW217490   2.737   3.422  12.553 -0.0661  0.4252 -0.7396
 2010SOL     OW17491   4.639   0.908   2.379 -0.3983 -0.0568 -0.3278
 2010SOL    HW117492   4.696   0.896   2.303 -0.2941  1.0602 -0.4318
 2010SOL    HW217493   4.554   0.931   2.342 -1.3481 -0.1974  1.7648
 2011SOL     OW17494   1.694   2.146   4.150  0.4637 -0.1351 -0.3293
 2011SOL    HW117495   1.785   2.150   4.121  0.1458 -0.8715 -1.4201
 2011SOL    HW217496   1.641   2.146   4.071 -1.1849  0.0596  0.7662
 2012SOL     OW17497   2.312   1.784   6.060 -0.2809  0.2746  0.0574
 2012SOL    HW117498   2.359   1.837   5.995 -2.2065 -0.3102 -1.8112
 2012SOL    HW217499   2.342   1.830   6.138 -0.5043  0.9884 -0.2766
 2013SOL     OW17500   3.501   1.505   8.717 -0.2589 -0.3550  0.2342
 2013SOL    HW117501   3.548   1.484   8.798  0.9350  0.7258 -0.1863
 2013SOL    HW217502   3.551   1.579   8.684 -1.7026  1.2541  1.6551
 2014SOL     OW17503   3.591   3.704   4.426 -0.4378  0.1758 -0.5591
 2014SOL    HW117504   3.572   3.667   4.512 -0.5516  0.5583 -0.4240
 2014SOL    HW217505   3.501   3.694   4.396 -0.7271 -0.6493  0.5661
 2015SOL     OW17506   1.452   4.626   1.853 -0.3453  0.7869  0.7575
 2015SOL    HW117507   1.387   4.556   1.855 -0.9402  1.3559  1.6187
 2015SOL    HW217508   1.390   4.699   1.856 -2.5916 -1.1460  0.6887
 2016SOL     OW17509   3.945   4.249   4.937  0.4340  0.2514  0.5344
 2016SOL    HW117510   3.859   4.250   4.896  1.6563  1.7711 -2.0266
 2016SOL    HW217511   3.947   4.176   4.999 -0.0673  1.3063  1.8225
 2017SOL     OW17512   0.831   4.671   4.210 -0.2420  0.0637 -0.1337
 2017SOL    HW117513   0.775   0.010   4.164  0.1197  0.5303  0.0498
 2017SOL    HW217514   0.765   4.623   4.259  1.2962 -3.4011 -1.3825
 2018SOL     OW17515   0.980   4.133   9.771  0.6808 -1.1982 -0.2872
 2018SOL    HW117516   0.931   4.208   9.738 -0.9056 -2.2337 -0.2567
 2018SOL    HW217517   0.922   4.096   9.838  0.1441 -0.0727 -0.1279
 2019SOL     OW17518   0.292   0.163   4.997 -0.3566  0.3269 -0.5377
 2019SOL    HW117519   0.263   0.072   4.993 -2.9025  1.0887  0.3291
 2019SOL    HW217520   0.236   0.202   4.930 -0.3375  1.9141  0.3669
 2020SOL     OW17521   1.275   4.359   2.808 -0.0666 -1.0681 -0.4929
 2020SOL    HW117522   1.229   4.441   2.827 -0.8873 -1.6345 -0.0226
 2020SOL    HW217523   1.352   4.367   2.864  0.4869 -0.1302 -1.3935
 2021SOL     OW17524   2.405   0.873  11.370 -0.1768  0.3292  0.2249
 2021SOL    HW117525   2.472   0.910  11.428 -1.4868  2.8341  0.1546
 2021SOL    HW217526   2.331   0.863  11.429  0.0820  2.4485  0.9441
 2022SOL     OW17527   0.965   2.428   5.578  0.1960  0.1171  0.0211
 2022SOL    HW117528   1.017   2.485   5.635  1.3898 -1.4133  0.4618
 2022SOL    HW217529   0.988   2.456   5.490  1.2965  1.0308  0.5992
 2023SOL     OW17530   1.028   2.654   9.526  0.1904  0.4116  0.5635
 2023SOL    HW117531   1.073   2.571   9.544  1.0600  0.6607 -0.4453
 2023SOL    HW217532   1.097   2.691   9.471 -0.4001 -0.7694 -0.9670
 2024SOL     OW17533   4.508   2.658   3.964  0.0087 -0.1305 -0.0623
 2024SOL    HW117534   4.592   2.611   3.965  0.0938  0.0574  1.2914
 2024SOL    HW217535   4.516   2.697   4.051  1.1634  1.4967 -0.8873
 2025SOL     OW17536   0.487   3.180   6.117  0.1776 -0.3281  0.1783
 2025SOL    HW117537   0.508   3.273   6.108 -0.6875 -0.2088 -0.6292
 2025SOL    HW217538   0.528   3.154   6.199  0.8490 -2.3558 -0.8114
 2026SOL     OW17539   1.448   3.691   7.021 -0.6442 -0.0083 -0.1842
 2026SOL    HW117540   1.423   3.608   6.982 -0.1900 -0.7608  1.1298
 2026SOL    HW217541   1.369   3.744   7.024 -1.0970 -0.5840 -1.8828
 2027SOL     OW17542   1.952   1.596   5.335 -0.4246 -0.2116  0.6494
 2027SOL    HW117543   2.031   1.543   5.333  0.9207  1.6863  2.6314
 2027SOL    HW217544   1.904   1.545   5.401  0.1117 -2.7405 -0.9269
 2028SOL     OW17545   2.977   1.079   3.360 -0.0311  0.1619 -0.0331
 2028SOL    HW117546   3.033   1.134   3.305 -1.8300  2.8030  0.7817
 2028SOL    HW217547   2.965   1.137   3.435 -1.1335 -0.7696  0.5079
 2029SOL     OW17548   3.548   2.210   2.215  0.3912  0.3183 -0.1792
 2029SOL    HW117549   3.550   2.301   2.244  1.5954  0.0955  0.4165
 2029SOL    HW217550   3.638   2.177   2.222 -0.4144 -1.9235 -0.5081
 2030SOL     OW17551   1.816   1.824   7.429  0.0922 -0.1983  0.0231
 2030SOL    HW117552   1.812   1.773   7.348  0.8986  0.0428 -0.1668
 2030SOL    HW217553   1.820   1.914   7.399 -0.4547 -0.5302 -1.0521
 2031SOL     OW17554   4.473   0.780   2.132  0.3893  0.6885 -0.6738
 2031SOL    HW117555   4.412   0.848   2.160 -2.0278 -1.7622  0.0183
 2031SOL    HW217556   4.472   0.777   2.037 -0.1626  1.3812 -0.6944
 2032SOL     OW17557   4.065   3.258   6.027  0.0704 -0.0116 -0.3834
 2032SOL    HW117558   4.017   3.324   5.977 -1.9108 -0.1174  1.3881
 2032SOL    HW217559   4.156   3.287   6.028 -0.0226  0.2130  2.1373
 2033SOL     OW17560   3.808   4.377  11.805 -0.1122 -0.2047  0.2760
 2033SOL    HW117561   3.789   4.342  11.892  1.2956  1.7710  1.3879
 2033SOL    HW217562   3.860   4.308  11.763  2.9845  1.9769  0.4739
 2034SOL     OW17563   1.679   2.654   0.766  0.4334  0.0386  0.1689
 2034SOL    HW117564   1.588   2.636   0.789  0.4483 -0.7650 -0.3893
 2034SOL    HW217565   1.717   2.605   0.840 -1.3439  0.7868  1.5844
 2035SOL     OW17566   0.091   2.503   9.161 -0.7672  0.7945 -0.1719
 2035SOL    HW117567   0.147   2.436   9.123 -0.4462  0.9126  0.0918
 2035SOL    HW217568   0.143   2.582   9.145  0.0117  0.2386 -0.3625
 2036SOL     OW17569   2.459   4.264  12.954 -0.3091 -0.0005 -0.4558
 2036SOL    HW117570   2.366   4.284  12.968 -0.5732 -0.8199 -1.0486
 2036SOL    HW217571   2.507   4.302  13.028  0.5441  1.6560 -1.8544
 2037SOL     OW17572   3.440   4.257  14.401 -0.3197 -0.4670 -0.5604
 2037SOL    HW117573   3.484   4.332  14.441 -2.5075  0.9144 -0.7130
 2037SOL    HW217574   3.350   4.285  14.419 -0.5830 -2.3178  1.0433
 2038SOL     OW17575   2.356   1.525   5.507 -0.0794  0.5677  0.4877
 2038SOL    HW117576   2.323   1.594   5.450 -2.3993 -0.2473  0.8095
 2038SOL    HW217577   2.361   1.455   5.442  0.0288  0.0315  1.0629
 2039SOL     OW17578   2.002   3.753  15.203  0.0762 -0.1205  0.2468
 2039SOL    HW117579   1.951   3.806  15.264  0.2199  1.3581 -0.9235
 2039SOL    HW217580   2.088   3.794  15.206  0.2656 -0.5666  0.9745
 2040SOL     OW17581   2.848   3.247  11.416  0.6857 -0.0337 -0.3527
 2040SOL    HW117582   2.853   3.343  11.408 -3.6741 -0.0086 -2.6429
 2040SOL    HW217583   2.941   3.225  11.409  0.7721  0.3880 -0.5872
 2041SOL     OW17584   2.820   1.274  12.525 -0.2122 -0.2394  0.0006
 2041SOL    HW117585   2.824   1.334  12.599 -0.6373 -1.2187  0.8281
 2041SOL    HW217586   2.726   1.273  12.509 -0.4028 -1.4083  1.1533
 2042SOL     OW17587   0.732   3.505   1.406 -0.5702  0.2502  0.0860
 2042SOL    HW117588   0.734   3.413   1.381  0.5329  0.1758  0.4579
 2042SOL    HW217589   0.796   3.545   1.346 -0.9405 -1.5348 -1.5040
 2043SOL     OW17590   2.331   3.889   3.223  0.3978 -0.0300  0.0697
 2043SOL    HW117591   2.391   3.816   3.230  0.3637 -0.1909 -1.3428
 2043SOL    HW217592   2.314   3.902   3.317  2.4035  0.1317  0.4107
 2044SOL     OW17593   2.783   4.082   7.312 -0.6914  0.3883 -0.0337
 2044SOL    HW117594   2.806   4.169   7.346 -2.6870  2.2604 -3.4165
 2044SOL    HW217595   2.694   4.089   7.346 -1.1141  0.5929 -1.1611
 2045SOL     OW17596   4.437   1.018   6.495  0.3591  0.2444 -0.3235
 2045SOL    HW117597   4.352   1.057   6.472  1.1524  1.7463 -0.7029
 2045SOL    HW217598   4.411   0.958   6.566 -0.7655  0.4864 -0.5245
 2046SOL     OW17599   2.192   4.041   9.568  0.2218  0.2617 -0.2026
 2046SOL    HW117600   2.231   4.070   9.650  1.5361 -1.1629 -0.3179
 2046SOL    HW217601   2.143   3.963   9.594  2.3337 -1.9134 -2.7644
 2047SOL     OW17602   0.642   3.845  10.442  0.2009 -0.1748  0.6098
 2047SOL    HW117603   0.709   3.794  10.396 -1.8303 -2.8359  0.6069
 2047SOL    HW217604   0.601   3.878  10.362  1.4736  2.1079  0.8636
 2048SOL     OW17605   0.140   2.251   8.997  0.0793 -0.5500  0.8866
 2048SOL    HW117606   0.233   2.232   9.001  0.4940  0.7721 -2.6659
 2048SOL    HW217607   0.103   2.175   8.951 -2.2905  2.4595 -2.1920
 2049SOL     OW17608   2.953   2.206   3.645  0.5901 -0.0496  0.2737
 2049SOL    HW117609   2.975   2.121   3.606  1.4510  0.2689  0.0830
 2049SOL    HW217610   2.933   2.179   3.735 -0.4939  0.9119  0.3264
 2050SOL     OW17611   2.911   1.121  10.547 -0.0682 -0.0636  0.0420
 2050SOL    HW117612   2.866   1.043  10.579 -0.6279  0.6887  1.0932
 2050SOL    HW217613   2.842   1.184  10.567  0.4463  0.4224  0.2825
 2051SOL     OW17614   4.679   4.611   3.760  0.0280 -0.2696  0.1030
 2051SOL    HW117615   0.003   4.577   3.683  0.2136  0.7721 -0.2514
 2051SOL    HW217616   4.613   4.661   3.712  1.4304  0.8020 -0.7133
 2052SOL     OW17617   4.683   3.228   5.967  0.0400  0.1346  0.7127
 2052SOL    HW117618   0.053   3.233   5.990  0.2663 -0.4087 -0.0724
 2052SOL    HW217619   4.656   3.222   6.059 -1.1476 -1.4955  0.2585
 2053SOL     OW17620   0.873   0.945   5.716 -0.5783 -0.1535  0.0374
 2053SOL    HW117621   0.918   0.910   5.639  2.7647 -2.9860  3.2506
 2053SOL    HW217622   0.794   0.892   5.709 -0.0907 -0.3562 -4.1192
 2054SOL     OW17623   0.161   3.606   9.400 -0.2767  0.5130 -0.0098
 2054SOL    HW117624   0.255   3.607   9.419 -0.5265 -3.5129  1.1931
 2054SOL    HW217625   0.141   3.518   9.431 -0.3726  0.7347  0.5496
 2055SOL     OW17626   0.942   3.212   1.124  0.2570 -0.1533  0.3599
 2055SOL    HW117627   0.969   3.288   1.074  0.7154 -1.3522 -1.1995
 2055SOL    HW217628   0.849   3.231   1.136  0.4708  0.5178  0.9457
 2056SOL     OW17629   4.659   2.850  14.762  0.3771 -0.3376  0.3077
 2056SOL    HW117630   4.586   2.894  14.806  0.8320  0.7768 -0.0587
 2056SOL    HW217631   4.673   2.896  14.679 -0.9501 -1.2788 -0.4390
 2057SOL     OW17632   2.263   0.807   5.066  0.6136 -0.0981  0.0721
 2057SOL    HW117633   2.191   0.847   5.114 -0.2847  0.3523 -1.6189
 2057SOL    HW217634   2.335   0.849   5.112 -0.1507  2.1996 -0.7855
 2058SOL     OW17635   4.310   3.111   2.620  0.4738 -0.7471 -0.3481
 2058SOL    HW117636   4.234   3.127   2.677 -0.4662  0.0665 -1.8255
 2058SOL    HW217637   4.342   3.201   2.620 -1.8262  0.0830  0.1161
 2059SOL     OW17638   4.032   2.651   1.506 -0.6777  0.4946 -0.0569
 2059SOL    HW117639   4.049   2.650   1.411 -2.9817 -1.6705 -0.4551
 2059SOL    HW217640   4.039   2.745   1.522  0.8642  0.5353 -1.0067
 2060SOL     OW17641   0.571   1.456  10.574  0.0250  0.3020 -0.0823
 2060SOL    HW117642   0.533   1.544  10.574 -0.9542 -0.1101  1.5285
 2060SOL    HW217643   0.525   1.419  10.498 -0.0359 -0.4036  0.2970
 2061SOL     OW17644   2.256   4.105   7.115  0.4590  0.9205  0.3430
 2061SOL    HW117645   2.337   4.092   7.065 -0.1043  3.3418 -1.1771
 2061SOL    HW217646   2.247   4.200   7.106 -0.4955  0.9437  1.6133
 2062SOL     OW17647   1.275   3.292   5.487 -0.1283 -0.3730 -0.2222
 2062SOL    HW117648   1.232   3.374   5.510 -0.8935 -0.8060 -0.1176
 2062SOL    HW217649   1.316   3.319   5.405  3.4635 -2.4907  0.8395
 2063SOL     OW17650   1.654   4.550   5.869 -0.5519 -0.0602 -0.0083
 2063SOL    HW117651   1.678   4.508   5.787  0.0486 -0.0613  0.1615
 2063SOL    HW217652   1.715   4.624   5.870  1.9399 -2.0723 -1.4272
 2064SOL     OW17653   3.225   4.503   5.371  0.0649 -0.0222 -0.1150
 2064SOL    HW117654   3.277   4.543   5.440  3.4221 -0.6151 -2.2945
 2064SOL    HW217655   3.173   4.579   5.346 -1.5020 -0.4326  1.9065
 2065SOL     OW17656   2.274   1.008   7.829 -0.5766  0.6172  0.0262
 2065SOL    HW117657   2.198   1.066   7.829 -0.7147  0.4057  3.5161
 2065SOL    HW217658   2.342   1.068   7.798  0.6559 -0.3784  0.8198
 2066SOL     OW17659   2.647   1.945   6.708  0.3050 -0.6701  0.1398
 2066SOL    HW117660   2.572   1.885   6.715 -0.8504  0.8751  0.9429
 2066SOL    HW217661   2.718   1.899   6.665 -0.2991  1.1462 -2.7461
 2067SOL     OW17662   2.216   3.227   1.280  0.0279 -0.4598 -0.5575
 2067SOL    HW117663   2.261   3.210   1.363 -1.4405  2.0206  0.7600
 2067SOL    HW217664   2.198   3.146   1.232  1.0799  0.6095 -2.7890
 2068SOL     OW17665   2.927   3.721   7.578 -0.2786  0.3207  0.0158
 2068SOL    HW117666   2.986   3.703   7.650  1.0297  1.2395 -0.8208
 2068SOL    HW217667   2.858   3.773   7.621 -0.3221 -1.8347  2.5111
 2069SOL     OW17668   4.036   1.365   3.057  0.4899 -0.2829  0.8648
 2069SOL    HW117669   4.060   1.447   3.013  0.0923 -1.1172 -0.8787
 2069SOL    HW217670   4.045   1.297   2.990  0.6220 -0.6542  1.2570
 2070SOL     OW17671   0.749   2.431  14.495 -0.2697  0.0723  0.3325
 2070SOL    HW117672   0.695   2.487  14.551  0.2561 -0.6737  1.5899
 2070SOL    HW217673   0.809   2.494  14.455 -0.8908  1.0380  0.9322
 2071SOL     OW17674   3.892   3.428   7.037 -0.3115 -0.2670 -0.6556
 2071SOL    HW117675   3.979   3.398   7.063  0.2783  0.3574 -1.9108
 2071SOL    HW217676   3.864   3.362   6.974 -1.8322 -1.3258  1.1384
 2072SOL     OW17677   4.506   4.518   2.918  0.0642  0.4231  0.5061
 2072SOL    HW117678   4.454   4.501   2.840  0.3702  0.8544  0.2091
 2072SOL    HW217679   4.567   4.577   2.875 -1.8168  1.5423 -0.6266
 2073SOL     OW17680   0.109   2.946   7.362  0.0780 -0.1946 -0.0850
 2073SOL    HW117681   0.172   2.874   7.364 -0.4341 -0.6498 -0.3513
 2073SOL    HW217682   0.078   2.927   7.273  2.4942 -0.4166 -0.8737
 2074SOL     OW17683   2.332   2.060   1.527 -0.8464  0.0247  0.2617
 2074SOL    HW117684   2.284   1.977   1.524  1.8868 -1.4969 -0.6944
 2074SOL    HW217685   2.414   2.021   1.497 -1.4132 -2.0256  1.3760
 2075SOL     OW17686   3.154   4.199  10.500 -0.3059  0.1539  0.2175
 2075SOL    HW117687   3.080   4.164  10.549  0.1942 -1.0932  0.0782
 2075SOL    HW217688   3.220   4.196  10.569 -0.6610 -2.7297  0.4265
 2076SOL     OW17689   3.331   0.862  11.447  0.2440 -0.3120  0.3305
 2076SOL    HW117690   3.253   0.881  11.499 -1.0873 -1.0768 -1.3823
 2076SOL    HW217691   3.395   0.860  11.518 -1.3197  0.6594  1.7813
 2077SOL     OW17692   0.633   1.255  10.935 -0.6061  0.1152  0.0824
 2077SOL    HW117693   0.607   1.165  10.917 -2.5308  0.3050  1.8498
 2077SOL    HW217694   0.587   1.273  11.017 -0.5575 -1.2154  0.3986
 2078SOL     OW17695   3.977   3.906   5.459  0.3236  0.1620 -0.2781
 2078SOL    HW117696   4.003   3.994   5.431 -0.9452  0.4337 -0.5896
 2078SOL    HW217697   4.068   3.875   5.468  0.4704  0.8471  0.7459
 2079SOL     OW17698   2.277   3.617   6.840 -0.6308  0.0012 -0.3049
 2079SOL    HW117699   2.186   3.643   6.825 -0.3159  1.1577 -0.1693
 2079SOL    HW217700   2.306   3.708   6.835 -0.4558  0.0166  0.9172
 2080SOL     OW17701   3.979   1.443   6.370 -0.2532 -0.2283 -0.4368
 2080SOL    HW117702   3.991   1.538   6.377  1.1167 -0.6970  3.7314
 2080SOL    HW217703   4.056   1.418   6.319  1.1994  1.3097  1.0070
 2081SOL     OW17704   4.148   1.877   3.069  0.0614 -0.0349  0.3811
 2081SOL    HW117705   4.095   1.924   3.132 -2.1535 -0.1883 -1.3669
 2081SOL    HW217706   4.156   1.788   3.103  2.0393  0.9213  2.4374
 2082SOL     OW17707   2.094   2.125   3.603 -0.7086 -0.1379 -0.0595
 2082SOL    HW117708   2.185   2.098   3.589  0.1998  2.1742  1.4766
 2082SOL    HW217709   2.101   2.189   3.673 -0.9283 -0.1153 -0.0592
 2083SOL     OW17710   4.407   0.606   9.164 -0.1226  0.1748  0.4374
 2083SOL    HW117711   4.351   0.679   9.192  1.5912  2.1761 -1.3345
 2083SOL    HW217712   4.350   0.529   9.161  0.2375 -0.0955  0.5547
 2084SOL     OW17713   2.517   2.475   7.013  0.2766 -0.5800  0.8571
 2084SOL    HW117714   2.549   2.461   6.924  2.7569  1.4472  1.4337
 2084SOL    HW217715   2.586   2.441   7.070 -0.4414  0.6845  2.5064
 2085SOL     OW17716   0.037   1.428   0.174  0.1807 -0.2149  0.2185
 2085SOL    HW117717   0.075   1.424   0.086 -1.7624  0.1310 -0.6426
 2085SOL    HW217718   0.013   1.338   0.193  2.3278 -0.2992  2.5088
 2086SOL     OW17719   0.675   2.645   2.985  0.2758  0.4981  0.4101
 2086SOL    HW117720   0.660   2.690   2.901  0.4058 -0.2709 -0.0207
 2086SOL    HW217721   0.588   2.608   3.001  1.4226 -0.6744  3.9179
 2087SOL     OW17722   2.045   2.666   6.560  0.0634  0.6136  0.2873
 2087SOL    HW117723   2.066   2.671   6.653  0.0087 -1.8632  0.4318
 2087SOL    HW217724   1.976   2.600   6.561  2.1572 -1.5995  0.3048
 2088SOL     OW17725   0.165   0.534   5.851 -0.4264  0.0697 -0.4196
 2088SOL    HW117726   0.121   0.513   5.769 -0.8302 -0.2319 -0.1247
 2088SOL    HW217727   0.194   0.624   5.833 -1.4147  0.6889  1.0752
 2089SOL     OW17728   4.408   0.225   4.604 -0.1800  0.2405  0.0902
 2089SOL    HW117729   4.446   0.217   4.516  0.6842  2.4383  0.2595
 2089SOL    HW217730   4.399   0.320   4.613 -0.6474 -0.0068  2.1836
 2090SOL     OW17731   0.438   0.082  12.869  0.4563 -0.4686 -0.1460
 2090SOL    HW117732   0.390   0.028  12.931 -0.1647  0.3984  0.1312
 2090SOL    HW217733   0.369   0.104  12.806  0.3045  1.2044  0.6007
 2091SOL     OW17734   2.886   2.677   4.800 -0.0612 -0.1093  0.1475
 2091SOL    HW117735   2.795   2.707   4.790 -0.0509 -0.5104 -1.1847
 2091SOL    HW217736   2.871   2.594   4.754 -0.1807 -0.9572  1.7178
 2092SOL     OW17737   1.452   4.459   4.838  0.1642 -0.1093  0.8115
 2092SOL    HW117738   1.470   4.553   4.835  1.5336 -0.3288  2.4867
 2092SOL    HW217739   1.361   4.461   4.866  0.2239 -1.7828  1.1317
 2093SOL     OW17740   1.616   2.607   3.017 -0.3244  0.1462  0.1689
 2093SOL    HW117741   1.621   2.512   3.007 -1.2595  0.0046  1.0600
 2093SOL    HW217742   1.586   2.638   2.932  0.9972 -2.4446 -1.2324
 2094SOL     OW17743   3.107   1.205  10.697  0.6821 -0.1681 -0.9974
 2094SOL    HW117744   3.155   1.260  10.635  2.5262 -1.5187 -0.7595
 2094SOL    HW217745   3.037   1.181  10.635  0.4280 -0.8359 -0.4559
 2095SOL     OW17746   1.406   2.363   3.220 -0.0302  0.0292 -0.0395
 2095SOL    HW117747   1.378   2.368   3.129  2.3490 -1.7474 -0.8715
 2095SOL    HW217748   1.500   2.383   3.219 -0.0627  0.1708 -0.4065
 2096SOL     OW17749   1.388   0.732   5.417 -0.5497 -0.6267 -0.0703
 2096SOL    HW117750   1.401   0.708   5.325  1.0681  0.7405 -0.1955
 2096SOL    HW217751   1.303   0.688   5.425 -0.7009 -0.1980  0.7375
 2097SOL     OW17752   3.360   1.505   6.523  0.0643  0.2925  0.4935
 2097SOL    HW117753   3.274   1.475   6.553 -0.5034  0.2532 -1.2066
 2097SOL    HW217754   3.416   1.503   6.601  2.4861 -0.2805 -1.2589
 2098SOL     OW17755   4.510   0.420   3.511 -0.7674  0.3717  0.1838
 2098SOL    HW117756   4.532   0.366   3.435  2.8860 -0.0034  1.4839
 2098SOL    HW217757   4.455   0.487   3.470  0.3478  0.2486 -1.5075
 2099SOL     OW17758   2.880   3.495  11.409  1.0724 -0.0573  0.2191
 2099SOL    HW117759   2.827   3.569  11.381  2.0522  0.3496 -0.5506
 2099SOL    HW217760   2.953   3.544  11.448  0.9265 -1.5595  2.3800
 2100SOL     OW17761   0.498   2.115   8.775 -0.1740  0.1244 -0.6059
 2100SOL    HW117762   0.575   2.107   8.720  1.4021  1.2991  1.4249
 2100SOL    HW217763   0.443   2.048   8.736  4.6518 -3.5801 -1.0690
 2101SOL     OW17764   3.329   2.843   7.996  0.0413 -0.6723 -0.3942
 2101SOL    HW117765   3.336   2.748   7.991  0.1507 -0.6434 -0.8506
 2101SOL    HW217766   3.300   2.844   8.087 -0.1982 -3.3525 -0.4434
 2102SOL     OW17767   0.255   1.994  13.456 -0.4966  0.4003  0.4634
 2102SOL    HW117768   0.170   2.002  13.414  0.5935 -0.9021 -2.0267
 2102SOL    HW217769   0.290   2.080  13.434 -1.3140  0.4292 -0.7436
 2103SOL     OW17770   4.077   3.148   6.623  0.0243  0.3143 -0.1350
 2103SOL    HW117771   4.070   3.234   6.666  0.4837  0.7472 -0.9260
 2103SOL    HW217772   4.078   3.177   6.532 -2.5270  0.4198 -0.1415
 2104SOL     OW17773   4.220   2.128   3.668 -0.0008 -0.3011 -0.7267
 2104SOL    HW117774   4.264   2.183   3.604 -0.3633 -0.3453 -1.0114
 2104SOL    HW217775   4.300   2.085   3.699  1.4294  1.6471 -1.6991
 2105SOL     OW17776   4.291   1.629  11.520  0.0549 -0.0325  0.1825
 2105SOL    HW117777   4.353   1.557  11.506 -0.3993 -1.0683  3.2826
 2105SOL    HW217778   4.289   1.628  11.616 -0.2051 -1.3675  0.1701
 2106SOL     OW17779   3.518   0.547  16.294 -0.1414 -0.0598  0.1328
 2106SOL    HW117780   3.585   0.496  16.249  1.0872  1.9679 -0.3718
 2106SOL    HW217781   3.444   0.524  16.239  0.8254  0.9804 -1.6131
 2107SOL     OW17782   4.708   0.581   0.554  0.1628 -0.4834  0.2267
 2107SOL    HW117783   4.667   0.554   0.472  0.6795 -2.3054  0.5569
 2107SOL    HW217784   4.644   0.541   0.614  1.8364 -1.2882  1.4863
 2108SOL     OW17785   4.132   4.148  13.170 -0.4270  0.1147  0.1153
 2108SOL    HW117786   4.193   4.221  13.181  1.0425 -0.8936 -1.4835
 2108SOL    HW217787   4.158   4.096  13.247  1.6300 -0.5306 -1.0115
 2109SOL     OW17788   0.564   0.374   5.832 -0.0964 -0.5817 -0.0985
 2109SOL    HW117789   0.572   0.468   5.815  1.6768 -1.0175 -1.5923
 2109SOL    HW217790   0.500   0.348   5.766  0.4534 -0.3277 -0.7270
 2110SOL     OW17791   2.910   0.721   3.533 -0.2134  0.2201  0.1335
 2110SOL    HW117792   2.915   0.771   3.452  5.0653  0.6239  0.6921
 2110SOL    HW217793   2.840   0.661   3.507 -1.1245  0.9866  0.8031
 2111SOL     OW17794   2.948   1.023   7.894 -0.3410 -0.3059  0.4025
 2111SOL    HW117795   2.857   1.014   7.866  0.1400 -3.3604 -0.1134
 2111SOL    HW217796   3.000   1.011   7.815  3.9251  1.9462  2.8265
 2112SOL     OW17797   1.024   1.830  12.983  0.0802 -0.0999 -0.1089
 2112SOL    HW117798   1.076   1.878  13.048 -0.3729 -0.4707  0.5312
 2112SOL    HW217799   0.943   1.881  12.989 -0.5613 -1.0921 -0.3965
 2113SOL     OW17800   4.468   4.409  14.178  0.4503  0.0912 -0.4761
 2113SOL    HW117801   4.483   4.483  14.119 -0.2186 -0.9033 -1.8846
 2113SOL    HW217802   4.541   4.354  14.150 -0.4429  0.3128 -3.3255
 2114SOL     OW17803   3.425   2.074   7.678  0.2175  0.0854  0.3071
 2114SOL    HW117804   3.480   2.000   7.651  1.6723  1.1315  0.3625
 2114SOL    HW217805   3.377   2.045   7.756  0.7925  2.3461  1.5128
 2115SOL     OW17806   3.535   0.031   4.173 -0.5907 -0.6040 -0.4618
 2115SOL    HW117807   3.486   0.105   4.208 -1.6901 -1.2809 -0.5660
 2115SOL    HW217808   3.625   0.060   4.185 -1.0622  1.5177 -2.1469
 2116SOL     OW17809   0.862   2.264   6.849 -0.2312 -0.7901 -0.1868
 2116SOL    HW117810   0.956   2.254   6.835  0.2691  0.6109  2.0069
 2116SOL    HW217811   0.841   2.177   6.815 -0.9472 -1.2039  1.2892
 2117SOL     OW17812   4.122   4.456   3.723 -0.3893 -0.0193 -0.2055
 2117SOL    HW117813   4.075   4.393   3.669  3.1823 -1.6657 -1.4118
 2117SOL    HW217814   4.076   4.448   3.807  1.9273 -1.1431  0.9859
 2118SOL     OW17815   0.489   1.634   7.753 -0.4376 -0.0809 -0.6611
 2118SOL    HW117816   0.500   1.624   7.659  0.1682  1.2184 -0.7279
 2118SOL    HW217817   0.439   1.553   7.763  0.0090 -0.4375 -1.3420
 2119SOL     OW17818   2.282   2.235   1.958 -0.4059 -0.1259  0.6693
 2119SOL    HW117819   2.329   2.242   2.042  0.7033  0.3344  0.0025
 2119SOL    HW217820   2.190   2.228   1.982 -0.3908 -0.4399  0.6333
 2120SOL     OW17821   4.613   4.353  16.212 -0.1534  0.1406 -0.3856
 2120SOL    HW117822   4.649   4.402  16.286  0.2782  0.4954 -0.8245
 2120SOL    HW217823   4.672   4.278  16.210  0.5463  0.7208 -1.4911
 2121SOL     OW17824   0.426   0.398   8.926 -0.0266  0.1328 -0.0975
 2121SOL    HW117825   0.388   0.456   8.860  0.4685  0.3245 -0.2168
 2121SOL    HW217826   0.519   0.419   8.923 -0.2354  0.9788 -0.9080
 2122SOL     OW17827   1.943   0.565   8.014 -0.1025  0.5106 -0.0981
 2122SOL    HW117828   1.993   0.507   8.070  0.4755  1.0679 -0.0382
 2122SOL    HW217829   1.926   0.637   8.075  0.9054 -0.6073  1.4888
 2123SOL     OW17830   2.023   4.012  13.079 -0.1362  0.1155 -0.0681
 2123SOL    HW117831   2.058   3.939  13.028 -0.4818  0.7962 -1.2756
 2123SOL    HW217832   2.029   3.971  13.166  0.8793  0.4090 -0.0002
 2124SOL     OW17833   0.312   2.193   7.417 -0.5496  0.7597 -0.0462
 2124SOL    HW117834   0.311   2.231   7.505 -1.3066  1.7957 -0.5066
 2124SOL    HW217835   0.242   2.127   7.422  0.8679 -0.8444 -1.0131
 2125SOL     OW17836   0.909   0.797   2.995 -0.3881 -0.8425 -0.4915
 2125SOL    HW117837   0.973   0.734   3.028  0.4248  0.2492 -0.0183
 2125SOL    HW217838   0.903   0.777   2.902 -1.0600  0.8452 -0.8081
 2126SOL     OW17839   3.748   0.277   5.417 -0.0985  0.2518  0.0541
 2126SOL    HW117840   3.797   0.306   5.494  1.2615  1.1884 -1.1830
 2126SOL    HW217841   3.677   0.223   5.452  0.9148 -2.5245 -2.1884
 2127SOL     OW17842   1.704   1.198   8.236 -0.4495 -0.6339 -0.4125
 2127SOL    HW117843   1.640   1.269   8.242 -0.6851 -0.8455 -0.4059
 2127SOL    HW217844   1.785   1.249   8.238 -2.3202  2.4087 -1.8437
 2128SOL     OW17845   3.205   0.888   3.672  0.6293  0.3500  0.1969
 2128SOL    HW117846   3.298   0.909   3.684  0.5253  0.3229  1.0851
 2128SOL    HW217847   3.194   0.957   3.606 -1.3254 -1.7859 -1.6941
 2129SOL     OW17848   0.174   4.620   2.593  0.4488 -0.2637 -0.0666
 2129SOL    HW117849   0.206   4.633   2.682  0.3569  0.1096 -0.0889
 2129SOL    HW217850   0.189   4.703   2.548 -1.2227 -0.3331 -0.7561
 2130SOL     OW17851   4.087   2.070   9.536 -0.1048  0.0477 -0.2924
 2130SOL    HW117852   4.020   2.002   9.529  0.0931 -0.1724 -0.0374
 2130SOL    HW217853   4.167   2.023   9.512  0.0178  0.3828 -0.5477
 2131SOL     OW17854   1.101   4.121   2.155 -0.2664  0.3072 -0.2465
 2131SOL    HW117855   1.120   4.042   2.106 -0.8342  0.1257 -0.1750
 2131SOL    HW217856   1.188   4.160   2.168  0.4703 -1.8250  1.1503
 2132SOL     OW17857   1.383   3.466   3.699 -0.0749  0.4288  0.0319
 2132SOL    HW117858   1.312   3.513   3.743 -0.7969  0.6697 -1.4117
 2132SOL    HW217859   1.344   3.447   3.614 -0.4223 -1.9087  0.7029
 2133SOL     OW17860   1.875   3.993   5.193 -0.0128  0.1006  0.5679
 2133SOL    HW117861   1.856   3.919   5.135 -0.1366  1.5640 -1.2520
 2133SOL    HW217862   1.832   4.060   5.140  0.2743  0.9327  1.3948
 2134SOL     OW17863   4.498   1.731  14.560  0.1935 -0.0628  0.5487
 2134SOL    HW117864   4.490   1.823  14.532  0.2185 -0.5291 -1.0043
 2134SOL    HW217865   4.484   1.743  14.654 -2.0297  1.0078  0.0800
 2135SOL     OW17866   0.411   4.406   6.755 -0.7314 -0.6267 -0.1997
 2135SOL    HW117867   0.335   4.443   6.800  2.6471  1.4960  3.7980
 2135SOL    HW217868   0.394   4.312   6.760 -0.4067 -0.7558 -1.5334
 2136SOL     OW17869   3.495   0.733   2.623  0.0564 -0.6062  0.1113
 2136SOL    HW117870   3.423   0.755   2.564  0.8777  2.3300  0.1614
 2136SOL    HW217871   3.566   0.781   2.580  0.8952 -1.1438  0.8919
 2137SOL     OW17872   4.419   0.641   7.261  0.0208  0.1914  0.2902
 2137SOL    HW117873   4.449   0.554   7.287  0.6573  0.5118  0.6528
 2137SOL    HW217874   4.355   0.616   7.195 -0.2465  1.3223  0.1180
 2138SOL     OW17875   0.978   1.948   7.466 -0.2472  0.0890  0.0304
 2138SOL    HW117876   0.974   1.971   7.373  2.9278  1.1645  0.1697
 2138SOL    HW217877   0.885   1.947   7.486  0.3359  0.2116  2.6644
 2139SOL     OW17878   3.528   2.864   3.959  0.5351 -0.1905 -0.0101
 2139SOL    HW117879   3.513   2.907   4.043 -1.9109 -0.4645 -0.3087
 2139SOL    HW217880   3.568   2.785   3.995  0.0739 -0.6468 -0.4975
 2140SOL     OW17881   1.319   4.511  10.729  0.0982 -0.1753  0.2708
 2140SOL    HW117882   1.343   4.487  10.639 -1.2347  0.1614 -0.1816
 2140SOL    HW217883   1.309   4.424  10.767  0.6043  1.0534  3.2494
 2141SOL     OW17884   2.376   2.292  16.861  0.1653  0.2527  0.3778
 2141SOL    HW117885   2.301   2.234  16.848  1.1653 -0.5752 -1.7701
 2141SOL    HW217886   2.443   2.243  16.812  0.2151  0.9956 -0.2818
 2142SOL     OW17887   3.086   4.191   8.896  0.2471 -0.0146 -0.1649
 2142SOL    HW117888   3.131   4.162   8.975 -0.2604  2.1961  0.9550
 2142SOL    HW217889   3.006   4.223   8.939  1.1334  3.4961 -1.1187
 2143SOL     OW17890   1.597   0.108   6.974 -0.0888  0.7825  0.0769
 2143SOL    HW117891   1.514   0.139   6.936 -0.3694  1.1395  0.9789
 2143SOL    HW217892   1.661   0.143   6.913  0.5526  3.1372  2.1131
 2144SOL     OW17893   2.790   1.492  10.086 -0.0963  0.1038 -0.3594
 2144SOL    HW117894   2.720   1.522  10.028 -0.9219  0.1612  0.6723
 2144SOL    HW217895   2.871   1.534  10.057 -0.3783  0.6322 -0.3753
 2145SOL     OW17896   3.829   3.518   2.030  0.4984  0.2045 -0.0245
 2145SOL    HW117897   3.875   3.558   1.955  1.8019 -0.1874  0.5562
 2145SOL    HW217898   3.870   3.432   2.024  0.9798  0.3446  1.1348
 2146SOL     OW17899   3.266   1.887   9.338 -0.0737  0.1003  0.0123
 2146SOL    HW117900   3.324   1.814   9.361 -0.0729  0.1692  0.2344
 2146SOL    HW217901   3.213   1.896   9.418  0.4149 -0.7120  0.4305
 2147SOL     OW17902   2.373   0.996   5.498  0.5132  0.1055 -0.2145
 2147SOL    HW117903   2.377   0.924   5.435 -0.3877  0.6019 -0.8342
 2147SOL    HW217904   2.435   0.960   5.561 -0.8629 -0.3190  0.8951
 2148SOL     OW17905   4.392   4.289   2.103  0.3510 -0.2318  0.3472
 2148SOL    HW117906   4.403   4.207   2.152  0.2171 -0.4871 -0.0585
 2148SOL    HW217907   4.297   4.297   2.111  0.3236  2.3834 -2.6715
 2149SOL     OW17908   3.621   1.543   1.526  0.3156  0.2023  0.1442
 2149SOL    HW117909   3.551   1.478   1.537  1.2603 -0.5724  1.5882
 2149SOL    HW217910   3.565   1.620   1.519 -0.1988 -0.5167 -3.2307
 2150SOL     OW17911   2.709   2.771  16.475 -0.4314 -0.1775  0.3496
 2150SOL    HW117912   2.769   2.720  16.420  0.5080  1.5295 -0.2059
 2150SOL    HW217913   2.761   2.819  16.539 -2.0407  1.1418  0.6730
 2151SOL     OW17914   2.002   4.270  13.179 -0.5421 -0.1560 -0.1625
 2151SOL    HW117915   1.907   4.259  13.167 -0.7088  0.4211  0.5968
 2151SOL    HW217916   2.028   4.187  13.138 -2.1523 -1.4877  1.4725
 2152SOL     OW17917   1.819   1.255  13.671 -0.6228 -0.4715  0.2417
 2152SOL    HW117918   1.876   1.270  13.746  1.3012  1.7124 -1.6831
 2152SOL    HW217919   1.808   1.345  13.642 -0.1721 -0.4987  0.0067
 2153SOL     OW17920   4.211   1.667   3.251 -0.5818  0.0295 -0.6039
 2153SOL    HW117921   4.133   1.628   3.291  0.7570 -1.0410  0.9979
 2153SOL    HW217922   4.279   1.637   3.312 -0.1122 -0.6513 -1.4714
 2154SOL     OW17923   1.804   1.987   6.980 -0.5059  0.5110 -0.4000
 2154SOL    HW117924   1.807   2.077   6.948 -0.8505  0.4360 -0.6372
 2154SOL    HW217925   1.893   1.982   7.016 -0.9573  2.1530  0.8942
 2155SOL     OW17926   2.469   0.640   3.865 -0.2964  0.0756  0.8335
 2155SOL    HW117927   2.381   0.651   3.828  0.2484  2.8254  0.3376
 2155SOL    HW217928   2.487   0.546   3.867  1.1980  0.3652  1.0510
 2156SOL     OW17929   0.321   2.631  13.712  0.0840  0.3276 -0.8801
 2156SOL    HW117930   0.254   2.653  13.647 -1.9965 -0.6733  0.9371
 2156SOL    HW217931   0.394   2.683  13.679  0.3167 -0.7418 -2.0233
 2157SOL     OW17932   1.149   4.205   5.393 -0.1621  0.1527 -0.1253
 2157SOL    HW117933   1.172   4.274   5.456  1.1590 -2.5257  2.2987
 2157SOL    HW217934   1.105   4.253   5.323 -1.2837  1.2991  1.3583
 2158SOL     OW17935   3.593   0.196   3.828 -0.4725  0.2840  0.0943
 2158SOL    HW117936   3.531   0.239   3.887 -0.9956  0.3442 -0.4934
 2158SOL    HW217937   3.610   0.267   3.766 -0.5099 -0.8181 -1.1715
 2159SOL     OW17938   1.288   3.138  16.266  0.1881 -0.6353  0.2990
 2159SOL    HW117939   1.286   3.108  16.175 -2.0221  0.1583  0.0738
 2159SOL    HW217940   1.338   3.220  16.263  0.1562 -0.6461 -0.5522
 2160SOL     OW17941   2.455   4.273   6.516 -0.1250  0.0288  0.3285
 2160SOL    HW117942   2.519   4.335   6.549 -1.0245  1.8246 -1.2942
 2160SOL    HW217943   2.416   4.341   6.462  1.1615  0.3075 -0.2480
 2161SOL     OW17944   2.779   0.455   6.728 -0.5989  0.2482  0.2599
 2161SOL    HW117945   2.747   0.368   6.750  1.6771 -0.8338 -0.7594
 2161SOL    HW217946   2.694   0.501   6.734 -1.4488 -1.2021 -0.7299
 2162SOL     OW17947   2.407   2.614   2.527  0.7711 -0.3168 -0.0345
 2162SOL    HW117948   2.328   2.648   2.571  0.5193 -0.0602 -0.6908
 2162SOL    HW217949   2.364   2.562   2.459 -1.9809  1.7336  0.1391
 2163SOL     OW17950   3.631   4.160   6.762 -0.5309  0.4549  0.3280
 2163SOL    HW117951   3.705   4.215   6.737 -0.5195  0.8962  1.3333
 2163SOL    HW217952   3.663   4.076   6.729 -0.4460  0.6670 -0.1246
 2164SOL     OW17953   0.783   3.382   9.789 -0.8130  0.0270  0.9239
 2164SOL    HW117954   0.772   3.318   9.859 -0.1408  0.6666  1.6081
 2164SOL    HW217955   0.782   3.460   9.844 -1.7686  0.7507 -0.1302
 2165SOL     OW17956   1.905   0.552  16.147  0.6996  0.1470 -0.6456
 2165SOL    HW117957   1.994   0.565  16.114  1.7430 -1.3807  1.5301
 2165SOL    HW217958   1.910   0.600  16.231  0.1169 -1.0278  0.0599
 2166SOL     OW17959   3.980   3.699   3.126  0.0315 -0.2518  0.5500
 2166SOL    HW117960   4.070   3.678   3.153 -0.0257 -0.8975  0.2366
 2166SOL    HW217961   3.935   3.614   3.119 -0.3383 -0.0927  0.9986
 2167SOL     OW17962   0.355   1.387   5.259 -0.2338  0.0442 -0.2065
 2167SOL    HW117963   0.344   1.306   5.209 -0.3266  0.2006 -0.4418
 2167SOL    HW217964   0.436   1.417   5.217  0.5639  0.5918  1.7495
 2168SOL     OW17965   1.077   1.392   4.254 -0.2135  0.2510 -0.5249
 2168SOL    HW117966   1.137   1.379   4.327 -1.2669 -1.5729  0.0109
 2168SOL    HW217967   0.999   1.349   4.289  1.6352 -1.5480  1.3599
 2169SOL     OW17968   1.550   0.893   3.188  0.1845  0.4633  0.3193
 2169SOL    HW117969   1.545   0.801   3.213 -0.3299 -0.1119 -1.9223
 2169SOL    HW217970   1.543   0.933   3.275 -0.7880 -0.9806  0.9122
 2170SOL     OW17971   4.663   1.384   7.092 -0.0969 -0.0754  0.8392
 2170SOL    HW117972   4.712   1.334   7.027 -0.2535 -0.4050  0.9781
 2170SOL    HW217973   4.709   1.468   7.091  0.9350 -0.6913 -2.7750
 2171SOL     OW17974   3.280   1.988   7.928  0.5580 -0.4555  0.0710
 2171SOL    HW117975   3.293   1.893   7.936  1.8199 -0.3903 -1.2043
 2171SOL    HW217976   3.200   2.002   7.979  0.8187 -0.6579  0.5385
 2172SOL     OW17977   0.038   2.233   9.641  0.1721 -0.0620 -0.2422
 2172SOL    HW117978   4.718   2.298   9.585  0.3426  1.6453  1.5732
 2172SOL    HW217979   0.119   2.279   9.663  0.1745  0.3336 -1.0687
 2173SOL     OW17980   0.201   0.179  13.089 -0.3016  0.0015  0.7967
 2173SOL    HW117981   0.254   0.230  13.151 -1.4568  1.3489  0.6775
 2173SOL    HW217982   0.124   0.162  13.145 -0.7064 -2.0167 -0.3897
 2174SOL     OW17983   1.222   1.969   4.422  0.2210  0.2958  0.0275
 2174SOL    HW117984   1.143   1.997   4.467  0.2921  1.0484 -0.3162
 2174SOL    HW217985   1.197   1.880   4.396  1.8965  0.4364 -2.0639
 2175SOL     OW17986   1.752   3.801   0.483 -0.1288 -0.1345 -0.1925
 2175SOL    HW117987   1.704   3.808   0.401 -0.1853 -2.5229 -0.3395
 2175SOL    HW217988   1.763   3.706   0.476 -0.7613 -0.3099  1.2216
 2176SOL     OW17989   0.023   3.564   4.852  0.4653 -0.4365 -0.5041
 2176SOL    HW117990   0.060   3.490   4.804  0.5946 -2.4475  2.6688
 2176SOL    HW217991   4.653   3.543   4.842 -0.1837  1.5410  1.3317
 2177SOL     OW17992   4.435   3.778   1.718  0.3696 -0.1924  0.3624
 2177SOL    HW117993   4.479   3.863   1.711  0.7597 -0.6116 -2.1900
 2177SOL    HW217994   4.353   3.799   1.672  1.3341  3.4121  0.3095
 2178SOL     OW17995   1.154   4.207  12.048  0.1253 -0.2059  0.1805
 2178SOL    HW117996   1.167   4.299  12.073 -0.5895 -0.3411  1.0559
 2178SOL    HW217997   1.072   4.212  11.998  1.8789  3.3237 -2.3292
 2179SOL     OW17998   1.759   3.873   4.291 -0.3335 -0.2166  0.1736
 2179SOL    HW117999   1.666   3.859   4.309 -1.1741  2.5621 -2.0045
 2179SOL    HW218000   1.766   3.963   4.323  1.2080 -0.1142 -0.4113
 2180SOL     OW18001   1.149   4.454   5.942 -0.2385 -0.0964 -0.1815
 2180SOL    HW118002   1.100   4.372   5.947 -0.1212 -0.2168 -1.0696
 2180SOL    HW218003   1.241   4.428   5.934 -0.6459 -1.6433  0.0111
 2181SOL     OW18004   4.682   1.575   3.102 -0.3741 -0.8550 -0.7360
 2181SOL    HW118005   0.037   1.620   3.135 -1.5818  0.6761  0.0144
 2181SOL    HW218006   4.691   1.599   3.010 -0.4823 -2.0502 -1.0643
 2182SOL     OW18007   4.196   1.557  13.452 -0.3628  0.0185  0.2006
 2182SOL    HW118008   4.173   1.626  13.389  1.2010  2.7379  2.5952
 2182SOL    HW218009   4.235   1.488  13.399 -0.9498  0.5177 -0.8677
 2183SOL     OW18010   4.293   2.566   4.632 -0.0070  0.2352  0.1622
 2183SOL    HW118011   4.212   2.567   4.683  1.6007  2.4310  2.6485
 2183SOL    HW218012   4.299   2.472   4.615 -1.4269 -0.1697  1.8857
 2184SOL     OW18013   2.829   4.356   6.257 -0.0159  0.0250  0.3147
 2184SOL    HW118014   2.886   4.414   6.307 -0.1108  1.8622 -1.7056
 2184SOL    HW218015   2.746   4.397   6.280  0.1576  0.0253  0.9259
 2185SOL     OW18016   3.602   1.627   7.546 -0.0453 -0.3456  0.1119
 2185SOL    HW118017   3.685   1.667   7.570 -0.8171  1.0833  0.4220
 2185SOL    HW218018   3.619   1.598   7.456  1.2931  1.2258 -0.1387
 2186SOL     OW18019   0.674   0.768   5.103  0.7740  0.5453 -0.4644
 2186SOL    HW118020   0.603   0.710   5.130  1.3056 -1.1582 -2.7657
 2186SOL    HW218021   0.733   0.703   5.066  0.1954  0.5190 -1.3601
 2187SOL     OW18022   1.700   1.189  16.090  0.1873  0.4914 -0.4258
 2187SOL    HW118023   1.667   1.149  16.170 -1.7009 -0.4850 -1.6819
 2187SOL    HW218024   1.783   1.141  16.087  0.3722  0.6549  3.1620
 2188SOL     OW18025   1.440   3.827   8.884 -0.4034  0.3677 -0.5771
 2188SOL    HW118026   1.395   3.750   8.921  0.9310  0.0900  0.4590
 2188SOL    HW218027   1.519   3.803   8.932  0.9275  0.4709 -2.7181
 2189SOL     OW18028   3.643   4.283   2.906  0.4983  0.4181  0.2231
 2189SOL    HW118029   3.594   4.359   2.877 -0.0181 -0.3039 -0.8264
 2189SOL    HW218030   3.679   4.314   2.989 -2.9173 -2.7133  2.8695
 2190SOL     OW18031   3.470   4.051   7.341  0.2176 -0.4256 -0.6164
 2190SOL    HW118032   3.498   4.077   7.429  2.2883 -0.4177 -1.2618
 2190SOL    HW218033   3.527   3.981   7.311  1.2513  0.4354 -0.6911
 2191SOL     OW18034   3.167   0.340  11.352  0.2033  0.3165  0.2176
 2191SOL    HW118035   3.136   0.430  11.337  1.9728  0.6894 -1.1345
 2191SOL    HW218036   3.170   0.332  11.447 -0.2697  0.3057  0.2350
 2192SOL     OW18037   1.228   1.224   7.523  0.4608 -0.5365 -0.0974
 2192SOL    HW118038   1.167   1.295   7.509  1.7924  1.2824  3.5354
 2192SOL    HW218039   1.219   1.210   7.617  1.1828 -0.2061  0.0213
 2193SOL     OW18040   2.062   1.660   8.166 -0.4882  0.0395 -0.1772
 2193SOL    HW118041   2.028   1.730   8.222 -0.2622  0.1274 -0.1517
 2193SOL    HW218042   1.985   1.604   8.157 -0.8931  0.7473 -1.1116
 2194SOL     OW18043   4.244   2.021   7.893 -1.2568 -0.2334  0.2708
 2194SOL    HW118044   4.276   2.024   7.983 -0.9448 -1.5304  0.2001
 2194SOL    HW218045   4.228   2.115   7.880 -0.4099 -0.0835  0.2870
 2195SOL     OW18046   2.657   1.834  16.678 -0.5801  0.3411  0.5499
 2195SOL    HW118047   2.614   1.828  16.764  0.7732 -3.2036  0.9540
 2195SOL    HW218048   2.580   1.835  16.621  1.0251  1.1013 -1.6098
 2196SOL     OW18049   2.569   0.225   8.817 -0.1088  0.4329 -0.0809
 2196SOL    HW118050   2.516   0.195   8.743 -0.5424  0.0374  0.3985
 2196SOL    HW218051   2.655   0.187   8.797  0.2372  1.8529 -1.3289
 2197SOL     OW18052   2.704   3.648   3.496  0.2680 -0.3122 -0.5191
 2197SOL    HW118053   2.730   3.612   3.581 -3.2653  0.5822  0.9256
 2197SOL    HW218054   2.793   3.662   3.464 -0.5467  0.6887 -2.3299
 2198SOL     OW18055   2.787   3.870  14.650 -0.2014 -0.4707 -0.0733
 2198SOL    HW118056   2.705   3.918  14.635 -0.4144 -0.7470  0.2174
 2198SOL    HW218057   2.783   3.857  14.745  2.6981 -2.0916 -0.1908
 2199SOL     OW18058   2.921   4.713   2.605 -0.1539  0.4768 -0.2490
 2199SOL    HW118059   2.962   4.707   2.519 -1.4235  0.1648 -0.8392
 2199SOL    HW218060   2.984   0.052   2.641 -0.0953  0.9292 -1.1150
 2200SOL     OW18061   1.899   3.343  12.028 -0.5939  0.4203 -0.1227
 2200SOL    HW118062   1.932   3.347  11.939  0.9131  1.4718  0.4889
 2200SOL    HW218063   1.808   3.315  12.015  0.3088 -2.9723  0.8656
 2201SOL     OW18064   1.065   3.200   4.620 -0.3598  0.1525  0.2923
 2201SOL    HW118065   1.001   3.170   4.685 -2.2665  1.0646 -1.1597
 2201SOL    HW218066   1.007   3.271   4.590  1.0673  1.5470  0.8421
 2202SOL     OW18067   3.828   0.240   4.348  0.0113  0.9024 -0.1793
 2202SOL    HW118068   3.757   0.235   4.412  0.4166 -2.2654  0.0380
 2202SOL    HW218069   3.879   0.171   4.390 -3.4529 -3.0198 -2.3671
 2203SOL     OW18070   0.124   3.746   4.162  0.5156 -0.0300 -0.0360
 2203SOL    HW118071   0.219   3.755   4.159  0.5622 -0.8205 -0.8321
 2203SOL    HW218072   0.103   3.654   4.175  2.5524 -0.4698  0.1698
 2204SOL     OW18073   4.046   3.727  13.936  0.5667  0.2865 -0.8226
 2204SOL    HW118074   3.971   3.668  13.941  0.5645  0.2898 -0.8181
 2204SOL    HW218075   4.084   3.692  13.856  1.8466  0.9397 -0.5048
 2205SOL     OW18076   0.288   2.381  12.277  0.2707  0.0147  0.4077
 2205SOL    HW118077   0.323   2.357  12.363 -0.6693 -1.5412  0.3515
 2205SOL    HW218078   0.376   2.409  12.252  0.5274  0.4035  1.7209
 2206SOL     OW18079   4.283   1.619   9.782  0.2762  0.1030 -0.3132
 2206SOL    HW118080   4.315   1.698   9.739 -0.1854 -0.7164 -2.1511
 2206SOL    HW218081   4.334   1.622   9.863 -2.4272  2.6282  1.3236
 2207SOL     OW18082   3.810   3.749  13.260 -0.4565 -0.0952 -0.3475
 2207SOL    HW118083   3.747   3.684  13.292 -0.2183  0.0439  0.4207
 2207SOL    HW218084   3.849   3.783  13.340 -2.2287  0.6878  0.1920
 2208SOL     OW18085   2.679   2.474   3.354  0.7474 -0.4469 -0.5552
 2208SOL    HW118086   2.771   2.486   3.331  1.0877 -1.1250  0.4532
 2208SOL    HW218087   2.656   2.426   3.275 -3.4939 -1.7085  1.4492
 2209SOL     OW18088   0.829   2.303  12.405 -0.0082 -0.3252  0.5003
 2209SOL    HW118089   0.813   2.377  12.463  0.1369  0.4019 -0.3977
 2209SOL    HW218090   0.922   2.304  12.381  0.2372 -1.1827  1.4199
 2210SOL     OW18091   2.623   1.470   5.327 -0.9563 -0.2481  0.0771
 2210SOL    HW118092   2.709   1.512   5.332 -0.2944 -1.7133  1.1167
 2210SOL    HW218093   2.573   1.551   5.336  0.9768  0.8346  1.0219
 2211SOL     OW18094   1.376   2.469   7.359  0.1915 -0.5796 -0.4267
 2211SOL    HW118095   1.424   2.416   7.294  0.1111  1.6008 -2.2479
 2211SOL    HW218096   1.294   2.470   7.311 -1.3443  0.6708  2.2447
 2212SOL     OW18097   0.798   4.018   2.365  0.1583 -0.2869  0.0931
 2212SOL    HW118098   0.836   4.101   2.337 -0.9004 -0.5672 -2.2455
 2212SOL    HW218099   0.762   4.044   2.450  2.0136 -1.6171  1.2807
 2213SOL     OW18100   4.445   4.589   3.459 -0.0849 -0.3630 -0.0739
 2213SOL    HW118101   4.426   4.495   3.462 -0.4545 -0.2704  0.5147
 2213SOL    HW218102   4.406   4.624   3.379  2.6920  1.4579 -0.6343
 2214SOL     OW18103   0.956   3.384   2.813  0.8264 -0.3830 -0.1338
 2214SOL    HW118104   0.961   3.329   2.734 -2.5590 -1.3431  0.3284
 2214SOL    HW218105   0.863   3.375   2.834  0.7239 -0.9144 -0.7924
 2215SOL     OW18106   1.466   4.148   4.927  0.4024  0.2937 -0.4788
 2215SOL    HW118107   1.416   4.128   5.006  0.5780  1.5229 -0.0478
 2215SOL    HW218108   1.464   4.244   4.922 -0.2180  0.2514 -0.9703
 2216SOL     OW18109   0.090   2.248  12.119 -0.1691 -0.1950  0.5676
 2216SOL    HW118110   0.156   2.281  12.180 -1.2187  3.9728 -0.5599
 2216SOL    HW218111   0.133   2.250  12.033  0.2189 -0.8039  0.7494
 2217SOL     OW18112   0.913   2.743   3.064  0.1747 -0.0301  0.2033
 2217SOL    HW118113   0.836   2.689   3.048  1.6811 -1.8790 -0.9042
 2217SOL    HW218114   0.902   2.763   3.157  0.7280  0.4272  0.1698
 2218SOL     OW18115   3.497   2.615   7.793  0.1644 -0.0532  0.3012
 2218SOL    HW118116   3.457   2.584   7.875 -1.1071 -2.6326 -1.2807
 2218SOL    HW218117   3.541   2.536   7.764 -0.1247 -0.7952  1.8356
 2219SOL     OW18118   0.406   0.805   7.641  0.3070 -0.3514 -0.7505
 2219SOL    HW118119   0.469   0.752   7.689  0.4850 -0.6228 -1.2780
 2219SOL    HW218120   0.466   0.870   7.604  0.9630 -1.1508 -1.1088
 2220SOL     OW18121   4.129   3.155   0.430 -0.1451  0.5855 -0.7001
 2220SOL    HW118122   4.052   3.190   0.475 -2.9546 -2.6208 -3.0386
 2220SOL    HW218123   4.189   3.156   0.505  0.5512 -0.4932 -1.2366
 2221SOL     OW18124   0.887   0.537   1.156  0.0254 -0.9800 -0.4914
 2221SOL    HW118125   0.916   0.601   1.221 -2.2552 -1.6059  1.1208
 2221SOL    HW218126   0.831   0.589   1.098 -0.9217  1.0741  2.2612
 2222SOL     OW18127   1.222   2.497  16.718  0.2020  0.2553 -0.1025
 2222SOL    HW118128   1.276   2.475  16.793  0.7528 -2.5565 -1.3225
 2222SOL    HW218129   1.243   2.591  16.711 -0.1682  0.3454 -0.0307
 2223SOL     OW18130   3.742   2.423  15.503 -0.4783 -0.3744  0.2586
 2223SOL    HW118131   3.765   2.471  15.424  2.8575 -0.4000  1.2413
 2223SOL    HW218132   3.646   2.414  15.506 -0.3415 -2.6259 -1.5299
 2224SOL     OW18133   3.080   0.736   4.356  0.1186 -0.1261 -0.3055
 2224SOL    HW118134   3.079   0.682   4.434 -1.6633  0.4032  0.0282
 2224SOL    HW218135   3.098   0.672   4.288 -2.1978  1.1102 -2.0931
 2225SOL     OW18136   4.720   0.432  14.009  0.4843 -0.0718 -0.0954
 2225SOL    HW118137   4.692   0.505  13.955 -1.5584 -0.7334  0.0607
 2225SOL    HW218138   0.029   0.363  13.952 -1.6814 -1.3441  0.2306
 2226SOL     OW18139   4.097   3.007  11.465 -0.6146 -0.6194 -0.0786
 2226SOL    HW118140   4.169   2.984  11.407  1.1579  1.0643  1.4525
 2226SOL    HW218141   4.138   2.983  11.548  0.3660  1.4303  0.0311
 2227SOL     OW18142   1.405   0.667   4.332 -0.2384  0.0679 -0.1640
 2227SOL    HW118143   1.443   0.585   4.364  2.3581  0.4917 -2.1373
 2227SOL    HW218144   1.337   0.628   4.277  0.1125 -1.5998  0.5998
 2228SOL     OW18145   3.495   3.078   5.462 -0.3430  0.0149 -0.4387
 2228SOL    HW118146   3.498   3.078   5.366 -0.2118  0.8593 -0.4346
 2228SOL    HW218147   3.565   3.018   5.488 -0.8015 -1.5425 -2.7377
 2229SOL     OW18148   1.895   3.901   7.468  0.1793 -0.2017 -0.3361
 2229SOL    HW118149   1.812   3.859   7.449  0.7151  0.3902 -4.0995
 2229SOL    HW218150   1.927   3.860   7.548  2.3392  0.8070 -0.6699
 2230SOL     OW18151   2.404   3.232  10.049  0.1505 -0.1851 -0.2065
 2230SOL    HW118152   2.490   3.272  10.060 -0.5142  1.6002 -1.3575
 2230SOL    HW218153   2.423   3.149  10.092 -3.3616 -1.3154 -0.8308
 2231SOL     OW18154   3.360   3.663   3.030  0.2235 -0.2938 -0.1615
 2231SOL    HW118155   3.323   3.746   3.061 -0.3935 -0.3217 -0.8079
 2231SOL    HW218156   3.361   3.680   2.935  1.2526 -0.3466 -0.1571
 2232SOL     OW18157   4.697   3.070   4.813 -0.5010 -0.2652  0.3448
 2232SOL    HW118158   4.639   2.998   4.839 -0.4925  1.0166  3.9372
 2232SOL    HW218159   0.048   3.015   4.787  0.3771  1.2823 -0.3895
 2233SOL     OW18160   2.288   0.726   0.705 -0.4926 -0.0903 -0.0000
 2233SOL    HW118161   2.208   0.674   0.717 -1.0031  0.3522 -1.4495
 2233SOL    HW218162   2.275   0.749   0.613 -2.6370  1.5654  0.6933
 2234SOL     OW18163   2.178   4.149   6.499  0.0774 -0.3705  0.0569
 2234SOL    HW118164   2.182   4.060   6.462 -0.2631 -0.6528  0.6981
 2234SOL    HW218165   2.260   4.155   6.547  0.0098  1.2567 -0.0563
 2235SOL     OW18166   0.951   2.348   3.948 -0.4209  0.0178  0.5681
 2235SOL    HW118167   1.014   2.394   3.892  0.0061  0.3334  1.3067
 2235SOL    HW218168   0.948   2.255   3.927 -0.2023  0.4727 -1.4993
 2236SOL     OW18169   2.206   3.952  14.578  0.0282  0.6578  0.2243
 2236SOL    HW118170   2.180   3.994  14.496  0.6915  0.5054 -0.0657
 2236SOL    HW218171   2.138   3.887  14.594 -0.1832  1.1013  1.1111
 2237SOL     OW18172   2.435   3.665   8.579 -0.3123  0.0777  0.2845
 2237SOL    HW118173   2.500   3.681   8.510  0.8077  2.5267  1.9360
 2237SOL    HW218174   2.394   3.587   8.539 -1.7549 -0.5993  3.1171
 2238SOL     OW18175   0.265   4.103   7.762  0.1649  0.0226  0.1553
 2238SOL    HW118176   0.302   4.015   7.764 -0.0894 -0.0594  1.3709
 2238SOL    HW218177   0.218   4.095   7.846 -1.0115  0.7927 -0.4168
 2239SOL     OW18178   4.275   4.663   3.864 -0.0711  0.6801 -0.0024
 2239SOL    HW118179   4.320   4.654   3.948  0.1165 -1.2274 -0.3022
 2239SOL    HW218180   4.201   4.603   3.868  1.3843 -0.9576  2.3822
 2240SOL     OW18181   3.309   2.798   4.978 -0.1897 -0.5635  0.0971
 2240SOL    HW118182   3.306   2.873   5.038  0.0424 -1.5281  1.3210
 2240SOL    HW218183   3.242   2.835   4.920  0.8435 -0.0248 -0.7466
 2241SOL     OW18184   0.791   1.334   9.727  0.5902 -0.5321 -0.1290
 2241SOL    HW118185   0.812   1.392   9.654  1.9229 -1.8175 -0.7785
 2241SOL    HW218186   0.865   1.357   9.783 -0.6855  1.3705  0.7469
 2242SOL     OW18187   0.741   3.537   3.856 -0.5015 -0.5502  0.0315
 2242SOL    HW118188   0.732   3.631   3.839  1.1915 -0.3374  0.2952
 2242SOL    HW218189   0.776   3.508   3.772  1.6096  1.5880  0.1784
 2243SOL     OW18190   4.590   2.581   5.017 -0.4101  0.7323 -0.0450
 2243SOL    HW118191   4.533   2.606   5.089 -0.2537  0.8668  0.0338
 2243SOL    HW218192   4.675   2.602   5.056 -0.6103  0.3272  0.6031
 2244SOL     OW18193   0.435   3.101   9.027 -0.6093 -0.3086  0.3357
 2244SOL    HW118194   0.406   3.068   9.113 -2.5292 -0.8980 -0.5414
 2244SOL    HW218195   0.358   3.099   8.971 -0.3580 -2.3104  0.0493
 2245SOL     OW18196   4.271   2.015   0.492 -0.4428 -0.4331  0.0227
 2245SOL    HW118197   4.306   1.995   0.579  0.9888  0.6637 -0.2987
 2245SOL    HW218198   4.301   2.106   0.489 -1.7705  0.0165  0.2131
 2246SOL     OW18199   3.384   4.618   1.596  0.3183 -1.0347 -0.2983
 2246SOL    HW118200   3.455   4.624   1.660  0.3935  3.1690 -0.7674
 2246SOL    HW218201   3.350   4.707   1.587 -1.1340 -1.3850  1.7792
 2247SOL     OW18202   2.347   1.051   5.930 -0.0113 -0.0147 -0.3658
 2247SOL    HW118203   2.442   1.056   5.940 -0.1539 -0.9730  1.4210
 2247SOL    HW218204   2.329   1.102   5.850  1.1869  0.7046 -0.1905
 2248SOL     OW18205   4.367   1.477  14.728  0.0538 -0.4322  1.3535
 2248SOL    HW118206   4.370   1.395  14.678 -1.7556  0.7993 -0.7850
 2248SOL    HW218207   4.422   1.537  14.677  0.9063  0.0902  2.8939
 2249SOL     OW18208   0.313   2.760   7.250  0.0590 -0.6574 -0.5599
 2249SOL    HW118209   0.406   2.782   7.241 -1.0599  2.2258 -4.8482
 2249SOL    HW218210   0.298   2.733   7.160  1.4296  1.8463 -1.5371
 2250SOL     OW18211   0.721   0.141  12.861 -0.1367 -0.0478  0.4459
 2250SOL    HW118212   0.789   0.082  12.827 -0.9426 -0.5770 -0.2383
 2250SOL    HW218213   0.634   0.115  12.833 -0.4999 -0.2511  1.7554
 2251SOL     OW18214   0.381   2.705  11.969  0.5268 -0.3128 -0.4227
 2251SOL    HW118215   0.400   2.698  12.062 -0.4554  2.6663  0.0251
 2251SOL    HW218216   0.406   2.617  11.943 -1.1865 -0.8063 -0.4380
 2252SOL     OW18217   4.107   0.419  17.362  0.2160 -0.0431  0.2941
 2252SOL    HW118218   4.122   0.348  17.424  2.7901  1.4687  1.3933
 2252SOL    HW218219   4.011   0.413  17.359  0.3216 -0.8020 -1.7475
 2253SOL     OW18220   4.265   2.822  17.374  0.1975 -0.1626 -0.0228
 2253SOL    HW118221   4.289   2.837  17.282 -1.2176  0.7291 -0.2512
 2253SOL    HW218222   4.221   2.906  17.385  0.2683 -0.0685 -0.4634
 2254SOL     OW18223   4.276   1.435   5.958 -0.4294 -0.7035 -0.2258
 2254SOL    HW118224   4.360   1.389   5.964  0.2208  0.4106 -0.7638
 2254SOL    HW218225   4.300   1.520   5.920 -1.2027 -0.5467 -0.3577
 2255SOL     OW18226   3.390   4.067   9.890 -0.1444 -0.7155 -0.2280
 2255SOL    HW118227   3.484   4.054   9.892 -0.0514 -0.2657 -1.3081
 2255SOL    HW218228   3.375   4.026   9.804  3.3543 -0.7879 -0.7806
 2256SOL     OW18229   4.368   3.515   3.359  0.2672  0.6496  0.1636
 2256SOL    HW118230   4.428   3.568   3.306  3.0416 -0.5870  2.0666
 2256SOL    HW218231   4.380   3.547   3.448  1.4373 -2.9613  1.3153
 2257SOL     OW18232   4.128   1.880   6.971  0.5665 -0.5127  1.1462
 2257SOL    HW118233   4.194   1.944   6.997  0.0149  1.1224 -1.4673
 2257SOL    HW218234   4.055   1.942   6.968  1.2003  0.1946  0.3461
 2258SOL     OW18235   1.183   0.698   4.947  0.3635 -0.5006  0.0839
 2258SOL    HW118236   1.101   0.746   4.940  1.2949  0.7883 -1.8716
 2258SOL    HW218237   1.153   0.608   4.963  1.0623 -0.6393  0.6439
 2259SOL     OW18238   2.113   0.924   8.401  0.9376 -0.5789  0.2387
 2259SOL    HW118239   2.169   0.871   8.458  1.2958 -0.8690 -0.3753
 2259SOL    HW218240   2.056   0.971   8.462  0.6351 -1.1777  0.4181
 2260SOL     OW18241   2.238   3.401  15.376  0.2138  0.3818 -0.1226
 2260SOL    HW118242   2.149   3.376  15.404 -0.4874  1.2219 -1.6005
 2260SOL    HW218243   2.277   3.320  15.344 -1.2942 -0.2360 -0.3976
 2261SOL     OW18244   3.965   1.160  15.701  0.1581  0.1531  0.6444
 2261SOL    HW118245   3.981   1.234  15.642 -0.6482  1.7399  2.4216
 2261SOL    HW218246   4.056   1.143  15.724  0.1300 -1.9641 -0.7142
 2262SOL     OW18247   4.712   1.452  10.575 -0.3770  0.1242  0.5395
 2262SOL    HW118248   4.653   1.407  10.515 -0.0976 -1.3999  1.4167
 2262SOL    HW218249   4.647   1.490  10.633 -1.2517  0.7430 -0.8391
 2263SOL     OW18250   2.660   0.943   3.373 -0.0225 -0.0760  0.0427
 2263SOL    HW118251   2.707   1.003   3.430 -1.2388 -1.3356  2.3848
 2263SOL    HW218252   2.733   0.887   3.348  0.4903  1.9892 -3.1125
 2264SOL     OW18253   4.602   3.379   6.303 -0.0343 -0.1339 -0.4496
 2264SOL    HW118254   4.547   3.446   6.263 -0.0767 -1.2346 -2.2474
 2264SOL    HW218255   4.585   3.386   6.397  3.2537 -1.3443  0.2569
 2265SOL     OW18256   1.087   0.024   3.988 -0.3201 -0.3323 -0.3944
 2265SOL    HW118257   1.069   0.114   3.961  0.1345  0.0964  0.7069
 2265SOL    HW218258   1.148   4.717   3.922 -0.3284  2.4488 -1.6725
 2266SOL     OW18259   4.002   3.444   6.630  0.2614  0.9059 -0.4845
 2266SOL    HW118260   4.037   3.455   6.542  1.8623  1.9174  0.3012
 2266SOL    HW218261   4.082   3.453   6.681 -0.1620 -0.5009  0.4471
 2267SOL     OW18262   3.255   0.084   7.402 -0.0745  0.3757 -0.2280
 2267SOL    HW118263   3.312   0.122   7.469 -1.8214  0.4222  1.2344
 2267SOL    HW218264   3.172   0.131   7.411  0.3711  1.0939  0.0989
 2268SOL     OW18265   3.218   2.265   1.224 -0.2711  0.5059  0.3600
 2268SOL    HW118266   3.304   2.279   1.184  1.1105 -0.4111  3.0229
 2268SOL    HW218267   3.230   2.279   1.318  4.8389  1.2964 -0.4055
 2269SOL     OW18268   1.740   0.493   0.693  0.4866 -0.4215  0.8959
 2269SOL    HW118269   1.708   0.410   0.656 -1.7538  0.7858  0.1224
 2269SOL    HW218270   1.823   0.507   0.647  1.0252 -0.0537  1.9998
 2270SOL     OW18271   3.978   4.176  17.441  0.2616  0.3108  0.4258
 2270SOL    HW118272   3.918   4.105  17.465  1.0094 -0.8831 -1.1716
 2270SOL    HW218273   3.961   4.175  17.346  4.4962 -2.0553 -0.3072
 2271SOL     OW18274   3.066   3.480   4.358 -0.6339  0.3772 -0.2491
 2271SOL    HW118275   3.104   3.392   4.351 -2.0882 -0.4335  2.1078
 2271SOL    HW218276   3.019   3.469   4.441  0.2492  0.2568  0.2364
 2272SOL     OW18277   4.096   1.256   5.514  0.4564 -0.6572  0.3423
 2272SOL    HW118278   4.135   1.230   5.431 -0.2980 -1.6850  0.3047
 2272SOL    HW218279   4.011   1.217   5.495  0.4960 -0.1085 -1.0076
 2273SOL     OW18280   1.182   4.393   4.007  0.2832  0.0281  0.2164
 2273SOL    HW118281   1.229   4.321   3.966  1.0819  1.1329 -0.7813
 2273SOL    HW218282   1.255   4.449   4.034  1.9412 -0.9623 -2.2503
 2274SOL     OW18283   1.378   3.597  10.541 -0.5053  0.3421  0.4165
 2274SOL    HW118284   1.420   3.534  10.482  0.3925  0.9010  0.4504
 2274SOL    HW218285   1.380   3.680  10.494  0.2031  0.7690  1.2051
 2275SOL     OW18286   4.441   2.582   0.532 -0.8560 -0.5312  0.1162
 2275SOL    HW118287   4.380   2.544   0.596 -2.9155 -0.2805 -1.6835
 2275SOL    HW218288   4.488   2.508   0.494  1.9753  0.8992  0.8566
 2276SOL     OW18289   4.317   3.636   0.304 -0.8358  0.1605 -0.2941
 2276SOL    HW118290   4.253   3.566   0.313  0.6289 -1.4781 -2.6475
 2276SOL    HW218291   4.306   3.671   0.216 -4.2235  1.6036  0.7210
 2277SOL     OW18292   4.697   2.702   5.437 -0.4104 -0.6616  0.1375
 2277SOL    HW118293   4.661   2.664   5.517  0.7765  1.0572  1.4885
 2277SOL    HW218294   0.062   2.683   5.469 -1.3664  0.0033  3.1771
 2278SOL     OW18295   3.585   1.943  14.278 -0.6374 -0.0018  0.1659
 2278SOL    HW118296   3.639   1.921  14.202  2.5982  2.4598  1.7473
 2278SOL    HW218297   3.559   2.032  14.255 -1.2645 -0.3377 -0.4246
 2279SOL     OW18298   3.337   3.241  17.689  0.1436  0.0108  0.0849
 2279SOL    HW118299   3.274   3.239  17.617  1.2246 -0.1902 -0.8449
 2279SOL    HW218300   3.270   3.270   0.057  1.6490 -1.2662  2.3168
 2280SOL     OW18301   1.723   2.617   7.354  0.6183 -0.1967  0.1379
 2280SOL    HW118302   1.739   2.705   7.389 -1.6990  0.8440 -1.4418
 2280SOL    HW218303   1.733   2.634   7.260  1.1900  0.2951  0.2894
 2281SOL     OW18304   1.796   2.841   3.045 -0.4208 -0.1958 -0.4394
 2281SOL    HW118305   1.724   2.778   3.052 -0.3219  0.0203  2.4129
 2281SOL    HW218306   1.865   2.780   3.069 -0.1928 -0.0503 -0.7300
 2282SOL     OW18307   0.224   4.366   5.400 -0.0191 -0.0709  0.0933
 2282SOL    HW118308   0.164   4.429   5.441 -1.1862 -1.6507  0.8101
 2282SOL    HW218309   0.166   4.292   5.413 -0.9935  0.5313 -0.8202
 2283SOL     OW18310   2.919   3.535   3.660 -0.1817  0.0718 -0.3153
 2283SOL    HW118311   2.938   3.446   3.631 -0.9157 -0.1137 -0.2118
 2283SOL    HW218312   3.006   3.571   3.677 -1.0352  1.3706  1.3113
 2284SOL     OW18313   2.075   1.753   2.386 -0.3225  0.2353  0.0735
 2284SOL    HW118314   2.087   1.729   2.294 -1.6567  0.2395 -0.0982
 2284SOL    HW218315   2.050   1.843   2.366  0.7873  0.0409 -2.1272
 2285SOL     OW18316   2.252   0.809   9.201 -0.4762  0.5563 -0.2735
 2285SOL    HW118317   2.261   0.904   9.197  1.9445  0.4505  2.7787
 2285SOL    HW218318   2.187   0.793   9.132 -0.4330  1.2226 -0.4722
 2286SOL     OW18319   2.216   3.845  13.558  0.5423 -0.0612 -0.1380
 2286SOL    HW118320   2.204   3.757  13.593  0.2833 -0.5978 -1.6003
 2286SOL    HW218321   2.272   3.890  13.622  0.4878 -0.3151  0.0882
 2287SOL     OW18322   2.344   3.012  16.458 -0.4646  0.4391 -0.4522
 2287SOL    HW118323   2.390   2.932  16.433  0.0609  0.9041 -0.9672
 2287SOL    HW218324   2.321   2.987  16.548  1.3239  2.4048  0.5555
 2288SOL     OW18325   0.436   4.415   3.002 -0.9843  0.0164  0.2069
 2288SOL    HW118326   0.430   4.397   3.096  2.6766  4.4340  1.2829
 2288SOL    HW218327   0.393   4.342   2.957 -0.6209 -0.0164 -0.0895
 2289SOL     OW18328   0.346   0.537  12.161  0.7680 -0.2635 -0.0676
 2289SOL    HW118329   0.292   0.567  12.087  0.0453 -1.9466 -0.2284
 2289SOL    HW218330   0.326   0.446  12.138 -1.8317  0.2816  0.1440
 2290SOL     OW18331   2.117   1.977   7.977  0.0708  0.0777  0.3988
 2290SOL    HW118332   2.030   1.940   7.991  0.0340 -0.0338 -0.1195
 2290SOL    HW218333   2.139   1.923   7.901 -0.0426 -0.4364  0.7336
 2291SOL     OW18334   1.010   1.054  13.679  0.4466  0.9997 -0.3712
 2291SOL    HW118335   0.976   1.009  13.601 -0.9373  0.1474  0.7264
 2291SOL    HW218336   0.942   1.120  13.690 -0.0281  0.5531 -0.6082
 2292SOL     OW18337   1.497   1.635   2.823 -0.3964  0.0775  0.4037
 2292SOL    HW118338   1.523   1.627   2.731 -1.9061  0.1323 -0.0225
 2292SOL    HW218339   1.462   1.549   2.846 -0.2232  0.0816  0.6868
 2293SOL     OW18340   1.374   2.090   1.175  0.1697 -0.4311  0.3816
 2293SOL    HW118341   1.352   2.126   1.261  0.8755 -0.1526  0.4519
 2293SOL    HW218342   1.469   2.102   1.164 -0.3323  1.7744 -1.5741
 2294SOL     OW18343   2.515   1.893  10.920  0.2961  0.6003  0.1148
 2294SOL    HW118344   2.536   1.941  11.000  1.0371  0.7497 -0.1739
 2294SOL    HW218345   2.597   1.853  10.890  0.7600  2.6658 -1.3270
 2295SOL     OW18346   2.303   1.976  13.155  0.5151 -0.5315 -0.0099
 2295SOL    HW118347   2.254   2.056  13.174  0.3885 -0.7438  0.5540
 2295SOL    HW218348   2.373   1.998  13.094  1.1188  0.3735  1.0168
 2296SOL     OW18349   3.648   2.510   3.064  0.3631  0.1685 -0.0191
 2296SOL    HW118350   3.635   2.422   3.029  2.3042 -0.4875  0.9429
 2296SOL    HW218351   3.608   2.513   3.151 -1.6789  0.6545 -0.9730
 2297SOL     OW18352   4.274   0.155  12.178  0.2495 -0.2536  0.2629
 2297SOL    HW118353   4.240   0.244  12.172 -0.3208 -0.4674  0.3162
 2297SOL    HW218354   4.207   0.117  12.121  2.5784 -0.6663 -2.2072
 2298SOL     OW18355   1.838   1.513   8.102 -0.4545  0.7329  0.7071
 2298SOL    HW118356   1.875   1.438   8.148  2.7361  2.3989  0.8877
 2298SOL    HW218357   1.748   1.485   8.091 -0.6334  1.1147  1.2049
 2299SOL     OW18358   0.555   2.797   3.245 -0.5510 -0.1392  0.2436
 2299SOL    HW118359   0.491   2.855   3.204 -0.9997  0.7088  2.1498
 2299SOL    HW218360   0.626   2.780   3.184  0.0109  0.9196  0.6135
 2300SOL     OW18361   0.753   1.908  16.338  0.0992 -0.0247  0.3910
 2300SOL    HW118362   0.742   1.867  16.424  1.1550  1.2549  1.1166
 2300SOL    HW218363   0.826   1.859  16.301  0.3813 -0.1687  1.1414
 2301SOL     OW18364   3.510   2.259   5.811  0.1527  0.0511  0.4146
 2301SOL    HW118365   3.554   2.227   5.732  1.9023 -0.2004  1.4922
 2301SOL    HW218366   3.447   2.322   5.776 -0.7719 -1.1577 -0.1024
 2302SOL     OW18367   2.735   4.715   5.119  0.2398  0.3944  0.2266
 2302SOL    HW118368   2.660   0.025   5.169 -0.1406  1.8190 -1.2712
 2302SOL    HW218369   2.726   0.028   5.030 -2.0262 -1.1465 -0.1595
 2303SOL     OW18370   0.058   2.353   2.889  0.4406  0.7162 -0.2708
 2303SOL    HW118371   0.001   2.321   2.820 -0.3945 -0.5499  1.0050
 2303SOL    HW218372   0.049   2.449   2.886 -2.7531  0.4338  0.5024
 2304SOL     OW18373   1.260   0.673   1.323 -0.2950 -0.1081 -0.4532
 2304SOL    HW118374   1.337   0.637   1.280  1.0968 -0.6340  2.4782
 2304SOL    HW218375   1.196   0.629   1.266 -0.8684 -1.3045  1.1100
 2305SOL     OW18376   0.703   2.274  14.845  0.1020  0.2907  0.1841
 2305SOL    HW118377   0.620   2.252  14.804  0.7593 -0.8659 -0.5170
 2305SOL    HW218378   0.692   2.251  14.937  0.4605  1.9085  0.6323
 2306SOL     OW18379   2.202   3.385  13.016  0.6284  0.2514  0.3818
 2306SOL    HW118380   2.255   3.358  12.942 -0.2987 -1.3709  0.2956
 2306SOL    HW218381   2.207   3.306  13.069  0.3300 -1.4420 -2.1317
 2307SOL     OW18382   3.291   3.920   3.114  0.2536  0.1503 -0.0408
 2307SOL    HW118383   3.343   3.971   3.053 -1.3711 -2.3064 -3.4777
 2307SOL    HW218384   3.216   3.980   3.112  1.2276  1.3122 -2.2216
 2308SOL     OW18385   0.496   0.854  12.138 -0.2108 -0.5687  0.2811
 2308SOL    HW118386   0.407   0.840  12.107 -1.8084  2.3715  3.5362
 2308SOL    HW218387   0.498   0.784  12.204 -1.3692 -0.0151  0.8986
 2309SOL     OW18388   1.861   0.542   4.531  0.2319 -0.0721  0.3717
 2309SOL    HW118389   1.879   0.500   4.447  1.2796  1.0650  0.0387
 2309SOL    HW218390   1.941   0.523   4.579  1.2168  1.2481 -0.7895
 2310SOL     OW18391   2.054   2.321   1.277 -0.1855 -0.2748 -1.0602
 2310SOL    HW118392   2.043   2.328   1.372 -0.5069 -1.2162 -1.0341
 2310SOL    HW218393   1.985   2.261   1.250 -1.6171  0.8158  0.1639
 2311SOL     OW18394   2.888   2.734  17.034 -0.4385  0.1626 -0.0447
 2311SOL    HW118395   2.975   2.695  17.027 -0.9528 -1.2532  1.5499
 2311SOL    HW218396   2.924   2.822  17.046 -0.5920 -0.0563  1.8620
 2312SOL     OW18397   0.967   3.426  13.191 -0.4281 -0.1010 -0.2243
 2312SOL    HW118398   0.964   3.522  13.191 -1.6530 -0.1347 -0.1562
 2312SOL    HW218399   1.048   3.410  13.143 -0.1783 -0.1254  0.2110
 2313SOL     OW18400   2.032   4.439  11.423  0.2525  0.9427 -0.0492
 2313SOL    HW118401   1.974   4.485  11.363 -1.9167 -1.0696  0.5003
 2313SOL    HW218402   1.987   4.447  11.507  0.7792  0.3517  0.2959
 2314SOL     OW18403   2.467   3.811   6.342  0.2964 -0.1407 -1.0367
 2314SOL    HW118404   2.477   3.842   6.252  1.3077  0.6228 -0.6616
 2314SOL    HW218405   2.492   3.885   6.397  0.0306 -1.2670  0.6123
 2315SOL     OW18406   2.518   4.354   4.946 -0.5091 -0.2177  0.2660
 2315SOL    HW118407   2.611   4.332   4.948 -0.2567  0.7390 -1.3086
 2315SOL    HW218408   2.473   4.278   4.909 -1.4636  0.0133  0.9522
 2316SOL     OW18409   3.102   3.180   2.950  0.8899 -0.5510 -0.1556
 2316SOL    HW118410   3.009   3.199   2.937  1.0465  0.3001 -0.0495
 2316SOL    HW218411   3.137   3.263   2.916  0.3265 -0.9702 -1.7792
 2317SOL     OW18412   4.258   2.615   6.391  0.4834  0.1919  0.0593
 2317SOL    HW118413   4.238   2.524   6.413 -0.5980  0.7158  1.2287
 2317SOL    HW218414   4.330   2.633   6.452  0.5156 -0.7785  0.3065
 2318SOL     OW18415   3.751   0.745   6.577  0.3562  0.6156 -0.0211
 2318SOL    HW118416   3.661   0.754   6.611  0.4914  2.6150 -0.2019
 2318SOL    HW218417   3.799   0.725   6.657 -0.8506 -0.9293  0.3257
 2319SOL     OW18418   2.085   2.653  13.252  0.2740 -0.1103  0.4607
 2319SOL    HW118419   2.041   2.738  13.258  1.0977  0.3580 -0.2379
 2319SOL    HW218420   2.143   2.655  13.176  0.4778 -1.1269  0.5897
 2320SOL     OW18421   0.523   2.400   8.411  0.1124 -0.1542 -0.2975
 2320SOL    HW118422   0.460   2.359   8.470 -0.5116 -2.2023 -2.4115
 2320SOL    HW218423   0.487   2.489   8.405 -0.1589 -0.0964  2.1085
 2321SOL     OW18424   3.725   1.331   2.643 -0.0456 -0.6424 -0.6890
 2321SOL    HW118425   3.665   1.370   2.580 -0.9428 -2.0899 -0.7171
 2321SOL    HW218426   3.716   1.381   2.723 -0.1836 -1.2032 -0.3533
 2322SOL     OW18427   2.803   1.790   2.367  0.1192 -0.1914  0.5772
 2322SOL    HW118428   2.732   1.726   2.360 -1.5680  1.7128  0.4688
 2322SOL    HW218429   2.761   1.847   2.432  0.6147  0.2338  0.5255
 2323SOL     OW18430   3.168   3.636   2.597  0.0757 -0.1046 -0.6517
 2323SOL    HW118431   3.225   3.645   2.521 -0.3290  2.3930 -0.6412
 2323SOL    HW218432   3.223   3.657   2.672  1.5839 -0.4168 -1.6683
 2324SOL     OW18433   1.253   0.026   1.165 -0.2565 -0.3874  0.0804
 2324SOL    HW118434   1.183   4.715   1.222 -3.3852  0.5824 -3.1807
 2324SOL    HW218435   1.332   4.706   1.197 -0.3795 -0.5522  0.1611
 2325SOL     OW18436   1.310   1.064   8.364  0.3168 -0.2617  0.0489
 2325SOL    HW118437   1.368   1.032   8.295  2.3352  0.2407  1.5410
 2325SOL    HW218438   1.378   1.107   8.415  0.0546  0.0452  0.1457
 2326SOL     OW18439   4.563   0.969   1.745 -0.4352  0.8640  0.5676
 2326SOL    HW118440   4.644   0.931   1.779 -0.8622 -0.4676  0.0941
 2326SOL    HW218441   4.543   0.918   1.667 -0.5062  0.3421  0.9248
 2327SOL     OW18442   3.755   2.677   2.878  0.2710 -0.1220  0.1582
 2327SOL    HW118443   3.802   2.606   2.835 -0.1147 -0.8856  0.9735
 2327SOL    HW218444   3.701   2.632   2.944  1.6680 -0.3659  1.1357
 2328SOL     OW18445   3.318   3.321   9.189  0.1401 -0.3760 -0.7117
 2328SOL    HW118446   3.226   3.319   9.164 -0.1274  1.3134  0.1257
 2328SOL    HW218447   3.356   3.311   9.102  0.7340  2.6319 -0.8001
 2329SOL     OW18448   3.144   2.896  17.347 -0.0251  0.1547 -0.4004
 2329SOL    HW118449   3.191   2.812  17.351 -0.9526 -0.3662 -0.5166
 2329SOL    HW218450   3.207   2.952  17.301 -0.2289 -0.2103 -1.1210
 2330SOL     OW18451   2.906   1.366   8.597  0.1986 -0.3070  0.4534
 2330SOL    HW118452   2.939   1.423   8.667 -1.7109  0.4285  0.7755
 2330SOL    HW218453   2.984   1.314   8.579  1.2814  1.6093 -0.4061
 2331SOL     OW18454   3.094   2.971   3.420  0.6989 -0.5704  0.6906
 2331SOL    HW118455   3.172   2.974   3.364  0.1789 -2.3960 -0.1397
 2331SOL    HW218456   3.040   2.915   3.364 -1.2870 -1.9103  3.9843
 2332SOL     OW18457   2.561   0.240   7.143 -0.0637  0.1697  0.4023
 2332SOL    HW118458   2.562   0.263   7.051 -0.2373  2.0882  0.8822
 2332SOL    HW218459   2.515   0.156   7.134 -0.5027  0.3855  0.6696
 2333SOL     OW18460   3.491   0.360   1.512 -0.2815 -0.2040  0.6752
 2333SOL    HW118461   3.455   0.434   1.561 -0.8465 -1.5386  2.2651
 2333SOL    HW218462   3.564   0.400   1.465 -0.7885 -0.6722 -0.5148
 2334SOL     OW18463   2.202   1.822   6.335  0.0675 -0.2033 -0.6881
 2334SOL    HW118464   2.244   1.901   6.371  2.1166 -1.0824 -1.1127
 2334SOL    HW218465   2.216   1.762   6.408  0.1914 -0.0341 -0.5704
 2335SOL     OW18466   1.186   1.784   6.148 -0.0314 -0.6037 -0.3518
 2335SOL    HW118467   1.108   1.733   6.128 -1.8002  2.0633 -0.3082
 2335SOL    HW218468   1.170   1.815   6.237 -0.3730 -2.7971  0.3321
 2336SOL     OW18469   3.679   2.142   4.536 -0.4450 -0.1291 -0.3144
 2336SOL    HW118470   3.721   2.196   4.468  0.2203 -1.0344 -0.6266
 2336SOL    HW218471   3.724   2.059   4.522  0.7324  0.0888  2.1547
 2337SOL     OW18472   3.475   4.090   8.448 -0.1023 -0.4048  0.1695
 2337SOL    HW118473   3.415   4.153   8.488  0.3816  0.3109 -0.2322
 2337SOL    HW218474   3.558   4.101   8.496  1.0682  0.5121 -2.0818
 2338SOL     OW18475   1.228   3.539   1.063  0.7100  0.4114 -0.1782
 2338SOL    HW118476   1.148   3.493   1.041  0.5739  1.5618 -2.0750
 2338SOL    HW218477   1.232   3.606   0.994  0.3737 -0.6425 -1.2072
 2339SOL     OW18478   4.294   0.565   3.341 -0.0163  0.1346  0.2597
 2339SOL    HW118479   4.342   0.595   3.265  0.1049  0.8618  0.6247
 2339SOL    HW218480   4.249   0.486   3.311  0.1392  0.2224 -0.2002
 2340SOL     OW18481   1.857   2.088   4.706 -0.4128 -0.0656  0.2191
 2340SOL    HW118482   1.865   2.182   4.686 -1.1044 -0.1777 -0.5939
 2340SOL    HW218483   1.915   2.089   4.782  0.0523 -0.8326 -0.1311
 2341SOL     OW18484   0.306   1.308   6.467 -0.0376  0.1222 -0.1811
 2341SOL    HW118485   0.248   1.233   6.455  0.1717 -0.1147  0.2799
 2341SOL    HW218486   0.329   1.293   6.558 -1.1962  2.9143  0.5767
 2342SOL     OW18487   1.537   0.488   8.561  0.4921  0.3268  0.3192
 2342SOL    HW118488   1.475   0.425   8.524  2.4948 -0.0780 -2.3558
 2342SOL    HW218489   1.521   0.568   8.511 -0.2301 -0.2334 -0.3515
 2343SOL     OW18490   0.422   0.128   8.973  0.5799  0.4200  0.3598
 2343SOL    HW118491   0.440   0.219   8.949 -0.0317  0.1260 -1.1678
 2343SOL    HW218492   0.462   0.130   9.060  2.5654  3.7100 -0.6219
 2344SOL     OW18493   2.500   2.448   4.592  0.3113 -0.7756 -0.4774
 2344SOL    HW118494   2.445   2.370   4.599 -0.7329 -0.0777 -0.8886
 2344SOL    HW218495   2.484   2.482   4.680 -3.0673  0.6063 -1.6109
 2345SOL     OW18496   3.491   3.977  14.211 -0.3255 -0.0364  0.0203
 2345SOL    HW118497   3.579   3.985  14.176 -0.5891 -0.2870 -0.7120
 2345SOL    HW218498   3.449   4.048  14.161 -1.3448 -1.5595 -1.3032
 2346SOL     OW18499   1.175   1.845   3.447 -0.4192  0.5795 -0.3768
 2346SOL    HW118500   1.128   1.868   3.528  0.1396 -2.2523  0.7511
 2346SOL    HW218501   1.148   1.927   3.407 -0.5208  0.3593 -0.7618
 2347SOL     OW18502   1.036   2.830   9.048 -0.4556 -0.0034 -0.5818
 2347SOL    HW118503   1.008   2.740   9.030  0.8796 -0.3965 -0.7168
 2347SOL    HW218504   0.970   2.869   9.105  1.5287  0.6152  1.3119
 2348SOL     OW18505   0.282   4.518   4.620  0.0029  1.0086  0.1184
 2348SOL    HW118506   0.303   4.544   4.530 -0.0273 -0.7902 -0.4076
 2348SOL    HW218507   0.284   4.598   4.672 -0.2333  1.7838 -1.0641
 2349SOL     OW18508   0.822   2.846  11.801 -0.4755  0.5623  0.0919
 2349SOL    HW118509   0.727   2.847  11.814 -0.6388 -0.8968 -1.0168
 2349SOL    HW218510   0.843   2.915  11.864  1.1101 -1.5076  1.7982
 2350SOL     OW18511   4.479   2.929  11.731 -0.8754  0.3447  0.2295
 2350SOL    HW118512   4.533   2.964  11.660 -0.3929 -1.0086 -0.0618
 2350SOL    HW218513   4.524   2.974  11.802 -0.7102 -0.4729  0.6403
 2351SOL     OW18514   2.913   1.597   6.462  0.0607  0.1924  0.3812
 2351SOL    HW118515   2.986   1.559   6.414 -1.0894 -0.4999 -0.8363
 2351SOL    HW218516   2.852   1.523   6.460 -0.5337  0.6382  1.9429
 2352SOL     OW18517   1.039   0.152  14.116 -0.5233 -0.4992  0.0713
 2352SOL    HW118518   1.125   0.181  14.088 -1.2635  0.4393 -1.2398
 2352SOL    HW218519   1.035   0.060  14.088  2.5004 -0.3142 -0.9599
 2353SOL     OW18520   1.978   4.299   3.325 -0.6411 -0.4205 -0.4635
 2353SOL    HW118521   1.958   4.298   3.231  2.2014  1.0384 -1.1022
 2353SOL    HW218522   2.066   4.263   3.326  0.0341  1.1205 -2.9630
 2354SOL     OW18523   2.747   3.203   7.625  0.2971  0.3038 -0.2393
 2354SOL    HW118524   2.697   3.275   7.586  0.1687 -0.4899 -1.5511
 2354SOL    HW218525   2.832   3.220   7.584 -0.1199  2.4740 -0.2041
 2355SOL     OW18526   2.593   0.815   3.685 -0.1400  0.4849  0.6399
 2355SOL    HW118527   2.682   0.781   3.698  0.2480  1.2307 -0.0751
 2355SOL    HW218528   2.547   0.767   3.754  1.1024 -0.0692  1.0888
 2356SOL     OW18529   4.709   1.891   3.180  0.7152  0.0976  0.2646
 2356SOL    HW118530   4.662   1.866   3.260  0.9201  0.9103  0.6372
 2356SOL    HW218531   0.055   1.825   3.175  1.2268  0.6304  0.3139
 2357SOL     OW18532   4.635   3.872   6.006 -0.1440  0.3700 -0.5128
 2357SOL    HW118533   4.670   3.885   5.918  0.4151 -2.7388 -0.7334
 2357SOL    HW218534   4.696   3.928   6.055 -1.5639  0.8447  0.7427
 2358SOL     OW18535   0.610   3.041   6.698 -0.1800  0.1843  0.6678
 2358SOL    HW118536   0.617   2.948   6.679 -1.7139 -0.0489  1.2057
 2358SOL    HW218537   0.695   3.048   6.741 -1.0625 -0.6429  2.5348
 2359SOL     OW18538   3.950   2.106   6.918 -0.1710  0.0972 -0.6274
 2359SOL    HW118539   3.969   2.200   6.920 -0.7578  0.1656  1.2328
 2359SOL    HW218540   3.979   2.083   6.829  1.3693  0.2947 -0.1707
 2360SOL     OW18541   3.089   0.005   4.134  0.2021 -0.7623 -0.3234
 2360SOL    HW118542   3.151   4.660   4.161 -0.4264 -1.1474  0.1581
 2360SOL    HW218543   3.008   4.682   4.156  0.1599  0.0596  1.2406
 2361SOL     OW18544   2.118   1.988   6.048  0.1660 -0.1358 -0.3886
 2361SOL    HW118545   2.173   1.910   6.051  0.1206 -0.1717 -0.4696
 2361SOL    HW218546   2.032   1.955   6.074  0.4481 -2.0864 -1.8994
 2362SOL     OW18547   2.699   2.935   4.093  0.1786 -0.1395 -0.5143
 2362SOL    HW118548   2.656   2.852   4.073 -0.9861  0.5921 -1.0711
 2362SOL    HW218549   2.638   2.996   4.050 -0.9586 -0.2839  0.8739
 2363SOL     OW18550   3.217   3.736   8.217  0.1601 -0.4023 -0.5406
 2363SOL    HW118551   3.190   3.828   8.223 -0.3219 -0.6630  1.2466
 2363SOL    HW218552   3.311   3.743   8.230  0.2087 -1.6897 -0.1921
 2364SOL     OW18553   2.675   3.594   4.444  1.1156  0.4888 -0.5363
 2364SOL    HW118554   2.746   3.560   4.389 -0.1998 -1.1042 -1.2289
 2364SOL    HW218555   2.704   3.563   4.530  0.3439 -0.1555 -0.5186
 2365SOL     OW18556   2.066   0.642  10.587  0.0242 -0.9318 -0.5988
 2365SOL    HW118557   2.047   0.654  10.493  3.1349 -0.2109 -1.1139
 2365SOL    HW218558   2.069   0.734  10.613  0.3147 -1.7434  2.2243
 2366SOL     OW18559   1.486   0.677   6.026  0.0433 -0.4312 -0.7816
 2366SOL    HW118560   1.421   0.720   6.081 -0.1276 -0.5681 -0.8767
 2366SOL    HW218561   1.536   0.753   5.996 -1.1591  0.8437  0.4866
 2367SOL     OW18562   4.069   4.441   5.299 -0.5655 -0.1677 -0.3810
 2367SOL    HW118563   3.986   4.444   5.251 -0.2717 -0.8221 -0.9306
 2367SOL    HW218564   4.066   4.533   5.325 -0.8868 -0.0819 -0.7115
 2368SOL     OW18565   1.593   3.291   5.061 -0.6341 -0.0076  0.4258
 2368SOL    HW118566   1.599   3.362   5.125  1.5145 -2.9827  3.5363
 2368SOL    HW218567   1.587   3.334   4.976 -1.4804  2.4760  1.7404
 2369SOL     OW18568   3.540   2.814   0.251  0.1984 -0.2763  0.1490
 2369SOL    HW118569   3.595   2.785   0.179 -0.5164  0.7267 -0.8119
 2369SOL    HW218570   3.479   2.863   0.195  0.4814  1.7494  1.6082
 2370SOL     OW18571   1.170   4.546   6.217 -0.2310  0.3218  0.2565
 2370SOL    HW118572   1.263   4.534   6.232 -0.4580 -0.6570  0.8752
 2370SOL    HW218573   1.177   4.565   6.123 -1.1084  0.5209  0.2331
 2371SOL     OW18574   1.275   4.406   8.509  0.6221  0.0556 -0.1663
 2371SOL    HW118575   1.318   4.395   8.424 -1.7506  0.5167 -1.4084
 2371SOL    HW218576   1.319   4.335   8.556 -4.9517 -4.6178 -2.1492
 2372SOL     OW18577   3.113   2.871   4.783 -0.4740 -0.1433  0.2658
 2372SOL    HW118578   3.079   2.960   4.770 -0.2644 -0.1107 -0.0380
 2372SOL    HW218579   3.035   2.818   4.805  1.0946 -2.9310 -0.8907
 2373SOL     OW18580   2.205   2.737   7.906 -0.2801  0.3342 -0.1951
 2373SOL    HW118581   2.259   2.814   7.924  1.9366 -1.5087  1.0206
 2373SOL    HW218582   2.129   2.771   7.859 -1.8227  0.4200  2.3562
 2374SOL     OW18583   0.425   0.133   7.083  0.3189  0.5048 -0.0086
 2374SOL    HW118584   0.500   0.192   7.075  1.8793 -0.9344  4.0834
 2374SOL    HW218585   0.414   0.116   6.990 -2.3232 -1.6119  0.7031
 2375SOL     OW18586   4.630   4.168  10.840  0.1528 -0.6443  0.1790
 2375SOL    HW118587   4.549   4.182  10.792  0.9929 -1.5971 -1.5271
 2375SOL    HW218588   4.676   4.248  10.814 -0.8230  1.0841  3.8371
 2376SOL     OW18589   0.360   3.847   9.433  0.4551  0.0192 -0.3469
 2376SOL    HW118590   0.425   3.796   9.482  0.8818  1.2310  0.3421
 2376SOL    HW218591   0.285   3.790   9.417 -0.2474  0.1071  2.7201
 2377SOL     OW18592   4.002   2.844   5.161  0.6015  0.0974  0.6975
 2377SOL    HW118593   3.942   2.769   5.156  0.6715  0.2323 -2.6432
 2377SOL    HW218594   4.078   2.810   5.209 -0.0155 -3.2320 -0.6498
 2378SOL     OW18595   2.396   1.321  13.949 -0.1589 -0.4624  0.5413
 2378SOL    HW118596   2.314   1.317  13.999 -0.4766  0.2712  0.0874
 2378SOL    HW218597   2.362   1.359  13.867  1.8121 -0.6964 -0.3792
 2379SOL     OW18598   1.780   2.217  13.338  0.4415 -0.0472  0.3868
 2379SOL    HW118599   1.790   2.178  13.425 -0.3048  0.1314  0.5540
 2379SOL    HW218600   1.829   2.298  13.346 -0.0759  0.2369  0.6779
 2380SOL     OW18601   0.701   0.660   8.756 -0.0795  0.3794 -0.4518
 2380SOL    HW118602   0.748   0.688   8.834  1.7323  1.6523 -1.9886
 2380SOL    HW218603   0.766   0.618   8.699 -0.1971 -2.4359  1.4936
 2381SOL     OW18604   1.869   3.695  16.211  0.1622 -0.0080 -0.1716
 2381SOL    HW118605   1.841   3.651  16.131 -0.6233 -1.4041  0.8653
 2381SOL    HW218606   1.924   3.762  16.171  2.0153 -0.5261  1.5129
 2382SOL     OW18607   1.269   3.808   4.850  0.2491  0.7326  0.4907
 2382SOL    HW118608   1.248   3.899   4.828 -0.0304  0.5079 -0.1931
 2382SOL    HW218609   1.181   3.769   4.844  0.5865  0.0148  0.0874
 2383SOL     OW18610   2.245   0.123   9.742 -0.1787 -0.0422  0.0553
 2383SOL    HW118611   2.257   0.049   9.802  1.6888  0.8823  0.8337
 2383SOL    HW218612   2.168   0.169   9.774 -1.3721 -1.0867 -1.3171
 2384SOL     OW18613   4.114   3.693   1.624  0.2482  0.2398 -0.2049
 2384SOL    HW118614   4.143   3.603   1.611 -0.8477  0.0550 -1.3321
 2384SOL    HW218615   4.099   3.716   1.532 -0.4838 -0.1184 -0.1717
 2385SOL     OW18616   1.138   4.153   7.590  0.1509 -0.6220 -0.2102
 2385SOL    HW118617   1.112   4.103   7.513 -2.7827  0.2662  0.2078
 2385SOL    HW218618   1.225   4.113   7.592  1.0824  1.5895  2.5609
 2386SOL     OW18619   2.897   2.753   0.650 -0.1425 -0.3549 -0.0657
 2386SOL    HW118620   2.869   2.665   0.626 -0.0668 -0.4968  0.3696
 2386SOL    HW218621   2.824   2.801   0.611 -1.0099 -1.3502  0.3332
 2387SOL     OW18622   1.511   1.826   7.164 -0.5567 -0.2335  0.9262
 2387SOL    HW118623   1.555   1.893   7.111  2.1164 -2.4687  0.3504
 2387SOL    HW218624   1.463   1.881   7.226  2.1831  1.0682  1.8955
 2388SOL     OW18625   1.924   3.202   2.846  0.4673  0.1684  0.5601
 2388SOL    HW118626   1.932   3.288   2.805 -0.8098  0.1001  0.1876
 2388SOL    HW218627   1.920   3.233   2.937 -1.8073 -0.8761  0.8073
 2389SOL     OW18628   1.643   3.489  11.541 -0.1942 -0.0719  0.6464
 2389SOL    HW118629   1.610   3.454  11.623 -0.1184 -2.4801 -0.3695
 2389SOL    HW218630   1.727   3.521  11.573  0.2376 -0.4207 -0.1338
 2390SOL     OW18631   0.280   3.031  14.891  0.0032  0.0180  0.1954
 2390SOL    HW118632   0.193   2.993  14.884 -0.0437  0.8378 -3.2509
 2390SOL    HW218633   0.267   3.124  14.872 -0.4444  0.2558  1.6205
 2391SOL     OW18634   1.685   0.734  15.983 -0.3235  0.0033  0.0727
 2391SOL    HW118635   1.596   0.768  15.971 -0.4764 -0.8145 -1.2233
 2391SOL    HW218636   1.668   0.669  16.052  2.3081 -2.3533 -1.4773
 2392SOL     OW18637   0.914   3.717  15.140  0.6801 -0.3340  0.1734
 2392SOL    HW118638   0.850   3.784  15.118  0.8979  0.0483  0.7043
 2392SOL    HW218639   0.952   3.748  15.222  0.1523 -2.2525  1.1402
 2393SOL     OW18640   1.264   1.038   0.366 -0.2361 -0.3558 -0.6162
 2393SOL    HW118641   1.228   0.959   0.326 -0.5561  0.6435 -2.3259
 2393SOL    HW218642   1.323   0.995   0.428 -0.7935  1.8131  1.4283
 2394SOL     OW18643   3.809   1.561  13.040 -0.0708 -0.1162  0.7315
 2394SOL    HW118644   3.770   1.475  13.057  0.0686 -0.8047 -2.4197
 2394SOL    HW218645   3.744   1.616  13.084 -2.7539 -2.0466 -0.8431
 2395SOL     OW18646   2.517   2.782  11.321  0.4843  0.3450 -0.6035
 2395SOL    HW118647   2.588   2.839  11.348  1.4353 -0.4877 -1.3331
 2395SOL    HW218648   2.441   2.812  11.372  2.5699  1.9960  1.5147
 2396SOL     OW18649   4.453   0.890   3.629  0.7313 -0.1291 -0.4551
 2396SOL    HW118650   4.360   0.900   3.608  0.2372  0.3510  1.9891
 2396SOL    HW218651   4.464   0.817   3.690 -0.8217 -1.8773 -2.2556
 2397SOL     OW18652   0.627   1.213  13.624 -0.1141 -0.0202 -0.3937
 2397SOL    HW118653   0.716   1.231  13.653  0.3324 -0.2356 -1.6227
 2397SOL    HW218654   0.603   1.285  13.565 -1.7397  3.2635  4.3328
 2398SOL     OW18655   1.649   3.726   9.015  0.5026 -0.0047 -0.2686
 2398SOL    HW118656   1.677   3.643   8.975 -0.6404 -1.1295  1.2553
 2398SOL    HW218657   1.734   3.767   9.031 -0.0516  0.4833  1.4679
 2399SOL     OW18658   0.220   4.717   7.415  0.4773  0.4366 -0.4250
 2399SOL    HW118659   0.274   4.638   7.418 -2.3595 -1.5113  0.3626
 2399SOL    HW218660   0.140   4.693   7.462  0.1954  0.3031 -0.9723
 2400SOL     OW18661   2.230   4.250   6.218 -0.2562  0.9140 -0.2415
 2400SOL    HW118662   2.171   4.176   6.202  2.7134 -1.2904 -1.2036
 2400SOL    HW218663   2.257   4.220   6.305 -0.9196  0.2661 -0.2614
 2401SOL     OW18664   0.115   2.635   3.183  0.2553  0.4299  0.9428
 2401SOL    HW118665   0.118   2.667   3.274 -1.3153 -0.1358  1.1929
 2401SOL    HW218666   0.117   2.540   3.194  2.2511  0.2923 -0.6536
 2402SOL     OW18667   3.524   1.778   8.303  0.3381 -0.1147 -0.1343
 2402SOL    HW118668   3.453   1.842   8.299  0.4276  0.0487  1.1086
 2402SOL    HW218669   3.548   1.792   8.394 -0.5698  0.8321 -0.0479
 2403SOL     OW18670   3.781   0.594   0.902 -0.0038  0.4111 -0.0077
 2403SOL    HW118671   3.762   0.504   0.927  1.0820  0.4041  0.7873
 2403SOL    HW218672   3.748   0.588   0.813  0.2588  0.6628 -0.1214
 2404SOL     OW18673   3.249   3.490   5.944  0.1428  0.1282  0.2014
 2404SOL    HW118674   3.237   3.546   5.867  1.1182  0.2053  0.1014
 2404SOL    HW218675   3.221   3.546   6.016  1.0711  0.9122 -0.0405
 2405SOL     OW18676   1.379   1.890  10.299 -0.3252 -0.6950 -0.4681
 2405SOL    HW118677   1.399   1.803  10.332  1.8063 -0.4116 -1.0321
 2405SOL    HW218678   1.465   1.924  10.275 -0.6915  1.7461  1.6484
 2406SOL     OW18679   4.207   2.907   1.445 -0.2829  0.2064 -0.3204
 2406SOL    HW118680   4.247   2.843   1.386 -1.0971 -0.3049 -0.3213
 2406SOL    HW218681   4.153   2.951   1.379 -2.7189 -0.5069  1.1826
 2407SOL     OW18682   0.863   1.654  15.428  0.1885 -0.9350 -0.1047
 2407SOL    HW118683   0.935   1.633  15.368 -1.7740 -2.9930 -1.7209
 2407SOL    HW218684   0.786   1.658  15.372  1.3908  1.2140 -1.5825
 2408SOL     OW18685   2.042   1.900   7.075  0.5619 -0.3821 -0.5169
 2408SOL    HW118686   2.129   1.938   7.083  0.1594  0.4755 -0.2102
 2408SOL    HW218687   2.076   1.829   7.020  2.8686 -0.6748  1.2863
 2409SOL     OW18688   4.105   1.285   5.797 -0.2798  0.3767  0.3524
 2409SOL    HW118689   4.157   1.271   5.718  0.5222 -0.9346  1.1309
 2409SOL    HW218690   4.148   1.354   5.847  1.1359  0.7476 -1.3822
 2410SOL     OW18691   2.067   2.327   7.905 -0.1765  0.3542  0.4768
 2410SOL    HW118692   2.075   2.295   7.815  0.2681 -1.4155  1.1374
 2410SOL    HW218693   2.009   2.398   7.877  2.3918  1.4870 -1.9930
 2411SOL     OW18694   2.841   0.168  11.951  0.5000  0.1639 -0.3748
 2411SOL    HW118695   2.850   0.237  11.886  2.6984  0.3815  0.1621
 2411SOL    HW218696   2.759   0.185  11.997  0.1511  0.4081 -1.0977
 2412SOL     OW18697   0.473   0.393   7.817  0.2791 -0.2321  0.1026
 2412SOL    HW118698   0.569   0.390   7.818  0.3319  1.0536 -0.3441
 2412SOL    HW218699   0.458   0.314   7.868  0.3796 -0.3290 -0.0183
 2413SOL     OW18700   4.689   4.448   4.582  0.8846  0.3298  0.6005
 2413SOL    HW118701   4.675   4.543   4.578 -1.3715 -0.0414  0.1305
 2413SOL    HW218702   4.616   4.417   4.636  2.8377  0.2012  3.1993
 2414SOL     OW18703   0.227   4.564   9.356  1.2201  0.3831  0.0728
 2414SOL    HW118704   0.179   4.583   9.437  1.9466  0.3923  0.5034
 2414SOL    HW218705   0.220   4.654   9.324 -0.3688  0.2945  0.1343
 2415SOL     OW18706   4.175   0.082   4.537  0.1475  0.4990 -0.0060
 2415SOL    HW118707   4.244   0.121   4.591  0.4985 -0.9178  0.5905
 2415SOL    HW218708   4.184   0.132   4.457 -0.6271 -1.1538 -1.1252
 2416SOL     OW18709   0.594   1.999  16.551 -0.1041  0.2679  0.4040
 2416SOL    HW118710   0.534   2.071  16.573  0.1699  0.9588 -1.1520
 2416SOL    HW218711   0.583   1.988  16.457 -0.9753  1.1890  0.3938
 2417SOL     OW18712   1.342   3.862   0.809 -0.1043  0.3496 -0.2219
 2417SOL    HW118713   1.430   3.835   0.781 -0.7243 -1.5644 -0.3224
 2417SOL    HW218714   1.364   3.953   0.829  0.0282  0.4342 -0.7636
 2418SOL     OW18715   4.026   2.522   4.775 -0.1196 -0.0943  0.5622
 2418SOL    HW118716   3.959   2.458   4.798 -1.0354  0.3801 -0.7853
 2418SOL    HW218717   4.055   2.538   4.865 -0.1526 -0.3105  0.6103
 2419SOL     OW18718   0.742   1.629   9.301  0.2457  0.4272 -0.6252
 2419SOL    HW118719   0.782   1.716   9.310 -2.6080  1.7605 -0.6133
 2419SOL    HW218720   0.789   1.575   9.364 -1.0355 -0.0072 -0.0430
 2420SOL     OW18721   3.335   4.612   2.684  0.0808  0.0066  0.1449
 2420SOL    HW118722   3.272   4.558   2.731 -0.6480 -0.2926 -1.1679
 2420SOL    HW218723   3.286   4.635   2.605 -1.5074 -0.3224  1.0484
 2421SOL     OW18724   1.063   0.481  15.979 -0.4596 -0.4101 -0.3190
 2421SOL    HW118725   1.075   0.544  15.908 -0.3649  0.3773  0.3951
 2421SOL    HW218726   1.030   0.399  15.941 -0.1592 -0.4696 -0.4565
 2422SOL     OW18727   1.841   3.085   7.047  0.5578  0.5905  0.1496
 2422SOL    HW118728   1.748   3.098   7.024  0.4487 -1.5468 -0.5624
 2422SOL    HW218729   1.866   3.019   6.984 -0.3432 -2.0206  2.5321
 2423SOL     OW18730   2.756   3.768  13.284  0.2975 -0.6177  0.2278
 2423SOL    HW118731   2.839   3.745  13.325  0.7837 -0.0659 -0.4477
 2423SOL    HW218732   2.776   3.786  13.193  1.0206 -2.2772  0.0768
 2424SOL     OW18733   3.849   3.916   8.253 -0.7737  0.5758  0.1938
 2424SOL    HW118734   3.849   3.957   8.167  3.5369  2.9491  1.3057
 2424SOL    HW218735   3.824   3.995   8.300 -0.4857  1.0305 -0.4330
 2425SOL     OW18736   1.122   1.251   3.317 -0.4763  0.2560  0.3984
 2425SOL    HW118737   1.072   1.171   3.332  0.0487 -0.1196  0.1461
 2425SOL    HW218738   1.116   1.251   3.222 -0.8225 -2.9190  0.4170
 2426SOL     OW18739   1.135   1.301   3.986  0.0745  0.6462 -0.6369
 2426SOL    HW118740   1.091   1.368   4.038  0.7125  0.1399  0.5625
 2426SOL    HW218741   1.091   1.220   4.009  0.5700  0.7283  0.5793
 2427SOL     OW18742   1.224   3.452   9.165 -0.2529  0.9056  0.7732
 2427SOL    HW118743   1.223   3.436   9.259  0.9571  0.2588  0.6684
 2427SOL    HW218744   1.186   3.371   9.132  1.0804 -0.0984  1.7173
 2428SOL     OW18745   2.070   1.823  11.732  0.1677  0.6099  0.0317
 2428SOL    HW118746   2.017   1.815  11.812  0.5066 -0.2855  0.1608
 2428SOL    HW218747   2.010   1.769  11.680  1.2583 -1.6228  1.0786
 2429SOL     OW18748   4.518   2.393   9.405 -0.0018 -0.0532  0.1851
 2429SOL    HW118749   4.608   2.366   9.389 -0.9115 -3.9437  1.7852
 2429SOL    HW218750   4.481   2.311   9.435 -0.8067  0.5128  0.7332
 2430SOL     OW18751   4.238   1.350   7.541  0.0245  0.0171  0.1469
 2430SOL    HW118752   4.301   1.280   7.522 -0.6746 -0.1327 -1.6004
 2430SOL    HW218753   4.238   1.348   7.637 -1.8454 -0.3024  0.1368
 2431SOL     OW18754   1.717   2.739   4.802 -0.1057  0.1503  0.5409
 2431SOL    HW118755   1.775   2.775   4.735 -0.7863 -0.7809 -0.5370
 2431SOL    HW218756   1.669   2.672   4.754  1.7624  0.9883 -2.4920
 2432SOL     OW18757   4.275   4.144   2.301  0.5335 -0.3454 -0.5124
 2432SOL    HW118758   4.251   4.055   2.276 -1.3158 -0.3493  1.2628
 2432SOL    HW218759   4.202   4.200   2.276  0.7539 -0.4279 -1.3396
 2433SOL     OW18760   4.054   1.918   4.913 -0.0501  0.4621  0.1147
 2433SOL    HW118761   4.004   1.998   4.928  0.9526  1.5436 -2.2994
 2433SOL    HW218762   4.098   1.923   4.828  0.8433  2.6373  0.7055
 2434SOL     OW18763   0.067   0.266   3.211  0.4025 -0.0854 -0.1228
 2434SOL    HW118764   0.083   0.258   3.117 -1.2963 -1.7568 -0.2670
 2434SOL    HW218765   0.151   0.285   3.251  0.2791  0.2206 -0.0031
 2435SOL     OW18766   0.862   3.329   6.143  0.0403 -0.3418 -0.3107
 2435SOL    HW118767   0.785   3.364   6.099 -1.5730 -1.2941  1.7707
 2435SOL    HW218768   0.845   3.236   6.129  0.2264 -0.5599  0.8927
 2436SOL     OW18769   1.301   2.207   8.243 -0.1598 -0.0515 -0.2983
 2436SOL    HW118770   1.228   2.202   8.305  2.8822 -1.2313  3.2485
 2436SOL    HW218771   1.353   2.130   8.265 -0.5014 -0.3945 -0.7042
 2437SOL     OW18772   2.214   0.757   7.851 -0.5307 -0.5426  0.1759
 2437SOL    HW118773   2.122   0.775   7.830  0.0095  2.3053  0.2611
 2437SOL    HW218774   2.249   0.846   7.851 -0.7629 -0.4517 -0.5036
 2438SOL     OW18775   0.213   1.726  15.532  0.4318 -0.0863 -0.7444
 2438SOL    HW118776   0.187   1.817  15.518  0.1979  0.0472  0.5965
 2438SOL    HW218777   0.150   1.694  15.596  1.0040  0.0102 -0.1406
 2439SOL     OW18778   2.188   3.576   2.172 -0.3840  1.1217 -0.1144
 2439SOL    HW118779   2.206   3.546   2.261  0.8139 -0.3112 -0.8266
 2439SOL    HW218780   2.168   3.491   2.131  1.9983  0.8835 -0.7862
 2440SOL     OW18781   2.381   0.835   4.403 -0.1307 -0.0742 -0.2110
 2440SOL    HW118782   2.417   0.866   4.320  3.0070 -0.8257  0.8564
 2440SOL    HW218783   2.457   0.848   4.460  1.5712 -0.9693 -2.2703
 2441SOL     OW18784   3.136   2.017   4.982 -0.2330 -0.3388 -0.2868
 2441SOL    HW118785   3.224   1.984   5.002  0.0682 -0.0021 -1.0527
 2441SOL    HW218786   3.150   2.111   4.966 -0.6767 -0.1978  0.1541
 2442SOL     OW18787   3.128   1.480   1.461  0.2149  0.7521  0.5827
 2442SOL    HW118788   3.063   1.551   1.463 -1.0048 -0.3367 -0.5702
 2442SOL    HW218789   3.199   1.516   1.409  2.0778 -0.7644  2.0884
 2443SOL     OW18790   0.696   2.027   5.050  0.4030 -0.3997  0.2251
 2443SOL    HW118791   0.721   2.007   4.960  2.2048 -0.3610  0.7108
 2443SOL    HW218792   0.774   2.064   5.092 -0.9089  2.6403 -0.0623
 2444SOL     OW18793   1.950   1.841   1.575  0.7874  0.0185 -0.8583
 2444SOL    HW118794   1.900   1.911   1.615  0.3132 -0.0940 -1.2509
 2444SOL    HW218795   1.916   1.851   1.486 -0.4048  1.3944 -0.2393
 2445SOL     OW18796   3.720   1.367   6.023 -0.2042 -0.5895 -0.5849
 2445SOL    HW118797   3.639   1.378   5.973  0.4655  1.6700 -1.1650
 2445SOL    HW218798   3.697   1.311   6.097 -0.2543 -0.2536 -0.3453
 2446SOL     OW18799   4.630   0.197  10.403 -0.3916  0.5668 -0.6956
 2446SOL    HW118800   4.594   0.183  10.490  0.4179 -0.8918 -0.6013
 2446SOL    HW218801   4.541   0.209  10.368 -0.4033  0.1745 -0.7970
 2447SOL     OW18802   1.107   3.914   2.737  0.1299  0.4718  0.0172
 2447SOL    HW118803   1.036   3.858   2.703  0.5632  0.0161 -0.1355
 2447SOL    HW218804   1.154   3.914   2.654  1.3674 -0.4998  0.7115
 2448SOL     OW18805   2.384   0.899   8.537 -0.3172 -0.3236  0.1266
 2448SOL    HW118806   2.462   0.911   8.591  0.3970 -1.8679 -0.5532
 2448SOL    HW218807   2.407   0.945   8.457 -1.0378  0.3589  0.3138
 2449SOL     OW18808   1.169   0.129   8.550 -0.0715 -0.1316  0.3171
 2449SOL    HW118809   1.260   0.134   8.520 -1.8367  0.8900 -4.7058
 2449SOL    HW218810   1.169   0.035   8.564  2.7016 -0.5549 -2.5539
 2450SOL     OW18811   1.958   2.449  13.362  0.5396 -0.1775 -0.6892
 2450SOL    HW118812   2.016   2.503  13.307  0.6990 -1.0170 -1.3559
 2450SOL    HW218813   2.025   2.399  13.408  0.7209  0.6102 -0.0996
 2451SOL     OW18814   3.287   3.322   6.971 -0.5207 -0.2090  0.2506
 2451SOL    HW118815   3.210   3.371   7.001 -1.2800 -0.8307 -0.6671
 2451SOL    HW218816   3.333   3.398   6.935 -0.5463 -0.7454 -0.9288
 2452SOL     OW18817   2.032   0.747   7.580 -0.2811  0.0972  0.1121
 2452SOL    HW118818   1.956   0.732   7.524 -0.1947 -1.5988  0.4624
 2452SOL    HW218819   2.068   0.828   7.544  1.0027  0.1665  1.5376
 2453SOL     OW18820   3.227   3.194   5.097  0.2920  0.1909  0.2758
 2453SOL    HW118821   3.248   3.228   5.010 -0.4070  0.2815  0.1397
 2453SOL    HW218822   3.178   3.268   5.131  0.9066  0.7985 -0.1708
 2454SOL     OW18823   1.891   2.121  14.200 -0.4267  0.1513 -0.0893
 2454SOL    HW118824   1.857   2.142  14.287 -1.8138 -2.2208 -0.0681
 2454SOL    HW218825   1.947   2.195  14.174 -0.7086  0.0128 -1.0788
 2455SOL     OW18826   3.279   3.581   4.132 -0.1107 -0.5554 -0.2229
 2455SOL    HW118827   3.309   3.495   4.104  1.9377  0.4156 -1.0723
 2455SOL    HW218828   3.344   3.606   4.199 -0.3931 -0.9905  0.2153
 2456SOL     OW18829   3.920   0.808   8.427  0.0503 -0.2548  0.0256
 2456SOL    HW118830   3.902   0.736   8.368 -0.6849  1.3894 -1.7752
 2456SOL    HW218831   3.832   0.809   8.464 -1.1370  0.5024 -2.8103
 2457SOL     OW18832   3.347   3.261  10.623 -0.7158  0.2102 -0.1757
 2457SOL    HW118833   3.306   3.177  10.640  1.6759 -0.7275  0.9832
 2457SOL    HW218834   3.389   3.276  10.708 -1.7858 -0.3266  0.4430
 2458SOL     OW18835   4.508   1.350   4.600 -0.0045 -0.7548  0.6679
 2458SOL    HW118836   4.439   1.403   4.641  0.2544  0.3251 -0.2868
 2458SOL    HW218837   4.464   1.324   4.519 -0.3418  0.9419  0.3012
 2459SOL     OW18838   1.981   0.218   2.899  0.1561 -0.1502  0.2070
 2459SOL    HW118839   2.030   0.144   2.934  1.9830  0.1062 -1.7740
 2459SOL    HW218840   2.021   0.295   2.941  0.6348 -1.4846  2.1932
 2460SOL     OW18841   3.418   3.054  10.857 -0.0807  0.8316  0.0586
 2460SOL    HW118842   3.497   3.108  10.858  0.8104 -0.4714  1.3688
 2460SOL    HW218843   3.454   2.986  10.800  0.2429  1.2340 -0.2114
 2461SOL     OW18844   3.291   1.212   5.368  0.2499  0.2630 -0.0478
 2461SOL    HW118845   3.373   1.192   5.322 -1.1531 -0.5106 -2.2265
 2461SOL    HW218846   3.316   1.260   5.447 -1.9313 -0.5834  1.1426
 2462SOL     OW18847   3.891   1.872  10.522  0.0032  0.6593 -0.4151
 2462SOL    HW118848   3.918   1.961  10.544 -2.3549  1.3939 -0.4994
 2462SOL    HW218849   3.839   1.834  10.593 -1.0087  2.2509 -0.3090
 2463SOL     OW18850   0.330   2.292   8.582  0.5028 -0.0787 -1.2665
 2463SOL    HW118851   0.272   2.367   8.589  1.1508  0.2797  0.3317
 2463SOL    HW218852   0.290   2.220   8.632 -1.2803 -0.4565 -3.2428
 2464SOL     OW18853   0.840   2.049   7.844  0.3559  0.4051  0.3075
 2464SOL    HW118854   0.813   1.961   7.818 -1.2404  1.1076 -0.3962
 2464SOL    HW218855   0.907   2.067   7.778 -1.9048  0.9673 -1.8162
 2465SOL     OW18856   0.471   2.409   8.813  0.7295  0.1302  0.8064
 2465SOL    HW118857   0.470   2.333   8.754  1.5441  0.0523  0.8958
 2465SOL    HW218858   0.553   2.403   8.861  0.3076  1.0993  1.6504
 2466SOL     OW18859   0.161   2.618   4.579  0.2296 -0.3892  0.3004
 2466SOL    HW118860   0.113   2.658   4.650  0.3241  1.1129 -0.4914
 2466SOL    HW218861   0.101   2.644   4.509 -1.5521 -0.6804  1.7087
 2467SOL     OW18862   0.077   0.421   5.158  0.0935 -0.3324 -0.0502
 2467SOL    HW118863   0.059   0.337   5.117  0.0991 -0.6415  0.5942
 2467SOL    HW218864   0.023   0.480   5.104  1.3752 -0.0731 -1.0518
 2468SOL     OW18865   0.809   4.643   1.507 -0.3316 -0.8042  0.3219
 2468SOL    HW118866   0.724   4.622   1.547 -0.6022 -0.3116  0.0122
 2468SOL    HW218867   0.863   4.646   1.586 -0.3422  0.2878  0.2975
 2469SOL     OW18868   4.696   1.119  13.666 -0.2598  0.1532 -0.0489
 2469SOL    HW118869   0.061   1.152  13.681  0.0977 -0.8660  0.1429
 2469SOL    HW218870   4.662   1.153  13.749  3.6404  0.5200  1.4012
 2470SOL     OW18871   3.224   1.653  13.208  0.7627  0.3917 -0.2584
 2470SOL    HW118872   3.221   1.645  13.304 -0.1860 -1.3917 -0.4486
 2470SOL    HW218873   3.228   1.562  13.180 -0.8684  0.4940 -0.8040
 2471SOL     OW18874   0.056   0.273   2.689 -0.0484 -0.0813  0.0785
 2471SOL    HW118875   0.115   0.349   2.688 -0.2112  0.0546  0.7717
 2471SOL    HW218876   0.055   0.242   2.779 -1.1809 -2.4277 -0.7422
 2472SOL     OW18877   4.460   3.347   7.875  0.2603  0.3911 -0.0377
 2472SOL    HW118878   4.480   3.408   7.805 -2.3234  0.2266 -0.9421
 2472SOL    HW218879   4.418   3.274   7.829  0.0671 -0.2268  1.1021
 2473SOL     OW18880   2.708   3.913   3.842  0.5020 -0.6245  0.1120
 2473SOL    HW118881   2.787   3.878   3.882 -0.7955 -2.9072  0.6505
 2473SOL    HW218882   2.731   3.934   3.751  0.6297  1.2654  0.5761
 2474SOL     OW18883   4.629   2.510   7.663  0.1187  0.1054  0.6863
 2474SOL    HW118884   4.545   2.522   7.618  0.6997  0.5918 -0.2794
 2474SOL    HW218885   4.661   2.425   7.633 -0.0080 -0.0168  0.8997
 2475SOL     OW18886   2.272   4.303  13.207  0.4257  0.8303  1.2865
 2475SOL    HW118887   2.180   4.290  13.185  1.0664 -0.0861 -0.8514
 2475SOL    HW218888   2.276   4.257  13.291 -0.8928 -0.8969  0.4011
 2476SOL     OW18889   4.652   2.169  12.333 -0.1639 -0.6795  0.2243
 2476SOL    HW118890   4.692   2.222  12.264  0.1167 -0.8728  0.2421
 2476SOL    HW218891   4.596   2.110  12.283  1.0210 -0.9470 -0.7722
 2477SOL     OW18892   3.388   2.878   2.594 -0.2436  0.0331 -0.0488
 2477SOL    HW118893   3.389   2.832   2.678  0.2900  0.7598  0.3400
 2477SOL    HW218894   3.410   2.969   2.615  0.3979  0.0924 -0.9949
 2478SOL     OW18895   3.432   0.616   4.506 -0.1605  0.2671 -0.1177
 2478SOL    HW118896   3.500   0.570   4.556 -1.5991 -0.9910  0.6817
 2478SOL    HW218897   3.479   0.627   4.423  1.5660  0.5697  0.8951
 2479SOL     OW18898   0.012   0.182   5.414 -0.3259 -0.3047 -0.0241
 2479SOL    HW118899   0.016   0.188   5.319  0.2940  1.4766  0.1210
 2479SOL    HW218900   4.683   0.102   5.424 -0.7088  0.0538  0.9562
 2480SOL     OW18901   0.326   3.847  10.120  0.5179 -0.0313 -0.8838
 2480SOL    HW118902   0.353   3.762  10.155 -2.2281 -0.9623 -1.1011
 2480SOL    HW218903   0.250   3.821  10.068  0.2469  0.8176 -0.9049
 2481SOL     OW18904   0.318   4.630   3.845  0.1061  0.7078  0.9053
 2481SOL    HW118905   0.389   4.629   3.780 -0.3438 -1.4327  0.4315
 2481SOL    HW218906   0.314   4.537   3.867  0.0563  0.1709 -1.3598
 2482SOL     OW18907   2.264   4.163  10.627 -0.4859  0.2371 -0.6034
 2482SOL    HW118908   2.328   4.205  10.684 -0.6351  0.4720 -0.6115
 2482SOL    HW218909   2.205   4.118  10.688  1.6459  0.0775  1.3331
 2483SOL     OW18910   4.702   0.253   5.822  0.2549  0.1575 -0.1871
 2483SOL    HW118911   4.701   0.318   5.752  0.4437 -2.4208 -2.6169
 2483SOL    HW218912   0.069   0.231   5.844 -0.4487 -1.1763  1.4203
 2484SOL     OW18913   4.594   3.421  17.036 -0.4776 -0.1113 -0.0190
 2484SOL    HW118914   4.683   3.423  16.999 -0.1975 -3.1060  0.4373
 2484SOL    HW218915   4.577   3.327  17.035 -1.2969  0.0687 -2.1272
 2485SOL     OW18916   4.362   4.298  11.772 -0.4326 -0.4512 -0.2210
 2485SOL    HW118917   4.333   4.336  11.689 -1.1914  0.9828  0.7073
 2485SOL    HW218918   4.331   4.209  11.753 -2.0747  0.0165  0.3515
 2486SOL     OW18919   1.050   1.242  13.333  0.5388  0.4484  0.4947
 2486SOL    HW118920   1.053   1.281  13.245 -2.6247  1.0260  0.6507
 2486SOL    HW218921   1.143   1.225  13.350  0.1543 -0.3095  1.7828
 2487SOL     OW18922   3.261   0.073  15.361  0.7501  0.0305  0.7608
 2487SOL    HW118923   3.257   0.024  15.280 -1.3792  1.3252  0.0800
 2487SOL    HW218924   3.273   0.163  15.329  4.7304 -0.5080  0.6574
 2488SOL     OW18925   2.643   2.715   8.965 -0.2288 -0.0978  0.3315
 2488SOL    HW118926   2.731   2.691   8.935  0.5059  1.9561  0.8430
 2488SOL    HW218927   2.601   2.631   8.979 -3.1783  1.3242  0.1008
 2489SOL     OW18928   2.693   1.045   7.372 -0.1720  0.4983 -0.2774
 2489SOL    HW118929   2.739   1.110   7.426  0.6080 -1.2351  1.1474
 2489SOL    HW218930   2.623   1.091   7.326  0.4915  0.0525 -1.7112
 2490SOL     OW18931   2.465   0.332   6.544  0.3631 -0.7528  0.1783
 2490SOL    HW118932   2.386   0.325   6.491  1.1339  1.8048 -1.3105
 2490SOL    HW218933   2.533   0.348   6.479  0.0130  0.1341  0.0293
 2491SOL     OW18934   4.152   4.342   7.117 -1.1879 -0.1335 -0.3764
 2491SOL    HW118935   4.169   4.367   7.208 -2.0459  0.8256 -0.4738
 2491SOL    HW218936   4.152   4.246   7.117  2.7852 -0.1306 -0.0957
 2492SOL     OW18937   0.771   2.638   4.162  0.2073  0.4077  0.0145
 2492SOL    HW118938   0.716   2.568   4.128  0.8197  0.3227 -0.8042
 2492SOL    HW218939   0.750   2.701   4.092  0.3482  0.9842  0.4889
 2493SOL     OW18940   2.575   2.106   6.410  0.0111  0.2767 -0.1289
 2493SOL    HW118941   2.577   2.091   6.505  0.0199 -2.6820 -0.6048
 2493SOL    HW218942   2.521   2.185   6.413 -0.4629 -0.0587  0.2446
 2494SOL     OW18943   0.506   4.072   2.702  0.5384  0.0233  0.1790
 2494SOL    HW118944   0.552   4.085   2.785 -1.3234  1.4025  0.9742
 2494SOL    HW218945   0.576   4.081   2.636  0.3511  0.7670  0.0885
 2495SOL     OW18946   1.712   0.768  13.305  0.3245  0.6045  0.3199
 2495SOL    HW118947   1.673   0.793  13.389 -0.8724  1.0343 -0.3590
 2495SOL    HW218948   1.805   0.782  13.324  0.9990 -3.1106 -0.2243
 2496SOL     OW18949   1.836   0.689   3.813 -0.0805  0.5186 -0.6826
 2496SOL    HW118950   1.822   0.656   3.902  2.6632  2.1325  0.3255
 2496SOL    HW218951   1.753   0.736   3.808 -0.8048 -0.4553  2.0478
 2497SOL     OW18952   2.640   4.445   6.632 -0.5976 -0.0574 -0.1897
 2497SOL    HW118953   2.644   4.540   6.637 -0.3306 -0.0634 -0.2713
 2497SOL    HW218954   2.728   4.421   6.602 -0.3215 -0.5038  1.0008
 2498SOL     OW18955   2.628   3.070  11.349 -0.4719  0.2851  0.0640
 2498SOL    HW118956   2.606   3.100  11.261 -1.6021  0.4120  0.3838
 2498SOL    HW218957   2.701   3.127  11.371 -0.1308 -0.7857  1.6958
 2499SOL     OW18958   0.708   0.785   0.930 -0.3613  0.4725 -0.4281
 2499SOL    HW118959   0.617   0.764   0.913 -0.6173 -1.0445  2.8506
 2499SOL    HW218960   0.702   0.781   1.026  0.3545 -1.9030 -0.4923
 2500SOL     OW18961   4.249   0.128  11.238 -0.1912 -0.1884  0.3773
 2500SOL    HW118962   4.189   0.074  11.187 -0.3432 -1.3118  1.7341
 2500SOL    HW218963   4.181   0.185  11.274 -0.5394  0.5191 -1.4031
 2501SOL     OW18964   1.561   1.978   1.813 -0.2652  0.1357  0.6411
 2501SOL    HW118965   1.476   1.960   1.854 -1.0758 -1.5013 -1.7552
 2501SOL    HW218966   1.604   1.894   1.823 -1.1393 -0.3746  0.1254
 2502SOL     OW18967   4.375   0.674   6.238  0.0040 -0.2211 -0.3472
 2502SOL    HW118968   4.374   0.765   6.212  0.9212 -0.6785 -1.9861
 2502SOL    HW218969   4.313   0.642   6.173 -1.6424  0.1057  1.0921
 2503SOL     OW18970   3.837   1.287   5.748 -0.0797 -1.0062  0.3099
 2503SOL    HW118971   3.931   1.292   5.767 -0.1769  0.9387  0.2535
 2503SOL    HW218972   3.805   1.318   5.833  0.9949 -0.4002  0.4966
 2504SOL     OW18973   1.349   2.203   6.154  0.1653  0.0956  0.5436
 2504SOL    HW118974   1.301   2.131   6.113 -0.4781 -0.5111  2.3137
 2504SOL    HW218975   1.280   2.248   6.203 -1.3327 -2.0835  0.4235
 2505SOL     OW18976   3.992   2.064   8.112  0.3249  0.6214 -0.4079
 2505SOL    HW118977   3.964   1.974   8.127 -0.6376  1.1106  0.7740
 2505SOL    HW218978   4.070   2.038   8.063  2.8789  3.3737  2.1557
 2506SOL     OW18979   2.309   1.911   3.292 -0.0361 -0.4693 -0.6428
 2506SOL    HW118980   2.256   1.989   3.274  0.6250  0.8094  2.9764
 2506SOL    HW218981   2.278   1.862   3.216  1.1775 -2.8737  0.4196
 2507SOL     OW18982   4.051   0.248  12.004 -0.4961 -0.2397 -0.8353
 2507SOL    HW118983   4.037   0.300  12.082  2.0763  0.3522 -0.7662
 2507SOL    HW218984   3.967   0.236  11.961 -0.2404 -2.3232 -0.7734
 2508SOL     OW18985   1.452   1.638   6.170 -0.4777  0.2939 -0.2443
 2508SOL    HW118986   1.429   1.547   6.186  3.6750 -1.0858 -2.1766
 2508SOL    HW218987   1.373   1.684   6.142 -1.6688 -0.7850  1.4285
 2509SOL     OW18988   4.205   1.770   4.623 -0.4820 -0.0320  0.3732
 2509SOL    HW118989   4.277   1.712   4.598 -0.3907 -0.6093  1.9909
 2509SOL    HW218990   4.199   1.752   4.717  1.5157 -0.5944  0.3807
 2510SOL     OW18991   3.129   2.649   2.895 -0.1418 -0.2924 -0.2050
 2510SOL    HW118992   3.170   2.680   2.815 -1.6745 -1.7664 -1.5664
 2510SOL    HW218993   3.122   2.733   2.940  1.2592  1.1053 -2.6577
 2511SOL     OW18994   3.774   3.564   6.016  0.2712 -0.3763 -0.0141
 2511SOL    HW118995   3.716   3.584   6.090 -0.2547 -2.7397  0.1974
 2511SOL    HW218996   3.719   3.501   5.970  0.5398 -0.5171 -0.1459
 2512SOL     OW18997   1.198   1.484   6.182 -0.3549 -0.3147 -0.0115
 2512SOL    HW118998   1.211   1.552   6.248  0.0259  1.6717 -2.1515
 2512SOL    HW218999   1.190   1.410   6.243  3.9702  1.2387  2.4844
 2513SOL     OW19000   1.575   1.464  16.026 -0.1723 -0.1132  0.5587
 2513SOL    HW119001   1.611   1.491  15.942 -0.0717 -0.8168  0.3804
 2513SOL    HW219002   1.622   1.383  16.044 -0.1801 -0.0629  0.8101
 2514SOL     OW19003   1.049   0.947   2.338  0.4379  0.5859  0.0290
 2514SOL    HW119004   0.972   0.897   2.310 -0.4107  1.8461  0.1090
 2514SOL    HW219005   1.106   0.888   2.387 -1.2944 -0.5598  0.6735
 2515SOL     OW19006   0.933   4.165  17.307 -1.0792  0.0432 -0.4661
 2515SOL    HW119007   0.930   4.187  17.400 -0.6487  2.1782 -0.9588
 2515SOL    HW219008   0.968   4.076  17.314 -2.1811 -0.4400 -1.1484
 2516SOL     OW19009   0.082   1.860  12.985  1.2627 -0.0394 -0.3830
 2516SOL    HW119010   0.148   1.927  12.966  1.5270 -0.8543 -2.2824
 2516SOL    HW219011   0.136   1.802  13.038  0.1173  0.3890  1.2351
 2517SOL     OW19012   0.653   1.503  13.827  0.2555 -0.2650  0.0035
 2517SOL    HW119013   0.626   1.588  13.792 -1.7014 -0.4940  0.9743
 2517SOL    HW219014   0.582   1.481  13.888 -0.1054  0.3905 -0.1807
 2518SOL     OW19015   3.412   4.016   9.022 -0.0767  0.0007 -0.0948
 2518SOL    HW119016   3.389   3.923   9.020  0.5473 -0.1262 -1.8691
 2518SOL    HW219017   3.347   4.056   9.079 -0.4067  1.0804 -1.2237
 2519SOL     OW19018   2.226   3.396   8.691  0.0806 -0.1188 -0.3987
 2519SOL    HW119019   2.148   3.421   8.739  1.8200  1.5189  1.5938
 2519SOL    HW219020   2.194   3.407   8.602  2.3795  1.1276 -1.0668
 2520SOL     OW19021   1.971   3.524   2.991  0.2980  0.0852 -0.0867
 2520SOL    HW119022   1.950   3.448   3.046 -1.2293 -0.8677 -1.9676
 2520SOL    HW219023   1.942   3.598   3.043 -0.5598  0.8848 -1.6961
 2521SOL     OW19024   2.773   0.513   9.154  0.0253  0.3751  0.3416
 2521SOL    HW119025   2.868   0.504   9.156 -0.0282 -0.3202 -0.8855
 2521SOL    HW219026   2.754   0.490   9.245  0.2598 -0.1882  0.2434
 2522SOL     OW19027   0.126   0.311   4.578 -0.3283 -0.1475  0.1844
 2522SOL    HW119028   0.116   0.298   4.484 -2.0591  0.1585  0.3200
 2522SOL    HW219029   0.204   0.365   4.571 -0.2704 -0.2447  0.0893
 2523SOL     OW19030   2.959   4.648   0.937  0.0119  0.0581 -0.0315
 2523SOL    HW119031   2.923   4.640   0.849  1.6616  0.8700 -0.7860
 2523SOL    HW219032   3.038   4.600   0.912 -0.9519 -1.8635  0.6267
 2524SOL     OW19033   4.561   0.501   2.662 -0.0315  0.6191  0.7649
 2524SOL    HW119034   4.616   0.566   2.618 -0.3385 -1.9754 -3.4549
 2524SOL    HW219035   4.517   0.475   2.581 -0.1228  2.4065  0.2327
 2525SOL     OW19036   3.261   3.834  12.693 -0.2898  0.3948  0.3141
 2525SOL    HW119037   3.174   3.843  12.653 -0.4486 -1.3088  0.2688
 2525SOL    HW219038   3.262   3.754  12.746  0.9582  0.4822  0.4112
 2526SOL     OW19039   4.249   1.532   7.286  0.0584  0.5759  0.4396
 2526SOL    HW119040   4.338   1.545   7.319 -0.4528  0.0393  2.0513
 2526SOL    HW219041   4.205   1.477   7.351  0.5514 -0.4088 -0.0503
 2527SOL     OW19042   3.059   0.884   8.108  0.5314  0.2162 -0.3958
 2527SOL    HW119043   3.025   0.930   8.031  1.6643  1.8376  0.0746
 2527SOL    HW219044   3.058   0.960   8.166 -0.1367 -0.3200  0.2850
 2528SOL     OW19045   2.792   1.784   8.326 -0.1351 -0.0869 -0.5077
 2528SOL    HW119046   2.792   1.697   8.367 -0.2069 -0.7549 -1.8869
 2528SOL    HW219047   2.811   1.837   8.403  1.1890  1.3326 -1.8023
 2529SOL     OW19048   2.551   2.261   4.274 -0.0300  0.3449 -0.2197
 2529SOL    HW119049   2.472   2.312   4.290  0.3328  0.6909  0.4531
 2529SOL    HW219050   2.535   2.173   4.308 -0.3732  0.0504 -1.1551
 2530SOL     OW19051   1.934   2.755   0.709  0.1601  0.1425  0.5320
 2530SOL    HW119052   1.969   2.748   0.798  0.5282  2.8023  0.6068
 2530SOL    HW219053   1.840   2.752   0.723 -0.2907  1.2755 -2.2036
 2531SOL     OW19054   0.508   4.184   5.161  0.6043  0.2023 -0.1353
 2531SOL    HW119055   0.573   4.134   5.111  0.1014 -0.5671 -0.0264
 2531SOL    HW219056   0.420   4.153   5.137  0.2560  1.2259 -0.1563
 2532SOL     OW19057   2.288   1.442   2.113  0.2879  0.2844 -0.1280
 2532SOL    HW119058   2.355   1.390   2.068  1.3041  2.2496 -0.8946
 2532SOL    HW219059   2.324   1.530   2.126 -2.6324  1.4816  0.0212
 2533SOL     OW19060   2.348   3.700   4.617  0.1554 -0.1199  0.6644
 2533SOL    HW119061   2.392   3.766   4.563  0.9475 -1.4978 -0.3576
 2533SOL    HW219062   2.302   3.654   4.547  0.6323 -1.4693  1.2464
 2534SOL     OW19063   0.423   3.816   3.561 -0.5648 -0.8219 -0.1528
 2534SOL    HW119064   0.399   3.727   3.532 -1.4762 -1.0592  1.3101
 2534SOL    HW219065   0.435   3.786   3.651 -0.4921  0.8184  0.3814
 2535SOL     OW19066   1.508   3.448   8.036  0.2966  0.2697 -0.5445
 2535SOL    HW119067   1.471   3.429   7.950  0.5505 -0.0147 -0.5914
 2535SOL    HW219068   1.472   3.381   8.093  2.0126  0.3342  0.6163
 2536SOL     OW19069   0.852   0.579   6.652 -0.1409 -0.4279 -0.4092
 2536SOL    HW119070   0.770   0.604   6.693 -0.1775 -0.7939 -0.2575
 2536SOL    HW219071   0.890   0.666   6.660  0.3520 -0.6155 -0.7063
 2537SOL     OW19072   2.274   3.974   2.321 -0.3548  0.0783  0.0058
 2537SOL    HW119073   2.317   3.996   2.404 -1.0385 -0.7534  0.5856
 2537SOL    HW219074   2.355   3.943   2.281 -0.4588 -0.2673  0.0597
 2538SOL     OW19075   4.104   0.461   2.804 -0.0108 -0.2530  0.4565
 2538SOL    HW119076   4.087   0.463   2.899 -0.9678 -2.2966  0.3281
 2538SOL    HW219077   4.183   0.514   2.798 -0.4502  0.6428  2.4726
 2539SOL     OW19078   3.125   2.669   0.276  0.2501 -0.1570 -0.0503
 2539SOL    HW119079   3.126   2.740   0.211 -0.1743  0.3842  0.5396
 2539SOL    HW219080   3.128   2.728   0.351  0.2030  0.3704 -0.4566
 2540SOL     OW19081   2.175   1.633   1.142 -0.2305  0.8290  0.1053
 2540SOL    HW119082   2.254   1.661   1.187 -0.1283 -1.6480  1.4784
 2540SOL    HW219083   2.181   1.670   1.054 -1.4851  1.7002  0.3904
 2541SOL     OW19084   1.437   2.877   5.903  0.2400  0.0042 -0.7352
 2541SOL    HW119085   1.484   2.908   5.980  1.1136  0.6210 -1.5098
 2541SOL    HW219086   1.380   2.813   5.944 -3.5604  1.5951 -3.4590
 2542SOL     OW19087   4.138   3.024   4.254  0.0001 -0.1917 -0.2956
 2542SOL    HW119088   4.125   2.930   4.266  1.4673 -0.3909 -0.2905
 2542SOL    HW219089   4.084   3.056   4.327  0.1206 -2.3838  0.7556
 2543SOL     OW19090   2.419   2.015   7.927 -0.2821 -0.2537  0.2189
 2543SOL    HW119091   2.371   2.096   7.911  0.2249  0.2016  0.9833
 2543SOL    HW219092   2.366   1.956   7.873 -1.7596 -0.3328  1.7346
 2544SOL     OW19093   4.393   4.543   6.203 -0.9511 -0.6201  0.0109
 2544SOL    HW119094   4.380   4.558   6.297 -2.4533 -2.0250  0.0412
 2544SOL    HW219095   4.393   4.634   6.176 -0.0605 -0.2560  1.2609
 2545SOL     OW19096   0.875   0.824  10.629  0.0554  0.3313 -0.0555
 2545SOL    HW119097   0.839   0.851  10.544 -1.1387 -0.7790  0.0860
 2545SOL    HW219098   0.848   0.895  10.688  1.9412  0.4831  0.6304
 2546SOL     OW19099   4.085   4.706   6.810  0.2439  0.6280  0.4570
 2546SOL    HW119100   4.006   0.028   6.840 -2.1975 -3.2228 -0.2534
 2546SOL    HW219101   4.133   4.718   6.892  0.7971 -0.8711  0.3476
 2547SOL     OW19102   2.035   1.538  16.402 -0.0233 -0.1229 -0.8020
 2547SOL    HW119103   1.956   1.541  16.348 -0.5174 -0.4737 -0.0934
 2547SOL    HW219104   2.065   1.450  16.379 -1.2197 -0.9288  0.8017
 2548SOL     OW19105   2.266   4.081   5.686  0.1673 -0.2927 -0.5325
 2548SOL    HW119106   2.288   4.003   5.635  0.7879  0.1061 -0.8657
 2548SOL    HW219107   2.306   4.156   5.642  0.4123 -0.0611  0.0895
 2549SOL     OW19108   2.720   1.670   8.049 -0.0098  0.0472  0.1440
 2549SOL    HW119109   2.738   1.675   8.143 -0.5393 -0.1743  0.2565
 2549SOL    HW219110   2.731   1.764   8.033  0.7704 -0.7045 -3.7855
 2550SOL     OW19111   1.812   0.571   3.567 -0.0137  0.0302  0.2714
 2550SOL    HW119112   1.831   0.637   3.634  0.4883 -0.8853  1.0361
 2550SOL    HW219113   1.731   0.592   3.521  0.1809 -3.0968 -1.4981
 2551SOL     OW19114   2.757   2.570  13.255  0.1577 -0.0196 -0.9264
 2551SOL    HW119115   2.740   2.555  13.161  1.4048  0.9078 -1.2981
 2551SOL    HW219116   2.734   2.661  13.271 -0.4217 -0.1032 -1.2824
 2552SOL     OW19117   0.337   1.612   6.750  0.0769 -0.2744  0.1949
 2552SOL    HW119118   0.399   1.539   6.755 -0.2221 -0.5421 -0.1250
 2552SOL    HW219119   0.258   1.559   6.758 -0.3410  0.1622 -1.0983
 2553SOL     OW19120   1.817   4.485   6.596 -0.0062 -0.9962 -0.0710
 2553SOL    HW119121   1.899   4.463   6.552 -0.1393  1.0180 -1.3393
 2553SOL    HW219122   1.841   4.507   6.686 -0.3542  0.9667 -0.4601
 2554SOL     OW19123   1.413   0.104   4.047  0.1160 -0.6936 -0.2198
 2554SOL    HW119124   1.427   0.170   3.979  2.6357 -0.2743  0.7197
 2554SOL    HW219125   1.319   0.115   4.058  0.5280  1.2725  1.3610
 2555SOL     OW19126   3.629   4.573   8.100  0.3770 -0.3430 -0.5221
 2555SOL    HW119127   3.648   4.659   8.139 -1.3165 -1.0506  1.8757
 2555SOL    HW219128   3.665   4.516   8.168  1.3214 -1.1384 -1.7077
 2556SOL     OW19129   1.927   3.908  11.316 -0.1342  0.0669 -0.1315
 2556SOL    HW119130   1.908   3.843  11.248  0.2834 -0.4549  0.2430
 2556SOL    HW219131   1.896   3.989  11.276 -1.0744  0.0806  0.6438
 2557SOL     OW19132   2.944   4.528   4.821 -0.0343  0.3707  0.9836
 2557SOL    HW119133   3.038   4.510   4.815  0.1065  2.3643 -2.9403
 2557SOL    HW219134   2.939   4.611   4.775  0.8574  0.9427  1.9138
 2558SOL     OW19135   1.655   0.148   6.046 -0.0503  0.1370 -0.6387
 2558SOL    HW119136   1.720   0.117   5.983  0.0593  2.2457 -1.5413
 2558SOL    HW219137   1.714   0.148   6.121 -0.9480 -0.4073  0.0814
 2559SOL     OW19138   1.550   0.379   3.895  0.2491  0.5094  0.5659
 2559SOL    HW119139   1.498   0.380   3.815  0.8071  0.8010  0.2038
 2559SOL    HW219140   1.639   0.382   3.859 -0.3127  0.2288 -0.8356
 2560SOL     OW19141   0.105   1.566  13.623 -0.0255  0.0790 -0.0793
 2560SOL    HW119142   0.132   1.533  13.538  3.2217 -0.0410  1.0171
 2560SOL    HW219143   0.056   1.644  13.595 -2.3937 -0.4092  2.6306
 2561SOL     OW19144   3.193   2.938  16.269  0.1647  0.6009  0.3187
 2561SOL    HW119145   3.183   3.025  16.307  1.1917  0.4191  1.0333
 2561SOL    HW219146   3.242   2.950  16.188 -1.8867  0.2483 -0.9429
 2562SOL     OW19147   2.021   3.990  10.647  0.1827 -0.2252  0.1955
 2562SOL    HW119148   2.032   4.031  10.732 -0.2773  1.2490 -0.4527
 2562SOL    HW219149   2.007   3.900  10.676  1.9462 -1.1088 -1.6616
 2563SOL     OW19150   0.776   0.097   3.390 -0.3595  0.1527  0.3334
 2563SOL    HW119151   0.867   0.070   3.373  0.2945  1.5065  1.7305
 2563SOL    HW219152   0.744   0.007   3.384 -0.3970 -0.0087  3.0397
 2564SOL     OW19153   3.597   1.741   8.588  0.0172 -0.1648  0.0794
 2564SOL    HW119154   3.679   1.761   8.632 -0.0748  2.5920 -0.9518
 2564SOL    HW219155   3.538   1.803   8.632 -1.4683 -1.4936 -0.0482
 2565SOL     OW19156   0.409   3.881   4.701  0.0685  0.6644  0.0760
 2565SOL    HW119157   0.382   3.790   4.694 -0.4682  0.7437  1.2588
 2565SOL    HW219158   0.335   3.934   4.671  2.2929  1.5797 -3.8240
 2566SOL     OW19159   1.664   3.868  17.240 -1.0557 -0.6658 -0.1139
 2566SOL    HW119160   1.730   3.817  17.192 -0.3952 -0.3831  0.4952
 2566SOL    HW219161   1.655   3.938  17.176 -0.1332 -0.9295 -0.5475
 2567SOL     OW19162   1.667   1.932  11.680  0.5012 -0.0031  0.1639
 2567SOL    HW119163   1.729   1.936  11.607 -0.5316  0.3396 -0.6914
 2567SOL    HW219164   1.585   1.936  11.629  0.2760  1.4106  0.6539
 2568SOL     OW19165   3.392   2.578   6.561  0.0940 -0.1314  0.4165
 2568SOL    HW119166   3.328   2.629   6.612 -0.8556 -0.3751 -0.5224
 2568SOL    HW219167   3.338   2.513   6.516  0.8800 -0.0173 -0.6935
 2569SOL     OW19168   1.757   1.538   3.078  0.3156  0.3792 -0.2832
 2569SOL    HW119169   1.803   1.533   3.162 -0.0617  0.5416 -0.0671
 2569SOL    HW219170   1.743   1.451   3.043  0.0729  1.1518 -2.1131
 2570SOL     OW19171   1.722   4.651  11.865  0.2672  0.0830  0.8273
 2570SOL    HW119172   1.797   4.682  11.914  0.5532 -0.7516  0.9262
 2570SOL    HW219173   1.679   4.591  11.927  0.4042 -2.1063 -1.1803
 2571SOL     OW19174   0.590   2.346   1.901  0.1447  0.5468 -0.3580
 2571SOL    HW119175   0.570   2.264   1.947  0.6346  1.1339  0.9092
 2571SOL    HW219176   0.547   2.317   1.820  2.6370  0.0638 -1.5246
 2572SOL     OW19177   3.455   2.326   4.288 -0.0099  0.1586  0.1957
 2572SOL    HW119178   3.409   2.371   4.217  2.2909 -0.4380 -1.6927
 2572SOL    HW219179   3.433   2.383   4.362  1.4929  1.1515 -0.1182
 2573SOL     OW19180   2.382   2.927   7.696  0.6873 -0.4221  0.7193
 2573SOL    HW119181   2.399   3.021   7.698 -1.4393 -0.0353  0.4536
 2573SOL    HW219182   2.460   2.894   7.650  0.8578 -1.1883  1.5470
 2574SOL     OW19183   4.212   4.096   3.028  0.1682  0.1579  0.0979
 2574SOL    HW119184   4.180   4.176   2.987  2.7872  2.1041  1.8587
 2574SOL    HW219185   4.131   4.054   3.058  0.1225 -0.4321 -0.8293
 2575SOL     OW19186   0.284   3.856  15.916 -1.0699 -0.4310 -0.9753
 2575SOL    HW119187   0.327   3.862  15.831  0.7273 -0.1019 -0.0368
 2575SOL    HW219188   0.269   3.761  15.926  1.0345 -0.4899  1.4055
 2576SOL     OW19189   1.036   2.101   7.683  0.0347  0.2108 -0.2365
 2576SOL    HW119190   1.099   2.172   7.665 -0.4321  0.2175 -1.8406
 2576SOL    HW219191   1.029   2.051   7.602  2.0464  1.0697 -0.9555
 2577SOL     OW19192   0.715   4.617   1.006 -0.4166 -0.1709 -0.4025
 2577SOL    HW119193   0.704   4.697   0.953 -2.5904 -0.0594  0.1835
 2577SOL    HW219194   0.751   4.645   1.090  0.0789 -1.2848 -0.2536
 2578SOL     OW19195   4.562   1.926  16.254 -0.1723 -0.4257 -0.5046
 2578SOL    HW119196   4.500   1.878  16.199  0.3065  1.2162 -2.4913
 2578SOL    HW219197   4.537   2.018  16.242 -0.8331 -0.9215 -3.0699
 2579SOL     OW19198   3.518   1.264   8.044 -0.2480 -0.4487  0.3107
 2579SOL    HW119199   3.438   1.230   8.004 -0.7068  1.7417 -0.6639
 2579SOL    HW219200   3.577   1.274   7.969 -1.0011 -1.2994 -0.3966
 2580SOL     OW19201   3.236   1.375  13.157 -0.1255  0.1985 -0.3199
 2580SOL    HW119202   3.331   1.363  13.157 -0.1246  0.1990 -0.7965
 2580SOL    HW219203   3.207   1.285  13.175 -0.0701 -0.1200 -1.8090
 2581SOL     OW19204   4.428   1.936   8.462  0.1181  0.2045 -0.2758
 2581SOL    HW119205   4.374   1.940   8.540 -0.7775  1.0824 -0.9464
 2581SOL    HW219206   4.470   2.022   8.468 -0.4064  0.2786  2.3784
 2582SOL     OW19207   2.587   1.730  16.239  0.3176  0.3790 -0.0247
 2582SOL    HW119208   2.611   1.654  16.292 -0.1597  0.4435  0.2882
 2582SOL    HW219209   2.652   1.786  16.282 -1.5850  2.0673  0.6556
 2583SOL     OW19210   2.964   2.978  17.136 -0.7248  0.1055 -0.5361
 2583SOL    HW119211   3.021   2.967  17.213 -2.9441 -3.4549  0.6139
 2583SOL    HW219212   2.969   3.073  17.142  4.0825 -0.0870 -1.3962
 2584SOL     OW19213   4.235   3.391   6.750 -0.1103  0.3301  0.3344
 2584SOL    HW119214   4.226   3.410   6.844 -0.7698 -1.3105  0.6045
 2584SOL    HW219215   4.322   3.351   6.760  0.1853  0.7994 -0.3329
 2585SOL     OW19216   2.612   1.035   6.829 -0.2030 -0.5060 -0.2456
 2585SOL    HW119217   2.562   0.962   6.867 -1.3141  0.6165  0.4373
 2585SOL    HW219218   2.690   0.990   6.795 -0.4584  1.8270 -3.9214
 2586SOL     OW19219   2.139   2.012   2.148 -0.0753 -0.0159 -0.2823
 2586SOL    HW119220   2.219   1.960   2.148 -0.1909 -0.2271 -2.3973
 2586SOL    HW219221   2.114   1.989   2.058  1.1169  0.7906 -0.8179
 2587SOL     OW19222   3.574   3.267   0.113 -0.1876  0.6826  1.0527
 2587SOL    HW119223   3.491   3.292   0.074 -0.2385 -2.1830 -0.7032
 2587SOL    HW219224   3.554   3.174   0.121 -0.5543  0.8556  2.0938
 2588SOL     OW19225   4.131   1.310  13.712  0.0357  0.0053 -0.0799
 2588SOL    HW119226   4.117   1.224  13.674 -2.1877  0.2150  0.2892
 2588SOL    HW219227   4.213   1.292  13.759 -0.8392  0.3149  1.5440
 2589SOL     OW19228   0.117   1.187   3.661 -0.1053  0.0582  0.1769
 2589SOL    HW119229   0.075   1.264   3.700  0.7751  0.2253  0.8204
 2589SOL    HW219230   0.049   1.150   3.605  0.3100 -0.6271  0.1160
 2590SOL     OW19231   3.260   1.357   2.881 -0.3629  0.1763  0.1841
 2590SOL    HW119232   3.265   1.274   2.929  0.4888 -1.3735 -2.6144
 2590SOL    HW219233   3.169   1.385   2.880 -0.7700 -1.2440 -1.9578
 2591SOL     OW19234   2.798   4.389   0.742  0.0768  0.6593  1.0142
 2591SOL    HW119235   2.864   4.366   0.677 -0.1910 -0.9000  1.3116
 2591SOL    HW219236   2.837   4.352   0.821 -2.8696  1.0018  2.6282
 2592SOL     OW19237   3.971   0.752   5.604  0.2644 -0.0822  0.1222
 2592SOL    HW119238   3.885   0.739   5.563 -0.0202 -0.7822  0.9401
 2592SOL    HW219239   4.025   0.704   5.542  2.6943 -0.5177  2.5989
 2593SOL     OW19240   3.249   0.747   3.979 -0.7006 -0.6664  0.1653
 2593SOL    HW119241   3.226   0.760   3.888 -2.1745  1.1801  0.8056
 2593SOL    HW219242   3.201   0.814   4.027 -0.1793  0.3828 -0.7724
 2594SOL     OW19243   4.560   2.199   1.706  0.4540 -0.3675 -0.2713
 2594SOL    HW119244   4.518   2.195   1.792 -1.5314 -2.6558 -1.3490
 2594SOL    HW219245   4.541   2.113   1.669 -3.3841  1.2538 -2.0737
 2595SOL     OW19246   2.739   0.602  13.905  0.1048  0.1305 -0.0989
 2595SOL    HW119247   2.719   0.616  13.812 -1.2054  0.2330  0.1923
 2595SOL    HW219248   2.776   0.514  13.914 -1.4513 -0.5008  0.1010
 2596SOL     OW19249   2.020   0.373   5.586  0.1118 -0.3113  0.1959
 2596SOL    HW119250   1.925   0.384   5.574  0.6224  3.2320 -0.6831
 2596SOL    HW219251   2.042   0.427   5.510 -1.1188 -2.0593 -1.3923
 2597SOL     OW19252   2.175   4.682   6.217 -0.7490  0.0471 -0.2786
 2597SOL    HW119253   2.187   4.656   6.126  2.4049  0.5900 -0.0385
 2597SOL    HW219254   2.084   4.712   6.223 -0.9590 -1.1050  1.9791
 2598SOL     OW19255   2.262   1.346   7.342  0.7767  0.1840  0.5436
 2598SOL    HW119256   2.173   1.368   7.370  0.3642  0.6798 -1.1340
 2598SOL    HW219257   2.261   1.270   7.399 -1.7934  0.3509  0.7384
 2599SOL     OW19258   0.039   1.109  15.684  0.7238 -0.6049 -0.3193
 2599SOL    HW119259   0.032   1.071  15.597  2.2438 -0.8405 -0.3460
 2599SOL    HW219260   0.134   1.112  15.692  0.6859  1.5877 -0.8288
 2600SOL     OW19261   2.441   0.597   2.284  0.2452  0.8045  0.4392
 2600SOL    HW119262   2.488   0.650   2.349 -2.2561  2.0419  1.2519
 2600SOL    HW219263   2.350   0.619   2.300  0.2299  1.4970 -0.6119
 2601SOL     OW19264   2.940   0.914  14.912 -0.2545 -0.1607 -0.0580
 2601SOL    HW119265   2.955   0.821  14.924  1.7750  0.1452 -0.2464
 2601SOL    HW219266   2.969   0.951  14.996  3.4990 -4.5813  0.5643
 2602SOL     OW19267   2.214   1.560   0.593  0.3888 -0.3936  0.3275
 2602SOL    HW119268   2.269   1.552   0.671 -0.8719 -0.4366  1.2084
 2602SOL    HW219269   2.210   1.465   0.580  0.3462 -0.1255 -1.5570
 2603SOL     OW19270   0.681   2.078   5.689  0.1114 -0.2780 -0.6910
 2603SOL    HW119271   0.774   2.082   5.709 -0.0498 -0.1358  0.0324
 2603SOL    HW219272   0.642   2.006   5.739  0.0495 -0.1674 -0.5831
 2604SOL     OW19273   1.726   3.990   1.016 -0.4714 -0.1019 -0.4058
 2604SOL    HW119274   1.640   4.018   0.986 -0.6926 -1.6389 -1.1996
 2604SOL    HW219275   1.727   3.895   1.028  2.4793 -0.3047 -1.9491
 2605SOL     OW19276   2.148   2.549   4.401 -0.9039  0.5988  0.1177
 2605SOL    HW119277   2.236   2.572   4.371 -0.6177  0.8475  1.1413
 2605SOL    HW219278   2.162   2.456   4.421 -0.2399 -0.2734 -4.3311
 2606SOL     OW19279   0.749   0.570   9.259  0.0540  0.6653 -0.0616
 2606SOL    HW119280   0.844   0.560   9.268  0.2086  1.7803 -0.4440
 2606SOL    HW219281   0.719   0.480   9.269 -1.5018  1.3686  1.5408
 2607SOL     OW19282   0.733   1.818   7.735 -0.5018 -0.1183 -0.9103
 2607SOL    HW119283   0.801   1.757   7.763 -0.1051  1.1359  0.8570
 2607SOL    HW219284   0.662   1.753   7.739 -0.3558 -0.3122 -1.3739
 2608SOL     OW19285   3.381   2.504  15.843 -0.2150 -0.1312 -0.0061
 2608SOL    HW119286   3.473   2.527  15.849 -0.3498  0.1983  0.7646
 2608SOL    HW219287   3.340   2.587  15.868  1.6561  0.2128  1.8457
 2609SOL     OW19288   3.230   3.622   6.175 -0.5968  0.2223 -0.3951
 2609SOL    HW119289   3.184   3.628   6.259 -0.0919 -0.0918 -0.0985
 2609SOL    HW219290   3.308   3.574   6.205 -1.4172 -0.7276  0.2300
 2610SOL     OW19291   4.086   1.585   3.830 -0.0604  0.1503  0.2206
 2610SOL    HW119292   4.062   1.599   3.738  1.7247  1.0708 -0.0931
 2610SOL    HW219293   3.998   1.583   3.867 -0.2449  1.2713 -0.1692
 2611SOL     OW19294   4.381   2.158   9.473 -0.0634  0.1452 -0.0424
 2611SOL    HW119295   4.430   2.077   9.460  0.3422  0.1606  1.3829
 2611SOL    HW219296   4.297   2.128   9.437 -0.4681  0.6522  0.4818
 2612SOL     OW19297   2.800   1.824  11.829  0.0234 -0.6123  0.0406
 2612SOL    HW119298   2.833   1.850  11.743 -0.3852  0.4127  0.2000
 2612SOL    HW219299   2.725   1.771  11.806 -0.1922  0.3904 -1.5585
 2613SOL     OW19300   3.295   0.762   4.680 -0.4468 -0.5190  0.1170
 2613SOL    HW119301   3.348   0.711   4.620  1.7012  2.0502 -0.1929
 2613SOL    HW219302   3.340   0.847   4.673 -0.2546 -0.5582  0.8275
 2614SOL     OW19303   1.436   3.203   2.332 -0.2201 -0.4522 -0.0026
 2614SOL    HW119304   1.346   3.178   2.354 -0.2317  0.6244  1.1731
 2614SOL    HW219305   1.485   3.162   2.404 -0.3763 -1.1383 -0.2854
 2615SOL     OW19306   0.517   1.635   7.463  0.1078  0.3871 -0.6870
 2615SOL    HW119307   0.539   1.687   7.385  2.7731 -0.1518 -0.2986
 2615SOL    HW219308   0.434   1.596   7.436 -1.2195  0.7016  3.0458
 2616SOL     OW19309   3.793   4.638   4.310  0.0719  0.8400 -0.9017
 2616SOL    HW119310   3.748   4.593   4.238 -1.7534 -1.3498  1.6289
 2616SOL    HW219311   3.881   4.659   4.277  0.6572  1.6688  1.1508
 2617SOL     OW19312   1.571   0.338   3.293  0.2046 -0.2441  0.3658
 2617SOL    HW119313   1.642   0.393   3.260  0.0800 -0.9521 -1.1316
 2617SOL    HW219314   1.600   0.339   3.384 -3.0393  1.7076  1.4024
 2618SOL     OW19315   1.254   0.635  13.028  0.5390 -0.2813 -0.3322
 2618SOL    HW119316   1.332   0.641  13.083  1.7118 -1.9524 -1.8092
 2618SOL    HW219317   1.221   0.724  13.042 -1.1402 -1.3759  2.6646
 2619SOL     OW19318   2.358   0.511   4.881 -0.1762  0.2617 -0.0042
 2619SOL    HW119319   2.374   0.418   4.866 -0.9089 -0.1566  1.7971
 2619SOL    HW219320   2.264   0.507   4.897 -0.1905  1.6295  0.2381
 2620SOL     OW19321   3.913   1.233  11.694  0.1472 -0.3500  0.0293
 2620SOL    HW119322   3.986   1.256  11.636  1.2133  1.0503  1.9072
 2620SOL    HW219323   3.891   1.141  11.677 -2.2176  0.3609 -0.7082
 2621SOL     OW19324   3.167   2.659   6.154  0.7111  0.3419  0.0228
 2621SOL    HW119325   3.236   2.714   6.117 -1.7667  1.8906 -2.2664
 2621SOL    HW219326   3.215   2.600   6.212  0.0833 -0.2996 -0.1042
 2622SOL     OW19327   1.707   0.027   7.918  0.3597 -0.4590  0.0199
 2622SOL    HW119328   1.632   4.691   7.916  0.0957 -0.0987 -0.6842
 2622SOL    HW219329   1.758   4.709   7.988  0.6334  1.1878  0.7773
 2623SOL     OW19330   0.430   4.000  15.212 -0.0006  0.6087 -0.1754
 2623SOL    HW119331   0.393   3.921  15.252  0.5119  0.2786 -0.3659
 2623SOL    HW219332   0.414   4.066  15.280  0.9924  1.4168 -0.7282
 2624SOL     OW19333   0.056   1.444   9.152 -0.0396  0.1701  0.5848
 2624SOL    HW119334   0.008   1.383   9.208 -0.0478 -1.8549 -1.5993
 2624SOL    HW219335   0.136   1.437   9.204 -0.6161 -0.0888  1.4425
 2625SOL     OW19336   0.992   2.064   5.069  0.2101  0.5159  0.1797
 2625SOL    HW119337   1.074   2.057   5.020 -0.2660  0.9588 -0.6792
 2625SOL    HW219338   0.967   1.972   5.062 -0.6862  0.8325 -0.7564
 2626SOL     OW19339   2.061   2.553   4.951 -0.0539 -0.0526  0.0462
 2626SOL    HW119340   2.040   2.619   4.885 -2.4953 -1.4149 -0.5480
 2626SOL    HW219341   2.038   2.611   5.024 -0.7627 -1.6270  1.0724
 2627SOL     OW19342   3.476   4.122   2.304 -0.0252  0.1925 -0.3615
 2627SOL    HW119343   3.527   4.041   2.313  0.0675  0.3760  0.7489
 2627SOL    HW219344   3.408   4.110   2.370  0.6119 -1.4064  0.0275
 2628SOL     OW19345   4.298   4.143   7.746 -0.4274  0.1504  0.9829
 2628SOL    HW119346   4.276   4.083   7.817 -1.5451 -0.1203  0.4092
 2628SOL    HW219347   4.369   4.196   7.781 -1.8525  1.2902  2.1708
 2629SOL     OW19348   0.960   1.228  15.211  0.0244  0.5490 -0.3816
 2629SOL    HW119349   0.881   1.174  15.218 -0.1827  0.9587  0.4081
 2629SOL    HW219350   1.022   1.160  15.238  1.0510  1.1033 -1.3778
 2630SOL     OW19351   1.531   3.239   1.544 -0.1500 -0.7088 -0.0577
 2630SOL    HW119352   1.457   3.242   1.604 -0.9854 -0.2873 -1.1081
 2630SOL    HW219353   1.513   3.166   1.484  0.7715 -0.7714 -0.2522
 2631SOL     OW19354   3.620   2.578   4.325  0.1698  0.3346 -0.4566
 2631SOL    HW119355   3.656   2.650   4.273 -1.1508 -0.5519 -2.6358
 2631SOL    HW219356   3.527   2.601   4.332  0.2920  0.4979  0.6376
 2632SOL     OW19357   0.853   0.178   7.434 -0.2170  0.4356  0.0434
 2632SOL    HW119358   0.771   0.215   7.403  0.0812  1.7526  0.8154
 2632SOL    HW219359   0.901   0.164   7.352 -0.1092 -0.4024  0.2595
 2633SOL     OW19360   0.751   3.529   7.120  0.2741  0.2871 -0.2254
 2633SOL    HW119361   0.718   3.616   7.144 -0.7751 -0.2934  0.4548
 2633SOL    HW219362   0.833   3.533   7.169  0.8406  0.5238 -1.1875
 2634SOL     OW19363   1.545   0.958   3.465  0.2090 -0.1019 -0.1530
 2634SOL    HW119364   1.627   0.989   3.503  1.0988  1.1955 -3.1425
 2634SOL    HW219365   1.488   0.975   3.539  0.5232 -0.0222  0.0688
 2635SOL     OW19366   0.987   4.114   8.063  0.1926  0.6374 -0.0848
 2635SOL    HW119367   1.028   4.157   8.138 -1.4478 -0.8459  1.6616
 2635SOL    HW219368   0.917   4.172   8.034  0.8334  1.5733  0.2745
 2636SOL     OW19369   0.643   2.775   2.757 -0.4169  0.2580  0.0189
 2636SOL    HW119370   0.721   2.831   2.763 -0.6626  0.5163  0.8324
 2636SOL    HW219371   0.570   2.830   2.730 -0.8943  0.6539  2.1293
 2637SOL     OW19372   0.903   2.376   7.104  0.3202  0.1746 -0.0941
 2637SOL    HW119373   0.831   2.439   7.094 -1.1554 -1.7341 -1.5902
 2637SOL    HW219374   0.920   2.365   7.010  0.6136  3.8067 -0.4545
 2638SOL     OW19375   4.292   1.111   3.221 -0.4712  0.5486  0.0524
 2638SOL    HW119376   4.219   1.060   3.186  1.4894 -1.7465 -0.7231
 2638SOL    HW219377   4.350   1.041   3.251  0.1437 -0.0440 -2.4623
 2639SOL     OW19378   0.220   3.714   1.227 -0.0703 -0.1935  0.1748
 2639SOL    HW119379   0.219   3.654   1.302  2.3324  1.9998  1.9549
 2639SOL    HW219380   0.310   3.727   1.198  0.7658 -4.2466  0.9086
 2640SOL     OW19381   2.112   1.233   9.693  0.0356  0.4511 -0.2751
 2640SOL    HW119382   2.186   1.186   9.654  0.2908  1.5097 -1.0651
 2640SOL    HW219383   2.146   1.320   9.714  1.4715 -0.8061  2.5026
 2641SOL     OW19384   0.736   0.270  14.514  0.4332  0.2246 -0.6471
 2641SOL    HW119385   0.798   0.204  14.481 -1.6235 -1.4518 -1.1294
 2641SOL    HW219386   0.780   0.348  14.479 -0.5824  0.6450 -0.9901
 2642SOL     OW19387   4.097   0.749  14.188  0.6757 -0.1408 -0.5344
 2642SOL    HW119388   4.101   0.837  14.224 -2.5502  0.4712 -1.7183
 2642SOL    HW219389   4.108   0.772  14.096  0.3062 -1.7177 -0.9784
 2643SOL     OW19390   0.736   2.256  17.134  0.7308  0.8448 -0.2535
 2643SOL    HW119391   0.662   2.202  17.105 -0.3990  1.1090  2.0926
 2643SOL    HW219392   0.698   2.326  17.188 -2.1097 -1.0669  0.2091
 2644SOL     OW19393   3.261   1.494  16.138 -0.4376 -0.3448 -0.1446
 2644SOL    HW119394   3.279   1.556  16.209 -1.6078 -0.3431  0.1661
 2644SOL    HW219395   3.165   1.488  16.141 -0.4663  0.0481 -0.2377
 2645SOL     OW19396   0.113   3.378   5.365 -0.9342 -0.5134  0.1064
 2645SOL    HW119397   0.142   3.330   5.443 -1.4679 -2.2793 -0.7906
 2645SOL    HW219398   0.100   3.304   5.306 -1.2335  0.9492 -1.6267
 2646SOL     OW19399   0.772   3.724   0.078 -0.4920  0.1111  0.0367
 2646SOL    HW119400   0.702   3.789   0.069  0.2393  0.6675 -1.9023
 2646SOL    HW219401   0.848   3.775   0.048 -0.9650 -0.1982 -1.6970
 2647SOL     OW19402   2.291   1.069   1.051  0.4420  0.4282 -0.3780
 2647SOL    HW119403   2.294   1.096   1.143  0.2477 -0.9532  0.0384
 2647SOL    HW219404   2.266   1.151   1.008 -0.2382 -0.4557 -1.6685
 2648SOL     OW19405   3.954   1.303   4.616 -0.5799 -0.0954 -0.2202
 2648SOL    HW119406   3.990   1.219   4.587  0.7761  0.7027 -0.8638
 2648SOL    HW219407   3.945   1.357   4.538  2.5917 -0.3607 -0.7955
 2649SOL     OW19408   2.128   4.114   4.070 -0.2155 -0.4519  0.5390
 2649SOL    HW119409   2.189   4.054   4.025 -1.4006  0.5905 -2.4901
 2649SOL    HW219410   2.141   4.197   4.025  2.3449 -0.4530  1.2777
 2650SOL     OW19411   2.780   1.375   1.064  0.2159  0.0209 -0.5766
 2650SOL    HW119412   2.735   1.292   1.078  2.1599 -0.7338  1.1198
 2650SOL    HW219413   2.768   1.390   0.970  1.6022  0.8062 -0.6378
 2651SOL     OW19414   2.159   1.468   6.237 -0.1075  0.6333  0.0472
 2651SOL    HW119415   2.182   1.408   6.308 -0.0621 -0.6542 -1.0708
 2651SOL    HW219416   2.230   1.474   6.174 -0.4256 -1.6503 -0.5213
 2652SOL     OW19417   0.418   3.658   5.380 -0.6997 -0.0041 -0.2260
 2652SOL    HW119418   0.358   3.639   5.307 -0.3127 -2.0744  0.0086
 2652SOL    HW219419   0.353   3.673   5.448  1.0999 -0.4396  1.5891
 2653SOL     OW19420   2.189   2.700   2.658  0.0549 -0.1498  0.5085
 2653SOL    HW119421   2.112   2.673   2.708 -1.3596  4.2535  0.6953
 2653SOL    HW219422   2.218   2.773   2.712  2.2324  0.4550 -1.4840
 2654SOL     OW19423   4.511   1.161   7.854 -0.6396 -0.0414  0.5061
 2654SOL    HW119424   4.431   1.213   7.855 -0.6683 -0.0932  0.9105
 2654SOL    HW219425   4.575   1.221   7.818 -1.5858 -0.4406 -1.8420
 2655SOL     OW19426   0.703   2.515  12.579 -0.2567  0.0679  0.1489
 2655SOL    HW119427   0.747   2.570  12.644  1.1639 -2.1493  1.0539
 2655SOL    HW219428   0.667   2.584  12.523 -1.8956 -0.4552  0.5489
 2656SOL     OW19429   2.648   3.987   4.836 -0.0258 -0.6943 -0.0174
 2656SOL    HW119430   2.680   4.027   4.756 -3.5508  0.2277 -0.9803
 2656SOL    HW219431   2.566   4.033   4.855  0.8417  0.2676  1.4152
 2657SOL     OW19432   4.164   3.217   3.465  0.1416  0.0697 -1.3050
 2657SOL    HW119433   4.140   3.214   3.558  0.3401 -0.9758 -1.2839
 2657SOL    HW219434   4.089   3.269   3.437 -0.7620  0.6503  2.1463
 2658SOL     OW19435   2.389   1.438  14.833 -0.8180  0.1268  0.0591
 2658SOL    HW119436   2.320   1.449  14.767  0.1192 -2.2719 -1.3234
 2658SOL    HW219437   2.405   1.343  14.833  0.2724  0.3211  0.7216
 2659SOL     OW19438   1.500   3.767   6.532 -0.3931  0.1255 -0.0295
 2659SOL    HW119439   1.565   3.747   6.600 -1.3601  0.0745  0.8759
 2659SOL    HW219440   1.520   3.857   6.507 -2.5105  0.7451  0.5139
 2660SOL     OW19441   0.259   1.988  13.747  0.3685 -0.2901  0.5742
 2660SOL    HW119442   0.164   1.982  13.759  0.3013  0.6837  0.5689
 2660SOL    HW219443   0.257   1.969  13.653  0.3127  0.7992  0.3507
 2661SOL     OW19444   0.130   3.017   7.016 -0.2691 -0.0977  0.4562
 2661SOL    HW119445   0.079   2.967   6.953 -0.3972 -2.3872  2.3510
 2661SOL    HW219446   0.058   3.049   7.070 -2.5719 -2.1765 -1.4211
 2662SOL     OW19447   2.874   4.134   2.880  0.4344 -0.1901  0.2030
 2662SOL    HW119448   2.793   4.176   2.852  0.2787 -0.0903  0.8127
 2662SOL    HW219449   2.849   4.045   2.904 -0.6986  0.3347  0.9467
 2663SOL     OW19450   0.131   1.000   3.085 -0.1540  0.6333 -0.0769
 2663SOL    HW119451   0.078   1.014   3.007  0.1816 -1.5670 -0.7100
 2663SOL    HW219452   0.103   1.067   3.148 -0.3069 -1.0126  1.6180
 2664SOL     OW19453   3.025   0.690   0.772  0.1006  0.7717 -0.2644
 2664SOL    HW119454   3.018   0.658   0.861 -1.8729 -2.9041 -1.7347
 2664SOL    HW219455   3.117   0.671   0.753  0.5190  0.9321  1.6929
 2665SOL     OW19456   1.240   4.599   8.686 -0.1221  0.4000 -0.3103
 2665SOL    HW119457   1.200   4.549   8.757  1.4802 -2.0963 -1.1828
 2665SOL    HW219458   1.252   4.522   8.630  0.9397  0.3059  0.0383
 2666SOL     OW19459   1.262   2.027   2.426 -0.2931 -0.2619  0.0733
 2666SOL    HW119460   1.327   2.070   2.370 -1.9405  1.1485 -0.7617
 2666SOL    HW219461   1.273   2.046   2.519  0.0308  0.0936 -0.0383
 2667SOL     OW19462   0.631   0.151   4.110 -0.1275 -0.1670 -0.0135
 2667SOL    HW119463   0.578   0.164   4.189 -0.1415  0.4248 -0.1230
 2667SOL    HW219464   0.570   0.186   4.045 -1.1991 -1.7575  0.1206
 2668SOL     OW19465   0.235   3.290   7.154  0.9634  0.1039 -0.1549
 2668SOL    HW119466   0.184   3.313   7.076 -0.2543 -4.4945 -0.6979
 2668SOL    HW219467   0.250   3.197   7.136  0.8095 -0.1168  0.8382
 2669SOL     OW19468   1.267   0.897   4.007  0.2498 -0.5003  0.0046
 2669SOL    HW119469   1.340   0.837   4.023 -0.5343 -0.8489  2.2307
 2669SOL    HW219470   1.310   0.976   3.974 -0.5341 -0.1377 -0.1495
 2670SOL     OW19471   4.422   0.947  15.931  0.1777 -0.0772  0.2408
 2670SOL    HW119472   4.424   0.866  15.879  0.7278 -0.8427  1.4768
 2670SOL    HW219473   4.338   0.926  15.971 -0.5055 -0.0857 -1.1816
 2671SOL     OW19474   2.400   1.089   3.012  0.0864  0.1690  0.1741
 2671SOL    HW119475   2.458   1.037   3.068  2.1950  1.7667 -0.5292
 2671SOL    HW219476   2.320   1.036   3.010  0.6357 -0.6761  0.4908
 2672SOL     OW19477   0.214   3.565   5.213 -0.1695  0.0660 -0.1239
 2672SOL    HW119478   0.249   3.529   5.131 -1.6213  3.6257 -2.3492
 2672SOL    HW219479   0.189   3.492   5.268 -1.3955  0.2192 -0.4720
 2673SOL     OW19480   0.812   3.965   9.000  0.4206  0.0998  0.7637
 2673SOL    HW119481   0.810   3.870   8.995 -2.3431  0.2019 -0.0625
 2673SOL    HW219482   0.906   3.984   8.996 -0.0799  1.8305 -2.6645
 2674SOL     OW19483   2.237   3.999   7.361  1.1499  0.2332  0.0374
 2674SOL    HW119484   2.241   4.077   7.416  3.3249 -2.2818  3.3863
 2674SOL    HW219485   2.262   4.045   7.280  1.7762 -2.1684 -1.1281
 2675SOL     OW19486   0.926   2.454   4.405 -0.2316 -0.7030 -0.1558
 2675SOL    HW119487   0.870   2.524   4.369  0.9676  1.3309  1.9218
 2675SOL    HW219488   0.891   2.376   4.361  0.1697 -2.1651  2.1475
 2676SOL     OW19489   4.340   0.800   6.943  0.5410  0.5092 -0.0599
 2676SOL    HW119490   4.380   0.875   6.987  0.2935  0.7027 -0.1657
 2676SOL    HW219491   4.409   0.735   6.960 -0.4326 -0.3932  0.4516
 2677SOL     OW19492   4.429   4.175   3.902 -0.0188 -0.3117 -0.1303
 2677SOL    HW119493   4.359   4.157   3.965  0.6990  1.5959  1.2302
 2677SOL    HW219494   4.397   4.257   3.865  0.9857  0.0538 -0.1800
 2678SOL     OW19495   2.567   3.519   9.129 -0.3145  0.3175  0.0356
 2678SOL    HW119496   2.506   3.461   9.083  2.1939 -1.4419 -1.0980
 2678SOL    HW219497   2.547   3.607   9.096 -2.6466  0.9280  3.1221
 2679SOL     OW19498   3.995   1.466  12.021  0.1641  1.2216 -0.0635
 2679SOL    HW119499   3.905   1.440  12.041 -0.0225  1.5547 -0.4639
 2679SOL    HW219500   4.031   1.378  12.033 -1.9398  0.3526 -0.2400
 2680SOL     OW19501   2.067   0.575   0.706  0.5926  0.3962 -0.1996
 2680SOL    HW119502   2.040   0.553   0.617 -1.0316 -0.3899  0.4846
 2680SOL    HW219503   2.020   0.508   0.756  1.4043 -0.4565 -0.5662
 2681SOL     OW19504   0.958   2.039   5.920  0.1715  0.1692 -0.5109
 2681SOL    HW119505   0.993   2.031   5.831 -2.0271  0.5172 -1.4211
 2681SOL    HW219506   0.913   1.954   5.924  0.5299 -0.1059 -2.4118
 2682SOL     OW19507   0.362   1.121  11.496  0.5803 -0.4897  0.4007
 2682SOL    HW119508   0.409   1.189  11.545  0.1286 -1.1001  1.6853
 2682SOL    HW219509   0.297   1.180  11.457  0.3936 -1.3755 -0.6123
 2683SOL     OW19510   4.635   2.612   1.279 -0.9763 -0.2741 -0.1484
 2683SOL    HW119511   4.693   2.688   1.268 -1.8694  0.4812  0.3506
 2683SOL    HW219512   4.684   2.546   1.229  0.6024 -1.4899  3.0261
 2684SOL     OW19513   0.873   3.691   5.505  0.3082  0.0493 -0.4543
 2684SOL    HW119514   0.925   3.673   5.583  0.0118  0.3131 -0.1914
 2684SOL    HW219515   0.845   3.602   5.482 -1.4154  0.4910 -0.1008
 2685SOL     OW19516   0.116   0.651   4.731 -0.0607 -0.1626 -0.2201
 2685SOL    HW119517   0.202   0.616   4.752  0.2184  1.7230  1.7312
 2685SOL    HW219518   0.144   0.714   4.664  0.8480 -2.6355 -2.1686
 2686SOL     OW19519   0.508   1.710   4.895 -0.2876 -0.2931  0.2952
 2686SOL    HW119520   0.572   1.662   4.947 -0.9742 -0.6320  0.8320
 2686SOL    HW219521   0.573   1.768   4.855 -3.0367  2.9482  0.5409
 2687SOL     OW19522   3.365   1.440   2.565  0.0475 -0.5888 -0.5882
 2687SOL    HW119523   3.343   1.499   2.493 -1.8934  0.5130  0.8989
 2687SOL    HW219524   3.449   1.400   2.542  1.2925  1.4312  0.4827
 2688SOL     OW19525   3.213   0.651   8.855 -0.2244  0.0282  0.0801
 2688SOL    HW119526   3.251   0.588   8.917 -1.3490 -1.4625 -0.7268
 2688SOL    HW219527   3.291   0.703   8.838 -0.7179  0.8581  0.3582
 2689SOL     OW19528   2.486   0.519   9.857 -0.3861 -0.2782  0.2212
 2689SOL    HW119529   2.490   0.554   9.768  2.4600 -1.3310 -0.0746
 2689SOL    HW219530   2.554   0.569   9.902 -1.3324  0.5215  0.7796
 2690SOL     OW19531   2.118   0.215   6.070  0.1335 -0.3775  0.0637
 2690SOL    HW119532   2.148   0.187   5.983 -1.3684  1.2743 -0.9825
 2690SOL    HW219533   2.154   0.304   6.077 -0.9084 -0.0564  1.2422
 2691SOL     OW19534   2.803   4.264  14.544 -0.5283  0.1326  0.5986
 2691SOL    HW119535   2.712   4.236  14.553 -0.5539 -0.0017 -0.1401
 2691SOL    HW219536   2.831   4.253  14.635 -1.6496  0.0400  0.9276
 2692SOL     OW19537   2.819   0.861   2.547  0.4534  0.1194  0.5096
 2692SOL    HW119538   2.755   0.930   2.528  0.5000  0.2441  0.8074
 2692SOL    HW219539   2.903   0.907   2.554  0.8351 -0.2691 -1.7147
 2693SOL     OW19540   4.083   0.154   2.596  0.0706  0.2151 -0.4541
 2693SOL    HW119541   3.993   0.170   2.568  0.0733 -1.6820 -1.5523
 2693SOL    HW219542   4.071   0.169   2.690 -2.1018  2.9952 -1.1834
 2694SOL     OW19543   0.041   3.325   4.638 -0.4276  0.1478 -0.6458
 2694SOL    HW119544   0.001   3.249   4.680  0.6446  1.4283  2.7161
 2694SOL    HW219545   0.123   3.279   4.620 -2.1864 -2.9268 -0.7571
 2695SOL     OW19546   0.488   1.988  13.207 -0.0667  0.4848  0.2149
 2695SOL    HW119547   0.574   2.028  13.199  0.1299 -0.1099 -0.5637
 2695SOL    HW219548   0.492   1.970  13.301 -0.1962 -0.2580  0.0776
 2696SOL     OW19549   4.296   3.623   0.001  0.1063  0.3803  0.3399
 2696SOL    HW119550   4.217   3.677  17.688  0.1903  0.6063  1.1972
 2696SOL    HW219551   4.257   3.537  17.684 -3.3893  1.7530  1.9798
 2697SOL     OW19552   2.320   1.359   1.595  0.0741 -0.1479 -0.6804
 2697SOL    HW119553   2.309   1.291   1.662  0.5326  0.9895  0.5564
 2697SOL    HW219554   2.378   1.322   1.529 -0.5588 -1.3152 -0.5826
 2698SOL     OW19555   0.406   0.216   5.258 -0.0544  0.6008 -0.0669
 2698SOL    HW119556   0.482   0.164   5.230 -0.4308  1.0128 -1.8733
 2698SOL    HW219557   0.350   0.201   5.182  0.6884 -0.1701 -0.4608
 2699SOL     OW19558   4.408   2.595  11.624 -0.2735 -0.0575 -0.0577
 2699SOL    HW119559   4.330   2.627  11.669 -0.2255 -1.0732  0.7658
 2699SOL    HW219560   4.447   2.679  11.601  1.1030  0.4015  3.9543
 2700SOL     OW19561   3.380   2.691   0.856 -0.7674 -0.3177  0.0631
 2700SOL    HW119562   3.453   2.630   0.863 -1.5128 -1.2826 -0.6309
 2700SOL    HW219563   3.307   2.634   0.879  0.2828 -1.4277  0.6235
 2701SOL     OW19564   3.213   1.905   3.446  0.4038 -0.5143 -0.2196
 2701SOL    HW119565   3.243   1.960   3.373 -1.9309  1.4709  0.3007
 2701SOL    HW219566   3.126   1.944   3.455 -0.0896 -1.3964 -1.1062
 2702SOL     OW19567   3.731   0.789  13.237  0.2883  0.6220 -0.3597
 2702SOL    HW119568   3.746   0.830  13.323  0.4230 -2.9764  1.3660
 2702SOL    HW219569   3.762   0.699  13.252 -1.2591  0.2850  0.8166
 2703SOL     OW19570   4.251   4.158   5.175 -0.0276  0.2079  0.0137
 2703SOL    HW119571   4.216   4.124   5.093 -0.0748 -0.9285  0.4981
 2703SOL    HW219572   4.170   4.177   5.223 -0.0158 -1.8223  0.8116
 2704SOL     OW19573   4.719   0.601   3.650 -0.4137 -0.4992  0.3290
 2704SOL    HW119574   4.630   0.622   3.676 -0.0813  0.8277  0.4034
 2704SOL    HW219575   0.000   0.505   3.660 -1.2515 -0.4124  1.4850
 2705SOL     OW19576   0.699   0.068   9.623 -0.3899 -0.6498  0.0151
 2705SOL    HW119577   0.781   0.051   9.670  0.3904  2.7589 -0.1001
 2705SOL    HW219578   0.650   0.120   9.686  1.2503 -1.7248  2.1874
 2706SOL     OW19579   2.509   1.494   8.902 -0.2806  0.0786 -0.2484
 2706SOL    HW119580   2.546   1.449   8.978 -0.9236 -0.0335 -0.0014
 2706SOL    HW219581   2.577   1.557   8.879  0.7122 -1.0925 -0.4724
 2707SOL     OW19582   3.834   2.039   2.892  0.3952  0.1241  0.0462
 2707SOL    HW119583   3.837   1.955   2.847  0.8376  0.8693 -1.3238
 2707SOL    HW219584   3.928   2.058   2.898 -0.1940  2.1640  3.0021
 2708SOL     OW19585   2.319   2.727   9.973 -0.3163  0.4415  0.5078
 2708SOL    HW119586   2.345   2.819   9.973 -0.4194  0.4716 -1.0064
 2708SOL    HW219587   2.266   2.729  10.053 -2.8822  1.5695 -1.2383
 2709SOL     OW19588   0.624   2.711   7.534  0.3543  0.2768  0.0003
 2709SOL    HW119589   0.677   2.648   7.583 -0.6641  0.1955  0.9733
 2709SOL    HW219590   0.697   2.769   7.509 -0.1866  2.1609  2.7902
 2710SOL     OW19591   0.525   2.643   8.642  0.3120 -0.1303 -0.1675
 2710SOL    HW119592   0.461   2.572   8.648  2.4918 -1.9353  1.9735
 2710SOL    HW219593   0.538   2.683   8.728 -0.5739 -0.6797  0.2219
 2711SOL     OW19594   2.365   4.443   5.657 -0.3960 -0.2191 -0.0734
 2711SOL    HW119595   2.273   4.451   5.684 -0.8128  1.1740 -1.9531
 2711SOL    HW219596   2.358   4.376   5.589  1.2991 -0.6280  0.1516
 2712SOL     OW19597   1.071   4.396   2.521 -0.1256  0.4137  0.3288
 2712SOL    HW119598   0.991   4.419   2.569 -0.6174  0.3618 -0.4825
 2712SOL    HW219599   1.098   4.486   2.501  1.6111 -0.3048 -0.6041
 2713SOL     OW19600   3.519   4.125  11.941  0.2577 -0.5131 -0.6725
 2713SOL    HW119601   3.589   4.188  11.961  0.5206 -0.4065 -1.9279
 2713SOL    HW219602   3.535   4.124  11.847 -0.5260 -2.1198 -0.7709
 2714SOL     OW19603   1.941   1.094   5.053  0.1819 -0.3948  0.1291
 2714SOL    HW119604   1.880   1.027   5.023 -0.8422  1.0773 -1.0706
 2714SOL    HW219605   1.899   1.175   5.025  0.0335 -1.2669 -2.2349
 2715SOL     OW19606   3.451   2.484   1.610 -0.0687 -0.6370 -0.1090
 2715SOL    HW119607   3.539   2.482   1.573 -0.2606 -3.0714 -0.4707
 2715SOL    HW219608   3.452   2.557   1.672 -1.5489  0.1760 -1.0392
 2716SOL     OW19609   0.320   1.561   8.575 -0.4919  0.0986  0.0481
 2716SOL    HW119610   0.402   1.548   8.623  1.3098  0.5071 -2.9365
 2716SOL    HW219611   0.306   1.471   8.543 -0.0798 -0.3421  1.1055
 2717SOL     OW19612   0.670   4.565  10.887 -0.1198 -0.1781 -0.6665
 2717SOL    HW119613   0.585   4.557  10.931  0.8852 -0.2042  1.2293
 2717SOL    HW219614   0.674   4.477  10.849 -0.8214 -1.2445  1.7108
 2718SOL     OW19615   2.036   4.117   8.922  0.0144  0.5303 -0.1027
 2718SOL    HW119616   1.945   4.114   8.952  0.0237 -2.2686 -0.3188
 2718SOL    HW219617   2.061   4.169   8.998 -1.0871  0.7899  0.0828
 2719SOL     OW19618   0.361   3.004  12.810 -0.0425  0.4103  0.0221
 2719SOL    HW119619   0.375   2.946  12.735 -1.8019 -2.4006  1.8754
 2719SOL    HW219620   0.435   3.065  12.812  0.1530  0.2535 -2.2156
 2720SOL     OW19621   1.135   0.793   3.513  0.0677  0.2011  0.0283
 2720SOL    HW119622   1.045   0.809   3.542 -0.7264 -0.8087 -1.8900
 2720SOL    HW219623   1.174   0.881   3.510 -1.9974  1.1248  0.1896
 2721SOL     OW19624   1.034   3.971   7.082  0.7407 -0.0126 -0.1381
 2721SOL    HW119625   1.057   3.892   7.033  0.1278  0.1196 -0.6375
 2721SOL    HW219626   0.961   4.000   7.028  1.5589 -0.5335 -1.5318
 2722SOL     OW19627   0.754   0.985   3.092  0.0313  0.0103 -0.4782
 2722SOL    HW119628   0.698   1.016   3.020 -0.5749  0.4023  0.1520
 2722SOL    HW219629   0.797   0.908   3.054  0.4225  0.3350 -0.6979
 2723SOL     OW19630   0.538   1.404   2.541  0.0888  0.1241  0.0839
 2723SOL    HW119631   0.484   1.473   2.580 -2.3892 -0.2004 -2.7094
 2723SOL    HW219632   0.626   1.442   2.540  0.3037 -0.3758  1.3759
 2724SOL     OW19633   4.083   4.706   5.396 -0.7920  0.2459 -0.2697
 2724SOL    HW119634   4.160   0.036   5.375 -0.3940  0.4059  1.5705
 2724SOL    HW219635   4.099   4.700   5.490 -1.6461  0.8876 -0.0829
 2725SOL     OW19636   0.489   0.660  12.325  0.3067 -0.6896  0.2349
 2725SOL    HW119637   0.559   0.599  12.302 -0.2526 -1.3525  0.3008
 2725SOL    HW219638   0.418   0.630  12.268 -0.6760  3.2487 -0.6141
 2726SOL     OW19639   0.895   1.377  13.828 -0.5050 -0.5624  0.0275
 2726SOL    HW119640   0.813   1.424  13.841 -1.2209 -1.5190 -0.9749
 2726SOL    HW219641   0.896   1.373  13.732  0.4091 -0.1022  0.0229
 2727SOL     OW19642   2.757   3.739   4.925  0.0972  0.3199  0.2150
 2727SOL    HW119643   2.726   3.813   4.873 -0.3964  0.7270  1.0971
 2727SOL    HW219644   2.816   3.783   4.986 -0.3045 -1.1409  1.6604
 2728SOL     OW19645   0.752   4.708   9.169 -0.3924 -0.1520  0.1224
 2728SOL    HW119646   0.739   4.679   9.260  0.4341 -2.8330 -0.6008
 2728SOL    HW219647   0.847   4.716   9.164 -0.1479 -1.5896  2.4572
 2729SOL     OW19648   1.244   1.218   5.111  0.1459 -0.0508  0.1646
 2729SOL    HW119649   1.265   1.149   5.048 -1.6855 -0.7425  0.3145
 2729SOL    HW219650   1.178   1.183   5.171 -1.3896 -1.0409 -2.0827
 2730SOL     OW19651   2.661   2.162   6.109  0.2605 -0.2930 -0.1270
 2730SOL    HW119652   2.568   2.142   6.100 -0.4520  1.6817  2.8671
 2730SOL    HW219653   2.663   2.242   6.056  0.4986 -0.4147 -0.2988
 2731SOL     OW19654   4.234   0.638   5.528 -0.1903 -0.3788  0.0436
 2731SOL    HW119655   4.278   0.722   5.516 -0.4291 -0.6844 -3.0511
 2731SOL    HW219656   4.300   0.584   5.570  0.5922 -0.2241 -0.9783
 2732SOL     OW19657   4.043   2.763  14.742  0.1154  0.4611 -0.1308
 2732SOL    HW119658   4.021   2.816  14.666 -0.3776 -0.0976 -0.3710
 2732SOL    HW219659   4.136   2.785  14.749  0.3359 -0.5864  0.1655
 2733SOL     OW19660   1.789   4.332   2.158 -0.0883 -0.0510 -0.7302
 2733SOL    HW119661   1.725   4.342   2.088  0.0649  0.1717 -0.8375
 2733SOL    HW219662   1.744   4.276   2.221 -0.8055  1.0548 -0.2531
 2734SOL     OW19663   1.062   4.701   3.604  0.0959 -0.1093  0.1486
 2734SOL    HW119664   1.056   4.623   3.660 -0.9121 -0.7406 -0.8399
 2734SOL    HW219665   1.008   4.674   3.529  1.1428 -1.8097 -0.0192
 2735SOL     OW19666   4.019   1.932   3.821  0.4383  0.2909  0.5205
 2735SOL    HW119667   4.099   1.880   3.827  1.1568  1.5825  2.6037
 2735SOL    HW219668   4.036   2.009   3.877  1.6397  0.1252  0.3782
 2736SOL     OW19669   0.528   1.111   8.250  0.0127 -0.8596 -0.1206
 2736SOL    HW119670   0.437   1.100   8.221  0.2964  0.0194 -1.3276
 2736SOL    HW219671   0.519   1.132   8.343  0.5609  0.3133 -0.3332
 2737SOL     OW19672   4.407   3.453  17.317  0.4208  0.2511  0.0038
 2737SOL    HW119673   4.458   3.443  17.397 -3.1165  2.0354  2.4561
 2737SOL    HW219674   4.479   3.448  17.254  1.0837 -0.6075  0.8384
 2738SOL     OW19675   2.654   1.094  16.573  0.6058 -0.3544 -0.1133
 2738SOL    HW119676   2.654   1.058  16.485 -2.1373 -1.3685  0.3095
 2738SOL    HW219677   2.700   1.178  16.563 -0.8270  0.4076 -0.3121
 2739SOL     OW19678   3.815   2.568   2.217 -0.5702 -0.0268 -0.5888
 2739SOL    HW119679   3.759   2.645   2.216  0.5900  0.8203  2.1319
 2739SOL    HW219680   3.752   2.497   2.230 -1.3692  0.4326 -1.9663
 2740SOL     OW19681   2.983   3.238   7.891  0.3523 -0.1556  0.1500
 2740SOL    HW119682   2.971   3.146   7.870  1.9655 -0.1727 -0.6493
 2740SOL    HW219683   3.051   3.228   7.957  0.6741  1.2601  0.0396
 2741SOL     OW19684   2.401   2.627   4.391 -0.1632  0.1458 -0.4110
 2741SOL    HW119685   2.383   2.711   4.433  2.5124  0.3607  0.3037
 2741SOL    HW219686   2.448   2.573   4.455 -0.6545 -0.3469 -0.4632
 2742SOL     OW19687   0.557   3.943   3.358  0.0256 -0.2425  0.9101
 2742SOL    HW119688   0.577   3.863   3.309 -1.9930 -0.4248  0.3930
 2742SOL    HW219689   0.513   3.907   3.435  0.1630 -1.8728  0.2198
 2743SOL     OW19690   3.577   3.996   1.659 -0.5698  0.3175 -0.3751
 2743SOL    HW119691   3.559   4.085   1.629 -3.0796  0.4198  1.4363
 2743SOL    HW219692   3.603   4.004   1.751 -0.9341 -1.8104 -0.0835
 2744SOL     OW19693   3.197   0.335  15.255 -0.4198  0.0527  0.2475
 2744SOL    HW119694   3.216   0.389  15.331  1.5202  0.9911 -0.9312
 2744SOL    HW219695   3.109   0.301  15.274 -0.2877  0.0489  0.8493
 2745SOL     OW19696   0.211   2.121   3.300  1.1108  0.3908  0.3639
 2745SOL    HW119697   0.184   2.083   3.216  0.7215 -0.9843  1.1071
 2745SOL    HW219698   0.199   2.213   3.276 -2.0425  0.4933  2.2984
 2746SOL     OW19699   1.214   3.756   6.523 -0.0031 -0.1523 -0.0558
 2746SOL    HW119700   1.233   3.665   6.501  0.7966  0.4052 -1.7027
 2746SOL    HW219701   1.280   3.774   6.590  0.1636 -1.0481  0.0236
 2747SOL     OW19702   3.371   3.607   0.444  0.1804 -0.0870  0.3321
 2747SOL    HW119703   3.375   3.692   0.400 -0.2234  0.9049  2.2150
 2747SOL    HW219704   3.291   3.568   0.408  0.1613  1.6417 -1.4657
 2748SOL     OW19705   4.010   1.739  12.125 -0.0333 -0.7417 -0.2266
 2748SOL    HW119706   4.000   1.647  12.104  2.5952 -1.8196  3.1910
 2748SOL    HW219707   3.969   1.738  12.211 -0.7994  1.5049 -0.5671
 2749SOL     OW19708   0.314   3.134   4.991  0.2578  0.3831 -0.5467
 2749SOL    HW119709   0.332   3.051   4.947 -2.4793 -0.3270 -0.2914
 2749SOL    HW219710   0.375   3.144   5.064  0.0570  3.6745 -0.8309
 2750SOL     OW19711   1.775   1.296  16.870 -0.0789 -0.3184  0.0388
 2750SOL    HW119712   1.844   1.288  16.805  1.3575 -3.0950  1.8998
 2750SOL    HW219713   1.820   1.286  16.954 -0.6609 -2.1598  0.1325
 2751SOL     OW19714   3.720   1.736  13.892 -0.0344 -0.1368  0.8100
 2751SOL    HW119715   3.732   1.787  13.972  2.7678 -0.0518  0.3452
 2751SOL    HW219716   3.639   1.776  13.862  1.2460  1.8595  0.0033
 2752SOL     OW19717   4.701   1.297  13.194 -0.5158  0.7520  0.3680
 2752SOL    HW119718   4.700   1.215  13.144 -0.5944  0.0174  1.5817
 2752SOL    HW219719   4.624   1.275  13.247  0.1897 -2.2973  0.1489
 2753SOL     OW19720   1.634   1.700  11.399 -0.2205 -0.8495 -0.2644
 2753SOL    HW119721   1.636   1.759  11.324  0.0367 -2.2256 -1.3216
 2753SOL    HW219722   1.541   1.680  11.396 -0.3046 -0.6126  0.6510
 2754SOL     OW19723   3.141   2.744   0.549  1.1742 -0.0307  0.5004
 2754SOL    HW119724   3.050   2.737   0.579  0.5846  0.6406 -1.0873
 2754SOL    HW219725   3.178   2.669   0.594  0.5547  0.5221  1.9251
 2755SOL     OW19726   1.427   2.974   8.500 -0.3616 -0.2910  0.5868
 2755SOL    HW119727   1.438   3.010   8.412 -1.2466 -0.1611  0.5283
 2755SOL    HW219728   1.430   2.881   8.475  0.6659 -0.1945  0.3586
 2756SOL     OW19729   0.015   0.441   2.290 -0.2042 -0.0630  0.2920
 2756SOL    HW119730   4.717   0.523   2.245 -0.3529 -0.0084  0.4580
 2756SOL    HW219731   4.695   0.466   2.372  1.0069  0.2429  0.8268
 2757SOL     OW19732   3.234   3.766  10.167  0.7636  0.6077 -0.0544
 2757SOL    HW119733   3.319   3.736  10.198  0.2399 -0.4857  0.3088
 2757SOL    HW219734   3.176   3.690  10.174  0.2458  0.9415 -0.7490
 2758SOL     OW19735   0.943   2.675   5.261 -0.6708  1.0896  0.8514
 2758SOL    HW119736   0.961   2.626   5.180  0.8586  1.6685  0.8536
 2758SOL    HW219737   1.012   2.642   5.319 -0.1644 -1.9345 -1.4281
 2759SOL     OW19738   2.375   0.163   6.155 -0.2633 -0.4225  0.1255
 2759SOL    HW119739   2.393   0.071   6.138  2.5598  0.0972  0.2535
 2759SOL    HW219740   2.283   0.164   6.127 -0.4919 -1.2760  0.8390
 2760SOL     OW19741   3.768   0.269   7.870  0.1950 -0.1212 -0.1015
 2760SOL    HW119742   3.799   0.355   7.841 -2.1569  1.1382  1.1529
 2760SOL    HW219743   3.824   0.210   7.820  1.4898 -0.1346  1.3790
 2761SOL     OW19744   1.989   0.422   8.379  0.3594 -0.7436  0.2123
 2761SOL    HW119745   2.024   0.506   8.351  1.0883 -0.5694  1.6506
 2761SOL    HW219746   1.930   0.460   8.445 -1.1693 -1.3777 -0.7792
 2762SOL     OW19747   1.996   3.361  11.768  0.3363 -0.1568  0.1371
 2762SOL    HW119748   2.085   3.389  11.744  1.6446 -2.0212  2.8131
 2762SOL    HW219749   1.942   3.433  11.737  1.9870  1.5725  1.3143
 2763SOL     OW19750   3.293   0.563  15.933  0.4382  0.1620  0.2130
 2763SOL    HW119751   3.251   0.556  16.019  0.0059  2.7654  0.2342
 2763SOL    HW219752   3.274   0.650  15.896 -0.9453 -0.3295 -0.2114
 2764SOL     OW19753   0.984   0.012  12.943 -0.0324  0.3187 -0.0012
 2764SOL    HW119754   0.926   4.668  12.978 -0.3711  0.1982 -0.7965
 2764SOL    HW219755   1.005   0.071  13.016 -0.1133  0.7257 -0.3093
 2765SOL     OW19756   0.587   2.063  11.304  0.2636  0.1823 -0.0976
 2765SOL    HW119757   0.667   2.107  11.275  0.8871 -1.7024 -1.2326
 2765SOL    HW219758   0.618   2.023  11.386  0.1657 -0.0775 -0.1858
 2766SOL     OW19759   0.274   4.154   7.256  0.2184 -0.4744 -0.0172
 2766SOL    HW119760   0.222   4.203   7.192  0.5721 -0.8074 -0.5573
 2766SOL    HW219761   0.248   4.197   7.338 -1.9034  0.2841 -1.1044
 2767SOL     OW19762   3.634   3.091   7.993  0.6034 -0.0521  0.3593
 2767SOL    HW119763   3.620   3.010   7.945  0.5619 -0.4748  1.0811
 2767SOL    HW219764   3.700   3.066   8.057 -1.0122 -1.7910  1.3444
 2768SOL     OW19765   2.800   4.152   3.438 -0.4506  0.2186 -0.2156
 2768SOL    HW119766   2.851   4.100   3.375  1.6592  2.0746 -0.0246
 2768SOL    HW219767   2.766   4.079   3.489  1.7465 -0.4743  0.2788
 2769SOL     OW19768   1.120   4.078  16.837 -0.0380 -0.0348  0.3457
 2769SOL    HW119769   1.063   4.083  16.760 -0.4126  0.7927  0.6825
 2769SOL    HW219770   1.066   4.035  16.902  1.9225 -0.6249  1.5607
 2770SOL     OW19771   3.117   1.170  10.956  0.0419 -0.2709 -0.4430
 2770SOL    HW119772   3.103   1.203  10.867 -1.1575 -0.7441 -0.4252
 2770SOL    HW219773   3.110   1.079  10.928 -0.3894 -0.5962  0.7586
 2771SOL     OW19774   2.297   4.066   1.977 -0.2470 -0.7357 -0.4029
 2771SOL    HW119775   2.388   4.091   1.965 -1.1421  2.9214  0.4155
 2771SOL    HW219776   2.300   3.986   2.030 -2.5074 -2.0546 -2.2436
 2772SOL     OW19777   1.971   4.094   4.862  0.4569  0.0234 -0.0324
 2772SOL    HW119778   1.964   4.181   4.823 -0.6730  0.0086  0.1506
 2772SOL    HW219779   1.943   4.041   4.788 -0.9052  0.5176  0.1367
 2773SOL     OW19780   0.530   1.060   8.891  0.1922 -0.5422 -0.1105
 2773SOL    HW119781   0.623   1.042   8.908 -0.1390 -0.5889  1.7123
 2773SOL    HW219782   0.528   1.156   8.892  0.3849 -0.5395  0.0281
 2774SOL     OW19783   4.542   2.065  17.408  0.9687 -0.3730  0.2363
 2774SOL    HW119784   4.544   2.028  17.320  0.2954  0.8762 -0.3048
 2774SOL    HW219785   4.520   2.156  17.390  0.6995 -0.6711 -0.9217
 2775SOL     OW19786   4.593   0.984   8.939 -0.0034  0.1607  0.2886
 2775SOL    HW119787   4.574   0.891   8.943 -1.1168  0.4061  0.7816
 2775SOL    HW219788   4.532   1.005   9.009  0.5672 -2.4600  1.5508
 2776SOL     OW19789   2.672   4.236   8.767 -0.0494 -0.4639  0.4069
 2776SOL    HW119790   2.727   4.196   8.698 -1.2479  0.8585 -1.3068
 2776SOL    HW219791   2.678   4.330   8.750  0.9226 -0.4682  0.7215
 2777SOL     OW19792   3.437   2.894  14.464 -0.6127 -0.2617  0.2476
 2777SOL    HW119793   3.392   2.812  14.442 -0.2846 -0.5535  0.6571
 2777SOL    HW219794   3.514   2.900  14.408 -0.8607 -0.1400 -0.0786
 2778SOL     OW19795   3.108   4.538   7.951 -0.3336  0.0511 -0.3472
 2778SOL    HW119796   3.181   4.489   7.989  0.9916  2.6056  0.4372
 2778SOL    HW219797   3.112   4.485   7.872 -1.4955 -0.1895 -0.2386
 2779SOL     OW19798   1.286   0.732   6.810  0.4428  0.0350 -0.8364
 2779SOL    HW119799   1.303   0.725   6.903 -1.0761  1.8337 -0.4067
 2779SOL    HW219800   1.250   0.821   6.807  0.2592 -0.0318 -0.5678
 2780SOL     OW19801   3.916   2.780   3.891 -0.7350 -0.2931  0.4386
 2780SOL    HW119802   3.882   2.868   3.880  1.5119  0.6252  0.9505
 2780SOL    HW219803   4.010   2.795   3.902 -0.8563  1.6306 -1.2887
 2781SOL     OW19804   0.169   0.071   1.293  0.2045 -0.4609  0.1318
 2781SOL    HW119805   0.086   0.036   1.326  0.2546 -1.1565 -0.4841
 2781SOL    HW219806   0.223   0.085   1.372 -2.4260  2.5659  1.3746
 2782SOL     OW19807   2.695   2.229   6.678  0.7842  0.2282  0.7379
 2782SOL    HW119808   2.771   2.252   6.623 -0.5159 -1.7131 -1.8963
 2782SOL    HW219809   2.716   2.136   6.688  0.0232 -0.1079 -0.7017
 2783SOL     OW19810   0.460   2.322  12.492 -0.1406 -0.0400 -0.2364
 2783SOL    HW119811   0.432   2.308  12.582 -1.5632 -0.3556 -0.7250
 2783SOL    HW219812   0.547   2.285  12.504 -0.2888 -0.8605 -1.6553
 2784SOL     OW19813   3.121   0.699   2.036  0.0423 -0.1225  0.2639
 2784SOL    HW119814   3.081   0.771   1.987 -1.1570 -0.4771  0.7284
 2784SOL    HW219815   3.108   0.624   1.976 -1.7625  0.9752 -0.7329
 2785SOL     OW19816   2.435   0.597   7.080  0.2909  0.0013  0.5543
 2785SOL    HW119817   2.517   0.553   7.103  0.4361 -0.1466 -0.2504
 2785SOL    HW219818   2.388   0.523   7.042 -0.4768 -0.6950  2.8749
 2786SOL     OW19819   1.428   4.133   8.196  0.8486 -0.4837 -0.1290
 2786SOL    HW119820   1.358   4.068   8.187  1.5785 -1.3460  0.4374
 2786SOL    HW219821   1.492   4.074   8.156  0.8526  0.3267 -1.2984
 2787SOL     OW19822   1.710   2.527   2.272  0.0428  0.1654 -0.2076
 2787SOL    HW119823   1.743   2.587   2.205  1.1916  0.1938  0.3848
 2787SOL    HW219824   1.672   2.583   2.341  0.2159  1.8635 -1.4775
 2788SOL     OW19825   3.700   2.742   5.220  0.3079  0.2759 -0.1818
 2788SOL    HW119826   3.716   2.658   5.178  1.2363  1.2437 -1.7635
 2788SOL    HW219827   3.622   2.774   5.176  0.4047  1.6377  0.6265
 2789SOL     OW19828   0.642   1.217   4.867 -0.3307  0.0270  0.2099
 2789SOL    HW119829   0.623   1.127   4.893  1.7427 -0.3793  0.3563
 2789SOL    HW219830   0.736   1.206   4.851 -0.6000  1.6477 -2.5384
 2790SOL     OW19831   2.456   1.904   4.058 -0.7086  0.2210  0.1122
 2790SOL    HW119832   2.475   1.996   4.037  0.4826 -0.2949 -0.9812
 2790SOL    HW219833   2.389   1.874   3.997 -1.1059 -2.5636  1.9393
 2791SOL     OW19834   3.459   0.532  14.316 -0.6312 -0.9959  0.3084
 2791SOL    HW119835   3.380   0.495  14.356 -0.7658 -1.4724 -0.3894
 2791SOL    HW219836   3.527   0.492  14.371 -0.9035  0.2398  1.5340
 2792SOL     OW19837   0.441   1.611   6.488 -0.0257  0.3298  0.0829
 2792SOL    HW119838   0.433   1.519   6.463 -0.4144  0.5735 -0.6854
 2792SOL    HW219839   0.401   1.612   6.574 -0.5614  1.1356 -0.1700
 2793SOL     OW19840   1.780   0.899  16.742  0.7775 -0.5633 -0.5004
 2793SOL    HW119841   1.686   0.887  16.726  0.4284  0.6360  0.5723
 2793SOL    HW219842   1.793   0.901  16.837  0.5075 -1.0426 -0.4535
 2794SOL     OW19843   2.724   2.911  12.195  0.0595  0.0937 -0.0069
 2794SOL    HW119844   2.687   2.967  12.263 -1.4267 -2.6894  1.4831
 2794SOL    HW219845   2.813   2.943  12.181  1.8449 -4.5789  0.5628
 2795SOL     OW19846   0.108   3.833   5.770  0.1512 -0.1464  0.5562
 2795SOL    HW119847   0.089   3.859   5.680 -1.7254 -1.3711  0.5910
 2795SOL    HW219848   0.199   3.804   5.770  0.1311 -0.1387 -3.6535
 2796SOL     OW19849   1.748   4.238   8.413 -0.4150  0.5768  0.1515
 2796SOL    HW119850   1.694   4.308   8.376  0.0605  0.6737 -0.3590
 2796SOL    HW219851   1.833   4.275   8.433 -0.0225 -1.0541  1.5039
 2797SOL     OW19852   3.344   3.775   9.021 -0.5196 -0.1860  0.5050
 2797SOL    HW119853   3.354   3.714   8.948  1.4407  0.3670  0.3027
 2797SOL    HW219854   3.375   3.725   9.096  1.1124 -1.0694 -0.7680
 2798SOL     OW19855   2.857   3.411   8.052 -0.2308  0.5095 -0.3819
 2798SOL    HW119856   2.892   3.343   7.995 -0.5351 -0.3547  0.4771
 2798SOL    HW219857   2.936   3.455   8.081  0.7822 -0.4465 -1.6757
 2799SOL     OW19858   1.786   3.084   4.218  0.1745 -0.2121 -0.2086
 2799SOL    HW119859   1.727   3.009   4.224  1.3064 -1.0594  0.3904
 2799SOL    HW219860   1.873   3.045   4.228  0.4133  0.7902  1.6590
 2800SOL     OW19861   1.432   0.614  11.924 -0.3499 -0.4409 -0.0004
 2800SOL    HW119862   1.360   0.580  11.977 -0.2786 -1.2116 -0.3858
 2800SOL    HW219863   1.379   0.650  11.853  1.4761  0.2922 -0.9727
 2801SOL     OW19864   2.792   1.050   9.652 -0.2955  0.4923 -0.2268
 2801SOL    HW119865   2.801   1.032   9.558 -0.2676 -3.2735  0.5001
 2801SOL    HW219866   2.774   0.961   9.684  0.7909 -0.2276 -1.5989
 2802SOL     OW19867   2.183   2.156   6.928 -0.3987 -0.0301 -0.7561
 2802SOL    HW119868   2.261   2.162   6.982  1.1284 -0.9956 -2.8651
 2802SOL    HW219869   2.134   2.234   6.952  0.0348 -0.1653  0.5879
 2803SOL     OW19870   0.670   1.260   7.272  0.8002 -0.1775 -0.7243
 2803SOL    HW119871   0.706   1.330   7.326 -0.9904  1.0883 -1.1776
 2803SOL    HW219872   0.598   1.297   7.221  0.5317  1.9250  1.2131
 2804SOL     OW19873   2.280   2.570   5.298  0.3803 -0.4713  0.1819
 2804SOL    HW119874   2.321   2.510   5.237  0.4708 -0.3474  0.1199
 2804SOL    HW219875   2.190   2.582   5.268  0.3908 -2.2239 -0.5409
 2805SOL     OW19876   3.593   3.497   7.811  0.2400  0.3129  0.2249
 2805SOL    HW119877   3.541   3.420   7.832  1.2079 -0.2954  0.4026
 2805SOL    HW219878   3.528   3.566   7.825 -0.4868 -0.4036  0.3346
 2806SOL     OW19879   1.242   0.354  12.545 -0.1318  0.3540  0.1026
 2806SOL    HW119880   1.260   0.275  12.494  0.7752  0.0184  0.9365
 2806SOL    HW219881   1.314   0.412  12.521  0.4838 -0.9805 -1.2776
 2807SOL     OW19882   0.921   0.502  13.244  0.2517  0.0877 -0.3066
 2807SOL    HW119883   0.960   0.436  13.302  2.1654  1.7211  0.2684
 2807SOL    HW219884   0.954   0.471  13.159 -0.8672  0.8379 -1.0046
 2808SOL     OW19885   3.301   2.422   2.733  0.5734  0.3312 -0.3785
 2808SOL    HW119886   3.338   2.503   2.769  1.0391 -0.3546  0.6677
 2808SOL    HW219887   3.381   2.375   2.759  0.4432 -0.0705 -0.7070
 2809SOL     OW19888   2.486   2.863  15.579 -0.0062  0.4464  0.3660
 2809SOL    HW119889   2.558   2.873  15.518 -0.5194 -0.8711 -0.4405
 2809SOL    HW219890   2.449   2.789  15.531 -1.6121  0.5489  1.4369
 2810SOL     OW19891   3.032   1.161   5.312  0.4153 -0.6683  0.0394
 2810SOL    HW119892   3.062   1.094   5.251 -2.0241 -0.8310 -0.9666
 2810SOL    HW219893   3.121   1.186   5.338 -0.0456  2.7946 -1.6215
 2811SOL     OW19894   1.853   2.920   4.605 -0.5568  0.4811  0.1520
 2811SOL    HW119895   1.880   2.992   4.548 -0.9241 -1.0715 -1.9560
 2811SOL    HW219896   1.794   2.980   4.652  0.2972  1.1175  0.4147
 2812SOL     OW19897   2.814   2.365   6.312 -0.1558  0.5902 -0.7326
 2812SOL    HW119898   2.881   2.347   6.246 -0.2711 -0.9258 -0.4272
 2812SOL    HW219899   2.807   2.285   6.364  2.7158  1.1644  0.5585
 2813SOL     OW19900   1.259   4.338   0.389 -0.1429 -0.5604  0.1774
 2813SOL    HW119901   1.177   4.356   0.343  0.4043 -0.2965 -0.7014
 2813SOL    HW219902   1.235   4.316   0.479 -1.6338  1.0993  0.1759
 2814SOL     OW19903   0.822   2.319  13.889  0.8066  0.4270 -0.3435
 2814SOL    HW119904   0.841   2.413  13.893  0.4197  0.3976  2.3713
 2814SOL    HW219905   0.756   2.324  13.821  1.4867 -2.2674 -1.1892
 2815SOL     OW19906   2.346   0.782   2.977  0.1145 -0.0887  0.2265
 2815SOL    HW119907   2.266   0.753   3.021  1.2366 -0.3629  2.1097
 2815SOL    HW219908   2.406   0.779   3.052 -0.0335 -0.5868  0.3269
 2816SOL     OW19909   1.998   4.190   5.546 -0.3931 -0.4423  0.0660
 2816SOL    HW119910   1.903   4.185   5.543 -0.2486 -1.9564 -1.5512
 2816SOL    HW219911   2.011   4.221   5.636 -3.4120 -0.6258  0.5660
 2817SOL     OW19912   2.035   2.123   6.288  0.8329 -0.0551  0.4063
 2817SOL    HW119913   2.084   2.044   6.311  1.2394 -0.8463 -3.1210
 2817SOL    HW219914   2.062   2.148   6.200  0.7744 -1.5607 -0.0521
 2818SOL     OW19915   3.726   3.779   2.995 -0.5946  0.0823  0.5217
 2818SOL    HW119916   3.702   3.701   3.044 -0.3961 -0.4500 -0.2226
 2818SOL    HW219917   3.784   3.730   2.936  0.4393 -0.3044  1.8856
 2819SOL     OW19918   0.360   2.618   3.084 -0.1318  0.4459 -0.1035
 2819SOL    HW119919   0.271   2.628   3.116 -0.5820  0.3914 -1.3248
 2819SOL    HW219920   0.351   2.671   3.005 -1.5914 -0.1445 -0.3296
 2820SOL     OW19921   1.646   4.620   7.353  0.2177  0.4247 -0.3216
 2820SOL    HW119922   1.652   4.526   7.336  0.1097  0.2751  0.4890
 2820SOL    HW219923   1.560   4.627   7.394  1.6700 -2.7716  3.2134
 2821SOL     OW19924   1.550   4.188   9.654 -0.5288  0.0668  0.0739
 2821SOL    HW119925   1.505   4.103   9.656  1.1635 -0.8360  0.1349
 2821SOL    HW219926   1.477   4.247   9.670 -1.6202 -1.2548 -0.0575
 2822SOL     OW19927   3.956   2.886   3.582  0.1134  0.4938  0.5566
 2822SOL    HW119928   4.022   2.917   3.519  0.5293 -2.6203 -0.5608
 2822SOL    HW219929   4.006   2.907   3.661 -0.8283 -3.2059  2.1055
 2823SOL     OW19930   2.584   0.819  15.098 -0.1592 -0.5371  0.0072
 2823SOL    HW119931   2.575   0.809  15.004 -1.3309 -2.9263  0.3796
 2823SOL    HW219932   2.637   0.899  15.095 -0.2653 -0.4675  0.0045
 2824SOL     OW19933   1.003   0.454   9.239  0.2032  0.4541 -0.4382
 2824SOL    HW119934   1.011   0.378   9.181 -0.0140 -1.3963  1.9772
 2824SOL    HW219935   1.096   0.474   9.245  0.1655 -0.5965  3.1908
 2825SOL     OW19936   3.277   3.305   4.034  0.2547 -0.1805 -0.4987
 2825SOL    HW119937   3.331   3.284   3.958 -1.2961 -1.4305 -1.2728
 2825SOL    HW219938   3.208   3.345   3.982  0.2364  1.6579  0.9403
 2826SOL     OW19939   1.858   3.104   5.509 -0.2799  0.4214  0.5637
 2826SOL    HW119940   1.852   3.016   5.547  0.3384 -0.1958 -0.7726
 2826SOL    HW219941   1.846   3.161   5.585 -0.1240 -2.1433  2.4922
 2827SOL     OW19942   0.014   3.154  14.747 -0.5980  0.2651  0.4540
 2827SOL    HW119943   4.688   3.137  14.827 -1.0042  2.3756  0.6481
 2827SOL    HW219944   0.098   3.197  14.766 -1.2559  1.9954 -0.5424
 2828SOL     OW19945   4.025   3.270   7.914 -0.1207  0.1177 -0.5379
 2828SOL    HW119946   3.985   3.318   7.986 -1.1402 -1.3626 -0.1045
 2828SOL    HW219947   4.054   3.189   7.955  0.1572  0.4478 -0.1009
 2829SOL     OW19948   1.691   2.594   5.880  0.1591  0.0350 -0.2525
 2829SOL    HW119949   1.685   2.523   5.944 -1.0064  0.8325  0.5258
 2829SOL    HW219950   1.622   2.653   5.910 -0.1548  0.0750 -1.0394
 2830SOL     OW19951   3.067   0.354   2.350 -0.2239  0.3151  0.1010
 2830SOL    HW119952   3.114   0.424   2.393 -3.1021  0.9434  2.2528
 2830SOL    HW219953   2.980   0.394   2.344  0.0306  1.1493  2.1219
 2831SOL     OW19954   1.191   3.036   5.497  0.2472  0.0591 -0.1610
 2831SOL    HW119955   1.244   3.115   5.490  3.3276 -1.8172  2.2869
 2831SOL    HW219956   1.234   2.984   5.564 -0.7384 -0.2379  0.2452
 2832SOL     OW19957   1.811   4.054  16.815  0.4071 -0.3848  0.0832
 2832SOL    HW119958   1.903   4.032  16.805  0.3231 -1.0616  0.8114
 2832SOL    HW219959   1.779   3.967  16.792 -0.1113 -0.2555  0.2957
 2833SOL     OW19960   3.246   1.222   1.885  0.0697  0.1122 -0.8789
 2833SOL    HW119961   3.291   1.293   1.931  2.0057 -1.6652 -0.0440
 2833SOL    HW219962   3.189   1.169   1.941  0.3345  1.0625  0.2987
 2834SOL     OW19963   0.932   0.837  15.355  0.5977 -0.2730 -0.0717
 2834SOL    HW119964   0.854   0.892  15.342 -0.6661 -2.5610 -2.1139
 2834SOL    HW219965   0.997   0.888  15.306  0.3451 -0.0377 -0.1668
 2835SOL     OW19966   1.331   3.694   0.460 -0.1064 -0.2480 -0.3608
 2835SOL    HW119967   1.347   3.740   0.543 -0.2545 -2.4191  0.8933
 2835SOL    HW219968   1.363   3.758   0.397 -2.2863  0.8964 -0.3034
 2836SOL     OW19969   3.231   1.080   7.731 -0.2856  0.5338  0.3654
 2836SOL    HW119970   3.179   1.101   7.653 -2.5987 -1.2746  1.4107
 2836SOL    HW219971   3.318   1.100   7.698 -0.1158 -1.1472 -0.2030
 2837SOL     OW19972   2.206   3.360   9.884  0.1025  0.0796 -0.0236
 2837SOL    HW119973   2.271   3.295   9.910  0.0938  1.3636  3.2172
 2837SOL    HW219974   2.183   3.392   9.972  0.6227 -0.1589  0.1964
 2838SOL     OW19975   3.338   1.887   2.569 -0.2240  0.0085 -0.3226
 2838SOL    HW119976   3.336   1.801   2.610  0.0411 -0.0860 -0.5084
 2838SOL    HW219977   3.308   1.862   2.482 -0.7190  0.9989 -0.4384
 2839SOL     OW19978   1.967   3.476   1.320  0.8275  0.0404  0.3781
 2839SOL    HW119979   1.888   3.511   1.361  0.8735  0.8891 -0.2785
 2839SOL    HW219980   1.950   3.383   1.336  1.2050 -0.0325  0.3441
 2840SOL     OW19981   4.356   0.692  13.650  0.1480 -0.0216  0.5534
 2840SOL    HW119982   4.377   0.686  13.743 -0.4543 -0.1560  0.6777
 2840SOL    HW219983   4.357   0.787  13.650  0.3260 -0.0260 -3.3866
 2841SOL     OW19984   1.618   1.905   6.050 -0.0417  0.1085  0.1149
 2841SOL    HW119985   1.614   1.809   6.045  0.1765  0.0362  1.3698
 2841SOL    HW219986   1.571   1.923   5.969  0.3526 -0.2699 -0.1987
 2842SOL     OW19987   0.119   3.234   8.400  0.5583 -0.1219 -0.0266
 2842SOL    HW119988   0.049   3.296   8.421  0.7994 -0.1885  1.0179
 2842SOL    HW219989   0.112   3.169   8.470 -1.1812  1.0499  0.8951
 2843SOL     OW19990   2.402   2.314  12.285 -0.0701 -0.2525  0.0595
 2843SOL    HW119991   2.377   2.240  12.340 -1.2960  1.8425  2.3297
 2843SOL    HW219992   2.369   2.282  12.201  2.7128  0.6946 -1.3887
 2844SOL     OW19993   0.975   3.703   4.268  0.1887  0.0970  0.4332
 2844SOL    HW119994   0.900   3.762   4.280  1.1645  1.4023  0.0750
 2844SOL    HW219995   0.987   3.660   4.353 -1.3266  0.3495  0.7920
 2845SOL     OW19996   0.486   4.134   9.534 -0.5535  0.2639  0.5023
 2845SOL    HW119997   0.450   4.053   9.572 -0.0241 -0.4227 -0.4442
 2845SOL    HW219998   0.410   4.181   9.500 -1.0518 -0.7342  0.2210
 2846SOL     OW19999   0.052   2.345   9.401 -0.1664  0.0187  0.3597
 2846SOL    HW120000   0.104   2.399   9.460 -0.6186 -0.8851  1.5860
 2846SOL    HW220001   0.067   2.384   9.314  1.4527 -1.3527  0.0305
 2847SOL     OW20002   2.174   0.083   2.152 -0.3868 -0.4202  0.3425
 2847SOL    HW120003   2.117   0.124   2.087 -0.7205 -0.4187  0.6411
 2847SOL    HW220004   2.243   0.045   2.097  0.2466 -1.5826  1.9431
 2848SOL     OW20005   2.784   1.849  16.414 -0.1116  0.1775 -0.3043
 2848SOL    HW120006   2.760   1.867  16.505 -1.3041  0.0499 -0.5974
 2848SOL    HW220007   2.834   1.768  16.417 -2.3708 -1.3158 -2.4662
 2849SOL     OW20008   0.502   2.543   4.873  0.2850  0.4388  0.3049
 2849SOL    HW120009   0.412   2.517   4.895 -0.6609  2.8836 -0.6567
 2849SOL    HW220010   0.493   2.583   4.787 -0.1986  0.3743  0.3248
 2850SOL     OW20011   3.358   1.923   6.736  0.1110  0.7867  0.0882
 2850SOL    HW120012   3.363   1.870   6.656  0.2169  1.2620 -0.2196
 2850SOL    HW220013   3.451   1.932   6.756  0.1296  1.9124 -0.5483
 2851SOL     OW20014   0.180   2.396   6.574  0.3078  0.0249  0.0017
 2851SOL    HW120015   0.159   2.306   6.599 -2.1341  0.4035 -0.6658
 2851SOL    HW220016   0.110   2.419   6.513  1.6884  0.3084 -1.4890
 2852SOL     OW20017   3.200   2.003  12.009  0.5608  0.0118 -0.2603
 2852SOL    HW120018   3.205   1.952  12.090  1.8420 -1.0354 -0.9913
 2852SOL    HW220019   3.175   1.940  11.942  3.7827  1.4643 -2.8408
 2853SOL     OW20020   3.817   3.426  16.491  0.5477 -0.4420 -0.0961
 2853SOL    HW120021   3.844   3.371  16.418  0.1790 -0.7657  0.0112
 2853SOL    HW220022   3.736   3.378  16.508  0.3059  0.2057  0.5793
 2854SOL     OW20023   3.011   0.384   9.042 -0.6680 -0.1718 -0.9177
 2854SOL    HW120024   3.097   0.419   9.022 -1.1789  0.8866 -1.2863
 2854SOL    HW220025   3.023   0.350   9.131 -1.4766 -0.7401 -1.0229
 2855SOL     OW20026   0.379   4.132  14.968  0.6160  0.3368  0.3394
 2855SOL    HW120027   0.426   4.101  15.045  2.0243  0.1878 -0.5947
 2855SOL    HW220028   0.333   4.209  15.003  0.7622  1.2920 -1.5704
 2856SOL     OW20029   3.375   3.204   8.107 -0.4824  0.3704  0.2070
 2856SOL    HW120030   3.301   3.153   8.077  1.5985 -1.9873 -0.8796
 2856SOL    HW220031   3.444   3.198   8.041  0.1640  1.5976  0.7619
 2857SOL     OW20032   2.658   2.987   4.575  0.0735 -0.1387  0.4381
 2857SOL    HW120033   2.624   2.951   4.494  0.1763 -1.9253  1.1987
 2857SOL    HW220034   2.666   3.078   4.546 -0.9883 -0.2286 -0.1203
 2858SOL     OW20035   3.883   2.701   6.927  0.2386 -0.0021 -0.2002
 2858SOL    HW120036   3.840   2.784   6.950 -0.7434 -0.9453  1.3536
 2858SOL    HW220037   3.963   2.736   6.889  1.5300 -0.8796  1.7319
 2859SOL     OW20038   1.996   2.914   4.294 -0.3893 -0.7348 -0.3600
 2859SOL    HW120039   1.978   2.822   4.277  1.2131 -1.4261  1.6715
 2859SOL    HW220040   2.087   2.918   4.263 -0.5024 -1.6850 -0.8241
 2860SOL     OW20041   1.405   0.657   2.867 -0.5140 -0.3964 -0.4633
 2860SOL    HW120042   1.404   0.753   2.878  2.3368 -0.7130  2.6933
 2860SOL    HW220043   1.358   0.640   2.786 -1.6736  1.1458 -0.1169
 2861SOL     OW20044   2.618   0.378  15.202  0.0662  0.0597  0.0423
 2861SOL    HW120045   2.587   0.420  15.282 -0.3161  0.9691 -0.5757
 2861SOL    HW220046   2.537   0.349  15.160 -0.3035 -1.6463  1.9322
 2862SOL     OW20047   1.451   2.244  14.087  0.3990  0.1206  0.2633
 2862SOL    HW120048   1.359   2.218  14.082 -0.2162  1.8471  2.2585
 2862SOL    HW220049   1.439   2.337  14.109  1.0086  0.1210  0.6058
 2863SOL     OW20050   1.801   2.175   8.205  0.1923  0.6488  0.5906
 2863SOL    HW120051   1.717   2.221   8.210  0.7179  1.4225  2.0956
 2863SOL    HW220052   1.809   2.143   8.295  2.1125 -0.2045  0.1189
 2864SOL     OW20053   0.205   3.088   0.084 -0.6154 -0.1290 -0.1624
 2864SOL    HW120054   0.202   3.038   0.003  0.3927  0.1296 -0.3595
 2864SOL    HW220055   0.114   3.084   0.114 -0.9525  0.0301 -1.1475
 2865SOL     OW20056   4.178   3.273   7.223  0.5246  0.3998 -0.2033
 2865SOL    HW120057   4.127   3.199   7.190  0.5745  0.0189  0.5720
 2865SOL    HW220058   4.166   3.263   7.317 -1.2251  0.1709 -0.4508
 2866SOL     OW20059   4.162   2.658   8.446 -0.0629 -0.1004  0.4326
 2866SOL    HW120060   4.142   2.741   8.489 -0.9598  0.6702 -1.4548
 2866SOL    HW220061   4.225   2.678   8.377  0.4555  1.5682  1.3811
 2867SOL     OW20062   3.365   3.296  16.662 -0.3763 -0.0207  0.8247
 2867SOL    HW120063   3.291   3.295  16.600 -0.5375  4.0707  0.9457
 2867SOL    HW220064   3.429   3.244  16.614 -1.5100  0.6589 -1.4599
 2868SOL     OW20065   3.275   4.022   5.813  0.5245  0.2905 -0.0527
 2868SOL    HW120066   3.288   4.077   5.890  0.1356  0.1521  0.1100
 2868SOL    HW220067   3.315   3.939   5.840 -0.6972 -0.3839 -0.3293
 2869SOL     OW20068   0.324   1.880   9.284 -0.2131  0.6296  0.1056
 2869SOL    HW120069   0.279   1.872   9.200  1.5113 -0.1917 -0.7440
 2869SOL    HW220070   0.418   1.877   9.265 -0.2542 -1.7503  0.2520
 2870SOL     OW20071   0.730   4.255  12.786  0.6029  0.2072  0.5692
 2870SOL    HW120072   0.767   4.167  12.792  0.5795  0.1645  0.0688
 2870SOL    HW220073   0.645   4.224  12.817  0.5591  1.5184  1.7733
 2871SOL     OW20074   2.838   4.211   1.875  0.0494 -0.4291 -0.2604
 2871SOL    HW120075   2.870   4.121   1.888 -2.6127 -1.2646  0.4547
 2871SOL    HW220076   2.865   4.256   1.955 -0.4486  0.1276 -0.4128
 2872SOL     OW20077   3.790   2.768   8.640  0.0978  0.0502 -0.4085
 2872SOL    HW120078   3.861   2.712   8.673  0.7532  0.1220 -1.6994
 2872SOL    HW220079   3.811   2.852   8.681  0.3813  0.0527 -0.5566
 2873SOL     OW20080   2.301   1.463   4.729  0.1884 -0.2156 -0.1535
 2873SOL    HW120081   2.352   1.513   4.665  2.4037  1.0397  2.5896
 2873SOL    HW220082   2.316   1.515   4.807  0.0620 -0.3636 -0.0322
 2874SOL     OW20083   2.833   4.245   9.011 -0.1520 -0.0852 -0.1953
 2874SOL    HW120084   2.838   4.341   9.009 -0.0188 -0.1027 -0.8003
 2874SOL    HW220085   2.742   4.232   8.982 -0.2344 -0.4841  0.2430
 2875SOL     OW20086   1.329   1.268   5.783 -0.1367  0.2662 -0.0280
 2875SOL    HW120087   1.308   1.347   5.733  0.6588 -1.4968 -3.0856
 2875SOL    HW220088   1.245   1.224   5.784 -0.7719  1.4675 -0.6035
 2876SOL     OW20089   0.805   2.473   2.551  0.1787 -0.2195 -0.4626
 2876SOL    HW120090   0.813   2.418   2.473 -1.8722 -0.5029 -0.4640
 2876SOL    HW220091   0.712   2.498   2.547  0.1964 -0.0658  0.0699
 2877SOL     OW20092   0.573   0.915   2.041  0.6277 -0.1067 -0.2773
 2877SOL    HW120093   0.625   0.979   2.090  3.1918 -1.5754 -1.0237
 2877SOL    HW220094   0.639   0.866   1.991 -0.6512 -0.4034 -1.6632
 2878SOL     OW20095   3.670   0.646   5.872  0.3990 -0.6575 -0.2193
 2878SOL    HW120096   3.711   0.702   5.937  1.4367 -0.9589 -0.6120
 2878SOL    HW220097   3.681   0.567   5.925  0.2715  0.4061  1.3810
 2879SOL     OW20098   2.350   3.401  16.984 -0.7265  0.3748  0.4166
 2879SOL    HW120099   2.259   3.421  16.960 -0.9340 -0.5686  0.4175
 2879SOL    HW220100   2.344   3.318  17.031  0.3291  0.9166  1.4880
 2880SOL     OW20101   3.755   2.051   8.852  0.2378  0.5877 -0.5859
 2880SOL    HW120102   3.663   2.062   8.876  0.7968  1.9393  0.8654
 2880SOL    HW220103   3.756   1.967   8.804 -0.2058 -2.0582  4.0625
 2881SOL     OW20104   3.046   3.851   6.723 -0.1045  0.4109  0.0669
 2881SOL    HW120105   3.052   3.867   6.629 -2.0701 -2.3118 -0.5395
 2881SOL    HW220106   3.102   3.921   6.757  0.1429 -0.1404  0.8027
 2882SOL     OW20107   1.708   4.445   1.672  0.4686 -0.1054  0.4349
 2882SOL    HW120108   1.732   4.404   1.755  0.6676  0.7943  0.8241
 2882SOL    HW220109   1.792   4.441   1.626  0.6052  0.6664  0.6219
 2883SOL     OW20110   1.664   1.050  10.163 -0.2576 -0.4134 -0.3090
 2883SOL    HW120111   1.713   1.052  10.081 -0.0296  1.1167 -0.1391
 2883SOL    HW220112   1.655   0.956  10.177 -2.3662 -0.3401 -1.1123
 2884SOL     OW20113   0.038   2.715   7.172  0.6160  0.4906  0.0502
 2884SOL    HW120114   0.042   2.661   7.251  0.9720 -1.3395 -1.2099
 2884SOL    HW220115   0.059   2.649   7.106 -0.1085  0.6737 -0.3568
 2885SOL     OW20116   0.090   4.721   2.097  0.1933 -0.6333  0.0879
 2885SOL    HW120117   0.015   4.691   2.046 -1.6336  1.0217  1.8386
 2885SOL    HW220118   0.048   0.052   2.164 -2.4183  1.2714 -3.1472
 2886SOL     OW20119   3.500   3.948   0.396  0.4720 -0.9246 -0.3424
 2886SOL    HW120120   3.491   4.030   0.348 -0.6985 -2.2700 -2.3715
 2886SOL    HW220121   3.472   3.965   0.486  0.4778  1.2050 -0.7330
 2887SOL     OW20122   3.525   4.186   8.854  0.3857  0.3275 -0.1745
 2887SOL    HW120123   3.471   4.136   8.915 -1.7560  1.2468 -1.3181
 2887SOL    HW220124   3.609   4.148   8.877  0.2262  0.1549  0.1298
 2888SOL     OW20125   3.549   1.605  10.077 -0.1428 -0.5623 -0.1774
 2888SOL    HW120126   3.472   1.649  10.040 -0.1664 -0.0617  0.4541
 2888SOL    HW220127   3.520   1.569  10.161  1.4070 -1.2441  0.0619
 2889SOL     OW20128   0.858   1.449  12.792 -0.0527 -0.3711  0.2030
 2889SOL    HW120129   0.783   1.389  12.787  0.7820 -1.5892  2.6792
 2889SOL    HW220130   0.887   1.428  12.880  0.3105  0.5161  0.2938
 2890SOL     OW20131   1.728   1.213   3.228 -0.3153 -0.4138 -0.1822
 2890SOL    HW120132   1.688   1.282   3.281 -0.8352  0.0371 -1.1547
 2890SOL    HW220133   1.734   1.243   3.137 -0.8762 -0.2008 -0.1459
 2891SOL     OW20134   3.925   3.739   0.921 -0.1545 -0.3644 -0.1088
 2891SOL    HW120135   3.904   3.792   0.844 -3.0079  0.7609  1.4900
 2891SOL    HW220136   3.955   3.809   0.979 -2.8579 -0.9490  1.9777
 2892SOL     OW20137   2.757   0.081   9.772 -0.3297 -0.2389 -0.1487
 2892SOL    HW120138   2.678   0.128   9.797 -1.2504 -1.7701 -0.1662
 2892SOL    HW220139   2.717   0.043   9.694 -1.7037  2.6279 -0.8230
 2893SOL     OW20140   0.023   1.820  13.563  0.7129  0.3843  0.2900
 2893SOL    HW120141   4.702   1.881  13.504  0.0646 -1.8355 -1.4674
 2893SOL    HW220142   4.708   1.852  13.645 -0.6805 -0.8079  0.0986
 2894SOL     OW20143   0.775   3.477   0.225 -0.5500 -0.8798 -0.0713
 2894SOL    HW120144   0.829   3.542   0.180 -0.2812 -1.3339 -0.4023
 2894SOL    HW220145   0.801   3.489   0.317 -1.2753  1.5557 -0.1834
 2895SOL     OW20146   0.949   2.625  11.722 -0.3958 -0.9744  0.4559
 2895SOL    HW120147   0.906   2.706  11.749  0.6645 -0.2755  0.0349
 2895SOL    HW220148   0.960   2.652  11.631 -1.2619  0.0005  0.6389
 2896SOL     OW20149   0.240   4.509   3.570  0.7486  0.2324 -0.5345
 2896SOL    HW120150   0.289   4.452   3.630 -0.3578 -1.7777 -1.5727
 2896SOL    HW220151   0.181   4.445   3.530 -0.3663  0.6297  0.4753
 2897SOL     OW20152   4.670   1.099   6.078  1.0143  0.2788  0.1810
 2897SOL    HW120153   4.653   1.057   6.162 -1.6302 -2.2455 -1.6623
 2897SOL    HW220154   0.042   1.087   6.075  0.7118 -2.3737  1.2697
 2898SOL     OW20155   1.306   0.691  13.373 -0.2486 -0.1681  0.3123
 2898SOL    HW120156   1.364   0.671  13.300  1.1682  2.1407  0.8022
 2898SOL    HW220157   1.298   0.787  13.368 -1.6757 -0.1816  2.3066
 2899SOL     OW20158   3.983   2.740   0.078 -0.4696  0.0007 -0.0269
 2899SOL    HW120159   4.013   2.670   0.021  0.5569  1.4783 -1.3234
 2899SOL    HW220160   4.029   2.815   0.039  2.3746 -1.5311  0.4020
 2900SOL     OW20161   0.707   3.620   2.186 -0.1296 -0.2877  0.1836
 2900SOL    HW120162   0.797   3.644   2.207  0.1066  0.8564 -2.1598
 2900SOL    HW220163   0.727   3.543   2.133 -1.1714 -0.4963  0.0871
 2901SOL     OW20164   4.440   1.512   5.402  0.5989 -0.0374  0.4843
 2901SOL    HW120165   4.435   1.503   5.307  1.6030  1.4704  0.2827
 2901SOL    HW220166   4.503   1.584   5.409  0.9821 -0.2377 -0.8394
 2902SOL     OW20167   0.644   2.159   0.658 -0.6624  0.5620 -0.2293
 2902SOL    HW120168   0.656   2.066   0.636 -0.1355  0.6653 -0.3733
 2902SOL    HW220169   0.578   2.186   0.595  0.7524  0.6397 -1.6947
 2903SOL     OW20170   0.381   0.862   8.727 -0.6077  0.1781 -0.4414
 2903SOL    HW120171   0.440   0.917   8.778 -0.6945  0.3702 -0.5477
 2903SOL    HW220172   0.303   0.866   8.782 -1.1076  3.1672 -1.3417
 2904SOL     OW20173   3.109   2.023   5.706 -0.3686  0.3141  0.2765
 2904SOL    HW120174   3.025   2.059   5.734 -0.2071 -1.6167  3.1836
 2904SOL    HW220175   3.157   2.025   5.789 -0.4200  0.2990  0.3064
 2905SOL     OW20176   1.504   4.394   7.621  0.3502  0.0913 -0.5384
 2905SOL    HW120177   1.420   4.440   7.616  1.6046  2.6619  1.9914
 2905SOL    HW220178   1.524   4.380   7.713 -1.5606  1.6386  0.1285
 2906SOL     OW20179   0.474   3.469   2.949 -0.6093  0.6844  0.5141
 2906SOL    HW120180   0.565   3.440   2.945 -0.9527 -0.3022 -0.3443
 2906SOL    HW220181   0.459   3.490   2.857  2.0701 -0.6187 -0.2066
 2907SOL     OW20182   2.772   1.555   9.211 -0.3225 -0.0190 -0.2863
 2907SOL    HW120183   2.741   1.492   9.146  0.7201 -1.1900  0.3538
 2907SOL    HW220184   2.811   1.622   9.154 -0.2155  0.2309  0.0780
 2908SOL     OW20185   1.770   2.359  17.325  0.4987 -0.0531  0.2252
 2908SOL    HW120186   1.731   2.343  17.411  1.0602  3.2208  1.1087
 2908SOL    HW220187   1.719   2.427  17.280  0.1758  1.1697  2.4557
 2909SOL     OW20188   0.351   4.137   6.800  0.0349  0.0636 -0.0925
 2909SOL    HW120189   0.382   4.048   6.817 -2.1107 -0.2589  2.2095
 2909SOL    HW220190   0.285   4.129   6.732  0.0241  0.8768 -0.1785
 2910SOL     OW20191   2.120   3.727  10.813 -0.0446  0.4778  0.1859
 2910SOL    HW120192   2.202   3.689  10.783 -0.1567 -1.3143  2.1839
 2910SOL    HW220193   2.062   3.651  10.808  0.4248  0.2093 -1.3849
 2911SOL     OW20194   4.564   2.731   3.554  0.7150  0.2897  0.3626
 2911SOL    HW120195   4.510   2.793   3.605 -1.4499 -2.1134  0.9803
 2911SOL    HW220196   4.551   2.769   3.468 -0.4210  1.0430  0.8660
 2912SOL     OW20197   2.602   3.653   7.519 -0.0262  0.1821 -0.6023
 2912SOL    HW120198   2.559   3.685   7.440  0.5647 -0.9007 -1.3558
 2912SOL    HW220199   2.651   3.728   7.551  1.1892  0.6902 -3.6466
 2913SOL     OW20200   0.460   1.703   0.553  0.7870 -0.0585 -0.1247
 2913SOL    HW120201   0.503   1.699   0.468  0.8500  3.2984 -0.2523
 2913SOL    HW220202   0.423   1.616   0.572  0.9761 -0.2663 -0.7374
 2914SOL     OW20203   3.865   3.871  12.980 -0.2388  0.0451 -0.1220
 2914SOL    HW120204   3.918   3.950  12.990 -1.8294  0.9413  1.1104
 2914SOL    HW220205   3.852   3.838  13.069 -0.1432  2.4894  0.8001
 2915SOL     OW20206   3.400   3.570   9.303  0.2718 -0.3183  0.1821
 2915SOL    HW120207   3.375   3.502   9.239  0.1331  0.2225 -0.3395
 2915SOL    HW220208   3.490   3.547   9.325  1.4448  5.8443  1.7146
 2916SOL     OW20209   2.215   1.810   1.517  0.3868 -0.1984 -0.7045
 2916SOL    HW120210   2.218   1.718   1.544 -0.7197 -0.0676 -0.1834
 2916SOL    HW220211   2.120   1.821   1.520  0.4863  1.6491 -3.9971
 2917SOL     OW20212   0.609   4.566   1.719 -0.0730  0.4112 -0.6001
 2917SOL    HW120213   0.656   4.549   1.801 -1.0180 -0.9807 -0.3344
 2917SOL    HW220214   0.518   4.547   1.743  0.3211 -0.3466  0.3201
 2918SOL     OW20215   1.762   3.245   3.510 -0.0360 -0.6610  0.3488
 2918SOL    HW120216   1.675   3.218   3.538 -1.3685  0.4073 -2.6803
 2918SOL    HW220217   1.746   3.287   3.425 -1.4569  1.6705  1.7811
 2919SOL     OW20218   2.799   1.972   7.758  0.4731 -0.3174 -0.5253
 2919SOL    HW120219   2.758   1.981   7.844  0.6532  0.0046 -0.4744
 2919SOL    HW220220   2.722   1.964   7.703 -0.3777 -1.3402  0.7842
 2920SOL     OW20221   1.250   3.583   6.132 -0.1702 -0.3101 -0.3753
 2920SOL    HW120222   1.254   3.661   6.077 -0.4874  1.1350  1.6679
 2920SOL    HW220223   1.312   3.608   6.200  0.2854  2.8800 -1.9885
 2921SOL     OW20224   3.696   2.174   1.034  0.2617 -0.4066 -0.3123
 2921SOL    HW120225   3.780   2.145   1.071  0.1768  1.8020  1.5962
 2921SOL    HW220226   3.732   2.250   0.988  3.4967 -1.2350  0.8208
 2922SOL     OW20227   4.078   3.567   8.573  0.1002  0.1906  0.3315
 2922SOL    HW120228   4.128   3.532   8.647 -1.3631  2.1522  2.2426
 2922SOL    HW220229   3.989   3.544   8.601 -0.9428  2.1853 -1.3868
 2923SOL     OW20230   2.658   3.386  10.094  0.2616  0.5213  0.7145
 2923SOL    HW120231   2.690   3.476  10.088  0.6336  0.3068 -0.4095
 2923SOL    HW220232   2.739   3.345  10.066 -1.1247 -2.1495  0.6282
 2924SOL     OW20233   2.833   0.594   2.610  0.4327 -0.2081  0.3067
 2924SOL    HW120234   2.825   0.681   2.570 -1.5857  0.7363  2.7736
 2924SOL    HW220235   2.916   0.593   2.657  3.2207  1.5505 -4.6501
 2925SOL     OW20236   0.487   3.544   8.051  0.4452  0.2317 -0.8800
 2925SOL    HW120237   0.483   3.597   8.131  2.1672 -2.1624  0.7712
 2925SOL    HW220238   0.550   3.602   8.006  0.7868 -0.6676 -1.5512
 2926SOL     OW20239   2.123   4.674   8.321  0.3425 -0.3196 -0.3338
 2926SOL    HW120240   2.095   0.039   8.346 -0.5981 -0.0784 -2.2424
 2926SOL    HW220241   2.074   4.620   8.382  0.9358  0.2088  0.6049
 2927SOL     OW20242   0.201   3.744   6.980  0.1975  0.5438  0.4217
 2927SOL    HW120243   0.158   3.665   6.947 -1.0824  1.0523  0.8825
 2927SOL    HW220244   0.128   3.804   6.971  1.0755  1.3724 -1.0699
 2928SOL     OW20245   0.501   1.844  16.009  0.2539  0.8741 -0.2428
 2928SOL    HW120246   0.534   1.836  15.920 -0.9927  0.8783 -0.7024
 2928SOL    HW220247   0.538   1.931  16.025  1.2639  0.6266 -1.2458
 2929SOL     OW20248   0.827   3.354   7.873 -0.0260  0.1666 -0.3249
 2929SOL    HW120249   0.857   3.279   7.822  0.6991 -0.5707  1.1810
 2929SOL    HW220250   0.824   3.307   7.956  2.0034  2.3806  1.0066
 2930SOL     OW20251   2.379   2.830  12.268  0.0733 -0.0059 -0.3725
 2930SOL    HW120252   2.304   2.875  12.307  2.1399  1.9804  1.2968
 2930SOL    HW220253   2.344   2.754  12.222 -0.4346 -0.7466  1.2738
 2931SOL     OW20254   2.340   1.589   4.972  0.1760  0.1826 -0.2325
 2931SOL    HW120255   2.412   1.647   4.996  1.6250 -1.9064  0.4949
 2931SOL    HW220256   2.270   1.642   5.009  0.5686  1.1941 -0.9542
 2932SOL     OW20257   1.355   0.251   9.236 -0.1783 -0.3050 -0.3069
 2932SOL    HW120258   1.262   0.242   9.215 -0.1830 -2.7694  0.7129
 2932SOL    HW220259   1.359   0.204   9.320 -4.2841  2.7515  1.6282
 2933SOL     OW20260   3.702   2.210   1.316 -0.5172  0.3795 -0.6026
 2933SOL    HW120261   3.726   2.284   1.260 -2.2560 -0.0041 -1.8403
 2933SOL    HW220262   3.733   2.240   1.401 -0.1147 -3.3457  0.5494
 2934SOL     OW20263   1.308   3.633   1.620  0.4420  0.0493 -0.0678
 2934SOL    HW120264   1.329   3.552   1.667  1.7053  0.1625 -0.4140
 2934SOL    HW220265   1.237   3.613   1.559  0.5393  1.3174 -0.6162
 2935SOL     OW20266   1.308   2.649   2.526 -0.0533 -0.6361 -0.0524
 2935SOL    HW120267   1.395   2.666   2.488  0.6078 -1.4752  1.0841
 2935SOL    HW220268   1.290   2.729   2.574  0.0433 -0.8383  0.3177
 2936SOL     OW20269   1.055   1.669  12.771  0.5535  0.1865 -0.3712
 2936SOL    HW120270   1.043   1.718  12.852 -1.3172  0.7388 -0.9884
 2936SOL    HW220271   0.968   1.632  12.759  1.9865 -3.0957 -0.6257
 2937SOL     OW20272   2.635   4.080  13.196  0.5555  0.3976 -0.0994
 2937SOL    HW120273   2.612   4.004  13.141 -0.2085 -0.2111  1.0691
 2937SOL    HW220274   2.706   4.118  13.144 -0.3643  0.4328 -1.3384
 2938SOL     OW20275   3.895   3.722   0.076 -0.1373 -0.1267 -0.4239
 2938SOL    HW120276   3.981   3.763   0.064  0.1882 -0.2713  1.3387
 2938SOL    HW220277   3.857   3.783   0.139  1.3841  0.0892  0.2895
 2939SOL     OW20278   2.603   1.986  15.362 -0.1336  0.2446  0.5342
 2939SOL    HW120279   2.520   1.950  15.393 -0.3579  0.2697 -0.0316
 2939SOL    HW220280   2.637   2.041  15.432  1.0560 -1.5839  1.3899
 2940SOL     OW20281   4.722   2.077   9.265  0.4616 -0.3346  0.0084
 2940SOL    HW120282   0.073   2.135   9.247  0.0867  0.1424  0.0106
 2940SOL    HW220283   0.014   2.054   9.357 -0.1588  0.1102  0.2258
 2941SOL     OW20284   3.069   3.727   0.761 -0.3247  0.6807  0.0423
 2941SOL    HW120285   3.108   3.814   0.765  1.4617 -0.1100 -0.0042
 2941SOL    HW220286   2.977   3.746   0.778 -0.2331  1.3998 -0.2596
 2942SOL     OW20287   2.275   1.981  10.048 -0.3428 -0.4740 -0.3487
 2942SOL    HW120288   2.331   2.038   9.995 -2.2028  2.6560  1.0844
 2942SOL    HW220289   2.277   2.040  10.123  2.2369  0.7798 -1.3906
 2943SOL     OW20290   0.167   3.048   9.293  0.0324  0.3843  0.0060
 2943SOL    HW120291   0.191   3.127   9.244  0.6143  1.4969  2.0818
 2943SOL    HW220292   0.247   2.995   9.288 -1.0570 -1.3873  1.4066
 2944SOL     OW20293   1.214   0.313   0.602  0.4067  0.1756  0.0963
 2944SOL    HW120294   1.249   0.346   0.685  0.9921  0.0395 -0.0995
 2944SOL    HW220295   1.150   0.252   0.639 -1.0096  1.9752  0.5931
 2945SOL     OW20296   3.800   2.406   7.763 -0.3333  0.0081  0.2016
 2945SOL    HW120297   3.711   2.369   7.764 -0.2013 -0.3401 -0.8949
 2945SOL    HW220298   3.813   2.432   7.854 -0.6448  1.9980 -0.3220
 2946SOL     OW20299   4.126   1.671  10.580 -0.0750 -0.0668 -0.1916
 2946SOL    HW120300   4.188   1.704  10.645  1.0485 -3.3294  0.4125
 2946SOL    HW220301   4.052   1.729  10.593 -0.8956 -0.7898 -1.7210
 2947SOL     OW20302   1.649   4.614   2.077 -0.0176 -0.5368  0.6425
 2947SOL    HW120303   1.620   4.703   2.098  0.0013 -0.4080  0.1206
 2947SOL    HW220304   1.588   4.583   2.010  0.6225 -0.2521 -0.0750
 2948SOL     OW20305   0.108   4.133   6.959 -0.4261  0.0878  0.1616
 2948SOL    HW120306   0.203   4.125   6.945  0.3225  3.0019  3.5637
 2948SOL    HW220307   0.080   4.139   6.868 -0.9252 -0.6423  0.2686
 2949SOL     OW20308   3.106   3.213  17.051  0.5611 -0.0591  0.5238
 2949SOL    HW120309   3.064   3.299  17.047 -3.1409 -1.9681 -0.9618
 2949SOL    HW220310   3.182   3.239  16.998 -0.0931 -1.3056 -1.0334
 2950SOL     OW20311   0.309   1.762   5.063  0.2672 -0.7113 -0.1011
 2950SOL    HW120312   0.364   1.825   5.109 -1.1574  0.0330  0.5732
 2950SOL    HW220313   0.374   1.729   5.001  1.4500  0.5155  0.4861
 2951SOL     OW20314   1.661   4.409   3.941 -0.6441  0.1051 -0.1800
 2951SOL    HW120315   1.692   4.379   3.856  0.8514 -1.1737  0.8137
 2951SOL    HW220316   1.743   4.403   3.990 -0.7073  2.1766  0.1943
 2952SOL     OW20317   3.794   0.793   6.942 -0.5297 -0.3046 -0.3458
 2952SOL    HW120318   3.783   0.854   6.868 -0.0148 -2.9782 -2.6007
 2952SOL    HW220319   3.872   0.746   6.912  0.7080  1.1498  0.6153
 2953SOL     OW20320   1.025   1.421   3.707  0.5915 -0.2404 -0.1388
 2953SOL    HW120321   1.033   1.462   3.793  0.1033  1.7664 -1.0476
 2953SOL    HW220322   1.000   1.491   3.647 -1.1233 -1.0841 -0.4090
 2954SOL     OW20323   3.318   4.613  13.035 -0.0132 -0.1884 -1.1242
 2954SOL    HW120324   3.327   4.641  13.126 -0.1050  0.7552 -1.4088
 2954SOL    HW220325   3.223   4.614  13.023 -0.0740 -0.3665 -0.6539
 2955SOL     OW20326   2.496   0.634   5.702  0.7742  0.4021 -0.4131
 2955SOL    HW120327   2.488   0.596   5.789 -0.7233  2.2513  0.2570
 2955SOL    HW220328   2.426   0.698   5.692 -1.4112 -1.9546 -0.0657
 2956SOL     OW20329   0.709   1.505   6.988 -0.0477 -0.3222  0.4835
 2956SOL    HW120330   0.741   1.570   7.051  0.3770  1.7613 -1.8480
 2956SOL    HW220331   0.614   1.503   6.995 -0.2494 -0.9292 -2.4321
 2957SOL     OW20332   0.753   1.254   5.908  0.0887  0.3765 -0.0675
 2957SOL    HW120333   0.805   1.202   5.969 -0.9902 -1.0301 -0.3334
 2957SOL    HW220334   0.717   1.175   5.868 -0.8301  0.7977 -0.0840
 2958SOL     OW20335   1.012   4.477   8.465  0.7829  0.7351  0.0069
 2958SOL    HW120336   1.100   4.446   8.488  1.0703  0.1565 -1.8915
 2958SOL    HW220337   1.003   4.558   8.515  1.4886 -0.3089  1.8182
 2959SOL     OW20338   3.336   0.760   6.480  0.1942 -0.1833 -0.1042
 2959SOL    HW120339   3.274   0.788   6.413 -2.0200  1.2900  2.5545
 2959SOL    HW220340   3.372   0.679   6.444 -0.9185 -1.3600  1.4181
 2960SOL     OW20341   1.274   2.009   9.062 -0.0305  0.0025  0.3526
 2960SOL    HW120342   1.295   2.102   9.067  0.7945 -0.0686 -1.5359
 2960SOL    HW220343   1.349   1.989   9.005 -0.3833  1.5088 -0.6332
 2961SOL     OW20344   4.558   4.281   8.283  0.0535 -0.2942  0.3438
 2961SOL    HW120345   4.483   4.340   8.273 -0.3021 -0.5511  1.4881
 2961SOL    HW220346   4.637   4.328   8.256 -1.2201  0.1364 -2.6435
 2962SOL     OW20347   3.470   3.351  10.909  0.0147 -0.3921 -0.5087
 2962SOL    HW120348   3.471   3.370  11.002 -1.4671 -4.0865  0.2742
 2962SOL    HW220349   3.476   3.443  10.881 -0.8878 -1.1780 -3.3095
 2963SOL     OW20350   1.967   1.462   1.187  0.6073  0.7517  0.8674
 2963SOL    HW120351   2.026   1.535   1.170 -1.2250  2.0642  0.1684
 2963SOL    HW220352   2.021   1.402   1.239  1.0341  1.0470  0.7707
 2964SOL     OW20353   0.554   4.185   2.394  0.1657 -0.2456  0.2377
 2964SOL    HW120354   0.467   4.181   2.433  0.6753  1.7035  1.5924
 2964SOL    HW220355   0.539   4.252   2.327 -0.9901 -1.7757 -1.0186
 2965SOL     OW20356   4.678   1.188  14.433 -0.4124 -0.4937 -0.2392
 2965SOL    HW120357   4.684   1.282  14.416 -1.5010 -0.9299 -3.0393
 2965SOL    HW220358   4.701   1.187  14.526  0.0530  0.5964 -0.3444
 2966SOL     OW20359   1.254   4.623   7.093  0.3041 -0.3867  0.6469
 2966SOL    HW120360   1.262   4.711   7.129 -0.3403  0.0391 -0.2450
 2966SOL    HW220361   1.275   4.640   7.001 -1.6465 -0.5354  0.1795
 2967SOL     OW20362   2.232   2.195   8.093  0.3252  0.6355  0.1428
 2967SOL    HW120363   2.195   2.254   8.028 -2.0542 -0.7904  0.1782
 2967SOL    HW220364   2.196   2.112   8.061  1.8311  0.6342 -1.5382
 2968SOL     OW20365   2.885   2.514   3.945 -0.3442 -0.5250 -1.0909
 2968SOL    HW120366   2.909   2.606   3.935 -0.2817 -0.5752 -1.4013
 2968SOL    HW220367   2.800   2.501   3.904 -1.7596  0.0396  1.6350
 2969SOL     OW20368   1.681   4.070   3.970  0.2903 -0.1762  0.0624
 2969SOL    HW120369   1.694   3.977   3.988 -1.4275 -0.4378 -0.0765
 2969SOL    HW220370   1.767   4.095   3.934 -0.0095 -0.7126 -1.0285
 2970SOL     OW20371   0.083   4.356  15.705  0.3649 -0.3399 -0.0622
 2970SOL    HW120372   0.001   4.346  15.754  0.8604  2.7502  1.4124
 2970SOL    HW220373   0.094   4.273  15.658  0.2073  0.1489 -0.9461
 2971SOL     OW20374   2.617   1.979  17.668 -0.3017 -0.4475  0.2824
 2971SOL    HW120375   2.659   1.895  17.654 -0.6707 -0.9332  2.0996
 2971SOL    HW220376   2.536   1.968  17.618 -0.0490 -0.1839 -0.1841
 2972SOL     OW20377   3.138   3.825   0.266  0.4738 -0.2388  0.2455
 2972SOL    HW120378   3.082   3.893   0.303  0.4746  0.9150 -1.8976
 2972SOL    HW220379   3.178   3.877   0.196  0.5547 -1.9704 -0.9902
 2973SOL     OW20380   0.932   3.783   6.178  0.2371  0.2259 -0.1950
 2973SOL    HW120381   0.842   3.791   6.147  0.2709 -0.7439 -0.5233
 2973SOL    HW220382   0.917   3.752   6.267  0.2994 -0.1305 -0.3087
 2974SOL     OW20383   2.546   0.239   9.820  0.0157  0.5890 -0.2628
 2974SOL    HW120384   2.471   0.184   9.844  2.0666 -2.5976 -1.1815
 2974SOL    HW220385   2.515   0.328   9.834  0.4078  0.5725  0.7515
 2975SOL     OW20386   0.018   4.148   5.161  0.2025 -0.5952 -0.1025
 2975SOL    HW120387   0.069   4.217   5.119  0.4264 -0.5369  0.2606
 2975SOL    HW220388   4.654   4.170   5.128 -0.1795 -1.0728  0.5798
 2976SOL     OW20389   1.042   4.605   9.953 -0.5814 -0.4767 -0.7239
 2976SOL    HW120390   0.982   4.546   9.999 -0.0571 -0.7441 -0.3803
 2976SOL    HW220391   1.115   4.612  10.014 -0.0772 -2.4379 -1.1231
 2977SOL     OW20392   0.050   4.306   7.696  0.6759  0.0190  0.4032
 2977SOL    HW120393   0.110   4.273   7.763  3.0076  0.7437 -1.2994
 2977SOL    HW220394   0.010   4.372   7.753 -0.0178  1.5044 -1.7838
 2978SOL     OW20395   0.395   0.921   2.872 -0.1103  0.2958 -0.0878
 2978SOL    HW120396   0.316   0.975   2.872  0.4357  1.0911  0.2490
 2978SOL    HW220397   0.465   0.982   2.894 -0.5044  0.5723  0.3856
 2979SOL     OW20398   3.733   3.970  11.611  0.0646  0.2054 -0.0631
 2979SOL    HW120399   3.638   3.963  11.612  0.2464 -2.5670 -0.6816
 2979SOL    HW220400   3.742   3.958  11.516 -0.3082  0.9138 -0.1806
 2980SOL     OW20401   0.574   2.074   7.022 -0.4115  0.1650  0.2266
 2980SOL    HW120402   0.624   2.121   6.955 -0.8574 -2.9718 -2.2830
 2980SOL    HW220403   0.633   2.075   7.097  0.4211  1.8580 -0.4334
 2981SOL     OW20404   3.219   0.024  11.401  0.0772 -0.3442 -0.4562
 2981SOL    HW120405   3.180   0.075  11.471 -1.6977  1.1063 -2.4992
 2981SOL    HW220406   3.176   0.068  11.328 -2.4669 -0.3797  1.0204
 2982SOL     OW20407   2.646   2.057   2.279 -0.3771  0.4670 -0.3723
 2982SOL    HW120408   2.713   2.033   2.215 -0.4101 -1.2054  0.2245
 2982SOL    HW220409   2.686   2.035   2.363  2.1784 -1.4287 -2.0844
 2983SOL     OW20410   0.462   3.954  16.267  0.0001 -0.1499  0.2608
 2983SOL    HW120411   0.542   3.922  16.226  0.2137  1.5397 -0.6626
 2983SOL    HW220412   0.456   4.040  16.225  0.3172  0.4112  1.3662
 2984SOL     OW20413   0.976   3.783   4.871  0.0698  0.3489 -0.1845
 2984SOL    HW120414   0.992   3.700   4.827 -0.6889 -0.9306  1.9648
 2984SOL    HW220415   0.964   3.767   4.965 -0.7425 -0.3837 -0.4082
 2985SOL     OW20416   4.142   1.045   7.316  0.1207  0.4550 -0.2467
 2985SOL    HW120417   4.135   1.005   7.229 -0.6855  0.5462 -0.2207
 2985SOL    HW220418   4.083   1.118   7.296 -0.7341 -0.5658 -1.4636
 2986SOL     OW20419   2.964   3.571   7.808 -0.4964  0.1581  0.0194
 2986SOL    HW120420   2.952   3.624   7.886  0.2177  1.0731 -0.4772
 2986SOL    HW220421   2.879   3.532   7.791 -0.3006 -0.8336  1.3601
 2987SOL     OW20422   3.828   2.950   6.996  0.2539  0.5139  0.2513
 2987SOL    HW120423   3.818   3.027   7.053  2.9506  0.6916  0.4898
 2987SOL    HW220424   3.777   2.971   6.918  3.3597  1.3457 -1.5492
 2988SOL     OW20425   3.762   0.327  14.343 -0.4708 -0.6816  0.0445
 2988SOL    HW120426   3.855   0.319  14.322 -0.0283  2.3739  0.8941
 2988SOL    HW220427   3.762   0.344  14.438 -2.9576  0.6828 -0.1999
 2989SOL     OW20428   3.737   3.681   8.139  0.6001 -0.1240  0.4249
 2989SOL    HW120429   3.797   3.687   8.065 -1.1275  2.7989 -0.7294
 2989SOL    HW220430   3.743   3.768   8.178 -3.4386 -0.1396  1.0962
 2990SOL     OW20431   2.999   2.098   0.683  0.2266  1.3651  0.3362
 2990SOL    HW120432   3.028   2.186   0.660  2.6844  0.4749  0.0261
 2990SOL    HW220433   2.928   2.114   0.744  1.2405  0.6410  1.6875
 2991SOL     OW20434   3.038   4.117   9.347  0.0006 -0.0411  0.1931
 2991SOL    HW120435   3.010   4.067   9.423  0.3099  1.0026  0.9989
 2991SOL    HW220436   2.966   4.180   9.341 -2.0137 -2.3481  0.3501
 2992SOL     OW20437   1.566   4.013   1.548  0.1542  0.4402 -0.0098
 2992SOL    HW120438   1.577   4.077   1.478 -1.8886 -1.2117 -1.8196
 2992SOL    HW220439   1.626   4.053   1.611  1.2331 -0.8635 -0.2169
 2993SOL     OW20440   1.288   2.467  11.294 -0.3265  0.0883  0.0440
 2993SOL    HW120441   1.323   2.464  11.205 -0.9630  1.1322 -0.2363
 2993SOL    HW220442   1.316   2.558  11.302 -0.9274  0.2980 -0.3307
 2994SOL     OW20443   0.878   1.868   9.314  0.1251 -0.0111  0.0930
 2994SOL    HW120444   0.935   1.921   9.369  2.5563 -1.9467 -0.5418
 2994SOL    HW220445   0.923   1.879   9.230  0.3048 -0.0124  0.1893
 2995SOL     OW20446   2.680   2.397   3.096  0.2546  0.4708  0.0449
 2995SOL    HW120447   2.757   2.421   3.043  1.3439 -1.2478  0.8660
 2995SOL    HW220448   2.609   2.403   3.032  0.4489  0.6010 -0.1605
 2996SOL     OW20449   1.766   1.407   0.770 -0.0318 -0.1820 -0.1249
 2996SOL    HW120450   1.754   1.458   0.850 -0.4416 -1.6291  0.7536
 2996SOL    HW220451   1.861   1.399   0.768  0.0924  1.0788  1.0919
 2997SOL     OW20452   4.320   0.436   2.437 -0.2276  0.1512 -0.3577
 2997SOL    HW120453   4.353   0.453   2.348  2.3493  0.6604  0.7022
 2997SOL    HW220454   4.232   0.473   2.433 -0.0586  0.4861 -1.0992
 2998SOL     OW20455   1.838   1.281   5.277  0.7716  0.5835 -0.0629
 2998SOL    HW120456   1.792   1.360   5.246 -0.1968 -0.2033 -0.6539
 2998SOL    HW220457   1.903   1.274   5.207 -1.0812 -0.3726 -1.6980
 2999SOL     OW20458   1.584   3.474   7.517  0.2007  0.4060  0.0819
 2999SOL    HW120459   1.503   3.498   7.471  0.8632 -0.4592 -1.5426
 2999SOL    HW220460   1.611   3.404   7.458  0.4494 -0.0542  0.7384
 3000SOL     OW20461   1.492   0.467   7.926 -0.4848 -0.2113  0.1335
 3000SOL    HW120462   1.474   0.499   7.838 -0.1091 -1.0375 -0.2453
 3000SOL    HW220463   1.519   0.378   7.903 -2.1497  0.1609 -3.2455
 3001SOL     OW20464   1.934   4.327   7.633 -0.2440 -0.0497 -0.3119
 3001SOL    HW120465   1.966   4.417   7.626  0.0681 -0.1040  0.3693
 3001SOL    HW220466   1.974   4.308   7.718  1.8285 -0.7544 -1.4486
 3002SOL     OW20467   3.009   4.235   5.849 -0.2047 -0.1499 -0.3311
 3002SOL    HW120468   3.001   4.298   5.778  0.5451  0.2140 -0.0863
 3002SOL    HW220469   3.098   4.241   5.883 -0.3682 -0.3529  0.1445
 3003SOL     OW20470   3.577   4.075   6.371  0.0483  0.0540 -0.2455
 3003SOL    HW120471   3.655   4.051   6.422  0.7054  1.0520 -0.7791
 3003SOL    HW220472   3.553   4.156   6.416  3.8451  1.9078 -1.5790
 3004SOL     OW20473   0.766   4.577   9.441 -0.1091  0.3575  0.3192
 3004SOL    HW120474   0.714   4.497   9.445  0.9718 -0.4167 -0.8986
 3004SOL    HW220475   0.719   4.626   9.509  0.8004 -0.6445  1.6635
 3005SOL     OW20476   1.177   3.888   6.263 -0.5837 -0.3445 -0.4348
 3005SOL    HW120477   1.197   3.848   6.348  1.4342 -1.2300 -1.3284
 3005SOL    HW220478   1.112   3.829   6.224 -0.8340  1.4109 -2.6638
 3006SOL     OW20479   4.666   0.748   7.329  0.7241  0.6315  0.0444
 3006SOL    HW120480   4.587   0.707   7.293  0.1616 -0.3133  2.3316
 3006SOL    HW220481   0.013   0.694   7.292 -1.6499 -3.1260  0.9557
 3007SOL     OW20482   3.544   0.071   6.622 -0.4176  0.3120 -0.7668
 3007SOL    HW120483   3.538   0.129   6.697  0.2328  0.3495 -0.7433
 3007SOL    HW220484   3.455   0.039   6.606 -0.7742  1.0903 -0.2731
 3008SOL     OW20485   0.456   4.050   8.135 -0.9031 -1.1630  0.2270
 3008SOL    HW120486   0.439   4.137   8.098  0.4152 -0.2465  1.7836
 3008SOL    HW220487   0.529   4.074   8.192  1.4729  0.5645 -3.5907
 3009SOL     OW20488   0.866   3.762   9.582  0.2576  0.3042 -0.5859
 3009SOL    HW120489   0.808   3.821   9.535  0.6534  2.5175  1.6873
 3009SOL    HW220490   0.948   3.810   9.581  1.2171 -1.3250 -0.1868
 3010SOL     OW20491   3.476   1.447  10.293  0.8028 -0.0562 -0.3504
 3010SOL    HW120492   3.416   1.373  10.304  1.6690 -0.7665 -0.4139
 3010SOL    HW220493   3.463   1.502  10.371 -3.2633 -0.8428 -0.4471
 3011SOL     OW20494   2.035   0.759   9.043  0.1496  0.1467 -0.5814
 3011SOL    HW120495   1.983   0.835   9.071 -2.3149 -1.6022 -0.3854
 3011SOL    HW220496   1.986   0.681   9.070  0.2697  0.3517  0.2389
 3012SOL     OW20497   1.829   1.589   1.471  0.0462  0.0572  0.5397
 3012SOL    HW120498   1.805   1.630   1.388  1.2608 -0.4452 -0.0692
 3012SOL    HW220499   1.874   1.663   1.512 -0.9483 -0.0685  1.8470
 3013SOL     OW20500   0.645   3.871  13.700  0.5002  0.1830 -0.5092
 3013SOL    HW120501   0.658   3.935  13.630  1.2785 -0.5446 -1.0292
 3013SOL    HW220502   0.666   3.793  13.647 -0.6690  0.3668 -1.2516
 3014SOL     OW20503   0.675   2.363   3.738  0.0221 -0.0543 -0.0406
 3014SOL    HW120504   0.604   2.424   3.761  0.6194  0.6548 -0.0855
 3014SOL    HW220505   0.738   2.430   3.711 -1.8350  1.3133 -1.0478
 3015SOL     OW20506   4.100   4.236   3.524 -0.2997 -0.3359  0.1556
 3015SOL    HW120507   4.095   4.186   3.606  1.9770  2.0238  1.7252
 3015SOL    HW220508   4.134   4.166   3.468 -0.4179  0.6003 -1.0610
 3016SOL     OW20509   4.549   4.647  13.079  0.0150  0.6430 -0.0065
 3016SOL    HW120510   4.543   4.598  12.997 -1.9031  1.0854 -0.1388
 3016SOL    HW220511   4.491   4.713  13.041 -2.5474 -2.3145 -1.2388
 3017SOL     OW20512   3.672   2.716   7.568  0.0903  0.2037 -0.7802
 3017SOL    HW120513   3.744   2.677   7.618 -0.5902 -1.2009 -0.9025
 3017SOL    HW220514   3.601   2.711   7.633  1.0451  0.3309  0.2744
 3018SOL     OW20515   2.457   1.433   7.602  0.6566 -0.0221 -0.0240
 3018SOL    HW120516   2.450   1.527   7.584 -0.5627 -0.1495 -0.1938
 3018SOL    HW220517   2.401   1.396   7.534  0.1160  2.2406 -0.8048
 3019SOL     OW20518   2.857   2.422   1.772 -0.3387  0.0529 -0.5826
 3019SOL    HW120519   2.818   2.355   1.829  0.2295  0.7338  0.6251
 3019SOL    HW220520   2.850   2.376   1.689 -0.5570 -0.6523 -0.1808
 3020SOL     OW20521   0.806   1.311  10.534 -0.1143  0.1472 -0.1018
 3020SOL    HW120522   0.731   1.253  10.541  0.1909 -0.1526  0.6778
 3020SOL    HW220523   0.760   1.394  10.519 -1.1895 -0.5029 -0.3715
 3021SOL     OW20524   3.335   0.286   5.044 -0.4833 -0.0916  1.0226
 3021SOL    HW120525   3.342   0.366   4.992 -3.5029  0.3914  1.3716
 3021SOL    HW220526   3.427   0.260   5.033  0.2603  2.6585  0.6403
 3022SOL     OW20527   3.663   0.422   5.031  0.3354 -0.2776  0.4075
 3022SOL    HW120528   3.584   0.440   4.979  1.7988  0.3431 -1.5816
 3022SOL    HW220529   3.725   0.387   4.967 -2.3760 -1.5775 -1.4943
 3023SOL     OW20530   1.893   0.161   6.188  0.0830 -0.4035 -0.2559
 3023SOL    HW120531   1.898   0.159   6.283 -0.0015  1.2149 -0.2163
 3023SOL    HW220532   1.981   0.195   6.170 -0.8041  0.7399 -2.5165
 3024SOL     OW20533   2.203   3.492   1.190 -0.5126  0.0937  0.0595
 3024SOL    HW120534   2.113   3.504   1.219 -0.5419 -0.0576  0.0336
 3024SOL    HW220535   2.220   3.400   1.211 -1.5479 -0.3396 -1.0312
 3025SOL     OW20536   2.832   2.258   1.051  0.2802 -0.2992  0.3332
 3025SOL    HW120537   2.919   2.265   1.091  0.4258 -1.6124  0.2633
 3025SOL    HW220538   2.820   2.351   1.032  2.1167 -0.3244 -0.9807
 3026SOL     OW20539   2.167   0.380   9.115 -0.0149  0.5348  0.1152
 3026SOL    HW120540   2.205   0.443   9.176  0.5273  1.8472 -1.5802
 3026SOL    HW220541   2.159   0.446   9.046 -1.0031  1.5414  1.2027
 3027SOL     OW20542   3.154   0.448   3.842 -0.4580 -0.3863  0.1238
 3027SOL    HW120543   3.233   0.460   3.789 -0.8544  2.8142  0.2670
 3027SOL    HW220544   3.109   0.522   3.802  0.8777 -0.0160 -0.6821
 3028SOL     OW20545   3.920   1.781  13.694 -0.3454 -0.1550  0.3647
 3028SOL    HW120546   3.988   1.716  13.711  1.9482  1.8007 -1.4791
 3028SOL    HW220547   3.846   1.740  13.741 -0.8044 -1.1657 -1.2313
 3029SOL     OW20548   3.168   4.010   7.345 -0.1721  0.2895 -0.5211
 3029SOL    HW120549   3.259   4.017   7.317 -0.1172  0.9462 -0.1794
 3029SOL    HW220550   3.140   3.923   7.317 -1.4885  0.2294  0.9796
 3030SOL     OW20551   3.066   4.681   0.618  0.2499 -0.3023 -0.3325
 3030SOL    HW120552   2.976   4.680   0.584  0.0434  2.0826  0.1439
 3030SOL    HW220553   3.105   4.705   0.533  0.7963 -1.7335 -0.4828
 3031SOL     OW20554   1.278   3.378   1.486 -0.9273 -0.0043  0.5812
 3031SOL    HW120555   1.202   3.436   1.484 -0.3000  0.7889 -0.8111
 3031SOL    HW220556   1.278   3.338   1.573  1.6556  0.5663  0.8458
 3032SOL     OW20557   2.414   1.369   7.080 -0.2695  0.5780 -0.2059
 3032SOL    HW120558   2.469   1.291   7.081 -0.2506  0.5875 -0.5916
 3032SOL    HW220559   2.376   1.370   7.168  1.7767 -2.0980  0.7000
 3033SOL     OW20560   4.259   0.531  14.559  0.1253 -0.1230  0.3187
 3033SOL    HW120561   4.199   0.600  14.529  0.9257 -0.9218 -3.0042
 3033SOL    HW220562   4.257   0.471  14.485  1.0623  1.7919 -1.2719
 3034SOL     OW20563   1.924   0.884   6.788 -0.0255  0.2515 -0.3605
 3034SOL    HW120564   1.886   0.971   6.776 -0.7551  0.1825  1.6142
 3034SOL    HW220565   1.893   0.842   6.708 -0.6114  1.2156 -0.6367
 3035SOL     OW20566   1.882   1.203   6.588  0.0576 -0.0918  0.5598
 3035SOL    HW120567   1.947   1.260   6.630 -1.6457  1.8541  0.5454
 3035SOL    HW220568   1.814   1.202   6.656 -0.7349 -1.9626 -0.2726
 3036SOL     OW20569   2.779   0.079   3.123 -0.2149  0.4981 -0.2663
 3036SOL    HW120570   2.823   0.008   3.169  0.9941  1.1927 -0.3478
 3036SOL    HW220571   2.698   0.094   3.172 -0.1137  2.9955 -0.8400
 3037SOL     OW20572   3.997   4.198   5.728 -0.8045  0.2543  0.5074
 3037SOL    HW120573   3.909   4.203   5.767 -0.6198  0.6624  0.8765
 3037SOL    HW220574   4.019   4.128   5.790 -0.8235 -0.1187  0.0887
 3038SOL     OW20575   3.082   2.357   0.525 -0.0966 -0.0250  0.5600
 3038SOL    HW120576   3.044   2.401   0.600  0.3357  2.1359 -0.4878
 3038SOL    HW220577   3.169   2.396   0.535 -1.8458  2.6674  4.9677
 3039SOL     OW20578   1.324   1.422   2.621 -0.0963  0.0994  0.4597
 3039SOL    HW120579   1.407   1.412   2.668 -1.5444 -3.1876  2.3615
 3039SOL    HW220580   1.350   1.449   2.533 -0.0696 -0.3309  0.3357
 3040SOL     OW20581   0.424   1.705   8.038 -0.2939  0.1935  0.0120
 3040SOL    HW120582   0.435   1.620   8.081 -1.1092 -0.0096 -0.1822
 3040SOL    HW220583   0.426   1.691   7.943  1.4713 -0.4556  0.1404
 3041SOL     OW20584   0.634   3.758   7.932 -0.3908 -0.3588  0.0099
 3041SOL    HW120585   0.663   3.771   8.023 -2.9615  0.5646  0.7194
 3041SOL    HW220586   0.705   3.700   7.906 -2.0471 -3.2695  1.9982
 3042SOL     OW20587   0.414   2.171   9.031 -0.0346  0.2125  0.7064
 3042SOL    HW120588   0.454   2.173   8.944  0.3813  1.8687  0.9283
 3042SOL    HW220589   0.491   2.175   9.087 -0.5582  0.0882  1.4319
 3043SOL     OW20590   2.099   0.322   1.990  0.0864  0.2071 -0.4428
 3043SOL    HW120591   2.188   0.314   2.024 -0.7146 -0.5379  1.5375
 3043SOL    HW220592   2.121   0.304   1.899 -2.4434 -0.7584 -0.8529
 3044SOL     OW20593   3.459   3.383   2.783 -0.3266  0.3302 -0.1569
 3044SOL    HW120594   3.376   3.413   2.819 -0.3293 -0.6658  0.6605
 3044SOL    HW220595   3.492   3.455   2.730  1.7422  0.1513  0.8915
 3045SOL     OW20596   2.561   1.733   5.023  0.3154  0.1791 -0.2267
 3045SOL    HW120597   2.572   1.745   5.117  2.1567 -0.9321 -0.2951
 3045SOL    HW220598   2.589   1.819   4.992 -0.2936 -0.3578 -2.3424
 3046SOL     OW20599   0.677   0.475  11.407 -0.1765 -0.1435 -0.1951
 3046SOL    HW120600   0.642   0.462  11.319  1.6238 -2.1413 -0.5986
 3046SOL    HW220601   0.624   0.409  11.452  1.5362 -0.9533  0.6385
 3047SOL     OW20602   2.216   3.482   2.448  0.0910 -0.3117 -0.3271
 3047SOL    HW120603   2.295   3.429   2.444  1.0961  1.0158  2.0389
 3047SOL    HW220604   2.154   3.410   2.459 -1.7374  1.6282  2.0399
 3048SOL     OW20605   1.455   3.687   6.264 -0.7112 -0.1140 -0.3099
 3048SOL    HW120606   1.515   3.762   6.260 -0.2204 -0.4679  0.3713
 3048SOL    HW220607   1.428   3.707   6.353 -0.2437  0.4469 -0.2935
 3049SOL     OW20608   1.472   4.438   7.096  0.0897 -0.1726 -0.3105
 3049SOL    HW120609   1.452   4.420   7.188  2.4093  0.0144  0.2453
 3049SOL    HW220610   1.387   4.471   7.067 -0.5682 -1.0825  0.5790
 3050SOL     OW20611   3.688   3.125  12.809 -0.0064  0.1422  0.1304
 3050SOL    HW120612   3.617   3.181  12.839 -0.3180 -0.6904  0.9508
 3050SOL    HW220613   3.640   3.057  12.760 -0.3487  0.4927 -0.0173
 3051SOL     OW20614   4.567   1.305   1.256 -0.0763 -0.2501 -0.6435
 3051SOL    HW120615   4.621   1.280   1.182  1.0132 -2.0435  0.7489
 3051SOL    HW220616   4.523   1.222   1.273  0.7492 -0.9550 -1.9910
 3052SOL     OW20617   3.934   1.890  17.548  0.1220  0.0819  0.1272
 3052SOL    HW120618   3.875   1.879  17.473  0.7109  1.0640 -0.4864
 3052SOL    HW220619   3.924   1.980  17.578 -1.3901 -0.1975  0.4378
 3053SOL     OW20620   2.619   4.345   3.561  0.0746  0.2256  0.0638
 3053SOL    HW120621   2.667   4.278   3.512 -0.3129 -0.0942  0.1152
 3053SOL    HW220622   2.666   4.425   3.537 -0.1199  0.3383  0.0559
 3054SOL     OW20623   3.187   1.099  13.255  0.3599 -0.0048  0.4922
 3054SOL    HW120624   3.242   1.098  13.333  1.4702 -2.7739 -0.3517
 3054SOL    HW220625   3.182   1.004  13.253  0.2743  0.0243 -0.5127
 3055SOL     OW20626   2.426   2.891   2.956  0.4874  0.3407 -0.4220
 3055SOL    HW120627   2.371   2.823   2.917  0.9468 -0.0451 -0.4056
 3055SOL    HW220628   2.427   2.861   3.047  1.0080 -1.9823 -1.1951
 3056SOL     OW20629   0.721   4.571   3.232  0.4068  0.0130 -0.2407
 3056SOL    HW120630   0.696   4.567   3.139 -3.1113 -1.8947  0.8117
 3056SOL    HW220631   0.730   4.482   3.266  3.0913  1.3336  2.5541
 3057SOL     OW20632   3.009   3.159   8.803 -0.2338 -0.3329 -0.2250
 3057SOL    HW120633   2.955   3.091   8.842  0.2586 -0.8630 -0.4632
 3057SOL    HW220634   3.044   3.112   8.728 -0.7998  2.6209 -2.3412
 3058SOL     OW20635   1.342   4.675   8.931  0.2833  0.0739 -0.2371
 3058SOL    HW120636   1.337   4.655   8.838  0.8135  0.9764 -0.4547
 3058SOL    HW220637   1.343   4.587   8.969  0.0789 -0.0096 -0.4229
 3059SOL     OW20638   3.249   2.048   6.358 -0.3163  0.1181 -0.1892
 3059SOL    HW120639   3.340   2.056   6.386 -0.8180  0.8594  1.2809
 3059SOL    HW220640   3.248   2.112   6.287  1.7319 -0.8558 -1.0880
 3060SOL     OW20641   3.995   3.532   7.524 -0.0903  0.1259  0.6457
 3060SOL    HW120642   4.039   3.472   7.584 -3.1785  0.1530  2.9863
 3060SOL    HW220643   3.912   3.543   7.571 -1.2224 -1.7500 -0.8772
 3061SOL     OW20644   4.109   2.386  11.415 -0.1341 -0.0645 -0.2596
 3061SOL    HW120645   4.045   2.409  11.347 -2.6113 -0.7333  1.8364
 3061SOL    HW220646   4.187   2.420  11.372  0.2844 -2.3758 -1.3106
 3062SOL     OW20647   3.194   1.472   7.834  0.3413  0.5066  0.3201
 3062SOL    HW120648   3.244   1.541   7.879 -1.4753  1.5415  0.7304
 3062SOL    HW220649   3.104   1.502   7.846 -0.4889 -1.5572 -0.7922
 3063SOL     OW20650   0.816   1.142   6.726  0.3209 -0.4072 -0.5987
 3063SOL    HW120651   0.862   1.082   6.667  1.6052  2.1623 -2.2359
 3063SOL    HW220652   0.788   1.201   6.655 -1.6039 -0.8730 -0.2173
 3064SOL     OW20653   2.004   4.352   4.806 -0.0364 -0.1964 -0.2553
 3064SOL    HW120654   1.955   4.429   4.776 -1.7661 -1.8373 -1.6609
 3064SOL    HW220655   2.057   4.378   4.882 -0.7535 -0.4240  0.3230
 3065SOL     OW20656   4.666   3.512   4.457 -0.0925 -0.2134  0.1739
 3065SOL    HW120657   4.670   3.479   4.368 -2.2924  0.7874 -0.2970
 3065SOL    HW220658   4.706   3.435   4.497  1.2897  1.1614  1.4659
 3066SOL     OW20659   4.210   3.704   3.725  0.4860  0.3249 -0.2724
 3066SOL    HW120660   4.205   3.792   3.687 -2.4434 -0.1724 -1.0385
 3066SOL    HW220661   4.117   3.679   3.726  0.7546 -0.7689 -1.5870
 3067SOL     OW20662   0.904   3.640  11.223 -0.1378 -0.1035 -0.3668
 3067SOL    HW120663   0.931   3.612  11.311  1.5809 -1.9967 -1.4908
 3067SOL    HW220664   0.870   3.727  11.245  1.5550  0.6156 -0.6420
 3068SOL     OW20665   2.470   1.563   1.013 -0.0291 -0.8009 -0.3844
 3068SOL    HW120666   2.448   1.522   1.097 -1.1968  2.2917  0.8144
 3068SOL    HW220667   2.492   1.651   1.043 -0.1826 -0.6089 -0.8408
 3069SOL     OW20668   0.293   3.634   7.275 -0.0099  0.3135  0.1679
 3069SOL    HW120669   0.330   3.625   7.187  1.2953  0.9194  0.6486
 3069SOL    HW220670   0.304   3.729   7.284  2.2245 -0.0516  1.1559
 3070SOL     OW20671   2.905   3.125   5.448 -0.2332 -0.2161 -0.0943
 3070SOL    HW120672   2.993   3.131   5.485 -1.7315 -1.5936  3.6789
 3070SOL    HW220673   2.859   3.101   5.528 -0.2216  1.3493  0.3810
 3071SOL     OW20674   0.807   2.004  12.352 -0.0972  0.1932  0.3082
 3071SOL    HW120675   0.815   2.094  12.383 -1.5422  0.6236 -0.5542
 3071SOL    HW220676   0.717   1.999  12.319 -1.2273  0.7322  3.3498
 3072SOL     OW20677   2.558   3.956  10.709  1.0138  0.4064  0.4198
 3072SOL    HW120678   2.590   3.866  10.713 -0.9807 -0.2849  0.7163
 3072SOL    HW220679   2.485   3.952  10.771  0.8269 -0.3813  0.1471
 3073SOL     OW20680   1.048   1.393   9.164 -0.3020 -0.2362 -0.6253
 3073SOL    HW120681   1.082   1.331   9.230  1.9839  0.2193 -1.3895
 3073SOL    HW220682   0.964   1.420   9.200 -0.6814  0.5742 -2.1498
 3074SOL     OW20683   1.011   0.316   3.881 -0.3192 -0.1322  0.0879
 3074SOL    HW120684   0.942   0.268   3.835 -0.3086  0.8440 -0.9454
 3074SOL    HW220685   0.975   0.329   3.969 -0.3973  3.7807 -0.5373
 3075SOL     OW20686   3.794   1.925   9.201 -0.1288  0.2000  0.0958
 3075SOL    HW120687   3.798   1.915   9.297  1.4691 -3.4078 -0.3476
 3075SOL    HW220688   3.888   1.915   9.183 -0.8622 -2.0266 -2.5470
 3076SOL     OW20689   1.472   1.210   4.321 -0.0234 -0.2270  0.2244
 3076SOL    HW120690   1.542   1.202   4.386  0.7944  0.4796 -0.5726
 3076SOL    HW220691   1.454   1.120   4.295 -1.3023  0.1413 -0.1510
 3077SOL     OW20692   0.681   2.651   5.429  0.9337  0.2532 -0.0952
 3077SOL    HW120693   0.699   2.580   5.368  0.0033 -1.2055  1.3528
 3077SOL    HW220694   0.763   2.699   5.414  1.3958  0.3494  2.7547
 3078SOL     OW20695   3.553   1.451  15.544 -0.4077 -0.2144 -0.6242
 3078SOL    HW120696   3.496   1.435  15.620 -0.3224  2.1688 -0.0657
 3078SOL    HW220697   3.638   1.463  15.585  1.0427  0.5543 -3.8875
 3079SOL     OW20698   1.656   3.352   4.284 -0.3262  0.3731  0.5126
 3079SOL    HW120699   1.575   3.307   4.309 -0.1089  0.2396  0.9682
 3079SOL    HW220700   1.686   3.299   4.210  1.5819  0.7713  1.0262
 3080SOL     OW20701   2.506   1.236  15.088  0.2299 -0.4673  0.4161
 3080SOL    HW120702   2.562   1.311  15.068 -2.0256  0.9765 -0.4841
 3080SOL    HW220703   2.495   1.206  14.998  0.7938 -0.1391  0.2410
 3081SOL     OW20704   3.695   0.218   0.761 -0.0922 -0.5917  0.7615
 3081SOL    HW120705   3.786   0.189   0.758  0.1723  0.6833 -3.3349
 3081SOL    HW220706   3.698   0.262   0.846  0.4133 -0.2111  0.5496
 3082SOL     OW20707   1.815   3.230  14.944 -0.2661 -0.1833 -0.2383
 3082SOL    HW120708   1.892   3.283  14.962  0.2166 -1.4200  1.3357
 3082SOL    HW220709   1.775   3.228  15.031  0.3642 -1.3012  0.0305
 3083SOL     OW20710   0.503   2.291   5.844  0.5026  0.1021 -0.2806
 3083SOL    HW120711   0.552   2.262   5.767 -2.2862  1.4307 -2.5684
 3083SOL    HW220712   0.487   2.204   5.881 -2.2298  1.0861  0.8173
 3084SOL     OW20713   0.063   0.266   3.920 -0.5088  0.3070 -0.2658
 3084SOL    HW120714   0.041   0.283   3.828  0.4404 -0.0777 -0.5695
 3084SOL    HW220715   0.008   0.191   3.941 -0.7402  0.4000 -0.5394
 3085SOL     OW20716   0.769   4.567  17.425 -0.2006 -0.0076  0.1138
 3085SOL    HW120717   0.742   4.478  17.402  0.3958 -0.3709  0.8118
 3085SOL    HW220718   0.701   4.581  17.491  0.7369 -0.9934  1.2747
 3086SOL     OW20719   2.823   2.890  11.552 -0.2598  0.1210  0.4577
 3086SOL    HW120720   2.861   2.918  11.469  0.5126  3.0069  1.7859
 3086SOL    HW220721   2.805   2.799  11.529 -1.9612  0.4707  0.3732
 3087SOL     OW20722   3.943   1.106   9.494  0.1843 -0.2159 -0.5566
 3087SOL    HW120723   3.911   1.044   9.560  1.7463 -1.0575 -0.6024
 3087SOL    HW220724   4.035   1.101   9.519  0.5241 -0.6484 -1.8737
 3088SOL     OW20725   2.933   2.811   1.860  0.6967 -0.3442  0.2214
 3088SOL    HW120726   2.973   2.767   1.935 -0.4205 -1.2784  0.2559
 3088SOL    HW220727   2.844   2.778   1.857  0.4229  0.4026  0.1377
 3089SOL     OW20728   4.569   0.273   7.032 -0.1422 -0.2667  0.4282
 3089SOL    HW120729   4.515   0.212   6.982  0.5954 -0.7745  0.2530
 3089SOL    HW220730   4.536   0.279   7.122  1.2525  2.5015  0.7768
 3090SOL     OW20731   2.055   3.186  10.063  0.3758  0.4694  0.3602
 3090SOL    HW120732   2.065   3.113  10.124  1.2337 -0.7221 -1.2184
 3090SOL    HW220733   2.118   3.251  10.096 -0.1512  0.6416  1.0335
 3091SOL     OW20734   2.066   1.261   5.792  0.2397 -0.2608 -0.2014
 3091SOL    HW120735   2.154   1.282   5.761  0.5415 -0.4512  0.5537
 3091SOL    HW220736   2.006   1.262   5.717 -1.0521 -4.4594  0.8075
 3092SOL     OW20737   1.058   0.808   1.146  0.4928  0.2412 -0.3427
 3092SOL    HW120738   0.988   0.814   1.212  0.7887  0.6904 -0.0700
 3092SOL    HW220739   1.092   0.897   1.138  0.5387  0.2266 -0.3108
 3093SOL     OW20740   2.430   2.094   2.964 -0.3316  0.6781  0.2927
 3093SOL    HW120741   2.500   2.111   3.028  1.1669 -1.3759 -0.7752
 3093SOL    HW220742   2.369   2.165   2.982  0.2102  0.7055  1.9739
 3094SOL     OW20743   2.956   3.028  12.276  0.1830  0.0994 -0.6544
 3094SOL    HW120744   2.958   3.067  12.363 -0.4293 -1.6380  0.1438
 3094SOL    HW220745   2.981   3.095  12.212 -0.5965  0.3191 -0.7332
 3095SOL     OW20746   2.919   1.373   4.003  0.1363  0.4353 -0.0446
 3095SOL    HW120747   2.839   1.321   3.993 -0.0333  0.4091  1.5104
 3095SOL    HW220748   2.972   1.318   4.060  0.5486 -0.5985 -1.4153
 3096SOL     OW20749   4.356   0.114   5.055 -0.3242 -0.0208 -0.7001
 3096SOL    HW120750   4.420   0.053   5.092  0.4225  1.1694 -0.0236
 3096SOL    HW220751   4.291   0.048   5.033 -1.1473  0.5112  0.1243
 3097SOL     OW20752   1.843   1.549  15.309 -0.1133  0.3469 -0.4987
 3097SOL    HW120753   1.898   1.502  15.246 -0.1503 -2.4408  1.5704
 3097SOL    HW220754   1.760   1.531  15.266 -0.4093 -1.7090  0.9246
 3098SOL     OW20755   0.791   3.670  10.311  0.1685  0.7187  0.1624
 3098SOL    HW120756   0.729   3.669  10.238 -1.2034  3.3489  1.2859
 3098SOL    HW220757   0.850   3.600  10.283 -0.5446  0.0291  0.3665
 3099SOL     OW20758   1.181   1.439  12.862 -0.4926  0.2568  0.2447
 3099SOL    HW120759   1.125   1.514  12.841 -0.6193  0.0590 -0.1120
 3099SOL    HW220760   1.162   1.380  12.790 -0.2547 -0.8863  1.1200
 3100SOL     OW20761   0.506   0.065   2.480  0.3678 -0.0458  0.1227
 3100SOL    HW120762   0.418   0.103   2.487  0.1397 -0.6590  0.5834
 3100SOL    HW220763   0.543   0.106   2.403 -0.0113  0.5870  0.2769
 3101SOL     OW20764   0.695   2.311   4.114  0.1094 -0.6947  0.3660
 3101SOL    HW120765   0.745   2.230   4.104 -0.7201 -1.1583 -0.0354
 3101SOL    HW220766   0.737   2.360   4.044  0.0541  0.4266  1.1257
 3102SOL     OW20767   4.043   1.425   1.204 -0.2768  0.1295  0.1814
 3102SOL    HW120768   4.096   1.501   1.178 -0.0638  0.2688  1.0432
 3102SOL    HW220769   3.967   1.452   1.255 -0.3578  1.5911 -0.7161
 3103SOL     OW20770   0.819   4.659   4.790  0.0813  0.0368  0.3132
 3103SOL    HW120771   0.796   4.600   4.861 -1.0753 -0.8300 -0.7700
 3103SOL    HW220772   0.885   4.711   4.835  0.3024 -0.3837  0.4725
 3104SOL     OW20773   4.505   3.107   6.472 -0.2714  0.2660 -0.0330
 3104SOL    HW120774   4.548   3.186   6.505 -0.5596  0.7505 -0.8347
 3104SOL    HW220775   4.555   3.029   6.497 -1.0009 -0.0297  0.5016
 3105SOL     OW20776   2.134   4.506   2.732  0.2488  0.0140  0.0663
 3105SOL    HW120777   2.096   4.551   2.657  0.9805 -2.1217 -1.5836
 3105SOL    HW220778   2.112   4.560   2.808  0.7560 -2.4591  1.9693
 3106SOL     OW20779   2.547   0.008   6.954  0.0074  0.2120  0.4947
 3106SOL    HW120780   2.469   0.007   6.899  2.3252 -0.3074 -2.8332
 3106SOL    HW220781   2.520   4.672   7.024 -0.4894 -0.1730 -0.0164
 3107SOL     OW20782   3.130   2.668   1.445 -1.0483  0.9121 -0.3010
 3107SOL    HW120783   3.215   2.660   1.401 -0.5661  0.1741  0.7617
 3107SOL    HW220784   3.090   2.586   1.415 -0.7616  1.0493 -1.0700
 3108SOL     OW20785   1.789   0.741  11.741  0.2238  0.3505  0.0176
 3108SOL    HW120786   1.735   0.681  11.689 -0.9059 -0.8097  2.4992
 3108SOL    HW220787   1.730   0.815  11.759 -0.4486 -0.4980  1.3302
 3109SOL     OW20788   4.148   4.171   3.989 -0.2900  0.0326  0.6797
 3109SOL    HW120789   4.074   4.127   4.029  0.8719 -0.8810  1.8168
 3109SOL    HW220790   4.131   4.264   4.002 -0.3315  0.2452 -0.8360
 3110SOL     OW20791   4.692   3.700   1.831  0.2717 -0.0768  0.3992
 3110SOL    HW120792   4.648   3.745   1.903  1.6044 -0.2182  1.3178
 3110SOL    HW220793   4.619   3.701   1.769  1.1010  0.8970 -0.5617
 3111SOL     OW20794   3.248   4.156  12.547 -0.0283  0.1828 -0.0982
 3111SOL    HW120795   3.291   4.179  12.465  1.7255 -0.4929  0.6294
 3111SOL    HW220796   3.189   4.085  12.520  1.0773 -0.9118  0.3232
 3112SOL     OW20797   3.152   1.679   2.146 -0.0790 -0.1770  0.2720
 3112SOL    HW120798   3.075   1.687   2.089 -0.2882  1.2545  0.7577
 3112SOL    HW220799   3.116   1.671   2.234 -0.4463 -2.2407 -0.0514
 3113SOL     OW20800   3.843   4.691   3.980 -0.4191 -0.1616 -0.0666
 3113SOL    HW120801   3.800   4.688   3.895  0.1012  0.1616 -0.3379
 3113SOL    HW220802   3.781   4.636   4.028  0.0014  0.6265  1.3875
 3114SOL     OW20803   0.247   0.244   4.121  0.5695  0.0128  0.0224
 3114SOL    HW120804   0.208   0.247   4.034  0.5011 -0.0996  0.0507
 3114SOL    HW220805   0.278   0.335   4.116  2.2962 -0.5344  0.6911
 3115SOL     OW20806   2.812   3.821  12.252  0.1540 -0.0690  0.4813
 3115SOL    HW120807   2.781   3.911  12.242 -1.5291 -0.5460  1.4740
 3115SOL    HW220808   2.753   3.777  12.191 -0.4398 -0.0374  1.0298
 3116SOL     OW20809   1.531   2.455  11.552 -0.2227  1.0613  0.3082
 3116SOL    HW120810   1.606   2.461  11.492  0.1123  0.2536  0.6505
 3116SOL    HW220811   1.534   2.537  11.601 -0.1934  1.1885  0.0949
 3117SOL     OW20812   3.467   4.558   4.352 -0.2229 -0.1079 -0.0211
 3117SOL    HW120813   3.498   4.624   4.289 -1.7026  0.4997 -0.0998
 3117SOL    HW220814   3.543   4.520   4.397  1.9114  1.4674 -2.2331
 3118SOL     OW20815   3.654   2.647   2.562  0.1527  0.1887  0.1884
 3118SOL    HW120816   3.664   2.553   2.551 -0.4627 -0.0475  1.6082
 3118SOL    HW220817   3.613   2.673   2.480  3.2569  2.3044 -0.7258
 3119SOL     OW20818   4.252   1.817   2.655 -0.3317 -0.4542 -0.1740
 3119SOL    HW120819   4.266   1.723   2.671 -0.0629 -0.3461  0.2179
 3119SOL    HW220820   4.345   1.840   2.663 -0.4824 -0.0263  0.3895
 3120SOL     OW20821   4.016   2.762   0.353 -0.2259  0.2735 -0.3075
 3120SOL    HW120822   4.020   2.747   0.259 -2.7001  0.6519 -0.4733
 3120SOL    HW220823   3.926   2.794   0.361  0.0775  0.8564  0.8334
 3121SOL     OW20824   2.346   1.942   8.235 -0.5211 -0.3816 -0.0220
 3121SOL    HW120825   2.330   1.948   8.141  0.2747  1.0093 -0.0663
 3121SOL    HW220826   2.265   1.908   8.274 -1.4330  0.3455 -1.2447
 3122SOL     OW20827   0.675   4.227  17.221  0.6176 -0.2888  0.5343
 3122SOL    HW120828   0.769   4.209  17.232  0.4751 -1.2660  0.1240
 3122SOL    HW220829   0.680   4.290  17.149 -2.5677 -1.0637 -0.3584
 3123SOL     OW20830   3.773   2.874   0.421  0.4914 -0.2654 -0.5776
 3123SOL    HW120831   3.694   2.848   0.374  1.5047 -2.6987 -0.9218
 3123SOL    HW220832   3.763   2.837   0.509 -4.8960  2.3676 -0.0816
 3124SOL     OW20833   4.533   2.351   8.750 -1.2487 -0.5489  0.7588
 3124SOL    HW120834   4.527   2.292   8.825 -1.7958  0.8210  1.8124
 3124SOL    HW220835   4.621   2.389   8.755 -1.7052  0.7448 -1.1189
 3125SOL     OW20836   1.826   0.973  17.001 -0.1543  0.2485 -0.1441
 3125SOL    HW120837   1.897   1.038  16.993  0.9379 -0.7852  1.2261
 3125SOL    HW220838   1.876   0.892  17.010 -0.6037 -0.0069  0.0462
 3126SOL     OW20839   1.036   0.542  16.708 -0.4706 -0.1815 -0.4951
 3126SOL    HW120840   0.944   0.524  16.692 -0.5028 -0.7627  0.3324
 3126SOL    HW220841   1.072   0.527  16.620  0.6282  1.5517 -0.3320
 3127SOL     OW20842   0.873   1.501  13.076 -0.4273 -0.1251  0.0362
 3127SOL    HW120843   0.790   1.453  13.079  0.1288 -1.0380  0.7650
 3127SOL    HW220844   0.844   1.584  13.038 -0.8859 -0.7908 -1.0718
 3128SOL     OW20845   4.278   3.252   1.446  0.1750  0.3734 -0.0347
 3128SOL    HW120846   4.199   3.203   1.470  0.5921 -0.1624  0.2481
 3128SOL    HW220847   4.273   3.325   1.507 -0.3672  0.3141 -0.0096
 3129SOL     OW20848   2.240   4.242   8.281  0.2970 -0.1017  0.1980
 3129SOL    HW120849   2.199   4.158   8.304 -0.7934  0.1012 -1.0431
 3129SOL    HW220850   2.251   4.283   8.367 -0.6712 -1.4125  0.9498
 3130SOL     OW20851   3.550   1.679   0.562  0.0257 -0.4267 -0.8598
 3130SOL    HW120852   3.546   1.648   0.472  3.2474 -2.9480 -0.1343
 3130SOL    HW220853   3.616   1.616   0.591 -0.0275  1.0553  2.4980
 3131SOL     OW20854   2.130   4.087   2.551  0.1744  0.7303  0.0768
 3131SOL    HW120855   2.218   4.124   2.542  1.5764 -2.4089  0.9840
 3131SOL    HW220856   2.082   4.164   2.581  1.7499  2.2644 -1.3844
 3132SOL     OW20857   4.617   2.300  13.012 -0.0534  0.0771  0.0108
 3132SOL    HW120858   4.586   2.213  13.038 -4.3866  2.0220  1.4735
 3132SOL    HW220859   4.538   2.346  13.042 -0.9761 -1.2435 -0.3913
 3133SOL     OW20860   1.515   2.008   6.945 -0.1348 -0.2347 -0.0005
 3133SOL    HW120861   1.490   2.007   6.853  1.5077 -0.7910 -0.4494
 3133SOL    HW220862   1.610   2.016   6.939 -0.2217  0.9947  0.4089
 3134SOL     OW20863   0.569   2.405  14.071 -0.3032 -0.3075  0.4813
 3134SOL    HW120864   0.527   2.439  14.150 -0.0493 -0.4841  0.6959
 3134SOL    HW220865   0.555   2.473  14.006 -0.1267 -0.6191  0.1177
 3135SOL     OW20866   3.833   1.644   7.745 -0.4690 -0.2570  0.4530
 3135SOL    HW120867   3.852   1.590   7.822 -0.7260 -0.8779  0.0869
 3135SOL    HW220868   3.871   1.730   7.755  1.3198 -1.0371  0.2621
 3136SOL     OW20869   2.458   3.606   2.790 -0.6663  0.1119 -0.4560
 3136SOL    HW120870   2.436   3.634   2.701  0.2836  0.1411 -0.6734
 3136SOL    HW220871   2.368   3.588   2.820 -0.7283 -1.4823 -1.5690
 3137SOL     OW20872   4.168   3.892   2.319  0.5201  0.6415  0.1466
 3137SOL    HW120873   4.085   3.875   2.364  0.5272 -1.7218 -0.7188
 3137SOL    HW220874   4.231   3.874   2.389  0.9239 -0.3765 -0.4838
 3138SOL     OW20875   3.302   1.085   5.690 -0.2267  0.5359 -0.0622
 3138SOL    HW120876   3.263   1.009   5.648 -2.3752  1.7183 -0.2442
 3138SOL    HW220877   3.358   1.054   5.760 -1.7277 -0.5159  0.6598
 3139SOL     OW20878   0.535   3.225   8.133 -0.0513  0.1122 -0.6062
 3139SOL    HW120879   0.447   3.253   8.107  0.1985  1.1988 -0.2669
 3139SOL    HW220880   0.515   3.131   8.132  0.9656 -0.1007 -0.3416
 3140SOL     OW20881   0.666   2.545   7.195 -0.0871  0.5006 -0.2058
 3140SOL    HW120882   0.590   2.543   7.252  1.1500 -1.5779  1.3875
 3140SOL    HW220883   0.660   2.637   7.170  2.5217  0.7348  0.0051
 3141SOL     OW20884   0.361   0.201  14.752 -0.6654 -0.1344  0.2656
 3141SOL    HW120885   0.337   0.281  14.798  1.8953 -0.2283  1.7713
 3141SOL    HW220886   0.444   0.226  14.710 -0.6655  1.5768  1.2869
 3142SOL     OW20887   1.474   2.002   8.298  1.1006  0.4272  0.3431
 3142SOL    HW120888   1.503   1.912   8.314  0.9414  0.6637  1.9636
 3142SOL    HW220889   1.481   1.999   8.203  0.1179  0.5844  0.2661
 3143SOL     OW20890   4.083   2.260   2.845 -0.0634  0.1767  0.1531
 3143SOL    HW120891   4.058   2.252   2.937  0.3981  0.5224  0.3089
 3143SOL    HW220892   4.102   2.168   2.828 -2.0410 -0.0295 -1.0111
 3144SOL     OW20893   2.161   3.863  11.445  0.5501 -0.2528 -0.4390
 3144SOL    HW120894   2.225   3.850  11.376  1.9128 -1.5752  1.0684
 3144SOL    HW220895   2.083   3.881  11.391  0.6599 -0.2835 -0.6070
 3145SOL     OW20896   3.202   1.657  15.685  0.7682 -0.1764 -0.2195
 3145SOL    HW120897   3.250   1.575  15.696 -0.3414 -1.0056 -1.5419
 3145SOL    HW220898   3.223   1.693  15.771 -0.7990 -1.0798  0.5630
 3146SOL     OW20899   3.685   2.228   2.994 -0.0033 -0.1287  0.0385
 3146SOL    HW120900   3.717   2.150   2.949 -5.9526 -1.2535 -2.2258
 3146SOL    HW220901   3.744   2.226   3.069  0.7262 -0.3193 -0.5411
 3147SOL     OW20902   4.162   2.480   8.039 -0.3019 -0.2325  0.1403
 3147SOL    HW120903   4.254   2.503   8.055 -0.3975  0.8480 -0.8897
 3147SOL    HW220904   4.164   2.427   8.119  0.4401  0.9224  0.8887
 3148SOL     OW20905   3.598   3.179   1.859 -0.1820 -0.1781  0.4448
 3148SOL    HW120906   3.548   3.188   1.778  1.8720  1.4774 -0.6624
 3148SOL    HW220907   3.690   3.165   1.834  0.0000  4.1231 -1.2488
 3149SOL     OW20908   2.073   2.328  15.900 -0.0895 -0.3003 -0.9077
 3149SOL    HW120909   2.130   2.397  15.865 -2.6554  0.1950 -4.0695
 3149SOL    HW220910   1.987   2.368  15.884 -0.2748  0.6260  2.3684
 3150SOL     OW20911   0.704   2.805  12.141  0.3956 -0.2724  0.0956
 3150SOL    HW120912   0.676   2.886  12.100  1.5591  0.4593  0.7738
 3150SOL    HW220913   0.786   2.785  12.096  0.3973 -1.9516  0.8295
 3151SOL     OW20914   1.075   3.927   9.633  0.0679 -0.6114  0.6851
 3151SOL    HW120915   1.038   4.002   9.681 -0.1319 -0.1483 -0.1911
 3151SOL    HW220916   1.144   3.897   9.693  2.0369  1.6009 -0.4522
 3152SOL     OW20917   3.624   3.203   7.703  0.3569 -0.0350 -0.2057
 3152SOL    HW120918   3.552   3.266   7.695 -2.2094 -2.4902  3.5259
 3152SOL    HW220919   3.581   3.159   7.777  0.9799 -0.7342 -0.2662
 3153SOL     OW20920   0.077   2.338  12.809 -0.6617  0.0707  0.1815
 3153SOL    HW120921   0.002   2.311  12.862 -0.7719  0.1687  0.0774
 3153SOL    HW220922   0.095   2.418  12.859 -0.2629  0.7004 -0.9625
 3154SOL     OW20923   0.832   4.558   8.900 -0.4308 -0.3366 -0.2314
 3154SOL    HW120924   0.773   4.631   8.920 -0.1927 -0.5919  1.4129
 3154SOL    HW220925   0.833   4.521   8.989 -1.8619  0.6838  0.2115
 3155SOL     OW20926   3.326   2.893   5.630  0.0374 -0.3412 -0.8624
 3155SOL    HW120927   3.382   2.936   5.565 -1.1204 -0.3207 -1.8416
 3155SOL    HW220928   3.272   2.832   5.580 -1.9601  0.9888 -0.3483
 3156SOL     OW20929   4.480   2.773  15.424  0.5727  0.1426 -0.0546
 3156SOL    HW120930   4.492   2.679  15.430 -1.1215 -0.0456  0.3826
 3156SOL    HW220931   4.388   2.776  15.399  0.5329  0.8051  0.1726
 3157SOL     OW20932   4.391   0.717   1.871 -0.2389  0.0633 -0.0773
 3157SOL    HW120933   4.347   0.764   1.800  0.2434 -0.7970 -0.9403
 3157SOL    HW220934   4.382   0.627   1.841 -2.1579 -0.2999  1.6088
 3158SOL     OW20935   2.749   4.315   7.494  0.3026 -0.1695  0.1917
 3158SOL    HW120936   2.708   4.393   7.457 -0.4982  0.0910  1.6287
 3158SOL    HW220937   2.718   4.314   7.585 -1.7311  0.9000 -0.4992
 3159SOL     OW20938   2.054   3.964   6.884  0.1774 -0.7050 -0.2576
 3159SOL    HW120939   1.986   4.004   6.938  0.6533 -0.3363  0.0692
 3159SOL    HW220940   2.134   4.010   6.909 -0.1106 -0.2041 -0.2510
 3160SOL     OW20941   0.271   4.465  16.014  0.2146 -0.3085 -0.0534
 3160SOL    HW120942   0.195   4.521  15.997  0.4998 -0.2148 -1.0419
 3160SOL    HW220943   0.240   4.390  16.063 -1.1378  0.9270  1.0007
 3161SOL     OW20944   4.528   2.179   6.559 -0.3808  0.0968  0.1341
 3161SOL    HW120945   4.463   2.139   6.616  0.4715 -2.2966 -0.5534
 3161SOL    HW220946   4.609   2.175   6.611  0.0927 -1.8642 -0.7737
 3162SOL     OW20947   4.107   3.821  17.645  0.1014 -0.2072 -0.1801
 3162SOL    HW120948   4.097   3.810  17.551  0.2812 -0.8675 -0.1227
 3162SOL    HW220949   4.039   3.887  17.658  1.3316  1.3333 -1.5714
 3163SOL     OW20950   0.263   1.194   2.621  0.4375  0.6498  0.1398
 3163SOL    HW120951   0.250   1.248   2.543 -1.4945 -2.3649 -1.6332
 3163SOL    HW220952   0.172   1.165   2.629  0.5484 -0.3502 -2.4041
 3164SOL     OW20953   0.923   2.060   8.251  0.5082 -0.0716  0.3619
 3164SOL    HW120954   0.948   2.108   8.172 -1.6579  0.8659  0.2599
 3164SOL    HW220955   0.828   2.070   8.253  0.0784 -4.0725  1.1291
 3165SOL     OW20956   1.585   3.808   0.712  0.5439  0.0620 -0.5035
 3165SOL    HW120957   1.640   3.829   0.637  1.4637 -0.5489 -0.0022
 3165SOL    HW220958   1.657   3.775   0.766 -0.5859 -0.4307  0.7045
 3166SOL     OW20959   3.403   4.181   4.388 -0.2207  0.5341  0.0175
 3166SOL    HW120960   3.316   4.219   4.394 -0.6776 -0.7124  1.1077
 3166SOL    HW220961   3.393   4.132   4.470 -0.5522  0.9088  0.1999
 3167SOL     OW20962   3.272   3.060   0.947  0.5332 -0.1228 -0.1880
 3167SOL    HW120963   3.357   3.095   0.976 -0.7223  2.2074  0.6801
 3167SOL    HW220964   3.289   2.974   0.986  1.6021 -0.4930 -1.4834
 3168SOL     OW20965   3.604   2.996   3.745 -0.2704 -0.2041  0.6369
 3168SOL    HW120966   3.568   2.937   3.811 -1.1778 -3.1959 -2.5577
 3168SOL    HW220967   3.682   3.037   3.782 -0.2469  1.0624 -0.8076
 3169SOL     OW20968   0.303   3.900   2.733 -0.2987  1.0094 -0.1257
 3169SOL    HW120969   0.365   3.965   2.700  0.6905 -0.9296 -2.1170
 3169SOL    HW220970   0.306   3.917   2.827  0.4913  0.1541  0.0057
 3170SOL     OW20971   1.384   4.072   6.445  0.7362  0.2493 -1.0121
 3170SOL    HW120972   1.328   4.000   6.415  1.4271 -1.2001  1.2399
 3170SOL    HW220973   1.329   4.150   6.447  0.0733 -0.1690 -2.7787
 3171SOL     OW20974   1.661   2.458   9.100  0.3661  0.8304  0.4831
 3171SOL    HW120975   1.706   2.538   9.072 -1.4190  0.8248 -2.3681
 3171SOL    HW220976   1.714   2.430   9.175 -0.8103 -1.3267  0.5062
 3172SOL     OW20977   0.081   3.852   4.867  0.3314 -0.1116 -0.1832
 3172SOL    HW120978   0.094   3.833   4.775 -0.9360 -0.4434 -0.3005
 3172SOL    HW220979   0.088   3.763   4.902  2.3515  0.9826  2.2489
 3173SOL     OW20980   1.813   4.388   3.525 -0.4560 -0.3201  0.1707
 3173SOL    HW120981   1.858   4.338   3.457 -1.9992 -0.0095 -1.0625
 3173SOL    HW220982   1.886   4.447   3.546  0.7151 -1.7285  0.0012
 3174SOL     OW20983   1.435   1.023   6.705 -0.1059 -0.4408 -0.2915
 3174SOL    HW120984   1.438   0.987   6.616  0.6992  0.7246 -0.7392
 3174SOL    HW220985   1.352   1.070   6.703  0.8153  1.2447  1.4315
 3175SOL     OW20986   1.450   4.016  11.920 -0.0252 -0.3684  0.4281
 3175SOL    HW120987   1.501   4.080  11.971  0.1862  0.7930 -1.2316
 3175SOL    HW220988   1.395   4.082  11.877 -0.0410 -1.1853 -0.7978
 3176SOL     OW20989   2.086   1.616   7.699 -0.5820 -0.1304  0.3095
 3176SOL    HW120990   1.997   1.589   7.679 -1.2287  1.5038  0.9944
 3176SOL    HW220991   2.113   1.562   7.774  0.2848  2.7443  2.0536
 3177SOL     OW20992   1.040   3.739   6.919  0.2150  0.2751 -0.3951
 3177SOL    HW120993   0.946   3.733   6.902  0.7288 -1.2113 -2.6575
 3177SOL    HW220994   1.056   3.646   6.906 -0.6128  0.1931 -0.8326
 3178SOL     OW20995   3.862   3.366   6.242 -0.3024  0.4907 -0.0285
 3178SOL    HW120996   3.854   3.461   6.235 -0.2904  0.3906 -1.5622
 3178SOL    HW220997   3.810   3.352   6.163  1.2338 -0.8927 -0.8018
 3179SOL     OW20998   2.777   3.333   9.119  0.3850 -0.5489  0.4673
 3179SOL    HW120999   2.755   3.253   9.167 -2.1488 -0.5058 -0.6355
 3179SOL    HW221000   2.694   3.376   9.102  1.4044  1.4906  0.6737
 3180SOL     OW21001   0.484   1.089   5.597 -0.0888  0.3481  0.2104
 3180SOL    HW121002   0.410   1.118   5.651  0.7226  2.6489  0.1212
 3180SOL    HW221003   0.444   1.023   5.540 -0.8292  0.7097  0.3074
 3181SOL     OW21004   2.214   2.967  11.401 -0.0134 -0.0316 -0.3685
 3181SOL    HW121005   2.288   2.965  11.462 -0.3400  1.7513  0.0947
 3181SOL    HW221006   2.180   3.057  11.398 -0.8359 -0.3276  0.3641
 3182SOL     OW21007   3.109   1.963   6.583 -0.4711 -0.4225  0.1123
 3182SOL    HW121008   3.161   1.977   6.504 -1.1606 -0.5391 -0.3603
 3182SOL    HW221009   3.178   1.962   6.650 -0.8149  1.9911  0.5047
 3183SOL     OW21010   0.615   4.207   7.654  0.1560  0.4092 -0.0171
 3183SOL    HW121011   0.701   4.248   7.650  0.1928  0.4286  1.1574
 3183SOL    HW221012   0.642   4.131   7.705 -1.4070 -0.8098 -0.9800
 3184SOL     OW21013   0.257   0.651   0.583 -0.1154 -0.1149 -0.4263
 3184SOL    HW121014   0.172   0.606   0.579 -0.0629 -0.1165 -1.4275
 3184SOL    HW221015   0.288   0.650   0.493  0.6694 -1.2140 -0.1353
 3185SOL     OW21016   2.635   4.698   2.636  0.2257 -0.2733 -0.4564
 3185SOL    HW121017   2.723   4.711   2.600  0.6337 -0.3033  0.5205
 3185SOL    HW221018   2.636   4.603   2.648  2.8563 -0.3433 -1.2596
 3186SOL     OW21019   3.091   2.439   3.666  0.0737  0.1278 -0.5895
 3186SOL    HW121020   3.078   2.474   3.754 -0.2689 -1.8933  0.1597
 3186SOL    HW221021   3.055   2.352   3.680  2.3718 -0.7814 -0.3021
 3187SOL     OW21022   3.204   3.448   7.673  0.1592  0.8116  0.4161
 3187SOL    HW121023   3.157   3.389   7.614 -0.0225  0.6676  0.7098
 3187SOL    HW221024   3.147   3.471   7.746  0.7636 -0.4036  1.2661
 3188SOL     OW21025   0.596   0.928  13.019  0.2705  0.2200  0.1005
 3188SOL    HW121026   0.605   0.977  12.937  0.4687 -0.8561 -0.5283
 3188SOL    HW221027   0.511   0.958  13.051 -0.2027  0.3371 -1.2806
 3189SOL     OW21028   2.291   2.077  14.022  0.4347 -0.4797 -0.6269
 3189SOL    HW121029   2.202   2.055  13.995 -1.4330  2.9419  2.7435
 3189SOL    HW221030   2.288   2.164  14.063 -3.1202 -1.1886  0.6419
 3190SOL     OW21031   1.435   3.091   1.788 -0.2087 -0.1971  0.5281
 3190SOL    HW121032   1.487   3.129   1.859 -0.3072 -0.7222  0.8770
 3190SOL    HW221033   1.373   3.163   1.777  0.7332  0.6156  0.5777
 3191SOL     OW21034   0.549   0.799   3.526  0.4276 -0.3908 -0.0024
 3191SOL    HW121035   0.627   0.744   3.528  0.8478  0.1617 -1.0802
 3191SOL    HW221036   0.576   0.872   3.469 -0.2153 -0.9770 -1.0590
 3192SOL     OW21037   2.463   4.215   8.920  0.1230 -0.7680  0.0053
 3192SOL    HW121038   2.407   4.275   8.870 -1.6568 -1.9747  0.5401
 3192SOL    HW221039   2.540   4.235   8.866  0.0708  1.1001  0.6349
 3193SOL     OW21040   0.825   3.286   3.200 -0.1154  0.3647 -0.2761
 3193SOL    HW121041   0.898   3.223   3.201 -0.0233  0.4768  0.5075
 3193SOL    HW221042   0.830   3.290   3.296  1.3554 -1.2530 -0.2803
 3194SOL     OW21043   0.161   0.070  15.601  0.2289  0.3645  0.1387
 3194SOL    HW121044   0.181   4.708  15.561  0.6458  0.5610 -0.0685
 3194SOL    HW221045   0.124   0.041  15.684  0.1844 -1.1844 -0.4234
 3195SOL     OW21046   2.385   1.604   8.361  0.7790 -0.1969  0.0882
 3195SOL    HW121047   2.392   1.683   8.413 -0.3349  0.8565 -1.3618
 3195SOL    HW221048   2.369   1.540   8.430  0.7872 -0.2861  0.0094
 3196SOL     OW21049   2.358   2.870   4.465 -0.9986  0.4607  0.1889
 3196SOL    HW121050   2.422   2.916   4.411  0.1798  1.5004  2.4741
 3196SOL    HW221051   2.285   2.925   4.436 -1.5782 -0.1058  0.5891
 3197SOL     OW21052   1.589   2.409   1.180  0.1491 -0.0943  0.4830
 3197SOL    HW121053   1.536   2.371   1.250  2.3184 -2.2807  0.9488
 3197SOL    HW221054   1.561   2.356   1.105  2.4868 -0.3164 -0.2425
 3198SOL     OW21055   4.006   0.309   7.624 -0.5451  0.0486 -0.5278
 3198SOL    HW121056   4.071   0.348   7.682  0.7181  1.7253 -3.0596
 3198SOL    HW221057   4.068   0.257   7.572 -1.3770 -0.3101 -1.1520
 3199SOL     OW21058   0.240   1.601   9.367 -0.3941 -0.1830 -0.4973
 3199SOL    HW121059   0.318   1.655   9.385 -1.5183  1.1382  0.4416
 3199SOL    HW221060   0.279   1.535   9.310 -0.7282  0.2125 -1.1737
 3200SOL     OW21061   0.466   3.037  12.070 -0.6708  0.1259 -0.1360
 3200SOL    HW121062   0.372   3.016  12.071 -0.2138 -1.9264 -1.1872
 3200SOL    HW221063   0.466   3.106  12.137  2.0296 -0.5509  0.5398
 3201SOL     OW21064   3.437   2.000   5.164 -0.0566  0.2144  0.0000
 3201SOL    HW121065   3.359   2.009   5.218  0.3026  1.3942  0.3173
 3201SOL    HW221066   3.469   2.089   5.176  0.2125  0.2544 -1.0001
 3202SOL     OW21067   2.621   2.162   9.405  0.4159  0.4372  0.2082
 3202SOL    HW121068   2.569   2.180   9.484  0.1973 -0.3494  0.2419
 3202SOL    HW221069   2.645   2.069   9.405 -2.1079 -0.2240  1.0760
 3203SOL     OW21070   1.280   3.267   0.476 -0.1524  0.0130  0.1516
 3203SOL    HW121071   1.246   3.312   0.399  0.1524  0.5671  0.3426
 3203SOL    HW221072   1.198   3.238   0.515  1.0068 -3.6126 -0.0846
 3204SOL     OW21073   1.778   3.770  16.843 -0.5313  0.0352 -0.0196
 3204SOL    HW121074   1.777   3.677  16.821 -0.3163  0.3837 -1.5692
 3204SOL    HW221075   1.833   3.766  16.921 -0.3245 -0.0987 -0.1713
 3205SOL     OW21076   2.620   1.341  12.066 -0.1074 -0.0300 -0.4902
 3205SOL    HW121077   2.653   1.396  11.994 -0.1151  1.6073  0.7473
 3205SOL    HW221078   2.672   1.262  12.056 -0.4742 -0.2220 -0.8699
 3206SOL     OW21079   0.473   3.307  10.360  0.1080 -0.2941 -0.4201
 3206SOL    HW121080   0.399   3.322  10.301  1.0374 -0.6933 -1.6912
 3206SOL    HW221081   0.421   3.266  10.429  0.2172 -0.2825 -0.3310
 3207SOL     OW21082   2.227   0.109  17.401 -0.1462  0.0153  0.3065
 3207SOL    HW121083   2.291   0.151  17.344 -2.2542  1.3386 -1.0757
 3207SOL    HW221084   2.261   0.119  17.490  3.2034  1.0640 -1.0742
 3208SOL     OW21085   1.055   1.258   1.353  0.4111 -0.2612 -0.6074
 3208SOL    HW121086   0.995   1.332   1.343  0.1844 -0.4075 -0.3377
 3208SOL    HW221087   0.995   1.213   1.412 -0.0560  2.2410  0.7944
 3209SOL     OW21088   1.442   0.772  12.605 -0.4137 -0.2885 -0.5187
 3209SOL    HW121089   1.447   0.720  12.686  0.6304 -1.9829 -1.6662
 3209SOL    HW221090   1.438   0.862  12.636 -2.3923  0.4917 -3.1042
 3210SOL     OW21091   3.429   4.262   4.013  0.3617  0.3372  0.1728
 3210SOL    HW121092   3.450   4.319   3.939  0.2545 -1.3239 -1.1310
 3210SOL    HW221093   3.345   4.300   4.041  0.2818  0.8321 -0.7520
 3211SOL     OW21094   2.382   3.879   1.491 -0.2462  0.1135 -0.2339
 3211SOL    HW121095   2.295   3.847   1.466  0.2841 -1.0423 -0.5842
 3211SOL    HW221096   2.417   3.886   1.402 -0.3566  3.0041 -0.0197
 3212SOL     OW21097   0.103   4.270  13.476 -0.2634  0.2425 -0.4111
 3212SOL    HW121098   0.169   4.338  13.461  0.0329  0.5724  2.4754
 3212SOL    HW221099   0.041   4.334  13.509 -0.2669  0.1070 -0.1517
 3213SOL     OW21100   3.923   4.271  15.273 -0.4716 -0.1279  0.8780
 3213SOL    HW121101   4.008   4.244  15.238  0.0115  1.9552  0.4529
 3213SOL    HW221102   3.916   4.195  15.332  1.2885  0.8422  2.3560
 3214SOL     OW21103   3.957   0.464  13.493  0.0959 -0.3190 -0.6383
 3214SOL    HW121104   3.998   0.402  13.554 -0.8675  2.4172  2.8379
 3214SOL    HW221105   3.890   0.514  13.541  0.8597 -0.8779  1.0263
 3215SOL     OW21106   0.484   3.706   1.185 -0.0749 -0.1449  0.5465
 3215SOL    HW121107   0.571   3.737   1.161  1.2345 -2.8413  1.8632
 3215SOL    HW221108   0.479   3.633   1.123 -2.0288  1.7675 -1.5495
 3216SOL     OW21109   0.171   1.097   6.425  0.5666  0.4192  0.1732
 3216SOL    HW121110   0.211   1.038   6.490 -0.4935  0.5689  0.9607
 3216SOL    HW221111   0.116   1.047   6.364 -1.5104 -0.2291  2.5775
 3217SOL     OW21112   2.016   2.540   3.345  0.1180 -0.2149  0.2317
 3217SOL    HW121113   2.088   2.578   3.394 -0.7815  1.2309  0.4483
 3217SOL    HW221114   2.023   2.447   3.363  0.3886 -0.3369 -0.5081
 3218SOL     OW21115   2.736   3.992   5.596 -0.3330 -0.1278  0.2333
 3218SOL    HW121116   2.760   4.015   5.686  0.2761  1.8688 -0.4452
 3218SOL    HW221117   2.663   4.051   5.576  0.5215  0.5031 -0.9547
 3219SOL     OW21118   3.839   0.355   4.820  0.1483 -0.5574 -0.1499
 3219SOL    HW121119   3.855   0.260   4.824  0.3330 -0.5297 -0.2545
 3219SOL    HW221120   3.918   0.392   4.781  0.0172 -0.2822 -0.1546
 3220SOL     OW21121   2.533   0.461   1.375 -0.4945  0.5699  0.9492
 3220SOL    HW121122   2.577   0.539   1.340 -3.3863  2.0152  0.5654
 3220SOL    HW221123   2.441   0.489   1.376 -1.2652 -1.9051 -1.3524
 3221SOL     OW21124   4.236   0.244  17.546 -0.0122  0.3096 -0.3290
 3221SOL    HW121125   4.317   0.261  17.498 -0.9011  0.7544 -1.6874
 3221SOL    HW221126   4.230   0.149  17.552 -1.2565  0.2861 -1.7867
 3222SOL     OW21127   0.055   2.620  13.841 -0.7819  0.2209  0.1598
 3222SOL    HW121128   0.150   2.612  13.829 -0.9719  0.8395 -1.7209
 3222SOL    HW221129   0.026   2.629  13.751 -0.3827 -0.0285  0.0052
 3223SOL     OW21130   3.257   4.656   4.536  0.4331  0.2612  0.3057
 3223SOL    HW121131   3.267   4.629   4.628 -0.7077  1.9797  0.9405
 3223SOL    HW221132   3.320   4.597   4.494  0.2162  0.2488 -0.0002
 3224SOL     OW21133   2.268   1.055   9.532 -0.0742  0.6208  0.3291
 3224SOL    HW121134   2.320   1.007   9.597  0.1462 -0.4033 -0.6104
 3224SOL    HW221135   2.317   1.129   9.497  0.6411  0.9552  2.0545
 3225SOL     OW21136   4.659   2.174   5.801 -0.7956 -0.5483 -0.6752
 3225SOL    HW121137   4.572   2.162   5.838  0.0451  1.4429  1.9191
 3225SOL    HW221138   4.697   2.213   5.880  2.0158 -2.0431 -1.2694
 3226SOL     OW21139   1.840   0.547   9.119 -0.3471 -0.4855 -0.0073
 3226SOL    HW121140   1.827   0.456   9.145 -1.7146 -0.2204  0.2528
 3226SOL    HW221141   1.776   0.554   9.047  0.3334 -1.8000 -0.7354
 3227SOL     OW21142   4.308   1.744  15.049 -0.1399  0.5907 -0.4507
 3227SOL    HW121143   4.308   1.776  15.140 -0.5162  1.1760 -0.6560
 3227SOL    HW221144   4.325   1.653  15.071 -1.4129  0.5871  0.5787
 3228SOL     OW21145   4.339   1.685   5.877 -0.3696 -0.0763 -0.0273
 3228SOL    HW121146   4.354   1.708   5.785 -0.7559  0.4631  0.0413
 3228SOL    HW221147   4.424   1.692   5.921 -0.2886 -0.2021 -0.1645
 3229SOL     OW21148   0.889   1.857   5.665  0.0086 -0.2719  0.0235
 3229SOL    HW121149   0.904   1.766   5.641 -0.0384 -0.6800  1.5883
 3229SOL    HW221150   0.799   1.840   5.693  0.6986 -0.9658  1.8190
 3230SOL     OW21151   0.696   3.033  15.454  0.5434  0.6391 -0.0052
 3230SOL    HW121152   0.744   2.982  15.390  2.7692  2.3494  0.2989
 3230SOL    HW221153   0.681   3.101  15.388 -0.9737 -1.8936 -2.2517
 3231SOL     OW21154   0.511   0.649   5.838 -0.1749 -0.1530  0.0566
 3231SOL    HW121155   0.579   0.704   5.799 -1.3481  0.1823 -1.5573
 3231SOL    HW221156   0.435   0.683   5.790 -1.2272 -1.9017  0.4924
 3232SOL     OW21157   0.538   3.939   8.703  0.0516 -0.3178 -0.1303
 3232SOL    HW121158   0.451   3.900   8.689  0.6491 -1.6906 -0.0765
 3232SOL    HW221159   0.592   3.860   8.709 -0.0316 -0.3172  0.6013
 3233SOL     OW21160   3.880   1.203  14.535  0.3274  0.5468  0.6742
 3233SOL    HW121161   3.823   1.141  14.581 -1.0852  0.2437 -1.5306
 3233SOL    HW221162   3.963   1.156  14.522  0.5195  0.4106  2.3819
 3234SOL     OW21163   0.054   4.425   6.581 -0.1952 -0.7122  0.7896
 3234SOL    HW121164   0.003   4.502   6.556  1.0746 -0.0595  0.2022
 3234SOL    HW221165   0.132   4.435   6.526 -1.6151 -1.6627 -1.3934
 3235SOL     OW21166   3.430   3.015   2.043  0.3218 -0.4885  0.1386
 3235SOL    HW121167   3.384   3.033   1.962  0.0750 -2.0975 -0.0647
 3235SOL    HW221168   3.501   3.079   2.031  1.7841 -1.9853  0.7338
 3236SOL     OW21169   2.467   2.609   4.806  0.6257  0.1914 -0.1338
 3236SOL    HW121170   2.400   2.660   4.851 -1.2479 -0.8189 -1.7629
 3236SOL    HW221171   2.529   2.680   4.791 -0.8367  0.8857 -3.0068
 3237SOL     OW21172   0.012   1.620   2.834 -1.2297 -0.3241 -0.3855
 3237SOL    HW121173   0.011   1.555   2.763  0.3567 -0.8034  0.0301
 3237SOL    HW221174   0.040   1.695   2.782  0.6093  1.3414  3.0011
 3238SOL     OW21175   2.461   3.306   6.803 -0.6790 -0.5613  0.3549
 3238SOL    HW121176   2.543   3.348   6.775 -0.9819  1.2308  2.0847
 3238SOL    HW221177   2.456   3.330   6.896  1.3352 -1.1136  0.6124
 3239SOL     OW21178   0.376   4.234  13.728  0.0190 -0.4895  0.2770
 3239SOL    HW121179   0.350   4.306  13.670  1.7067 -0.0511  0.0837
 3239SOL    HW221180   0.432   4.180  13.673 -1.6269  0.2195 -2.1078
 3240SOL     OW21181   2.760   0.642   1.728  0.0135  0.0654  0.3857
 3240SOL    HW121182   2.721   0.556   1.714 -1.4876  1.0118 -1.2196
 3240SOL    HW221183   2.689   0.681   1.780  0.4407  1.1204  0.1792
 3241SOL     OW21184   2.071   0.662   3.501 -0.0238 -0.0417  0.1607
 3241SOL    HW121185   1.981   0.631   3.511 -0.0087 -0.4538 -1.1001
 3241SOL    HW221186   2.058   0.746   3.546  0.6712 -1.1450  2.4320
 3242SOL     OW21187   2.732   0.555   7.844 -0.2702  0.1625  0.3157
 3242SOL    HW121188   2.782   0.490   7.892  0.3230  0.9997  0.8125
 3242SOL    HW221189   2.772   0.531   7.760  2.2234 -0.8818  1.8339
 3243SOL     OW21190   0.197   1.123  12.672  0.1128 -0.1707  0.1432
 3243SOL    HW121191   0.115   1.141  12.718 -0.4676 -0.9042 -0.6077
 3243SOL    HW221192   0.199   1.202  12.618  0.0466 -1.5502 -1.8799
 3244SOL     OW21193   4.491   3.304  14.637  0.1159 -0.3739  0.0145
 3244SOL    HW121194   4.498   3.362  14.714  0.5566 -0.5357  0.0929
 3244SOL    HW221195   4.405   3.330  14.602  0.2126 -1.7411 -1.2134
 3245SOL     OW21196   3.612   1.839  17.621  0.0725 -0.3965  0.6397
 3245SOL    HW121197   3.651   1.848   0.014  0.5692  2.9470  0.0877
 3245SOL    HW221198   3.522   1.859  17.650 -0.1298  1.0723 -0.9730
 3246SOL     OW21199   0.434   0.455   6.445  0.6357  0.3637  0.0452
 3246SOL    HW121200   0.387   0.453   6.362  1.2452  2.8952 -0.3836
 3246SOL    HW221201   0.470   0.367   6.443 -0.0736  0.0730  0.3115
 3247SOL     OW21202   3.372   2.593   1.281  0.0390  0.6279 -0.2653
 3247SOL    HW121203   3.374   2.500   1.305 -0.9107  0.2520 -1.6822
 3247SOL    HW221204   3.383   2.581   1.187 -1.4765 -1.9123 -0.0957
 3248SOL     OW21205   3.672   4.562   5.785  0.2037  0.1273  0.0685
 3248SOL    HW121206   3.687   4.580   5.693 -1.2380 -2.0184 -0.5877
 3248SOL    HW221207   3.684   4.651   5.820 -1.1662 -0.3002  1.6586
 3249SOL     OW21208   1.161   2.869   5.272  0.0423 -0.6257 -0.3099
 3249SOL    HW121209   1.141   2.908   5.357 -0.8627  1.9838 -1.7230
 3249SOL    HW221210   1.199   2.949   5.237 -0.9969 -0.9434 -2.1458
 3250SOL     OW21211   1.228   4.363  14.915 -0.2772  0.6073 -0.0277
 3250SOL    HW121212   1.218   4.417  14.837  0.5137 -0.1880 -0.6788
 3250SOL    HW221213   1.287   4.418  14.966 -0.5500  1.4198 -0.5990
 3251SOL     OW21214   2.235   4.085   8.609  0.1634  0.2919  0.4247
 3251SOL    HW121215   2.295   4.030   8.659 -0.6355 -0.6503  0.3495
 3251SOL    HW221216   2.295   4.148   8.571  0.6571 -0.5990 -0.2568
 3252SOL     OW21217   3.352   4.137   3.608 -0.3992 -0.9418  0.0218
 3252SOL    HW121218   3.375   4.227   3.584  0.3971 -0.9268  0.8328
 3252SOL    HW221219   3.396   4.081   3.544 -1.0054 -1.6460  0.2151
 3253SOL     OW21220   2.061   3.874   8.047 -0.4493  0.4539  0.2317
 3253SOL    HW121221   2.139   3.921   8.076  0.2064  0.7471 -2.0042
 3253SOL    HW221222   2.096   3.786   8.035 -2.6558 -0.8644  3.3242
 3254SOL     OW21223   3.873   2.549  15.686 -0.1009  0.8164 -0.5777
 3254SOL    HW121224   3.821   2.498  15.624  0.3494  1.8351 -1.7839
 3254SOL    HW221225   3.950   2.585  15.640  1.4515 -1.6187  0.1452
 3255SOL     OW21226   1.656   0.314   2.293 -0.0341  0.4328  0.0286
 3255SOL    HW121227   1.731   0.329   2.237 -0.4821  1.4638 -0.2838
 3255SOL    HW221228   1.609   0.248   2.241 -0.1516 -0.3925  1.1620
 3256SOL     OW21229   4.038   0.801   7.460 -0.1190  0.2934  0.5887
 3256SOL    HW121230   4.113   0.745   7.482 -1.2506 -0.9659  1.1918
 3256SOL    HW221231   4.081   0.881   7.431 -1.7615  0.7252 -0.6729
 3257SOL     OW21232   0.432   4.657  11.136 -0.5791  0.1191  0.0911
 3257SOL    HW121233   0.418   0.007  11.076 -0.8045  0.0129  0.0143
 3257SOL    HW221234   0.466   4.705  11.212  3.9737  0.1079 -1.9582
 3258SOL     OW21235   4.492   3.399   7.086 -0.3334 -0.6342 -0.9573
 3258SOL    HW121236   4.403   3.364   7.088 -0.3210 -0.5905  0.7750
 3258SOL    HW221237   4.487   3.481   7.037 -1.6112  0.4072  0.9104
 3259SOL     OW21238   0.964   1.821   8.108 -0.0468 -0.2028 -0.0911
 3259SOL    HW121239   0.952   1.897   8.166  0.2106 -0.6302  0.5235
 3259SOL    HW221240   1.003   1.758   8.168 -0.0282  0.7844  0.9496
 3260SOL     OW21241   4.362   3.456  14.120 -0.1560 -1.1971  0.0855
 3260SOL    HW121242   4.453   3.482  14.136 -0.1129 -0.9131 -0.6075
 3260SOL    HW221243   4.379   3.363  14.140 -2.1005 -1.1788  1.8292
 3261SOL     OW21244   3.241   0.653   8.079 -0.2415 -0.3251 -0.7265
 3261SOL    HW121245   3.174   0.719   8.099  1.0632  0.0800  2.3592
 3261SOL    HW221246   3.316   0.710   8.060  1.0092 -1.1409  1.7026
 3262SOL     OW21247   4.538   3.671   6.584  0.5179  0.4308 -0.4983
 3262SOL    HW121248   4.490   3.749   6.558 -0.3554 -0.0765 -0.3812
 3262SOL    HW221249   4.628   3.697   6.562  0.3054  0.5846 -1.1673
 3263SOL     OW21250   2.563   2.065  13.027 -0.5631  0.0546  0.4217
 3263SOL    HW121251   2.570   2.033  12.937 -2.6761 -1.0271  0.6391
 3263SOL    HW221252   2.582   2.159  13.024 -0.6777  0.0617 -0.1207
 3264SOL     OW21253   0.597   1.554   5.584 -0.2111 -0.0862 -0.1520
 3264SOL    HW121254   0.559   1.584   5.666  0.8306  3.4306 -0.9503
 3264SOL    HW221255   0.520   1.543   5.527 -0.9273  1.7846  0.4725
 3265SOL     OW21256   4.042   2.228   3.123 -0.2024  0.2368 -0.0745
 3265SOL    HW121257   4.077   2.283   3.194  0.4608  0.7115 -0.7645
 3265SOL    HW221258   4.040   2.143   3.168  3.5411  0.0796 -0.2039
 3266SOL     OW21259   4.081   4.522  16.021 -0.7169 -0.0941  0.0093
 3266SOL    HW121260   3.996   4.551  16.055  0.3537  0.3819  2.2216
 3266SOL    HW221261   4.141   4.565  16.081 -0.6764  0.7341 -0.6200
 3267SOL     OW21262   3.108   2.339   7.553  0.3118  0.1468  0.0927
 3267SOL    HW121263   3.107   2.423   7.598  2.7218 -0.6693  1.6538
 3267SOL    HW221264   3.037   2.291   7.595 -1.1718  1.3035 -1.0815
 3268SOL     OW21265   2.863   1.867  17.405 -0.5908 -0.0611  0.3450
 3268SOL    HW121266   2.901   1.950  17.431 -2.2713  0.8021  0.0892
 3268SOL    HW221267   2.903   1.857  17.319 -0.3792  1.0415  0.3141
 3269SOL     OW21268   1.269   4.606   4.355  0.4398  0.1431 -0.1514
 3269SOL    HW121269   1.191   4.569   4.313 -0.3567  0.9793  0.6100
 3269SOL    HW221270   1.246   4.579   4.444  0.9626  1.6050  0.4289
 3270SOL     OW21271   2.507   2.447   5.598  0.1264 -0.2849  0.8887
 3270SOL    HW121272   2.558   2.390   5.539  1.3323  0.6351  1.0398
 3270SOL    HW221273   2.502   2.530   5.551 -3.8281 -0.1227  1.5939
 3271SOL     OW21274   3.906   0.867   9.730 -0.0276 -0.2121  0.0126
 3271SOL    HW121275   3.851   0.850   9.654  1.0401 -0.5625 -0.6711
 3271SOL    HW221276   3.851   0.932   9.774 -1.5955  0.0242 -2.3019
 3272SOL     OW21277   1.554   1.058  13.239  0.6161 -0.3964  0.5254
 3272SOL    HW121278   1.632   1.059  13.295  1.8443  0.0268 -1.2101
 3272SOL    HW221279   1.576   0.999  13.167 -0.4059  2.5945 -2.2110
 3273SOL     OW21280   4.065   1.816   6.092  0.1978  0.4102 -0.7152
 3273SOL    HW121281   3.979   1.782   6.068  0.4139 -1.3228  1.0450
 3273SOL    HW221282   4.114   1.735   6.100  0.3316  0.4218 -1.3449
 3274SOL     OW21283   0.285   1.770  13.140  0.1944  0.2165 -0.1576
 3274SOL    HW121284   0.362   1.827  13.143 -0.8587  1.4746  2.4627
 3274SOL    HW221285   0.261   1.768  13.233  0.4205  0.7524 -0.0914
 3275SOL     OW21286   3.616   1.287   4.307 -0.1042 -0.4747  0.1952
 3275SOL    HW121287   3.531   1.324   4.283  0.5108 -0.3222 -1.7915
 3275SOL    HW221288   3.603   1.254   4.396 -0.2998 -0.8066  0.0475
 3276SOL     OW21289   1.729   2.591   6.267 -0.3215 -0.4235 -1.0044
 3276SOL    HW121290   1.823   2.585   6.288  0.1769  1.3821 -2.6730
 3276SOL    HW221291   1.718   2.506   6.225 -0.9629 -1.6487  1.6476
 3277SOL     OW21292   0.934   1.678   7.532  0.2278 -0.1588  0.2716
 3277SOL    HW121293   0.928   1.701   7.624  1.0993  1.1876 -0.0171
 3277SOL    HW221294   0.965   1.757   7.488  0.0802 -0.1914  0.1055
 3278SOL     OW21295   0.322   3.906   8.341  0.1398 -0.7723 -0.0105
 3278SOL    HW121296   0.368   3.972   8.393 -0.8938 -1.8467  2.2579
 3278SOL    HW221297   0.328   3.951   8.257 -0.3886 -2.6531 -1.0725
 3279SOL     OW21298   3.030   3.435   8.823  0.0836 -0.4034  0.4187
 3279SOL    HW121299   3.043   3.341   8.818  0.6613 -0.2657 -0.5496
 3279SOL    HW221300   3.005   3.458   8.734  1.8832  1.6870  0.4331
 3280SOL     OW21301   4.453   0.131   5.757  0.6448  0.5601 -0.1519
 3280SOL    HW121302   4.545   0.158   5.755  1.3086 -1.7175  0.1400
 3280SOL    HW221303   4.419   0.206   5.806  0.2601 -0.6681  1.4521
 3281SOL     OW21304   1.566   3.813   3.302 -0.5278 -0.6022 -0.0836
 3281SOL    HW121305   1.550   3.808   3.207  1.1233 -0.1246 -0.3935
 3281SOL    HW221306   1.615   3.895   3.308  1.2546 -1.7498  0.9185
 3282SOL     OW21307   2.640   2.950   5.933  0.0162  0.2563 -0.0912
 3282SOL    HW121308   2.640   3.001   6.015  2.0460  1.0831 -0.6097
 3282SOL    HW221309   2.555   2.908   5.943  1.5154 -2.5892  0.8295
 3283SOL     OW21310   2.865   0.350   4.418  0.1170 -0.6229  0.5077
 3283SOL    HW121311   2.864   0.360   4.513  1.2628 -0.2058  0.4749
 3283SOL    HW221312   2.799   0.411   4.384 -0.1868 -2.5994 -2.4769
 3284SOL     OW21313   2.389   1.408  10.992 -0.4567  0.1806 -0.4329
 3284SOL    HW121314   2.477   1.387  10.960 -0.1969  0.0700  0.3647
 3284SOL    HW221315   2.408   1.437  11.081  1.4116  1.5384 -1.2731
 3285SOL     OW21316   2.582   3.670  10.567 -0.2236 -0.1547 -0.1234
 3285SOL    HW121317   2.548   3.594  10.615 -1.6999 -0.6632 -1.9490
 3285SOL    HW221318   2.521   3.681  10.494  0.4246 -1.9216 -0.9268
 3286SOL     OW21319   1.667   4.078   7.869  0.8669 -0.1351 -0.8272
 3286SOL    HW121320   1.590   4.028   7.840 -0.5121  2.2486 -1.3378
 3286SOL    HW221321   1.694   4.091   7.778  2.3042 -0.2327 -0.3999
 3287SOL     OW21322   1.204   3.366   2.511 -0.4644  0.5650  0.0803
 3287SOL    HW121323   1.191   3.303   2.439 -0.4571 -1.4430  1.8206
 3287SOL    HW221324   1.136   3.432   2.504 -1.0177  0.0445  0.4995
 3288SOL     OW21325   2.504   2.567   8.509  0.2036  0.3533  0.6429
 3288SOL    HW121326   2.493   2.570   8.414 -0.0608  1.4610  0.7148
 3288SOL    HW221327   2.519   2.475   8.530  0.4066  0.6116  1.6359
 3289SOL     OW21328   1.472   1.824   1.459  0.3404 -0.0599 -0.7049
 3289SOL    HW121329   1.409   1.828   1.387 -1.0608 -0.3908  0.4823
 3289SOL    HW221330   1.462   1.734   1.492  0.2204  0.4384  0.6347
 3290SOL     OW21331   0.862   1.844  15.113  0.4420  0.3045 -1.0794
 3290SOL    HW121332   0.845   1.860  15.020 -0.0860 -1.0432 -1.2167
 3290SOL    HW221333   0.904   1.757  15.114 -1.4091 -0.5840 -0.2693
 3291SOL     OW21334   3.337   1.735   3.611 -0.1151  0.3668  0.6738
 3291SOL    HW121335   3.411   1.788   3.641  1.1418 -1.2252  0.3544
 3291SOL    HW221336   3.294   1.813   3.576 -0.8259 -1.1150 -1.7402
 3292SOL     OW21337   0.310   1.178   5.787  0.0323 -0.1137  0.4312
 3292SOL    HW121338   0.349   1.243   5.845 -0.6057  1.4596 -0.8917
 3292SOL    HW221339   0.219   1.207   5.795 -0.9793 -2.8046 -1.3194
 3293SOL     OW21340   4.383   2.651  13.329  0.6310  0.1931  0.0133
 3293SOL    HW121341   4.415   2.727  13.378  1.4333 -1.3268  1.7941
 3293SOL    HW221342   4.322   2.709  13.282  1.6447  1.8666  0.7631
 3294SOL     OW21343   3.648   4.319  12.515 -0.5066  0.1344 -0.7772
 3294SOL    HW121344   3.741   4.339  12.511 -0.2980 -1.3010 -3.0744
 3294SOL    HW221345   3.633   4.320  12.420 -0.0929  0.9518 -0.8384
 3295SOL     OW21346   2.165   2.496  10.811  0.3311 -0.7383 -0.3190
 3295SOL    HW121347   2.076   2.475  10.840  0.7130 -0.3164  1.1378
 3295SOL    HW221348   2.175   2.422  10.751 -2.9424 -0.8055 -0.7918
 3296SOL     OW21349   0.708   0.311  11.019  0.4130  0.7859 -0.3161
 3296SOL    HW121350   0.711   0.241  11.085 -0.5544  0.5224 -0.5380
 3296SOL    HW221351   0.656   0.366  11.078  1.0989 -0.4032  1.3960
 3297SOL     OW21352   4.322   0.264   2.632 -0.1758  0.1691  0.1335
 3297SOL    HW121353   4.236   0.224   2.617 -1.3563  2.6490  0.3501
 3297SOL    HW221354   4.334   0.317   2.553 -0.7187  0.3349  0.1664
 3298SOL     OW21355   1.634   1.220   9.644 -0.3434  0.3742 -0.0838
 3298SOL    HW121356   1.605   1.135   9.613  0.9152 -0.9004  2.2483
 3298SOL    HW221357   1.678   1.190   9.724 -1.2010 -0.2529  0.1464
 3299SOL     OW21358   0.879   4.363   2.941  0.1088 -0.4620 -0.4748
 3299SOL    HW121359   0.879   4.361   3.036  1.6459 -1.8464 -0.4976
 3299SOL    HW221360   0.940   4.294   2.916 -0.3252 -1.2207  0.6090
 3300SOL     OW21361   0.637   1.364  13.102 -0.4736  0.3372 -0.5258
 3300SOL    HW121362   0.568   1.430  13.107 -1.7386 -0.8968 -1.5711
 3300SOL    HW221363   0.621   1.295  13.167 -0.4460  0.8000 -0.0297
 3301SOL     OW21364   1.637   1.758   7.614 -0.2959 -0.3244 -0.0421
 3301SOL    HW121365   1.574   1.696   7.578  1.0487 -1.0555 -1.1021
 3301SOL    HW221366   1.691   1.777   7.537  1.2006  2.0121  1.5763
 3302SOL     OW21367   4.041   1.142  12.352  0.5805  0.3111 -0.0189
 3302SOL    HW121368   4.052   1.158  12.446  1.0070  0.9710 -0.1827
 3302SOL    HW221369   3.954   1.182  12.343 -0.0755 -1.2263 -0.4186
 3303SOL     OW21370   1.231   3.639   9.480 -0.0669  0.7313  0.1395
 3303SOL    HW121371   1.169   3.712   9.480 -1.6961 -0.6593 -1.5373
 3303SOL    HW221372   1.314   3.680   9.505  0.7936 -1.4777  0.8498
 3304SOL     OW21373   4.428   2.121   2.739  0.2187 -0.1838 -0.0686
 3304SOL    HW121374   4.371   2.196   2.726 -0.5198 -0.7274  0.0264
 3304SOL    HW221375   4.399   2.089   2.825 -2.2798  1.3518 -0.3493
 3305SOL     OW21376   0.402   1.792   2.777 -0.1589 -0.2224  0.4182
 3305SOL    HW121377   0.415   1.842   2.696 -1.7645 -1.4474 -0.6125
 3305SOL    HW221378   0.459   1.838   2.838  1.2294 -0.1046 -0.9805
 3306SOL     OW21379   0.027   0.422   5.602  0.6130  0.4138  0.7436
 3306SOL    HW121380   0.025   0.354   5.534 -0.3637  1.2884 -0.1078
 3306SOL    HW221381   4.709   0.501   5.568  0.4375 -1.0867 -2.6119
 3307SOL     OW21382   3.283   0.833   2.835 -0.2765 -0.2124  0.1409
 3307SOL    HW121383   3.311   0.753   2.878 -1.3445 -1.3684 -1.3436
 3307SOL    HW221384   3.325   0.819   2.751 -1.9088  0.8088 -0.8371
 3308SOL     OW21385   3.865   3.326  12.737  0.8666 -0.2891 -0.2335
 3308SOL    HW121386   3.930   3.291  12.677  1.3601 -3.2315  1.9745
 3308SOL    HW221387   3.818   3.246  12.761 -0.0813 -0.3762 -2.4883
 3309SOL     OW21388   1.285   0.080   4.637 -0.6847 -0.4618  0.3148
 3309SOL    HW121389   1.360   0.139   4.649 -0.3510 -0.3676 -2.1728
 3309SOL    HW221390   1.284   0.023   4.714  0.0480  1.1292  1.5115
 3310SOL     OW21391   3.126   4.306   3.993  0.5425 -0.1342 -0.0635
 3310SOL    HW121392   3.067   4.237   4.024 -1.9691  2.2724  0.4723
 3310SOL    HW221393   3.149   4.347   4.076 -0.8732  0.1645  0.1804
 3311SOL     OW21394   3.910   3.367   1.655 -0.1730  0.0853 -0.0958
 3311SOL    HW121395   3.862   3.310   1.595 -0.3893 -1.6832  1.7485
 3311SOL    HW221396   3.850   3.442   1.656  1.0774  1.0470  2.1652
 3312SOL     OW21397   1.504   0.703   4.055 -0.2396  0.3072  0.6931
 3312SOL    HW121398   1.591   0.706   4.094 -0.6978  3.7560  1.4193
 3312SOL    HW221399   1.470   0.627   4.102 -0.4380  0.1966  0.3737
 3313SOL     OW21400   3.892   3.429   0.385  0.1710 -0.3771  0.4607
 3313SOL    HW121401   3.878   3.372   0.461 -0.7324 -2.3716 -1.1851
 3313SOL    HW221402   3.975   3.471   0.409 -0.1306  1.3114 -1.4938
 3314SOL     OW21403   2.265   3.161  16.255  0.2864  0.6426  0.9546
 3314SOL    HW121404   2.294   3.112  16.332  0.9251 -0.4479  0.0198
 3314SOL    HW221405   2.319   3.240  16.260  0.2722  0.7774 -1.0452
 3315SOL     OW21406   2.000   0.992   2.079 -0.5259 -0.7450 -0.1543
 3315SOL    HW121407   1.921   1.032   2.042  0.0776 -0.6076 -1.2866
 3315SOL    HW221408   1.972   0.901   2.071 -0.8207 -0.6805  0.1646
 3316SOL     OW21409   1.494   3.442   1.019 -0.5525 -0.8779 -0.3009
 3316SOL    HW121410   1.404   3.466   1.040 -0.4848 -1.1061  0.2450
 3316SOL    HW221411   1.549   3.488   1.083 -2.4946  0.7063  0.2675
 3317SOL     OW21412   0.491   3.202   5.223  0.4708  0.0115  0.4907
 3317SOL    HW121413   0.567   3.175   5.273 -0.2928  1.5367  2.4924
 3317SOL    HW221414   0.500   3.286   5.176  1.7437 -0.6831 -0.5112
 3318SOL     OW21415   0.315   0.562   9.407  0.9596 -1.2335 -0.1519
 3318SOL    HW121416   0.339   0.531   9.319 -1.6017 -1.3946 -0.8172
 3318SOL    HW221417   0.388   0.615   9.437  0.2925 -0.6554  0.4520
 3319SOL     OW21418   0.216   4.008   3.414 -0.0793 -0.8437 -0.1642
 3319SOL    HW121419   0.231   3.958   3.333  0.6363  0.2435 -0.6974
 3319SOL    HW221420   0.168   3.946   3.470  1.4053 -1.3503  0.5652
 3320SOL     OW21421   3.575   4.452  11.671  0.1038  0.3087  0.0102
 3320SOL    HW121422   3.661   4.426  11.703 -0.6740  0.0412  1.8912
 3320SOL    HW221423   3.548   4.525  11.726 -0.8604 -0.2715  0.3194
 3321SOL     OW21424   1.085   3.539   4.782  0.1459  0.6150  0.3347
 3321SOL    HW121425   1.165   3.503   4.821 -0.6512  1.7340  3.0071
 3321SOL    HW221426   1.036   3.458   4.795  0.8304  0.4540  2.0018
 3322SOL     OW21427   2.494   3.517   5.366 -0.0574 -0.2656 -0.2382
 3322SOL    HW121428   2.519   3.575   5.293 -1.2921  3.3964  2.2729
 3322SOL    HW221429   2.531   3.566   5.440  1.7667 -0.3389 -1.0850
 3323SOL     OW21430   3.727   2.570   9.572 -0.3417 -0.6092  0.3615
 3323SOL    HW121431   3.823   2.566   9.572 -0.3020  0.4156 -1.5015
 3323SOL    HW221432   3.713   2.542   9.482  1.7401  1.8208 -0.7341
 3324SOL     OW21433   3.948   0.801   3.079  0.6734 -0.0778  0.1774
 3324SOL    HW121434   4.007   0.856   3.027 -0.4407  1.0902  0.1567
 3324SOL    HW221435   4.013   0.783   3.147  2.0579  0.3442 -1.0369
 3325SOL     OW21436   1.202   0.610   9.372  0.4611  0.5558  0.6244
 3325SOL    HW121437   1.254   0.547   9.422 -0.3440 -1.8915 -1.6082
 3325SOL    HW221438   1.138   0.645   9.434  0.3550  1.3628  0.0608
 3326SOL     OW21439   1.110   2.154   8.409  0.2351  0.2013 -0.7563
 3326SOL    HW121440   1.055   2.178   8.484  1.6749  3.3860 -0.6885
 3326SOL    HW221441   1.049   2.107   8.352 -0.1365  1.8176 -1.7143
 3327SOL     OW21442   3.026   3.476  17.056  0.9679 -0.0861 -0.1714
 3327SOL    HW121443   3.099   3.509  17.110  1.6269  0.0927 -1.1587
 3327SOL    HW221444   2.958   3.464  17.122  0.9901 -1.3263 -0.3895
 3328SOL     OW21445   1.359   1.028   5.390  0.0260  0.2583 -0.7031
 3328SOL    HW121446   1.347   0.986   5.475 -0.7562 -1.4662 -1.6400
 3328SOL    HW221447   1.358   0.946   5.339  0.2317 -0.2434  0.1010
 3329SOL     OW21448   0.247   4.367   3.903 -0.4345  0.0510 -0.5369
 3329SOL    HW121449   0.250   4.361   3.998 -0.5996 -0.7301 -0.5839
 3329SOL    HW221450   0.167   4.316   3.905  0.5899 -1.5623 -0.8057
 3330SOL     OW21451   4.201   4.659   2.927 -0.4932 -0.5192  0.6418
 3330SOL    HW121452   4.191   4.628   2.837 -1.3929  2.6209 -0.3271
 3330SOL    HW221453   4.228   0.027   2.910  0.0217 -0.8344 -0.2038
 3331SOL     OW21454   4.139   1.133   4.465 -0.5234 -0.5220 -0.1469
 3331SOL    HW121455   4.205   1.120   4.397  1.8646  0.1948  2.0236
 3331SOL    HW221456   4.065   1.082   4.432 -0.2491  0.5815 -2.4723
 3332SOL     OW21457   0.041   3.670  15.812  0.1094  0.0307  0.3310
 3332SOL    HW121458   0.052   3.616  15.734 -0.0681  0.3574  0.0818
 3332SOL    HW221459   0.114   3.647  15.869  1.2918  0.1823 -1.1252
 3333SOL     OW21460   2.291   2.978   2.704  0.3863 -0.3827  0.4461
 3333SOL    HW121461   2.309   3.072   2.715  0.8926 -0.5157  0.7142
 3333SOL    HW221462   2.377   2.953   2.671  1.6063  1.4457  2.2306
 3334SOL     OW21463   0.649   4.031  11.867  0.4393 -0.0798 -0.1193
 3334SOL    HW121464   0.566   3.988  11.889 -0.2803  1.4055  0.0952
 3334SOL    HW221465   0.699   3.992  11.938 -1.5470  0.1594  1.4123
 3335SOL     OW21466   2.197   0.927   7.179  0.5047  0.3949 -0.6560
 3335SOL    HW121467   2.234   1.006   7.219  0.6303  0.4504 -0.8843
 3335SOL    HW221468   2.118   0.956   7.132  0.5363  1.1000 -0.2760
 3336SOL     OW21469   1.083   2.567   6.475 -0.8018  0.4265  0.6369
 3336SOL    HW121470   1.046   2.482   6.452 -0.4737  0.2613  0.7088
 3336SOL    HW221471   1.024   2.576   6.550 -1.3512 -1.6930  0.4512
 3337SOL     OW21472   1.586   4.534  10.107 -0.4226  0.5005  0.8905
 3337SOL    HW121473   1.670   4.569  10.137 -0.5563  0.9448  0.7487
 3337SOL    HW221474   1.612   4.444  10.089  0.2556  0.5317  1.7126
 3338SOL     OW21475   4.348   0.241   6.588 -0.2347  0.1929 -0.0688
 3338SOL    HW121476   4.285   0.232   6.516  0.6397  1.5797 -1.0026
 3338SOL    HW221477   4.398   0.160   6.576  2.1711  1.5837  0.6434
 3339SOL     OW21478   1.043   2.065   3.275  0.0084 -0.3968 -0.6184
 3339SOL    HW121479   1.018   1.994   3.216  1.9246  0.0543 -1.9607
 3339SOL    HW221480   1.024   2.141   3.221  2.7466 -0.4658 -1.6808
 3340SOL     OW21481   0.361   2.756   7.542 -0.0444 -0.4841 -0.6878
 3340SOL    HW121482   0.453   2.735   7.553  0.4420  1.8053 -0.3666
 3340SOL    HW221483   0.372   2.804   7.460 -0.3561 -1.0294 -1.0480
 3341SOL     OW21484   3.179   1.751  13.455 -0.3657 -0.4563  0.4169
 3341SOL    HW121485   3.158   1.844  13.466 -3.2161 -0.9612 -0.6381
 3341SOL    HW221486   3.273   1.762  13.469 -0.3073 -2.4484  1.5782
 3342SOL     OW21487   3.769   2.320   9.393 -0.0556 -0.0179  0.3230
 3342SOL    HW121488   3.786   2.398   9.341  3.5558 -0.0489  1.4019
 3342SOL    HW221489   3.685   2.296   9.354  0.3404  0.2818 -0.7015
 3343SOL     OW21490   4.347   4.465   5.362 -0.3068  0.8095  0.0924
 3343SOL    HW121491   4.340   4.431   5.451 -2.5261 -2.5066 -1.3560
 3343SOL    HW221492   4.263   4.432   5.329  0.6996 -1.1159 -0.5815
 3344SOL     OW21493   3.882   0.093   4.819 -0.4326 -0.3659  0.2815
 3344SOL    HW121494   3.908   0.080   4.727  2.0586  0.9129  0.8288
 3344SOL    HW221495   3.900   0.005   4.851  0.2737 -0.8766 -1.4977
 3345SOL     OW21496   3.991   1.159   3.487 -0.6160  0.3401  0.8840
 3345SOL    HW121497   3.916   1.208   3.520 -1.8019 -0.1703 -1.0820
 3345SOL    HW221498   4.026   1.226   3.428  0.3786 -0.0516  1.0293
 3346SOL     OW21499   0.215   3.561   3.895  0.2188  0.5228 -0.2696
 3346SOL    HW121500   0.128   3.599   3.904  0.1372  0.4579 -0.7358
 3346SOL    HW221501   0.233   3.533   3.985 -4.5905 -0.2333  0.4301
 3347SOL     OW21502   2.508   1.297   1.994  0.3435 -0.2652 -0.2740
 3347SOL    HW121503   2.472   1.215   2.029  0.0599  0.2213  0.5900
 3347SOL    HW221504   2.571   1.269   1.928 -0.4422  0.3794 -1.2890
 3348SOL     OW21505   2.651   3.784   6.980  0.0727  0.1364  0.0098
 3348SOL    HW121506   2.712   3.841   6.932 -0.2365  0.3094 -0.1770
 3348SOL    HW221507   2.710   3.714   7.006  0.6098 -0.4406 -2.6773
 3349SOL     OW21508   2.529   2.710   6.405 -0.4003  0.4041 -0.4386
 3349SOL    HW121509   2.578   2.657   6.342 -0.0599  0.3552 -0.1330
 3349SOL    HW221510   2.447   2.661   6.403 -0.2604  0.0504  2.7460
 3350SOL     OW21511   1.360   0.890   6.477  0.2424 -0.0715 -0.3117
 3350SOL    HW121512   1.265   0.901   6.477  0.5497  2.5769  3.5827
 3350SOL    HW221513   1.379   0.914   6.386  0.5395 -0.0952 -0.2557
 3351SOL     OW21514   3.811   3.068   3.923  0.3311  0.3645 -0.8969
 3351SOL    HW121515   3.890   3.104   3.963  0.8251  0.9459 -2.3961
 3351SOL    HW221516   3.733   3.104   3.965  0.9416 -0.8612  1.2901
 3352SOL     OW21517   1.737   0.150   4.480 -0.1999 -0.3525  0.5611
 3352SOL    HW121518   1.816   0.125   4.529  0.1695  1.1966  0.7645
 3352SOL    HW221519   1.718   0.069   4.434 -3.3297  0.6474  0.1228
 3353SOL     OW21520   4.499   1.607   2.483 -0.1212  0.3835 -0.1372
 3353SOL    HW121521   4.515   1.686   2.534 -2.1636  0.5222  0.2692
 3353SOL    HW221522   4.580   1.556   2.493  1.5154  3.0083 -0.1467
 3354SOL     OW21523   2.446   3.899  10.232  0.4420  0.2633 -0.3781
 3354SOL    HW121524   2.447   3.953  10.311 -0.9188 -1.6626  0.9732
 3354SOL    HW221525   2.495   3.956  10.173 -2.2506  3.0132  0.0563
 3355SOL     OW21526   1.115   1.241   2.583  0.8862 -0.9345  0.1675
 3355SOL    HW121527   1.177   1.306   2.617 -1.8135  1.2922  0.8266
 3355SOL    HW221528   1.084   1.196   2.661  2.4664  0.1241  1.4156
 3356SOL     OW21529   0.570   2.263   5.508 -0.2775  0.3769 -0.1043
 3356SOL    HW121530   0.621   2.194   5.551  0.4275  0.4952 -0.7610
 3356SOL    HW221531   0.632   2.314   5.456  0.1845 -0.8106 -0.7143
 3357SOL     OW21532   3.219   3.073   3.683  0.4128  0.2691 -0.5362
 3357SOL    HW121533   3.174   3.034   3.609  0.0950 -0.5604  0.1037
 3357SOL    HW221534   3.146   3.107   3.734  1.2522  0.4740  0.5323
 3358SOL     OW21535   0.539   1.821   3.651 -0.3999  0.3632  0.5513
 3358SOL    HW121536   0.550   1.902   3.602  1.1330  0.0659  0.3937
 3358SOL    HW221537   0.628   1.787   3.663 -0.0879  0.4918 -1.4817
 3359SOL     OW21538   1.790   3.536   6.692  0.3089 -0.2167  0.0279
 3359SOL    HW121539   1.725   3.604   6.710  0.6823  0.5337 -1.4477
 3359SOL    HW221540   1.863   3.585   6.730 -1.2316  1.8741  0.3041
 3360SOL     OW21541   2.174   0.225   8.392 -0.4932  0.3276 -0.3092
 3360SOL    HW121542   2.252   0.266   8.429 -0.3728 -0.3228  0.1560
 3360SOL    HW221543   2.110   0.296   8.393 -0.2607  0.5405 -0.6869
 3361SOL     OW21544   3.828   1.582   6.707  0.1347 -0.2395  0.0157
 3361SOL    HW121545   3.851   1.586   6.800 -0.8129  1.0096  0.1923
 3361SOL    HW221546   3.908   1.623   6.672  0.3794  0.6067  1.5442
 3362SOL     OW21547   1.513   3.639  17.327 -0.0557  0.1667 -0.4370
 3362SOL    HW121548   1.550   3.725  17.308  1.8045 -1.0093 -2.1147
 3362SOL    HW221549   1.452   3.642  17.253 -1.3798  1.1078  0.7017
 3363SOL     OW21550   1.879   1.991  11.488  0.5764  0.0676 -0.6223
 3363SOL    HW121551   1.877   2.061  11.423  0.5981 -0.0240 -0.7222
 3363SOL    HW221552   1.955   2.025  11.536 -0.5537 -0.6285  1.6345
 3364SOL     OW21553   0.525   4.256   7.385  0.2214  0.2149  0.2414
 3364SOL    HW121554   0.465   4.195   7.342 -2.1059  1.6436  1.4322
 3364SOL    HW221555   0.529   4.217   7.472 -1.1933  1.1051  0.7167
 3365SOL     OW21556   2.957   2.826   3.194  0.8683 -0.1469  0.5130
 3365SOL    HW121557   2.881   2.847   3.249  1.2783  1.5628  0.4192
 3365SOL    HW221558   2.940   2.891   3.126  0.2440 -1.9369 -1.0468
 3366SOL     OW21559   3.196   1.245   9.902 -0.2096 -0.0544 -0.0073
 3366SOL    HW121560   3.179   1.242   9.996 -4.0523 -0.8739 -0.7259
 3366SOL    HW221561   3.237   1.158   9.896 -0.6061 -0.1368 -1.5750
 3367SOL     OW21562   4.182   4.083  15.418 -0.2312  0.2644  0.9358
 3367SOL    HW121563   4.115   4.120  15.475 -1.0114  1.1415 -0.5765
 3367SOL    HW221564   4.203   4.000  15.462  0.6302 -0.3852 -0.6949
 3368SOL     OW21565   1.733   0.764   4.238  0.4881  0.1223 -0.2603
 3368SOL    HW121566   1.765   0.833   4.180  0.5485 -0.6190 -1.1190
 3368SOL    HW221567   1.780   0.688   4.205 -0.1554 -0.6226  0.5284
 3369SOL     OW21568   3.446   2.705   2.389 -0.0453  0.2231 -0.3165
 3369SOL    HW121569   3.359   2.671   2.412 -0.5725  1.3931 -0.5665
 3369SOL    HW221570   3.439   2.777   2.453  0.0827 -0.7625  0.8023
 3370SOL     OW21571   0.923   3.752   2.311  0.6895  0.0371 -0.3349
 3370SOL    HW121572   0.962   3.795   2.235  2.0447 -1.3295 -0.4025
 3370SOL    HW221573   0.894   3.830   2.360  1.2411 -0.4290  0.7404
 3371SOL     OW21574   2.525   1.292   5.126 -0.1009  0.5145 -0.0670
 3371SOL    HW121575   2.556   1.335   5.206  1.1774 -2.1813  0.8865
 3371SOL    HW221576   2.604   1.262   5.082 -0.8271  2.0541 -2.3730
 3372SOL     OW21577   1.494   4.241   4.104  0.0965  0.7623  0.0036
 3372SOL    HW121578   1.548   4.166   4.081 -0.6523  0.2897 -0.2153
 3372SOL    HW221579   1.545   4.315   4.070  2.3212  0.5700  2.9530
 3373SOL     OW21580   2.362   4.234   7.791 -0.1287 -0.0870 -0.2836
 3373SOL    HW121581   2.404   4.225   7.877  0.1597  0.1950 -0.3985
 3373SOL    HW221582   2.386   4.319   7.756  0.6844 -0.7924 -1.4470
 3374SOL     OW21583   3.995   0.147   8.626  0.5163 -0.5060  0.3259
 3374SOL    HW121584   3.942   0.078   8.666 -0.5600 -1.3428 -2.5241
 3374SOL    HW221585   3.924   0.189   8.577  1.6615  1.0620  0.0159
 3375SOL     OW21586   4.391   0.654   5.253 -0.5661  0.2135 -0.5238
 3375SOL    HW121587   4.325   0.598   5.294 -0.7747 -0.4203 -1.7492
 3375SOL    HW221588   4.469   0.612   5.291  0.3435  0.3623 -2.2596
 3376SOL     OW21589   3.187   4.471   1.746 -0.2733  0.3400  0.4614
 3376SOL    HW121590   3.218   4.511   1.828 -3.4227  1.5524  1.0569
 3376SOL    HW221591   3.260   4.496   1.689 -0.9317  0.8877 -0.1331
 3377SOL     OW21592   1.657   1.624  13.025 -0.2793 -0.8701  0.5566
 3377SOL    HW121593   1.711   1.677  13.083  2.7064 -1.2817 -1.8344
 3377SOL    HW221594   1.567   1.655  13.037 -0.3467  0.1782 -2.5635
 3378SOL     OW21595   4.363   0.497  13.130  0.1492  0.5818  0.2513
 3378SOL    HW121596   4.370   0.544  13.213 -2.8525 -0.5694  1.1371
 3378SOL    HW221597   4.456   0.473  13.127 -0.0932 -0.2955 -0.0684
 3379SOL     OW21598   0.390   4.038  15.616  0.5540  0.1236  0.1376
 3379SOL    HW121599   0.469   4.071  15.573  0.3675 -1.7417 -1.6243
 3379SOL    HW221600   0.408   3.944  15.612  1.7616  0.4136 -1.4214
 3380SOL     OW21601   0.970   0.017   2.287 -0.3264  0.1555  0.3248
 3380SOL    HW121602   0.897   4.679   2.296 -0.7318  0.9437  2.2392
 3380SOL    HW221603   0.923   0.100   2.297 -0.5547  0.0290  0.3158
 3381SOL     OW21604   0.933   2.119  14.148  0.1542 -0.2041  0.3102
 3381SOL    HW121605   0.998   2.093  14.213  1.3310 -0.8311 -1.1015
 3381SOL    HW221606   0.885   2.037  14.156 -2.9814  1.5613 -0.6498
 3382SOL     OW21607   4.106   1.659   5.573 -0.4580  0.4912  0.4233
 3382SOL    HW121608   4.023   1.700   5.597 -1.5355  0.2944 -2.9829
 3382SOL    HW221609   4.073   1.591   5.514  0.8503  0.8154 -0.6832
 3383SOL     OW21610   4.619   1.229   6.491 -0.3035 -0.2447 -0.5107
 3383SOL    HW121611   4.562   1.153   6.481 -0.5353 -0.3978  1.9948
 3383SOL    HW221612   4.706   1.194   6.473  0.4890  1.5354 -0.1499
 3384SOL     OW21613   2.109   4.631  12.200 -0.4658 -0.1891  0.5462
 3384SOL    HW121614   2.066   4.663  12.121  0.0765 -0.1056  0.2864
 3384SOL    HW221615   2.077   4.680  12.276  0.7595 -0.4495  1.2327
 3385SOL     OW21616   0.262   4.594   8.947 -0.0231 -0.7163 -0.4063
 3385SOL    HW121617   0.357   4.600   8.961  0.0102 -0.1187 -0.9093
 3385SOL    HW221618   0.269   4.625   8.857 -0.7833 -1.4438 -0.7236
 3386SOL     OW21619   3.450   3.684   0.878 -0.4270  0.9722 -0.4733
 3386SOL    HW121620   3.485   3.676   0.789 -0.0589 -2.3389 -0.0131
 3386SOL    HW221621   3.363   3.647   0.864 -0.5220  0.8882  0.3892
 3387SOL     OW21622   1.590   0.984   9.512  0.2593 -0.2357  0.0916
 3387SOL    HW121623   1.567   0.903   9.559  1.2048  1.2793  3.1462
 3387SOL    HW221624   1.535   0.974   9.434 -0.2970  0.5134  0.3778
 3388SOL     OW21625   0.860   1.269   7.549  0.2022 -0.1396 -0.3310
 3388SOL    HW121626   0.871   1.295   7.641  0.1779  0.6388 -0.5490
 3388SOL    HW221627   0.829   1.350   7.508 -0.7229 -0.7656 -0.8624
 3389SOL     OW21628   2.975   2.216  14.231 -0.1187 -0.0805  0.1402
 3389SOL    HW121629   2.958   2.307  14.208  2.4766  0.6154  0.9677
 3389SOL    HW221630   3.070   2.216  14.216 -0.1279 -0.0977  0.0824
 3390SOL     OW21631   3.696   3.887   7.233  0.3227  0.0850  0.0248
 3390SOL    HW121632   3.784   3.920   7.251  0.0383  1.3429 -0.8928
 3390SOL    HW221633   3.709   3.793   7.248  0.6685  0.2919  1.0102
 3391SOL     OW21634   2.063   1.128   7.677  0.3069 -0.1457 -0.1902
 3391SOL    HW121635   2.074   1.220   7.652 -1.3959 -0.6027 -2.5643
 3391SOL    HW221636   1.978   1.110   7.639  0.8592 -2.6025 -0.2496
 3392SOL     OW21637   0.370   1.265   7.955 -0.2475 -0.1794  0.6520
 3392SOL    HW121638   0.279   1.236   7.943 -1.1213  2.1407  1.5731
 3392SOL    HW221639   0.366   1.329   8.026 -0.0936  1.4235 -0.7536
 3393SOL     OW21640   2.968   3.351   2.590 -0.1927  0.2143  0.3275
 3393SOL    HW121641   2.904   3.280   2.592  0.7478 -0.6360  0.1588
 3393SOL    HW221642   2.929   3.408   2.523 -0.2802 -1.6282 -1.1856
 3394SOL     OW21643   3.213   2.205   8.976  0.3974 -0.2879 -0.5862
 3394SOL    HW121644   3.275   2.229   9.046  0.8402 -2.0640 -0.3794
 3394SOL    HW221645   3.251   2.118   8.965  1.3301 -0.0889  0.9158
 3395SOL     OW21646   0.756   1.274   5.514 -0.6368 -0.4700  0.0675
 3395SOL    HW121647   0.703   1.352   5.503 -0.0813  0.0776  1.2660
 3395SOL    HW221648   0.711   1.236   5.590 -1.2743 -1.3178 -0.7438
 3396SOL     OW21649   2.660   3.637   6.031  0.1421 -0.5202  0.1773
 3396SOL    HW121650   2.610   3.600   5.958 -2.1990  1.1166  0.9504
 3396SOL    HW221651   2.603   3.710   6.055 -0.9096 -0.9599 -0.9579
 3397SOL     OW21652   4.305   4.714  17.561  0.1673 -0.0865 -0.0262
 3397SOL    HW121653   4.260   4.669  17.489  0.0501  0.4029 -0.2555
 3397SOL    HW221654   4.399   4.701  17.550  0.1359 -0.1772 -0.2017
 3398SOL     OW21655   3.125   4.147   3.049 -0.1947 -0.5509 -0.4077
 3398SOL    HW121656   3.196   4.209   3.066 -0.4857 -1.2939  3.3590
 3398SOL    HW221657   3.095   4.176   2.962  0.5922 -1.3453 -0.9429
 3399SOL     OW21658   0.538   1.848  15.048 -0.5413  0.2088 -0.7118
 3399SOL    HW121659   0.492   1.823  15.128  1.3418 -1.9745 -0.3304
 3399SOL    HW221660   0.591   1.922  15.081  0.7166 -1.0530  0.0969
 3400SOL     OW21661   4.716   0.142  13.256  0.3691 -0.3545 -0.1670
 3400SOL    HW121662   0.031   0.125  13.343 -1.4968  0.2315  0.7684
 3400SOL    HW221663   4.632   0.096  13.257 -0.5102  1.2681 -0.6452
 3401SOL     OW21664   1.617   2.505   7.826  0.2228 -0.0916 -0.2086
 3401SOL    HW121665   1.628   2.447   7.751  0.1159 -0.5071  0.0989
 3401SOL    HW221666   1.546   2.563   7.798 -0.0883  0.8954  2.6030
 3402SOL     OW21667   2.710   0.074   7.448 -0.0870 -0.0751  0.4394
 3402SOL    HW121668   2.781   0.085   7.511 -1.0201 -2.2685  1.8939
 3402SOL    HW221669   2.711   0.157   7.400 -0.6081 -0.6942 -0.6530
 3403SOL     OW21670   1.122   4.687   5.727  0.2895  0.1320 -0.0849
 3403SOL    HW121671   1.040   4.722   5.761 -0.5437 -0.9586 -1.0067
 3403SOL    HW221672   1.175   4.696   5.807  2.4684  2.7185 -1.7881
 3404SOL     OW21673   0.599   1.353   9.924 -0.3985 -0.3933 -0.0562
 3404SOL    HW121674   0.670   1.337   9.862 -1.2219  0.6233 -1.2489
 3404SOL    HW221675   0.635   1.328  10.009 -2.1316  1.7770  1.3035
 3405SOL     OW21676   4.691   0.741   3.403  0.5264 -0.2601  0.4039
 3405SOL    HW121677   0.007   0.828   3.414  1.2808 -0.2746 -2.0656
 3405SOL    HW221678   4.718   0.695   3.483 -0.4532 -0.0565  0.8499
 3406SOL     OW21679   1.543   2.915   2.233  0.1077  0.1157 -0.0348
 3406SOL    HW121680   1.507   3.004   2.226  2.1757  0.7809 -2.3189
 3406SOL    HW221681   1.548   2.876   2.145 -1.0257 -0.6192  0.2315
 3407SOL     OW21682   3.294   3.334  16.911 -0.2891 -0.7336  0.3202
 3407SOL    HW121683   3.313   3.308  16.821 -0.3937 -2.7277  0.8734
 3407SOL    HW221684   3.284   3.429  16.909 -1.5887 -0.8575  0.8651
 3408SOL     OW21685   2.214   0.728   1.778 -0.2370 -0.2018  0.0672
 3408SOL    HW121686   2.207   0.809   1.828  0.8420 -0.0928  0.0451
 3408SOL    HW221687   2.154   0.745   1.705 -2.0216  1.0166  1.8322
 3409SOL     OW21688   1.680   0.354   6.396 -0.8141 -0.3468  0.3274
 3409SOL    HW121689   1.667   0.391   6.484 -0.7317 -1.9731  1.0256
 3409SOL    HW221690   1.695   0.428   6.338 -3.7705  1.0359  1.3128
 3410SOL     OW21691   0.792   3.322   8.155  0.1670  0.1500 -0.4000
 3410SOL    HW121692   0.810   3.228   8.158  1.6702  0.4939  1.5490
 3410SOL    HW221693   0.697   3.314   8.161  0.2290  0.1693  0.6509
 3411SOL     OW21694   2.831   1.150   1.952 -0.1376 -0.0114  0.4915
 3411SOL    HW121695   2.795   1.127   1.866 -0.0434  0.7244  0.2482
 3411SOL    HW221696   2.810   1.241   1.931 -1.5734 -0.4433  0.0376
 3412SOL     OW21697   2.046   3.866   8.785  0.1231  0.7339  1.1499
 3412SOL    HW121698   2.039   3.959   8.807  1.6335  1.5540 -1.9529
 3412SOL    HW221699   1.993   3.865   8.706  0.3274 -1.0701  1.0221
 3413SOL     OW21700   1.080   1.376   6.655 -0.1588  0.0721 -0.3191
 3413SOL    HW121701   1.068   1.366   6.561 -1.5835  1.9507 -0.3437
 3413SOL    HW221702   1.039   1.461   6.673 -2.4587 -1.7299  3.0944
 3414SOL     OW21703   2.606   3.207   8.449  0.5145 -0.3115  0.3012
 3414SOL    HW121704   2.570   3.197   8.537  0.6618  0.7563  0.4875
 3414SOL    HW221705   2.656   3.125   8.451  0.1228 -0.5218  1.6710
 3415SOL     OW21706   4.054   1.209  11.242 -0.1507 -0.1899  0.2966
 3415SOL    HW121707   4.147   1.204  11.263 -0.4015 -0.5635  1.3391
 3415SOL    HW221708   4.048   1.302  11.218 -2.0671 -0.1332  1.0217
 3416SOL     OW21709   1.000   4.703   9.703 -0.1463 -0.0446  0.3097
 3416SOL    HW121710   0.992   4.652   9.784  0.8473  0.8390  0.9564
 3416SOL    HW221711   1.093   4.721   9.708  0.5554 -2.8124 -2.5905
 3417SOL     OW21712   3.838   3.042  11.471 -0.0531  0.4513 -0.1945
 3417SOL    HW121713   3.934   3.039  11.470 -0.0840 -0.9004  0.2415
 3417SOL    HW221714   3.822   3.045  11.376  1.0939 -0.0479 -0.4060
 3418SOL     OW21715   3.736   1.783  14.965 -0.4330 -0.6649  0.5812
 3418SOL    HW121716   3.641   1.787  14.961 -0.3506  0.3699 -0.7134
 3418SOL    HW221717   3.751   1.693  14.993  1.0269 -0.8321 -0.7018
 3419SOL     OW21718   1.659   1.957  14.418 -0.0935  0.2531 -0.8002
 3419SOL    HW121719   1.621   1.950  14.506 -0.3052 -1.3853 -1.0331
 3419SOL    HW221720   1.701   2.043  14.426  0.7817 -0.1765 -0.7136
 3420SOL     OW21721   1.251   0.378   3.824 -0.1243  0.8438  0.2769
 3420SOL    HW121722   1.235   0.473   3.827  0.3153  0.9604 -1.0132
 3420SOL    HW221723   1.166   0.354   3.861 -0.3267  3.1309  1.3524
 3421SOL     OW21724   2.232   3.127  13.025 -0.1779 -0.0179 -0.2210
 3421SOL    HW121725   2.144   3.109  12.992 -0.7909 -1.6591  2.3116
 3421SOL    HW221726   2.220   3.104  13.117  0.7761  1.8738  0.3743
 3422SOL     OW21727   0.262   0.150  10.016  0.7772  0.3896  0.1159
 3422SOL    HW121728   0.249   0.243   9.996  1.3267  0.4402  0.0064
 3422SOL    HW221729   0.245   0.152  10.111  0.8227 -0.7589  0.1503
 3423SOL     OW21730   1.224   2.682   4.979 -0.7861 -0.1561  0.1053
 3423SOL    HW121731   1.253   2.706   5.067  1.4109 -2.3157 -0.0291
 3423SOL    HW221732   1.308   2.696   4.936 -0.6004  0.1139  0.5574
 3424SOL     OW21733   3.341   0.782   8.501 -0.6275  0.6171  0.0746
 3424SOL    HW121734   3.298   0.860   8.466 -1.4733  0.0705 -0.1087
 3424SOL    HW221735   3.406   0.751   8.438 -2.3527 -0.0668 -1.3679
 3425SOL     OW21736   2.563   2.466   6.237  0.3153 -0.0887 -0.1171
 3425SOL    HW121737   2.528   2.419   6.162  0.1706  0.9682 -0.7088
 3425SOL    HW221738   2.650   2.426   6.238  0.2468 -0.2374 -0.1405
 3426SOL     OW21739   3.513   1.982   3.625  0.0858 -0.1426 -0.0417
 3426SOL    HW121740   3.487   2.020   3.542 -0.9700  1.3129  0.9587
 3426SOL    HW221741   3.577   2.049   3.648 -1.9612  1.3680  1.2824
 3427SOL     OW21742   4.662   3.328   2.954 -0.0336 -0.1445  0.1049
 3427SOL    HW121743   4.567   3.324   2.944 -0.2833  1.2817  1.9954
 3427SOL    HW221744   4.694   3.395   2.894  0.5927  2.0982  2.9539
 3428SOL     OW21745   2.545   3.431   3.424  0.5329 -0.4017 -0.1375
 3428SOL    HW121746   2.480   3.476   3.370  0.3752  0.0899  0.4572
 3428SOL    HW221747   2.607   3.502   3.442  1.1590 -1.4333  1.7238
 3429SOL     OW21748   1.431   0.604   3.243 -0.3048 -0.5332 -0.1335
 3429SOL    HW121749   1.433   0.538   3.174 -3.1873  1.3566 -2.0326
 3429SOL    HW221750   1.344   0.597   3.282 -0.2195 -0.8153  0.0046
 3430SOL     OW21751   2.040   3.926  13.351 -0.2145  0.0294 -0.2448
 3430SOL    HW121752   2.102   3.881  13.408  0.1744  0.4772 -0.3224
 3430SOL    HW221753   1.977   3.954  13.417  0.6032 -0.7115  0.8362
 3431SOL     OW21754   2.848   3.433  10.352  0.2232 -0.2582  0.2891
 3431SOL    HW121755   2.922   3.380  10.322  0.9937  0.3549  1.0704
 3431SOL    HW221756   2.844   3.498  10.282 -0.3740  0.2656  0.8177
 3432SOL     OW21757   1.109   1.934   6.389  0.3287 -0.0284  0.0270
 3432SOL    HW121758   1.034   1.903   6.439 -0.9137  1.3102 -1.0196
 3432SOL    HW221759   1.115   2.027   6.411  0.8054 -0.0720  0.0931
 3433SOL     OW21760   3.089   1.758   5.855 -0.3786  0.0848 -0.4323
 3433SOL    HW121761   3.159   1.780   5.917  0.2231 -0.9122 -0.7566
 3433SOL    HW221762   3.133   1.763   5.770 -2.1110 -0.0969 -1.3410
 3434SOL     OW21763   3.364   4.252  16.759  1.0280 -0.2806 -0.4281
 3434SOL    HW121764   3.368   4.345  16.737  0.2310 -0.0871  0.2488
 3434SOL    HW221765   3.421   4.250  16.836 -0.3665  0.2728  0.6390
 3435SOL     OW21766   1.311   1.382   3.745 -0.1066 -0.0763  0.0397
 3435SOL    HW121767   1.271   1.341   3.821 -0.2623 -2.8149 -1.5059
 3435SOL    HW221768   1.230   1.403   3.699 -0.9104 -3.2109  0.0086
 3436SOL     OW21769   3.742   1.335   6.489  0.0879  0.1844 -0.1176
 3436SOL    HW121770   3.696   1.268   6.438  1.1070 -1.6079  1.2996
 3436SOL    HW221771   3.819   1.339   6.432 -0.5593 -1.4381 -1.0857
 3437SOL     OW21772   4.164   2.666   2.756 -0.7792 -0.4417  0.4898
 3437SOL    HW121773   4.129   2.754   2.741  2.3107  0.6683 -0.3002
 3437SOL    HW221774   4.085   2.617   2.777 -0.3039 -1.4751 -0.1344
 3438SOL     OW21775   3.966   4.119  16.257 -0.3845  0.2556  0.3155
 3438SOL    HW121776   3.921   4.131  16.173  0.2695  2.5851  0.3186
 3438SOL    HW221777   4.032   4.187  16.249 -2.4308  2.3362  1.3068
 3439SOL     OW21778   0.887   0.457  11.747 -0.1915 -0.0779  0.4066
 3439SOL    HW121779   0.840   0.463  11.664 -1.1952  0.1923  0.9951
 3439SOL    HW221780   0.974   0.484  11.717 -0.3172  0.1394  0.2398
 3440SOL     OW21781   4.216   3.368   0.251 -0.0098  0.4172 -0.1894
 3440SOL    HW121782   4.302   3.357   0.291  1.2277  1.2028 -2.6268
 3440SOL    HW221783   4.166   3.299   0.297  0.4075 -0.0657 -0.4623
 3441SOL     OW21784   3.703   0.733  16.125 -0.1961 -0.6184 -0.5520
 3441SOL    HW121785   3.646   0.664  16.091 -1.0432  1.2138 -2.8386
 3441SOL    HW221786   3.639   0.796  16.156 -0.5346 -1.0836 -0.3102
 3442SOL     OW21787   0.412   1.241   3.919 -0.7223  0.3838 -0.2309
 3442SOL    HW121788   0.446   1.167   3.968  0.6084  0.6871 -0.6838
 3442SOL    HW221789   0.318   1.228   3.925 -0.6924 -0.9569 -2.6492
 3443SOL     OW21790   4.574   4.257   0.554 -0.1088 -0.0093  0.1501
 3443SOL    HW121791   4.613   4.340   0.580  0.0481 -0.2445  0.6812
 3443SOL    HW221792   4.527   4.284   0.475 -0.4142 -0.1521  0.2839
 3444SOL     OW21793   4.505   1.921   1.610  0.1174 -0.1464 -0.7758
 3444SOL    HW121794   4.518   1.860   1.537  1.6802 -1.4963  0.6610
 3444SOL    HW221795   4.580   1.897   1.663 -0.0264 -0.8716 -0.9048
 3445SOL     OW21796   2.212   1.455   4.025  0.1099  0.5303 -0.1370
 3445SOL    HW121797   2.245   1.521   4.086  0.6415  0.5668 -0.4668
 3445SOL    HW221798   2.154   1.507   3.969 -1.1542 -0.3021  0.3901
 3446SOL     OW21799   3.827   0.191   0.504 -0.3694  0.2850 -0.5907
 3446SOL    HW121800   3.749   0.241   0.529 -0.0641  0.2743  0.3981
 3446SOL    HW221801   3.894   0.253   0.535 -1.1675  0.1889  1.3018
 3447SOL     OW21802   0.330   3.319   7.983  0.2230  0.3643  0.1972
 3447SOL    HW121803   0.392   3.392   7.979  1.4436 -0.4911  3.5161
 3447SOL    HW221804   0.253   3.371   7.959 -0.2583 -0.3135  0.2881
 3448SOL     OW21805   3.476   4.428   2.051  0.8712  0.4027  0.2511
 3448SOL    HW121806   3.491   4.439   2.145  2.5553  2.1980 -0.2319
 3448SOL    HW221807   3.532   4.350   2.045  2.1881  1.3693 -0.0008
 3449SOL     OW21808   3.148   0.363  13.946 -0.2608  0.4285 -0.4721
 3449SOL    HW121809   3.222   0.348  14.005  0.0278 -1.5102 -1.3371
 3449SOL    HW221810   3.173   0.439  13.894  2.1160 -0.4014 -0.5177
 3450SOL     OW21811   0.628   3.816   2.470 -0.0045  0.2340  0.5237
 3450SOL    HW121812   0.678   3.878   2.417 -1.1146  0.7117  0.0248
 3450SOL    HW221813   0.661   3.824   2.559 -0.3766 -1.7865  0.8452
 3451SOL     OW21814   0.709   3.256  15.289 -0.4311 -0.0985 -0.3338
 3451SOL    HW121815   0.787   3.309  15.277 -0.5535  0.2660  0.4364
 3451SOL    HW221816   0.692   3.223  15.201  2.0429  1.7160 -1.4903
 3452SOL     OW21817   2.814   4.032   6.608 -0.4331 -0.4259  0.1970
 3452SOL    HW121818   2.856   3.988   6.534  1.2722  0.6967  0.5056
 3452SOL    HW221819   2.848   4.121   6.606 -0.2857 -0.5170 -1.7784
 3453SOL     OW21820   1.578   1.384   2.686 -0.0224 -0.5515  0.6381
 3453SOL    HW121821   1.577   1.288   2.691 -0.1705 -0.7274 -2.3329
 3453SOL    HW221822   1.655   1.393   2.629 -0.8213 -0.4934 -0.4356
 3454SOL     OW21823   4.050   1.029  17.642 -0.0190  0.3670 -0.4918
 3454SOL    HW121824   4.128   1.030  17.587 -2.3473 -0.1494 -3.7616
 3454SOL    HW221825   3.989   0.963  17.608 -0.0724  0.3608 -0.3841
 3455SOL     OW21826   0.918   2.144   4.359 -0.1770  0.2336  0.2443
 3455SOL    HW121827   0.854   2.072   4.360  1.0287 -0.8070  1.7181
 3455SOL    HW221828   0.958   2.141   4.446  2.1144 -1.1284 -0.8703
 3456SOL     OW21829   4.047   0.307  13.115  0.7023  0.0116  0.3284
 3456SOL    HW121830   4.058   0.286  13.207 -1.3671  1.5522  0.9114
 3456SOL    HW221831   3.953   0.311  13.098  0.3413 -2.9508  1.6629
 3457SOL     OW21832   2.662   4.714   6.615 -0.1957  1.1173 -0.8047
 3457SOL    HW121833   2.714   0.059   6.660  0.6875  1.7651 -2.8139
 3457SOL    HW221834   2.703   4.719   6.529  0.8865 -2.9439 -0.5128
 3458SOL     OW21835   3.272   4.253   4.899  0.1871  0.3380  0.4147
 3458SOL    HW121836   3.249   4.219   4.985 -1.2774 -0.7471 -0.4032
 3458SOL    HW221837   3.223   4.207   4.831 -0.1074  1.1368  0.0860
 3459SOL     OW21838   3.468   2.703   1.862 -0.3218 -0.2838  0.2743
 3459SOL    HW121839   3.383   2.726   1.825  0.2640  0.1645 -0.7860
 3459SOL    HW221840   3.480   2.766   1.934  0.6684 -1.0449  0.7698
 3460SOL     OW21841   0.584   4.223  13.933 -0.3799 -0.0478 -0.8939
 3460SOL    HW121842   0.516   4.271  13.886 -0.5670  1.2018  0.6691
 3460SOL    HW221843   0.661   4.239  13.880 -0.1623  2.1722  0.0983
 3461SOL     OW21844   4.145   4.123  15.141 -0.0330 -0.2168  0.1000
 3461SOL    HW121845   4.224   4.111  15.089  0.5207  0.6570  0.7346
 3461SOL    HW221846   4.168   4.067  15.215  0.0945  0.0986  0.2977
 3462SOL     OW21847   4.373   1.107   2.747 -0.0648 -0.7945  0.5753
 3462SOL    HW121848   4.434   1.045   2.788  0.9322  0.9809  1.7800
 3462SOL    HW221849   4.405   1.194   2.770 -1.0495 -0.3240  0.1699
 3463SOL     OW21850   0.758   3.518  15.914 -0.2219 -0.6634  0.2923
 3463SOL    HW121851   0.767   3.434  15.958  2.2619 -0.1945  0.6877
 3463SOL    HW221852   0.808   3.584  15.962 -1.1559  0.1059  0.1933
 3464SOL     OW21853   1.355   3.157   7.221  0.4744  0.2032 -0.0270
 3464SOL    HW121854   1.347   3.238   7.271 -2.8898  1.6079 -2.7967
 3464SOL    HW221855   1.323   3.097   7.288 -0.3194  1.3614  0.6261
 3465SOL     OW21856   1.887   4.696   5.590 -0.0043  0.1446  0.1642
 3465SOL    HW121857   1.815   4.649   5.547  0.6462 -1.2718  0.6522
 3465SOL    HW221858   1.928   0.003   5.508  0.0560 -1.0263 -0.2322
 3466SOL     OW21859   3.138   2.936  13.493 -0.4859  0.0462 -0.2096
 3466SOL    HW121860   3.166   2.849  13.522  1.4433  0.4676 -0.8585
 3466SOL    HW221861   3.044   2.935  13.472 -1.0978 -1.8912  2.7007
 3467SOL     OW21862   1.824   2.954   8.276 -0.6960  0.1446 -0.0441
 3467SOL    HW121863   1.847   2.999   8.357  0.3902 -1.4413  0.5229
 3467SOL    HW221864   1.742   2.999   8.253 -0.9986 -0.7553 -0.7246
 3468SOL     OW21865   1.570   1.076   2.810  0.0905 -0.1918 -0.4708
 3468SOL    HW121866   1.525   1.057   2.728 -0.8565  0.6405 -0.1561
 3468SOL    HW221867   1.535   1.002   2.860  1.6179  1.7139  3.4209
 3469SOL     OW21868   2.873   3.187   4.971  0.1140 -0.5214 -0.0204
 3469SOL    HW121869   2.872   3.200   5.066  2.7585  2.9536 -0.4410
 3469SOL    HW221870   2.801   3.124   4.966 -1.1433  0.8852  0.2635
 3470SOL     OW21871   1.929   0.518   0.494  0.0164  0.3255  0.0146
 3470SOL    HW121872   1.908   0.437   0.447 -0.5465 -0.0640  0.9209
 3470SOL    HW221873   1.957   0.581   0.429 -0.2316  1.2893  0.8368
 3471SOL     OW21874   3.798   0.846   5.146  0.1692 -0.6363  0.3272
 3471SOL    HW121875   3.854   0.804   5.081 -0.7588  2.6339 -2.6216
 3471SOL    HW221876   3.847   0.828   5.226  0.8390  0.8392  0.2444
 3472SOL     OW21877   2.726   1.400   6.875 -0.5294  0.1082 -0.0475
 3472SOL    HW121878   2.786   1.350   6.819  0.9505  1.8616 -0.0247
 3472SOL    HW221879   2.774   1.463   6.929 -0.0169 -0.2639 -0.0648
 3473SOL     OW21880   4.040   0.643   3.602  0.0988  0.0198 -0.0452
 3473SOL    HW121881   4.100   0.690   3.544 -0.9346  1.8909  0.4015
 3473SOL    HW221882   4.074   0.667   3.688  0.9525 -0.5264 -0.2280
 3474SOL     OW21883   1.405   2.998   8.776 -0.3310  0.2623 -0.4617
 3474SOL    HW121884   1.311   2.985   8.792  0.1621  0.5068  2.5739
 3474SOL    HW221885   1.409   2.997   8.680  2.1744 -3.6184 -0.2762
 3475SOL     OW21886   1.871   0.783   8.219 -0.4358 -0.6138 -0.0584
 3475SOL    HW121887   1.946   0.842   8.218 -0.8234 -0.0951  1.5445
 3475SOL    HW221888   1.802   0.840   8.183 -2.1137 -2.5721  0.0564
 3476SOL     OW21889   0.289   2.169   9.282  0.0198 -0.2649 -0.4261
 3476SOL    HW121890   0.301   2.075   9.292 -0.9983 -0.2812  0.6249
 3476SOL    HW221891   0.330   2.181   9.196 -0.5699 -1.7659 -0.9088
 3477SOL     OW21892   0.161   3.322   6.866  0.2119  0.3771 -0.0226
 3477SOL    HW121893   0.230   3.301   6.803  1.7004  0.7282  1.4875
 3477SOL    HW221894   0.093   3.257   6.852  0.9431 -0.1848 -0.9144
 3478SOL     OW21895   3.197   1.572  14.117 -0.1368 -0.5072  0.2651
 3478SOL    HW121896   3.223   1.483  14.140  0.3075 -0.4113  0.1167
 3478SOL    HW221897   3.282   1.605  14.090  0.2833 -2.3937 -0.6533
 3479SOL     OW21898   1.088   2.646   3.455  0.2066  0.2629  0.2996
 3479SOL    HW121899   1.073   2.555   3.429  3.1221 -0.2751  0.4375
 3479SOL    HW221900   1.182   2.660   3.444  0.0579  1.8678  0.9598
 3480SOL     OW21901   1.501   1.107  15.422  0.0023 -0.5927 -0.0460
 3480SOL    HW121902   1.460   1.044  15.363  1.3838 -1.2312 -0.3334
 3480SOL    HW221903   1.585   1.120  15.378 -0.0678 -1.0882 -0.3315
 3481SOL     OW21904   2.101   4.540  14.494  0.0720  0.2444  0.6499
 3481SOL    HW121905   2.157   4.610  14.461 -1.7876  1.5215  0.1860
 3481SOL    HW221906   2.091   4.563  14.586 -0.4318  1.4716  0.2908
 3482SOL     OW21907   0.675   4.082   4.537 -0.3891  0.4362 -0.2656
 3482SOL    HW121908   0.714   4.014   4.591  0.5493  0.5658 -0.7876
 3482SOL    HW221909   0.646   4.152   4.596  1.6201  1.9695 -1.1006
 3483SOL     OW21910   1.349   0.114  13.546  0.1065  0.0769  0.1302
 3483SOL    HW121911   1.273   0.092  13.492 -0.5246  0.0297  1.0408
 3483SOL    HW221912   1.305   0.142  13.626  0.2338 -1.4176  0.7348
 3484SOL     OW21913   1.315   3.669   5.699 -0.0421  0.1914 -0.2369
 3484SOL    HW121914   1.246   3.604   5.715  0.9377 -0.5283  1.0333
 3484SOL    HW221915   1.348   3.674   5.789 -0.1695 -0.0039 -0.1781
 3485SOL     OW21916   2.698   2.321  17.502  0.3086  0.1524  0.7220
 3485SOL    HW121917   2.611   2.323  17.542  0.2478  0.1517  0.5867
 3485SOL    HW221918   2.688   2.292  17.412  0.2328  1.2931  0.3664
 3486SOL     OW21919   1.148   3.234   8.570  0.9764 -0.3588 -0.0403
 3486SOL    HW121920   1.087   3.161   8.577  1.0206 -0.4699 -0.7734
 3486SOL    HW221921   1.134   3.267   8.481 -2.1799 -3.4617 -0.6836
 3487SOL     OW21922   0.021   4.702   4.011 -0.3232 -0.3456 -0.3176
 3487SOL    HW121923   4.718   4.673   3.924  1.2559 -1.1152 -0.5321
 3487SOL    HW221924   4.690   4.643   4.065  0.4185 -0.8438 -0.1321
 3488SOL     OW21925   0.247   1.132  13.636  0.0683 -0.1044  0.0831
 3488SOL    HW121926   0.292   1.055  13.602 -1.2178 -0.7097 -0.2310
 3488SOL    HW221927   0.234   1.186  13.558  0.0338 -0.0619  0.1183
 3489SOL     OW21928   0.311   2.209  14.478  0.1156 -0.6339 -0.4268
 3489SOL    HW121929   0.336   2.269  14.408  1.7255 -1.8141 -0.8810
 3489SOL    HW221930   0.234   2.252  14.515  1.6405  1.8242 -0.1254
 3490SOL     OW21931   2.825   4.194   0.950  0.3168  0.4303 -0.4813
 3490SOL    HW121932   2.762   4.141   0.999 -1.6088  0.7315 -2.6194
 3490SOL    HW221933   2.870   4.235   1.023  0.1311  1.2058 -0.8085
 3491SOL     OW21934   3.405   2.067   4.897 -0.3484  0.0101  0.3100
 3491SOL    HW121935   3.492   2.051   4.860 -0.9997 -1.1377 -0.7276
 3491SOL    HW221936   3.430   2.120   4.973  0.6950 -2.7794  1.9176
 3492SOL     OW21937   1.915   0.567  15.557 -0.4371 -0.3791  0.3186
 3492SOL    HW121938   1.875   0.643  15.514  4.6936  3.1840  1.8018
 3492SOL    HW221939   1.908   0.603  15.646 -1.3857  0.8274 -0.2518
 3493SOL     OW21940   3.813   2.935   2.909 -0.4742  0.1034  0.7668
 3493SOL    HW121941   3.894   2.937   2.858 -1.0105 -0.3304 -0.0953
 3493SOL    HW221942   3.785   2.844   2.910  1.2067 -0.4048  1.0956
 3494SOL     OW21943   1.324   1.561  17.647  0.4729 -0.4259  0.5629
 3494SOL    HW121944   1.317   1.627  17.578 -2.3870 -0.6435  0.6723
 3494SOL    HW221945   1.337   1.476  17.605  1.7686 -0.5233  1.1416
 3495SOL     OW21946   1.466   0.474   9.129 -0.4027 -0.1471 -0.4670
 3495SOL    HW121947   1.519   0.420   9.187 -0.3671 -2.3487 -2.5349
 3495SOL    HW221948   1.412   0.409   9.084 -1.8921  0.8495 -0.1288
 3496SOL     OW21949   1.437   2.967   4.545  0.1270 -0.2798 -0.0911
 3496SOL    HW121950   1.459   2.876   4.526  2.7169  0.7095 -1.8027
 3496SOL    HW221951   1.342   2.962   4.533 -0.1343  2.3793  0.8079
 3497SOL     OW21952   3.555   2.953  12.652  0.3598 -0.4195 -0.3324
 3497SOL    HW121953   3.515   2.990  12.573  0.2893 -1.2958 -0.7076
 3497SOL    HW221954   3.618   2.891  12.617  0.2499 -0.7775  0.1013
 3498SOL     OW21955   3.890   2.078   6.445 -0.0286 -0.4262  0.0421
 3498SOL    HW121956   3.813   2.101   6.393 -0.7633 -1.8613  0.4718
 3498SOL    HW221957   3.865   1.995   6.487  0.1060 -0.7405 -0.5030
 3499SOL     OW21958   1.846   4.599   2.827  0.3745  0.1367 -0.3413
 3499SOL    HW121959   1.800   4.594   2.911  0.5948  0.2756 -0.2125
 3499SOL    HW221960   1.850   4.694   2.811  1.2884 -0.2376 -2.3786
 3500SOL     OW21961   1.021   1.176   0.197  0.5261 -0.1772  0.4839
 3500SOL    HW121962   0.972   1.097   0.174 -2.3407  1.4984  0.7643
 3500SOL    HW221963   1.103   1.141   0.230  0.4727  0.0577  0.8671
 3501SOL     OW21964   0.806   0.589   3.972  0.0782  0.1810  0.8640
 3501SOL    HW121965   0.827   0.588   3.878 -0.1271 -1.1753  0.8286
 3501SOL    HW221966   0.851   0.513   4.009  0.9888  0.7266  0.8893
 3502SOL     OW21967   0.309   3.505   9.088 -0.0405 -0.3430  0.6255
 3502SOL    HW121968   0.362   3.559   9.146 -0.8423  2.5751 -1.3309
 3502SOL    HW221969   0.377   3.486   9.024 -0.5870  0.2289 -0.1372
 3503SOL     OW21970   0.042   0.157   4.332 -0.0120  0.1616 -0.2022
 3503SOL    HW121971   0.111   0.192   4.275  1.1805  0.0745  1.1664
 3503SOL    HW221972   0.076   0.073   4.363  1.4233  0.6448 -0.4703
 3504SOL     OW21973   4.258   0.082   6.097  0.5714 -0.1631  0.1299
 3504SOL    HW121974   4.252   0.166   6.142  0.9540  0.2566 -0.5796
 3504SOL    HW221975   4.325   0.094   6.029 -0.2671  0.2103 -0.6286
 3505SOL     OW21976   0.386   0.505   7.264 -0.1511 -0.5368  0.2591
 3505SOL    HW121977   0.416   0.540   7.348 -0.3333 -0.6409  0.3673
 3505SOL    HW221978   0.342   0.427   7.299 -0.7277  0.1394  1.0573
 3506SOL     OW21979   1.812   2.510   5.551 -0.0573 -0.5009  0.1759
 3506SOL    HW121980   1.814   2.432   5.606 -0.7196 -0.0518  0.8312
 3506SOL    HW221981   1.727   2.511   5.507 -0.2735  3.9997  0.7397
 3507SOL     OW21982   2.904   2.469   6.681  0.3378 -0.0375 -0.6037
 3507SOL    HW121983   2.967   2.489   6.751 -0.2883 -1.4683  0.3625
 3507SOL    HW221984   2.838   2.429   6.738  1.9340 -0.2250  1.1229
 3508SOL     OW21985   1.573   0.044  15.444 -0.1178  0.0550  0.0528
 3508SOL    HW121986   1.611   0.044  15.532  0.8449  2.6823 -0.3471
 3508SOL    HW221987   1.502   0.108  15.449 -2.0163 -2.0656  0.0483
 3509SOL     OW21988   0.126   0.634   8.910 -0.0799  0.5590 -0.5093
 3509SOL    HW121989   0.181   0.557   8.926 -1.0050  0.7377  3.4921
 3509SOL    HW221990   0.045   0.627   8.961 -0.2833 -0.2463 -0.9473
 3510SOL     OW21991   2.791   1.977   5.828  0.4090 -0.1714  0.3444
 3510SOL    HW121992   2.859   1.931   5.878 -0.4416  0.8640  2.4524
 3510SOL    HW221993   2.785   1.940   5.740 -2.1259  1.0857  0.0039
 3511SOL     OW21994   1.441   0.143   8.483 -0.3645  0.1747  0.5336
 3511SOL    HW121995   1.512   0.175   8.427 -0.0181 -1.4401  0.0581
 3511SOL    HW221996   1.452   0.049   8.473 -1.5953  0.0888 -0.0607
 3512SOL     OW21997   4.623   3.983   7.761  0.1182 -0.3609  0.0097
 3512SOL    HW121998   4.697   3.929   7.788 -0.6302 -0.9443  0.8667
 3512SOL    HW221999   4.663   4.010   7.678 -2.1374 -1.2235 -1.3564
 3513SOL     OW22000   4.541   1.678   1.960  0.1074 -0.6278 -0.1309
 3513SOL    HW122001   4.525   1.737   1.887  0.8938  0.0662  0.2676
 3513SOL    HW222002   4.630   1.653   1.937  0.6707  0.6420  0.7118
 3514SOL     OW22003   4.597   1.500   2.168 -0.2938 -0.3089  0.7215
 3514SOL    HW122004   4.569   1.573   2.114 -1.2066 -0.5029  0.9229
 3514SOL    HW222005   4.678   1.545   2.194  0.1027 -0.4555 -0.2668
 3515SOL     OW22006   0.730   0.133   2.999 -0.1852 -0.4355 -0.3391
 3515SOL    HW122007   0.808   0.175   2.961 -1.3878 -1.3516 -3.8479
 3515SOL    HW222008   0.746   0.039   3.007  0.1504 -0.2847  0.7594
 3516SOL     OW22009   3.097   4.365   7.730 -0.2355 -0.1064 -0.5884
 3516SOL    HW122010   3.103   4.342   7.637 -0.3281 -1.5912 -0.2107
 3516SOL    HW222011   3.075   4.282   7.771 -0.9311  0.0745 -0.5908
 3517SOL     OW22012   2.489   0.327   6.879  0.0880  0.6123 -0.6574
 3517SOL    HW122013   2.513   0.313   6.787 -1.1544 -0.0992 -0.8855
 3517SOL    HW222014   2.417   0.390   6.881 -0.5205 -0.0960 -0.1644
 3518SOL     OW22015   2.086   2.478   7.349 -0.1085  0.2072 -0.0559
 3518SOL    HW122016   2.149   2.465   7.278  1.7789 -0.3616  1.7264
 3518SOL    HW222017   2.081   2.573   7.354 -0.0082  0.0980  2.0855
 3519SOL     OW22018   4.621   3.478  17.469  0.4219  0.3184 -0.4275
 3519SOL    HW122019   4.698   3.431  17.500  0.4603  0.1213 -0.8159
 3519SOL    HW222020   4.592   3.517  17.551  0.6573 -1.4097  0.4773
 3520SOL     OW22021   3.847   2.346  10.495  0.1176 -0.6801 -0.4662
 3520SOL    HW122022   3.878   2.436  10.484  1.8242 -1.3277 -0.8855
 3520SOL    HW222023   3.800   2.359  10.578 -1.1140 -3.2600 -0.7610
 3521SOL     OW22024   2.702   2.602  17.474 -0.6929  0.2016  0.3502
 3521SOL    HW122025   2.689   2.508  17.484 -0.3713  0.1980  0.7081
 3521SOL    HW222026   2.767   2.599  17.404 -3.5517 -0.0056 -2.3268
 3522SOL     OW22027   0.122   0.253   7.092  0.0132 -0.0697  0.1744
 3522SOL    HW122028   0.040   0.288   7.056  0.7473  1.6597  0.1661
 3522SOL    HW222029   0.181   0.282   7.022  0.0289 -0.0488  0.1965
 3523SOL     OW22030   3.071   2.530   6.932 -0.2640  0.5102 -0.0980
 3523SOL    HW122031   3.015   2.495   7.001 -1.3247  0.7030 -0.8626
 3523SOL    HW222032   3.145   2.472   6.944 -1.7020 -0.7559  2.6442
 3524SOL     OW22033   0.691   2.694  10.758 -0.6588 -0.5572 -0.1658
 3524SOL    HW122034   0.679   2.665  10.668  1.8027  2.1544 -1.3805
 3524SOL    HW222035   0.598   2.690  10.778 -0.1100  0.5789  2.6959
 3525SOL     OW22036   2.680   2.396  16.722 -0.1936 -0.2047  0.4387
 3525SOL    HW122037   2.618   2.450  16.770 -0.5643  0.0846 -0.3682
 3525SOL    HW222038   2.622   2.321  16.713  0.1744 -0.5108  0.5782
 3526SOL     OW22039   2.550   3.784   9.052 -0.1197  0.3922  0.1504
 3526SOL    HW122040   2.624   3.843   9.062 -0.0754  0.2209  0.8121
 3526SOL    HW222041   2.482   3.840   9.090  0.6423 -0.2537  2.4573
 3527SOL     OW22042   4.377   1.453   8.989 -0.2408 -0.2863 -0.0591
 3527SOL    HW122043   4.417   1.414   8.911  1.8342  2.0712 -0.2017
 3527SOL    HW222044   4.449   1.502   9.030 -1.3237 -0.4192  1.9884
 3528SOL     OW22045   0.619   1.823   5.771  0.5697 -0.3494  0.9541
 3528SOL    HW122046   0.559   1.803   5.843 -3.8147  0.0412 -2.6558
 3528SOL    HW222047   0.559   1.822   5.697  1.4626  0.2007  0.2192
 3529SOL     OW22048   0.322   2.651   2.670  0.2803  0.0920 -0.0712
 3529SOL    HW122049   0.324   2.682   2.579  0.2130 -0.0960 -0.1358
 3529SOL    HW222050   0.290   2.733   2.709 -2.3417 -1.0984  0.2855
 3530SOL     OW22051   1.092   4.639  10.258 -0.2271  0.0839 -0.1452
 3530SOL    HW122052   1.157   4.662  10.324 -0.5739 -0.5479  0.4113
 3530SOL    HW222053   1.006   4.666  10.292  0.4439  2.5324 -0.3888
 3531SOL     OW22054   1.739   0.278   6.802  0.8366 -0.1761 -0.2954
 3531SOL    HW122055   1.832   0.297   6.806 -0.0965  3.8213  2.6153
 3531SOL    HW222056   1.697   0.345   6.748 -0.2460 -1.0407 -0.5421
 3532SOL     OW22057   0.918   4.317   7.172  0.2437  0.0237 -0.5467
 3532SOL    HW122058   0.861   4.349   7.102 -0.4632  1.8178  0.8552
 3532SOL    HW222059   1.004   4.324   7.131 -0.4875 -2.8408 -2.6052
 3533SOL     OW22060   3.313   3.646   4.394 -0.3530  0.1812 -0.5001
 3533SOL    HW122061   3.228   3.610   4.370 -0.3504  0.0815 -0.3625
 3533SOL    HW222062   3.299   3.634   4.488 -1.9544 -0.0197 -0.7668
 3534SOL     OW22063   3.079   1.055   7.300 -0.0055 -0.5129  0.3292
 3534SOL    HW122064   3.021   1.064   7.224  0.4572 -2.1599 -0.2126
 3534SOL    HW222065   3.144   1.125   7.292  1.4133 -2.1235 -2.3686
 3535SOL     OW22066   0.892   2.213   8.675 -0.1507 -0.0377  0.5535
 3535SOL    HW122067   0.938   2.281   8.725 -0.9216 -0.3190  1.6665
 3535SOL    HW222068   0.906   2.148   8.744  1.4918 -1.1365 -0.8297
 3536SOL     OW22069   1.428   1.483  14.071 -0.4504  0.4426  0.6608
 3536SOL    HW122070   1.412   1.438  13.988 -0.3137 -0.4847  1.1383
 3536SOL    HW222071   1.523   1.472  14.069 -0.3020  1.7009  0.4348
 3537SOL     OW22072   0.753   0.416   6.404 -0.0492  0.0302  0.3640
 3537SOL    HW122073   0.776   0.452   6.489 -2.6083  1.9639  0.2255
 3537SOL    HW222074   0.688   0.348   6.424  0.0718 -0.3467 -0.5067
 3538SOL     OW22075   1.125   1.404   4.951  0.1450  0.4692  0.6801
 3538SOL    HW122076   1.055   1.393   5.015  1.3926  0.3994  2.0365
 3538SOL    HW222077   1.175   1.330   4.983  0.2056  0.4854  0.6229
 3539SOL     OW22078   2.778   4.508   1.205  0.1180  0.5850 -0.0937
 3539SOL    HW122079   2.806   4.590   1.166  1.2063 -0.2601 -1.0772
 3539SOL    HW222080   2.854   4.450   1.197  0.7607  1.2289  1.5387
 3540SOL     OW22081   3.300   4.042   0.108  0.0187 -0.7218 -0.6226
 3540SOL    HW122082   3.360   4.042   0.033  1.4525  0.7882  0.5239
 3540SOL    HW222083   3.355   4.108   0.150 -1.1961 -0.2379  0.1993
 3541SOL     OW22084   2.574   0.442   9.368 -0.6061 -0.1986  0.0143
 3541SOL    HW122085   2.614   0.462   9.453  0.1432 -1.2865 -0.0763
 3541SOL    HW222086   2.517   0.369   9.395 -1.4011  0.1392 -0.7490
 3542SOL     OW22087   0.946   4.196   3.963  0.3682 -0.1286 -0.4406
 3542SOL    HW122088   0.868   4.247   3.941 -0.4862 -1.2435  0.0264
 3542SOL    HW222089   1.007   4.270   3.967  1.0229 -0.6780 -0.1940
 3543SOL     OW22090   2.721   1.748  14.953 -0.6885  0.1015  0.1503
 3543SOL    HW122091   2.755   1.658  14.957 -2.0455 -0.5528 -3.1761
 3543SOL    HW222092   2.734   1.778  15.043 -0.4245 -2.3564  0.9255
 3544SOL     OW22093   3.344   1.106   2.974 -0.4972  0.7719 -0.1141
 3544SOL    HW122094   3.327   1.084   3.065 -2.3490  2.5885 -0.0280
 3544SOL    HW222095   3.354   1.018   2.937 -0.3385  1.2417 -1.1989
 3545SOL     OW22096   3.359   3.257  12.262  0.1366  0.1148 -0.6722
 3545SOL    HW122097   3.289   3.201  12.227 -0.7182  2.2033 -2.3382
 3545SOL    HW222098   3.418   3.192  12.299 -0.4210  1.3244  2.2832
 3546SOL     OW22099   3.129   2.177   1.975 -0.3019 -0.2379  0.0143
 3546SOL    HW122100   3.063   2.226   2.025 -0.8416  0.0080 -0.9434
 3546SOL    HW222101   3.209   2.227   1.989 -0.2119  0.0377 -1.5623
 3547SOL     OW22102   1.703   4.166  10.225 -0.2312  0.3728 -0.5244
 3547SOL    HW122103   1.714   4.097  10.291  0.2899  0.7007 -0.2665
 3547SOL    HW222104   1.774   4.141  10.166 -0.4612  1.2610 -1.1764
 3548SOL     OW22105   2.474   2.822  15.853  0.0798  0.4647  0.3416
 3548SOL    HW122106   2.457   2.903  15.806  0.8052 -0.3275 -1.2938
 3548SOL    HW222107   2.476   2.764  15.776 -0.0393  1.0729 -0.1190
 3549SOL     OW22108   4.315   2.189   5.498  0.0314 -0.3495  0.4078
 3549SOL    HW122109   4.255   2.182   5.573 -0.3004 -0.0243  0.1762
 3549SOL    HW222110   4.329   2.283   5.485 -0.3580 -0.3310  0.1236
 3550SOL     OW22111   0.469   1.381   6.709  0.1316  0.5479 -0.3952
 3550SOL    HW122112   0.454   1.304   6.764  0.3506  0.6142 -0.2440
 3550SOL    HW222113   0.525   1.342   6.642  0.9014  3.2168 -1.2989
 3551SOL     OW22114   3.744   2.112   7.956  0.3133 -0.2766  0.6903
 3551SOL    HW122115   3.823   2.112   8.011  0.6748 -0.0080  0.1740
 3551SOL    HW222116   3.682   2.136   8.025 -0.3495 -1.3221  0.4487
 3552SOL     OW22117   3.627   3.782   8.418  0.1139 -0.0803 -0.7999
 3552SOL    HW122118   3.699   3.833   8.454 -0.9532  0.9391 -0.1239
 3552SOL    HW222119   3.646   3.695   8.453 -0.0722 -0.5480 -1.8617
 3553SOL     OW22120   0.380   2.575  17.453 -0.0833 -0.0378 -0.3834
 3553SOL    HW122121   0.414   2.531  17.531  1.0377 -1.0196 -1.4334
 3553SOL    HW222122   0.429   2.657  17.447 -0.6202  0.2957 -0.2769
 3554SOL     OW22123   2.149   1.259   1.844 -0.3840 -0.6518 -0.3707
 3554SOL    HW122124   2.184   1.338   1.886  1.1672 -1.6788  0.2428
 3554SOL    HW222125   2.062   1.288   1.815 -0.0248  0.5579 -0.2395
 3555SOL     OW22126   0.772   4.093   8.661  0.0758  0.1254 -0.4326
 3555SOL    HW122127   0.754   4.170   8.607 -1.1086 -0.8031 -1.3515
 3555SOL    HW222128   0.687   4.051   8.674  0.3075  0.1183  0.9874
 3556SOL     OW22129   1.800   1.642   9.899  1.0539 -0.4618 -0.6494
 3556SOL    HW122130   1.749   1.665   9.821 -0.9938 -0.0155  0.8226
 3556SOL    HW222131   1.805   1.728   9.941  2.2347  0.3322 -2.3913
 3557SOL     OW22132   0.536   0.110   2.207 -0.2053 -0.3061 -0.7000
 3557SOL    HW122133   0.580   0.142   2.128 -0.5777 -1.1723 -1.2680
 3557SOL    HW222134   0.479   0.041   2.173 -0.4192 -1.3025  1.7082
 3558SOL     OW22135   2.040   2.761   5.186  0.2141  0.6477 -0.1047
 3558SOL    HW122136   2.038   2.730   5.276 -0.3219  3.5167  0.8915
 3558SOL    HW222137   1.950   2.787   5.167 -0.0570  0.9201  1.5229
 3559SOL     OW22138   1.408   4.403   5.960  0.2794 -0.4499  0.3011
 3559SOL    HW122139   1.476   4.434   6.020  2.1373 -1.5359 -1.2545
 3559SOL    HW222140   1.442   4.443   5.879  0.3716  0.9878  1.0479
 3560SOL     OW22141   4.625   0.245  15.779 -0.4539 -0.4568  0.3283
 3560SOL    HW122142   4.641   0.153  15.759  0.9816  0.0487 -0.8107
 3560SOL    HW222143   4.702   0.283  15.736 -1.7588 -0.4605 -2.0222
 3561SOL     OW22144   2.182   0.624   2.327  0.2330 -0.0905 -0.4510
 3561SOL    HW122145   2.155   0.618   2.235  2.8574 -1.7624 -1.1099
 3561SOL    HW222146   2.147   0.538   2.349 -1.3130  0.7957  0.5508
 3562SOL     OW22147   3.087   3.523   6.734 -0.0768  0.8402  0.2422
 3562SOL    HW122148   3.071   3.553   6.824 -0.8323 -0.2737  0.4829
 3562SOL    HW222149   3.019   3.564   6.680 -1.2462 -4.7891 -2.4697
 3563SOL     OW22150   0.453   3.936  13.881  0.1618 -0.3451 -0.0541
 3563SOL    HW122151   0.455   4.021  13.837  1.0348  0.0229  0.7058
 3563SOL    HW222152   0.514   3.895  13.819 -1.0474 -0.7547 -0.9874
 3564SOL     OW22153   3.291   1.591  15.416  0.2832  0.2866  0.2384
 3564SOL    HW122154   3.255   1.645  15.485 -0.5234 -0.8472  0.7106
 3564SOL    HW222155   3.356   1.541  15.465 -0.4348 -0.8580  0.0372
 3565SOL     OW22156   2.797   2.606   1.592  0.2332 -0.0346  0.1878
 3565SOL    HW122157   2.841   2.541   1.646 -0.8183 -1.2523 -0.4310
 3565SOL    HW222158   2.868   2.636   1.535  0.8191 -0.6269  0.6037
 3566SOL     OW22159   1.300   0.920  12.419 -0.2737  0.5575  0.2072
 3566SOL    HW122160   1.217   0.885  12.451 -0.1318 -0.0258 -0.0810
 3566SOL    HW222161   1.359   0.861  12.465  0.1531  0.7377 -0.1146
 3567SOL     OW22162   1.428   3.062   6.537 -0.5080 -0.1828 -0.7330
 3567SOL    HW122163   1.382   2.988   6.575 -1.6338  0.1572 -1.4270
 3567SOL    HW222164   1.400   3.071   6.446  0.4108 -0.0321 -1.0053
 3568SOL     OW22165   1.515   3.849  12.405  0.2995  0.2332 -0.0555
 3568SOL    HW122166   1.512   3.883  12.494  1.3377  0.4449 -0.1036
 3568SOL    HW222167   1.487   3.926  12.356  0.9103 -0.3793 -1.3628
 3569SOL     OW22168   2.103   4.570   2.267  0.0812  0.1303  0.1637
 3569SOL    HW122169   2.125   4.512   2.194 -0.5718  0.4367 -0.2763
 3569SOL    HW222170   2.131   4.651   2.225 -1.4802  0.5918  0.0058
 3570SOL     OW22171   2.989   0.585  11.154 -0.0256 -0.0187  0.1421
 3570SOL    HW122172   2.995   0.680  11.162 -1.1010  0.1473 -0.9323
 3570SOL    HW222173   2.959   0.572  11.244  0.1616  0.5746  0.2867
 3571SOL     OW22174   1.579   3.485  16.544  0.6025 -0.9228 -0.4963
 3571SOL    HW122175   1.527   3.566  16.540 -0.0789 -1.2741  1.3376
 3571SOL    HW222176   1.663   3.516  16.510  0.2297  0.4040 -0.2292
 3572SOL     OW22177   3.618   2.551  14.664 -0.1678 -0.2457 -0.1677
 3572SOL    HW122178   3.658   2.604  14.595  2.2839 -0.5471  1.0278
 3572SOL    HW222179   3.680   2.577  14.732  0.9211  1.0196 -1.6565
 3573SOL     OW22180   2.821   3.425  17.273 -0.5329  0.6025 -0.1091
 3573SOL    HW122181   2.732   3.400  17.250  0.2464 -2.5117  0.2572
 3573SOL    HW222182   2.830   3.377  17.356 -0.8654 -2.1907 -1.7047
 3574SOL     OW22183   3.117   4.113   1.229  0.1246 -0.1655 -0.2878
 3574SOL    HW122184   3.139   4.058   1.154  0.2853  0.0358 -0.3908
 3574SOL    HW222185   3.054   4.060   1.276  1.1068 -0.2196  0.9495
 3575SOL     OW22186   1.498   1.373   8.756 -0.3650  0.1608  0.1642
 3575SOL    HW122187   1.468   1.462   8.742 -2.5398 -0.3805  1.3906
 3575SOL    HW222188   1.417   1.326   8.733 -1.2564  1.5000  0.5388
 3576SOL     OW22189   2.765   3.924   9.816 -0.7183  0.1993  0.2220
 3576SOL    HW122190   2.698   3.865   9.783 -0.5413 -0.0851  0.3754
 3576SOL    HW222191   2.733   4.009   9.785  0.8821  1.1141  1.1042
 3577SOL     OW22192   2.424   0.667   6.338 -0.5256  0.0503  0.0954
 3577SOL    HW122193   2.332   0.659   6.363 -0.1086 -0.9713  1.2920
 3577SOL    HW222194   2.415   0.711   6.254 -2.0827  1.4003  0.9643
 3578SOL     OW22195   0.350   3.067   7.445  0.1249  0.1829  0.1498
 3578SOL    HW122196   0.352   3.162   7.451  0.6309  0.2246 -0.7305
 3578SOL    HW222197   0.257   3.055   7.425 -0.0947  1.1264  0.5986
 3579SOL     OW22198   2.517   1.805  14.560  0.5984 -0.0064 -0.0191
 3579SOL    HW122199   2.485   1.772  14.644 -2.6820  0.3955 -1.0956
 3579SOL    HW222200   2.601   1.841  14.587  1.2066 -1.1272 -0.4317
 3580SOL     OW22201   3.752   0.542  16.546  0.3050 -0.9862  0.1674
 3580SOL    HW122202   3.772   0.544  16.639  1.2351  1.1752 -0.0811
 3580SOL    HW222203   3.657   0.540  16.543  0.2130  1.3749  1.9988
 3581SOL     OW22204   2.744   1.220   4.942  0.0183  0.5694 -0.2871
 3581SOL    HW122205   2.667   1.192   4.892  0.8446  1.7462 -2.1851
 3581SOL    HW222206   2.809   1.151   4.942  0.0713  0.6203  1.7334
 3582SOL     OW22207   0.370   0.926   2.204 -0.2927 -0.0083  0.2589
 3582SOL    HW122208   0.405   0.859   2.263 -0.2597  0.1745  0.4453
 3582SOL    HW222209   0.446   0.923   2.145 -1.3665  0.0193 -1.1191
 3583SOL     OW22210   1.108   3.511   5.506  0.3575  0.2506  0.0905
 3583SOL    HW122211   1.023   3.478   5.476 -0.1046  1.2860  0.2501
 3583SOL    HW222212   1.116   3.596   5.463  0.0222  0.1022 -0.2650
 3584SOL     OW22213   3.513   2.295   2.790 -0.2811  0.1973 -0.1633
 3584SOL    HW122214   3.534   2.253   2.706  2.4614  0.6470  0.3039
 3584SOL    HW222215   3.581   2.259   2.847  0.3436  0.1346 -0.9507
 3585SOL     OW22216   2.883   2.872  17.446 -0.4651 -0.4951  0.4007
 3585SOL    HW122217   2.974   2.884  17.418 -0.9595  0.7924 -0.6234
 3585SOL    HW222218   2.853   2.836  17.362  0.4322 -0.2832 -0.0111
 3586SOL     OW22219   1.419   3.587  10.067  0.3868  0.2707  0.3258
 3586SOL    HW122220   1.485   3.655  10.073  1.0119 -0.1439 -1.8575
 3586SOL    HW222221   1.433   3.531  10.143  0.0661  0.4323  0.5033
 3587SOL     OW22222   1.654   1.342   9.098 -0.2324  0.3541  0.6268
 3587SOL    HW122223   1.664   1.289   9.019 -0.4475  1.2701 -0.0076
 3587SOL    HW222224   1.744   1.375   9.096 -0.3638  0.7324  0.9182
 3588SOL     OW22225   4.112   4.267   6.264 -0.2015  0.0965 -0.3459
 3588SOL    HW122226   4.148   4.325   6.331 -0.8762  0.4793 -0.3113
 3588SOL    HW222227   4.047   4.327   6.226  1.8343  0.6970 -2.9167
 3589SOL     OW22228   0.732   2.498  13.563 -0.1132  0.3938  0.1410
 3589SOL    HW122229   0.820   2.484  13.529  0.5829  0.6367  1.8430
 3589SOL    HW222230   0.691   2.562  13.505 -1.7845 -0.1856  0.6765
 3590SOL     OW22231   2.850   4.680  12.113  0.3084 -0.3840  0.1005
 3590SOL    HW122232   2.854   0.038  12.062 -2.2460 -1.5692 -1.9636
 3590SOL    HW222233   2.945   4.669  12.126  0.7912  1.7583 -1.6015
 3591SOL     OW22234   3.221   0.536   2.475  0.7387 -0.2820 -0.8097
 3591SOL    HW122235   3.222   0.631   2.483  0.8112 -0.3525  0.0011
 3591SOL    HW222236   3.223   0.506   2.566  1.1518  0.3713 -0.6041
 3592SOL     OW22237   2.290   4.505   1.425  0.3857 -0.2932  0.0339
 3592SOL    HW122238   2.296   4.446   1.500  1.8136 -0.8721 -0.5346
 3592SOL    HW222239   2.305   4.447   1.350  0.3041  1.2322 -1.1644
 3593SOL     OW22240   1.030   1.079  10.666  0.4988 -0.2497 -0.2622
 3593SOL    HW122241   1.070   1.016  10.726 -0.8080 -0.4821  0.3613
 3593SOL    HW222242   0.943   1.086  10.705  0.5807  0.9796 -0.3178
 3594SOL     OW22243   0.493   2.948  15.988  0.0271  0.4536 -0.1531
 3594SOL    HW122244   0.485   2.951  15.892  1.2378  1.9037 -0.2083
 3594SOL    HW222245   0.500   3.041  16.010  0.1381  0.2285  0.7571
 3595SOL     OW22246   1.968   0.826   0.755  0.0166  0.1623 -0.2138
 3595SOL    HW122247   2.018   0.757   0.713  0.6024  1.1130 -1.0802
 3595SOL    HW222248   2.021   0.848   0.831  0.0957  1.4758 -0.6504
 3596SOL     OW22249   3.144   2.335   9.663  0.2177 -0.5757  0.1960
 3596SOL    HW122250   3.079   2.391   9.621  1.5791  1.6831  1.0803
 3596SOL    HW222251   3.111   2.249   9.639 -0.3934 -0.8865  2.1988
 3597SOL     OW22252   4.327   3.586   2.377  0.4521  0.1155  0.1938
 3597SOL    HW122253   4.392   3.646   2.341  0.5860 -1.5773 -2.3972
 3597SOL    HW222254   4.291   3.644   2.444 -1.6726 -1.0061  0.0281
 3598SOL     OW22255   0.265   1.229   3.280  0.1789  0.1516  0.2381
 3598SOL    HW122256   0.200   1.159   3.291  0.2017  0.1113  0.1184
 3598SOL    HW222257   0.230   1.281   3.207 -0.1614 -3.9277 -2.4850
 3599SOL     OW22258   0.939   1.547  13.409 -0.4809 -0.0693 -0.1391
 3599SOL    HW122259   1.033   1.553  13.397 -0.3693 -0.9712  0.2371
 3599SOL    HW222260   0.917   1.521  13.319  3.0625  0.4650 -1.1335
 3600SOL     OW22261   2.341   3.593   3.608 -0.0663 -0.1721 -0.0149
 3600SOL    HW122262   2.282   3.553   3.672 -0.3980  0.9367  0.3664
 3600SOL    HW222263   2.405   3.522   3.601  0.8586  0.6130  0.4717
 3601SOL     OW22264   2.849   1.605   5.907 -0.0404  0.4045  0.1175
 3601SOL    HW122265   2.934   1.634   5.873 -0.1965 -2.0788 -2.4309
 3601SOL    HW222266   2.870   1.517   5.936 -3.0465 -0.6754 -0.9459
 3602SOL     OW22267   1.843   2.757   8.077 -0.2368  0.4432 -0.3825
 3602SOL    HW122268   1.828   2.825   8.143  2.0743  1.1548 -0.6057
 3602SOL    HW222269   1.898   2.804   8.015 -0.3780 -0.7072 -1.3663
 3603SOL     OW22270   1.244   2.037   4.990  0.0983 -0.3214 -0.8554
 3603SOL    HW122271   1.304   2.081   4.929 -0.7805  1.8817 -0.1379
 3603SOL    HW222272   1.283   1.951   5.005  1.4757  0.2251 -1.3230
 3604SOL     OW22273   2.844   0.649   8.161 -0.1434  0.4337  0.0985
 3604SOL    HW122274   2.911   0.622   8.097  0.5730  0.4446  0.8451
 3604SOL    HW222275   2.886   0.682   8.240  2.0607  2.2056 -1.8057
 3605SOL     OW22276   0.252   2.689   7.797 -0.3750 -0.1840 -0.1310
 3605SOL    HW122277   0.330   2.633   7.796  0.4684  0.9711  0.6175
 3605SOL    HW222278   0.264   2.731   7.712  0.2860  0.5673  0.3226
 3606SOL     OW22279   0.360   2.112   2.232 -0.1043  0.1173  0.4886
 3606SOL    HW122280   0.279   2.160   2.212  0.5346  1.8831  2.1830
 3606SOL    HW222281   0.378   2.148   2.319 -0.1633 -0.9743  0.9462
 3607SOL     OW22282   0.322   1.588   5.493  0.9699  0.1466  0.5686
 3607SOL    HW122283   0.290   1.547   5.573 -0.9250 -1.0250 -0.7697
 3607SOL    HW222284   0.296   1.524   5.427  2.0967  0.4165 -0.1371
 3608SOL     OW22285   3.031   0.495  12.073 -0.7363  0.4304 -0.0814
 3608SOL    HW122286   3.104   0.548  12.103 -0.5165  0.6022 -0.9330
 3608SOL    HW222287   2.988   0.557  12.014  0.5832  1.6644  0.2678
 3609SOL     OW22288   1.183   1.839   5.367  0.0195  1.1192  0.3507
 3609SOL    HW122289   1.120   1.800   5.427  0.4940 -0.1086  0.0447
 3609SOL    HW222290   1.178   1.934   5.378  1.3516  1.1827  0.5166
 3610SOL     OW22291   3.285   2.661  17.349 -0.0930  0.1329 -0.1721
 3610SOL    HW122292   3.295   2.663  17.254 -1.4991  1.0142 -0.3065
 3610SOL    HW222293   3.376   2.668  17.377  0.0599 -1.5521 -0.2947
 3611SOL     OW22294   2.692   0.269  13.733 -0.0876  0.4582 -0.1275
 3611SOL    HW122295   2.731   0.182  13.736  2.2636  1.4461 -1.1625
 3611SOL    HW222296   2.605   0.254  13.769 -0.0029  0.9154  0.2728
 3612SOL     OW22297   1.723   2.551   2.636 -0.3911 -0.5220 -0.3149
 3612SOL    HW122298   1.778   2.536   2.712 -2.6269  0.1467  1.4106
 3612SOL    HW222299   1.640   2.580   2.672  0.3447  0.7678  0.3516
 3613SOL     OW22300   0.022   4.285  11.323  0.1996 -0.0619 -0.1623
 3613SOL    HW122301   0.109   4.310  11.355  0.0238  0.6465 -0.2265
 3613SOL    HW222302   4.706   4.366  11.291  2.2808  0.8955 -0.2605
 3614SOL     OW22303   2.694   3.937   3.553 -0.2962  0.3586 -0.0676
 3614SOL    HW122304   2.679   3.845   3.530  1.0730  0.3895 -1.1574
 3614SOL    HW222305   2.607   3.948   3.590 -0.5356 -2.7648  0.3054
 3615SOL     OW22306   1.997   3.257   7.831 -0.0317  0.0018  0.0694
 3615SOL    HW122307   1.912   3.293   7.806 -1.3927 -2.3683  1.2380
 3615SOL    HW222308   2.046   3.265   7.750 -1.2984 -0.2571 -0.7165
 3616SOL     OW22309   1.702   0.978  16.275  0.3559 -0.0918 -0.1224
 3616SOL    HW122310   1.688   0.884  16.286  1.7282 -0.5129 -1.8180
 3616SOL    HW222311   1.675   1.002  16.363  1.5140 -1.9739  0.7425
 3617SOL     OW22312   1.217   4.141   0.973  0.1922  0.2746 -0.0246
 3617SOL    HW122313   1.213   4.069   1.036 -1.5990 -0.6128 -1.1378
 3617SOL    HW222314   1.308   4.129   0.945 -0.0958 -0.3395 -0.6918
 3618SOL     OW22315   4.312   0.336   3.988  0.1577  0.1539  0.2409
 3618SOL    HW122316   4.299   0.352   3.895 -1.5187  1.2064  0.6489
 3618SOL    HW222317   4.385   0.275   3.985  0.4236  0.3967  1.4996
 3619SOL     OW22318   4.085   0.683   3.884 -0.6775 -0.1097  0.2642
 3619SOL    HW122319   4.137   0.731   3.949 -0.8208 -0.1497  0.4076
 3619SOL    HW222320   4.128   0.598   3.887 -0.8527 -0.2277 -0.4921
 3620SOL     OW22321   2.053   3.519   4.228 -0.0127  0.2839 -0.2278
 3620SOL    HW122322   2.132   3.504   4.279  0.6404  0.0319 -1.3193
 3620SOL    HW222323   2.005   3.582   4.282 -1.5946  0.1256 -1.4155
 3621SOL     OW22324   4.074   3.737  14.206 -0.3947  0.2024 -0.2215
 3621SOL    HW122325   4.079   3.725  14.111  1.6133  0.3120 -0.1303
 3621SOL    HW222326   4.032   3.823  14.218  3.0623  1.6257  1.5998
 3622SOL     OW22327   1.378   0.460   9.523 -0.1718  0.4180 -0.0957
 3622SOL    HW122328   1.375   0.371   9.556 -1.2224 -0.1351 -1.6975
 3622SOL    HW222329   1.473   0.468   9.515  0.1867 -0.2249  3.7055
 3623SOL     OW22330   4.457   0.298  12.394  0.2840 -0.3299 -0.1410
 3623SOL    HW122331   4.428   0.376  12.346  0.3828 -0.5292 -0.5171
 3623SOL    HW222332   4.378   0.244  12.387 -0.4836  0.5828  1.3273
 3624SOL     OW22333   2.415   2.052   3.582  0.3520  0.2595  0.4003
 3624SOL    HW122334   2.498   2.010   3.559 -0.0969 -0.8724  0.8317
 3624SOL    HW222335   2.434   2.142   3.558  1.5876 -0.1979 -0.3086
 3625SOL     OW22336   2.369   0.298   5.111  0.0068  0.2587  0.5160
 3625SOL    HW122337   2.420   0.242   5.170 -1.8705 -2.8931 -0.8634
 3625SOL    HW222338   2.410   0.384   5.122  0.5347 -0.0406  0.8926
 3626SOL     OW22339   2.070   1.643   2.122 -0.3088  0.0875  0.3131
 3626SOL    HW122340   2.096   1.643   2.030  1.5238 -0.6117  0.8393
 3626SOL    HW222341   2.089   1.556   2.158  1.9769 -0.0097 -1.1754
 3627SOL     OW22342   2.288   3.157   8.817  0.0048  0.9218  0.8697
 3627SOL    HW122343   2.288   3.245   8.779 -0.4938  1.3183  1.7988
 3627SOL    HW222344   2.312   3.107   8.739  1.2325  1.5856  0.8176
 3628SOL     OW22345   4.241   1.955   5.936 -0.2209  0.0472 -0.4641
 3628SOL    HW122346   4.259   1.862   5.923 -0.4143 -0.1927  1.0596
 3628SOL    HW222347   4.173   1.956   6.004 -0.9477 -0.5594 -1.1785
 3629SOL     OW22348   3.531   0.153  14.996 -0.6941 -0.5553  0.3807
 3629SOL    HW122349   3.448   0.131  15.039 -1.6279  2.1477 -0.0101
 3629SOL    HW222350   3.597   0.110  15.052  0.4593  0.3578 -0.2742
 3630SOL     OW22351   2.727   0.951  15.702 -0.2345 -0.2174 -0.0564
 3630SOL    HW122352   2.639   0.912  15.705  0.3387 -1.2788  3.0639
 3630SOL    HW222353   2.743   0.955  15.607  0.0964  0.2589  0.0208
 3631SOL     OW22354   1.306   3.964   1.653 -0.5314 -0.4805  0.2120
 3631SOL    HW122355   1.308   3.886   1.598 -0.8470 -0.1762 -0.2289
 3631SOL    HW222356   1.389   4.006   1.629 -0.0243 -1.8495 -0.4380
 3632SOL     OW22357   3.755   2.044   7.403  0.1424 -0.3401  0.4443
 3632SOL    HW122358   3.810   2.055   7.325 -1.4565  0.8171 -0.4925
 3632SOL    HW222359   3.779   2.127   7.444 -0.2449 -0.0041 -0.0142
 3633SOL     OW22360   1.573   0.910  12.967 -0.1103 -0.0538 -0.3289
 3633SOL    HW122361   1.626   0.982  12.934  1.6661 -0.5386  1.4889
 3633SOL    HW222362   1.495   0.914  12.912 -0.9437  1.5039  0.9652
 3634SOL     OW22363   2.163   4.376  10.468 -0.6246 -0.2809  0.3261
 3634SOL    HW122364   2.169   4.289  10.507 -3.3817 -0.6418 -0.0023
 3634SOL    HW222365   2.190   4.429  10.543 -0.5966 -0.9636  0.7940
 3635SOL     OW22366   2.971   2.816  12.537  0.6098 -0.0487 -0.1505
 3635SOL    HW122367   2.964   2.734  12.584 -0.1250  1.0003  1.5668
 3635SOL    HW222368   2.925   2.878  12.593 -1.7461 -2.6870  0.7928
 3636SOL     OW22369   2.928   1.718  13.777 -0.1616 -0.3807 -0.2943
 3636SOL    HW122370   2.950   1.686  13.865 -0.7487  0.7895  0.2740
 3636SOL    HW222371   2.855   1.662  13.752 -0.8631  1.1358 -1.6170
 3637SOL     OW22372   0.486   2.501   9.229 -0.0747 -0.6635  0.5506
 3637SOL    HW122373   0.533   2.582   9.249  2.8644 -1.9090 -1.2055
 3637SOL    HW222374   0.532   2.478   9.148  0.0168 -2.9303  1.2578
 3638SOL     OW22375   4.261   1.147   8.139 -0.2004  0.0542  0.1215
 3638SOL    HW122376   4.271   1.209   8.067  0.5380 -2.1857 -1.6813
 3638SOL    HW222377   4.185   1.181   8.186 -1.4963 -0.0797 -1.8802
 3639SOL     OW22378   0.079   3.509   7.371 -0.3579 -0.2252 -0.0737
 3639SOL    HW122379   0.110   3.547   7.453 -0.4698 -0.9335  0.2994
 3639SOL    HW222380   0.159   3.535   7.325 -0.7420  1.7324  0.3664
 3640SOL     OW22381   3.605   2.178   7.047 -0.0658  0.4046  0.1980
 3640SOL    HW122382   3.669   2.250   7.056  0.2827  0.2516 -1.1368
 3640SOL    HW222383   3.534   2.210   7.103 -0.0635  0.0365  0.4085
 3641SOL     OW22384   4.311   0.674   7.912  0.2771  0.4166  0.2520
 3641SOL    HW122385   4.318   0.696   8.005  0.5559  1.2693  0.0320
 3641SOL    HW222386   4.248   0.739   7.879  1.3350  0.7650 -1.0782
 3642SOL     OW22387   1.792   2.025   5.230 -0.3003 -0.3288 -0.4796
 3642SOL    HW122388   1.721   1.963   5.249  0.2557 -1.1807 -1.2005
 3642SOL    HW222389   1.781   2.083   5.305  1.9834 -1.1553  0.4731
 3643SOL     OW22390   4.050   3.618   4.330 -0.0668  0.2733 -0.0475
 3643SOL    HW122391   3.970   3.643   4.284 -0.2656 -0.7836 -0.2642
 3643SOL    HW222392   4.112   3.680   4.292 -0.1521  0.6124  0.3612
 3644SOL     OW22393   0.195   2.209   5.679 -0.1994  0.1193  0.1082
 3644SOL    HW122394   0.138   2.198   5.755 -1.1548  1.0466 -0.4752
 3644SOL    HW222395   0.177   2.300   5.655 -0.1472  0.3017  0.7638
 3645SOL     OW22396   0.984   0.232   5.502  0.4878 -0.3860  0.4583
 3645SOL    HW122397   0.895   0.198   5.514  0.3875 -0.3282 -0.1283
 3645SOL    HW222398   0.981   0.288   5.579 -1.2077 -0.3218  0.3511
 3646SOL     OW22399   4.409   0.104  13.790 -0.2922  0.4746  0.8097
 3646SOL    HW122400   4.377   0.189  13.821  0.8101  1.4739 -0.7991
 3646SOL    HW222401   4.331   0.060  13.759 -0.2976  1.5610 -0.7171
 3647SOL     OW22402   0.553   1.696  15.488 -0.0983 -0.5124  0.4256
 3647SOL    HW122403   0.566   1.682  15.394  1.3587 -1.0718  0.7184
 3647SOL    HW222404   0.457   1.695  15.483 -0.0786  1.1090 -0.5134
 3648SOL     OW22405   1.562   0.186   0.053 -0.3464  0.3365  0.1318
 3648SOL    HW122406   1.490   0.173  17.685 -1.6103  1.9531  1.2860
 3648SOL    HW222407   1.588   0.095   0.067  0.0590  0.6204  1.2125
 3649SOL     OW22408   1.883   1.205   4.601 -0.0235  0.4733 -0.3593
 3649SOL    HW122409   1.957   1.243   4.648 -0.4849  1.7073 -0.6512
 3649SOL    HW222410   1.930   1.127   4.569 -2.1455 -2.1791  2.9335
 3650SOL     OW22411   0.595   4.352   4.623  0.5046 -0.2904  0.5937
 3650SOL    HW122412   0.617   4.441   4.594 -0.0382 -0.6848 -1.0588
 3650SOL    HW222413   0.565   4.374   4.711 -0.7619  0.4528 -0.0260
 3651SOL     OW22414   0.048   0.730   6.028 -0.0911 -0.8010  0.6514
 3651SOL    HW122415   4.681   0.716   5.998  0.2467  1.2945 -1.3339
 3651SOL    HW222416   0.087   0.645   6.006  1.4591 -0.5880  2.5863
 3652SOL     OW22417   2.114   4.669   1.738 -0.1898  0.1011 -0.3564
 3652SOL    HW122418   2.085   4.711   1.657 -0.7481  2.7727  1.2365
 3652SOL    HW222419   2.191   4.720   1.763  0.0256  0.4798 -1.7860
 3653SOL     OW22420   2.563   4.342   1.069 -0.1790  0.3892 -0.6860
 3653SOL    HW122421   2.630   4.387   1.119 -1.9332  0.1979  1.8402
 3653SOL    HW222422   2.585   4.249   1.069 -1.8967 -0.0187  1.7135
 3654SOL     OW22423   4.047   1.209   9.865 -0.0996  0.7583  0.6954
 3654SOL    HW122424   4.048   1.291   9.815 -0.3937 -1.2484 -2.6329
 3654SOL    HW222425   4.128   1.212   9.916 -0.6205 -1.1895  1.6042
 3655SOL     OW22426   0.028   3.517  14.820 -0.2796  0.1666  0.1998
 3655SOL    HW122427   4.660   3.487  14.823  0.1005 -1.0659 -0.3720
 3655SOL    HW222428   0.023   3.595  14.875 -2.5307  0.5417 -0.5142
 3656SOL     OW22429   3.609   1.817   3.397  0.2681  0.1115 -0.3504
 3656SOL    HW122430   3.571   1.829   3.485 -0.2681 -1.2222 -0.3998
 3656SOL    HW222431   3.672   1.746   3.407  2.0380  2.0843  2.8641
 3657SOL     OW22432   2.807   4.617   7.270  0.0434  0.0501  0.5686
 3657SOL    HW122433   2.896   4.581   7.275  1.1033  2.2376 -2.0745
 3657SOL    HW222434   2.801   4.688   7.333 -0.2422  0.2903  0.2713
 3658SOL     OW22435   4.180   0.466  15.065 -0.0473  0.0411  0.0735
 3658SOL    HW122436   4.213   0.471  15.155  1.2870  0.2574 -0.4201
 3658SOL    HW222437   4.096   0.423  15.080  1.2737 -2.8753 -0.9525
 3659SOL     OW22438   3.560   4.344   9.961 -0.4705 -0.6743 -0.3504
 3659SOL    HW122439   3.636   4.338   9.903  0.8771  1.7214  1.1658
 3659SOL    HW222440   3.513   4.409   9.908  1.6322  0.2804 -1.0585
 3660SOL     OW22441   1.216   1.871  16.992  0.2943  0.3380 -0.2341
 3660SOL    HW122442   1.128   1.898  16.965  0.5066  0.1093 -1.1513
 3660SOL    HW222443   1.236   1.798  16.934 -1.3759  0.8622 -1.4502
 3661SOL     OW22444   4.286   3.293  13.894  0.2920 -0.5736 -0.1777
 3661SOL    HW122445   4.349   3.365  13.895 -0.3984  0.0152  0.3774
 3661SOL    HW222446   4.206   3.342  13.913  0.2608 -0.5362 -0.4055
 3662SOL     OW22447   1.409   4.711   6.231 -0.4415  0.1100 -0.4225
 3662SOL    HW122448   1.480   4.651   6.210  0.5523  0.4383  1.9339
 3662SOL    HW222449   1.449   0.049   6.293 -1.7052  0.6564 -0.1493
 3663SOL     OW22450   1.182   0.259  12.802  0.1599  0.5470  0.0127
 3663SOL    HW122451   1.197   0.172  12.764  1.4141 -0.0818  1.9194
 3663SOL    HW222452   1.217   0.313  12.732 -1.6571  0.5861 -0.8421
 3664SOL     OW22453   4.422   2.721   1.128  0.0999 -0.1973 -0.2977
 3664SOL    HW122454   4.431   2.680   1.042  0.4836 -3.1354  1.1778
 3664SOL    HW222455   4.487   2.668   1.173  2.8362  2.9621 -0.5004
 3665SOL     OW22456   2.247   0.393   7.000  0.2271 -0.4542  0.0364
 3665SOL    HW122457   2.243   0.361   7.090  1.6338 -1.0416 -0.1239
 3665SOL    HW222458   2.167   0.446   6.988  1.4152  1.3399  0.0512
 3666SOL     OW22459   3.399   4.691   3.918 -0.1568 -0.8003  0.0893
 3666SOL    HW122460   3.450   0.021   3.980 -1.6968  1.6186 -0.7214
 3666SOL    HW222461   3.333   0.031   3.888  1.9799  1.5087  0.1915
 3667SOL     OW22462   0.687   2.322   5.019  0.0772 -0.1357  0.0864
 3667SOL    HW122463   0.667   2.383   4.949 -0.4466  1.0634  1.2861
 3667SOL    HW222464   0.605   2.275   5.030  0.7849 -1.4425 -0.2146
 3668SOL     OW22465   0.696   1.972   7.513  0.2224  0.1131  0.3480
 3668SOL    HW122466   0.687   1.934   7.600 -1.3733 -1.1705 -0.3641
 3668SOL    HW222467   0.692   2.066   7.532 -0.0120  0.2579 -0.4081
 3669SOL     OW22468   4.026   2.226   4.721 -0.0507  0.5009  0.2315
 3669SOL    HW122469   4.065   2.258   4.640  0.0712 -0.6026 -0.1555
 3669SOL    HW222470   4.100   2.220   4.781 -1.6308 -0.0749  2.1266
 3670SOL     OW22471   0.178   2.534   3.704 -0.0825 -0.1567 -0.1831
 3670SOL    HW122472   0.182   2.587   3.624  0.1742 -2.9243 -2.0167
 3670SOL    HW222473   0.135   2.462   3.657  0.2337  0.8973 -2.1096
 3671SOL     OW22474   2.644   0.955   4.451 -0.4734 -0.1700  0.3364
 3671SOL    HW122475   2.711   1.008   4.407 -2.7684  2.8493  0.4831
 3671SOL    HW222476   2.687   0.871   4.433 -0.5040 -0.2979  0.8905
 3672SOL     OW22477   1.388   3.145   5.223 -0.2372  0.0009  0.4538
 3672SOL    HW122478   1.445   3.175   5.153  0.5495 -2.5536 -0.0011
 3672SOL    HW222479   1.446   3.102   5.287  0.8757  1.8927  0.7161
 3673SOL     OW22480   0.682   3.469  10.465 -0.7262  0.0477  0.3920
 3673SOL    HW122481   0.602   3.438  10.422  0.2300 -1.3395 -0.3557
 3673SOL    HW222482   0.702   3.558  10.435  1.7480 -0.3574  0.8291
 3674SOL     OW22483   1.301   2.072   4.054 -0.2481 -0.2074  0.0071
 3674SOL    HW122484   1.395   2.083   4.040 -0.1708  0.6111  1.1163
 3674SOL    HW222485   1.291   2.150   4.110  0.6032  0.4983 -0.8184
 3675SOL     OW22486   0.969   2.691   8.238  0.3786 -0.1054 -0.3968
 3675SOL    HW122487   0.891   2.744   8.256  1.7522  0.4802  3.7545
 3675SOL    HW222488   0.949   2.614   8.291 -0.7015  0.6319  0.2791
 3676SOL     OW22489   2.845   3.923  11.198  0.7702 -0.2842 -0.0169
 3676SOL    HW122490   2.896   3.949  11.275 -1.9255 -0.6180  1.8433
 3676SOL    HW222491   2.912   3.887  11.139  0.2846 -1.2300  0.0100
 3677SOL     OW22492   0.292   0.827   7.264 -0.3801  0.1784 -0.1608
 3677SOL    HW122493   0.233   0.797   7.333 -1.1407  2.4949  0.1961
 3677SOL    HW222494   0.370   0.774   7.279  1.0876  2.1478 -0.7879
 3678SOL     OW22495   4.586   4.013   1.733 -0.0454 -0.0016  0.7784
 3678SOL    HW122496   4.542   4.097   1.750 -0.3051 -0.3264  1.7380
 3678SOL    HW222497   4.643   4.033   1.659 -0.8483 -0.8194 -0.0508
 3679SOL     OW22498   1.106   1.970   7.223  0.0056 -0.7936  0.0925
 3679SOL    HW122499   1.179   2.027   7.246  1.4434 -3.0183  1.1035
 3679SOL    HW222500   1.151   1.885   7.223 -0.2122 -0.9083  0.1977
 3680SOL     OW22501   4.468   2.877   7.997 -0.3005  0.0903  0.0609
 3680SOL    HW122502   4.418   2.950   8.033  0.6102  0.2218  1.0398
 3680SOL    HW222503   4.559   2.907   8.001 -0.2227 -0.0540 -0.6252
 3681SOL     OW22504   1.557   0.122  16.460 -0.3266 -0.2887 -0.0188
 3681SOL    HW122505   1.499   0.118  16.384 -0.0891  1.9789 -0.3266
 3681SOL    HW222506   1.603   0.041  16.441 -0.4989 -0.0220 -1.5969
 3682SOL     OW22507   1.859   0.073  12.051 -0.4417 -0.1802  0.0357
 3682SOL    HW122508   1.890   0.068  12.141  0.1872  2.1622 -0.0402
 3682SOL    HW222509   1.835   0.165  12.044  2.9236  0.5062 -2.5465
 3683SOL     OW22510   4.238   0.214   3.488 -0.4547 -0.0751  0.0471
 3683SOL    HW122511   4.152   0.257   3.487 -0.5323 -0.2452 -0.3755
 3683SOL    HW222512   4.207   0.135   3.532  2.7813 -0.8587  0.9549
 3684SOL     OW22513   1.177   4.286   6.448  0.1551 -0.1647 -0.1325
 3684SOL    HW122514   1.155   4.304   6.539  0.0917 -0.2240 -0.1356
 3684SOL    HW222515   1.106   4.337   6.409  0.1683 -0.1903 -0.1907
 3685SOL     OW22516   1.899   0.018   2.127  0.4363  0.2343  0.5196
 3685SOL    HW122517   1.934   4.686   2.197  1.3749 -0.1308 -0.2235
 3685SOL    HW222518   1.816   4.701   2.099  0.1450  1.8182 -0.8727
 3686SOL     OW22519   0.188   3.341   0.249 -0.1708 -0.1306  0.4250
 3686SOL    HW122520   0.182   3.270   0.185  0.4603 -0.2675  0.5194
 3686SOL    HW222521   0.255   3.398   0.212  0.2984 -0.1002  1.3094
 3687SOL     OW22522   2.693   1.517  14.625 -0.2858  0.2436  0.0868
 3687SOL    HW122523   2.660   1.485  14.542  1.2321 -0.3797 -0.2702
 3687SOL    HW222524   2.629   1.586  14.644 -1.1810 -0.4160 -0.5391
 3688SOL     OW22525   1.875   2.360   4.637 -0.1074 -0.2352 -0.0051
 3688SOL    HW122526   1.931   2.437   4.638  0.5767 -0.7679  1.3128
 3688SOL    HW222527   1.865   2.355   4.542  3.2692 -1.0378 -0.2965
 3689SOL     OW22528   1.761   0.055   6.656 -0.2820 -0.0613 -0.2573
 3689SOL    HW122529   1.804   4.713   6.712  0.3771  0.3944 -0.2326
 3689SOL    HW222530   1.729   0.130   6.706  0.4314  0.0281  0.0590
 3690SOL     OW22531   4.491   3.023  14.968 -0.9203  0.2457  0.0958
 3690SOL    HW122532   4.533   3.108  14.981  0.4913  0.0280 -2.9987
 3690SOL    HW222533   4.507   2.986  15.055 -1.9669 -0.8060 -0.1618
 3691SOL     OW22534   3.265   0.025   5.888  0.0579  0.2493 -0.1459
 3691SOL    HW122535   3.268   0.119   5.873 -0.1077  0.0080 -1.6509
 3691SOL    HW222536   3.171   0.018   5.876  0.2383  1.0752 -1.9969
 3692SOL     OW22537   2.926   2.180  14.945 -0.1795 -0.0860  0.3659
 3692SOL    HW122538   2.957   2.236  14.875  1.6571  0.8213  1.9031
 3692SOL    HW222539   2.970   2.095  14.945  0.1403  0.0830  0.4036
 3693SOL     OW22540   3.133   2.491   2.291  0.7405  0.1741  0.1784
 3693SOL    HW122541   3.092   2.422   2.238 -0.5161  0.4122  0.8515
 3693SOL    HW222542   3.195   2.448   2.351 -0.4416 -1.3491  0.2981
 3694SOL     OW22543   4.608   1.788   7.313  0.2766  1.1255  0.6016
 3694SOL    HW122544   4.577   1.704   7.346  1.0401  0.7153  0.2618
 3694SOL    HW222545   4.594   1.838   7.394  0.5348 -1.6023  2.3312
 3695SOL     OW22546   3.957   2.030   3.523  0.0552  0.2169  0.1066
 3695SOL    HW122547   3.868   2.059   3.546 -0.4834 -1.2283 -0.0986
 3695SOL    HW222548   4.017   2.057   3.592  1.6373 -1.9756 -0.4190
 3696SOL     OW22549   2.418   1.715   1.274 -0.2822 -0.6857 -0.0398
 3696SOL    HW122550   2.379   1.765   1.346 -0.3507 -0.7412 -0.0383
 3696SOL    HW222551   2.502   1.761   1.269 -0.4193 -0.3834  0.4205
 3697SOL     OW22552   0.336   1.358   6.202 -0.2835  0.1654 -0.0970
 3697SOL    HW122553   0.315   1.352   6.296 -2.5486  0.6934 -0.5873
 3697SOL    HW222554   0.280   1.426   6.166 -0.6738 -0.8516 -1.3843
 3698SOL     OW22555   1.628   2.375   2.854  0.4747  0.0487 -0.3800
 3698SOL    HW122556   1.719   2.382   2.826  0.6411 -0.1965  0.1023
 3698SOL    HW222557   1.618   2.280   2.853  0.5080  0.0472 -0.5622
 3699SOL     OW22558   0.062   3.038   4.362 -0.4837 -0.3400  0.3483
 3699SOL    HW122559   0.101   2.957   4.329 -0.5950  0.3350 -1.4924
 3699SOL    HW222560   4.699   3.032   4.320 -0.9753  0.1543  1.2956
 3700SOL     OW22561   4.598   1.166   8.750 -0.2780 -0.0628  0.0452
 3700SOL    HW122562   4.665   1.207   8.805  0.3757  1.1392 -1.6391
 3700SOL    HW222563   4.578   1.088   8.802  1.5120  2.6274  4.8402
 3701SOL     OW22564   1.129   1.024   4.851 -0.1961  0.2261 -0.7372
 3701SOL    HW122565   1.095   0.974   4.777 -2.2166  2.5675 -1.3686
 3701SOL    HW222566   1.046   1.052   4.890  0.1297  0.0944  0.0410
 3702SOL     OW22567   2.785   0.996  15.443  0.0438 -0.2577 -0.3580
 3702SOL    HW122568   2.791   1.085  15.477  2.0296  0.2729 -2.1488
 3702SOL    HW222569   2.760   1.020  15.354  0.9761  0.0060 -0.5452
 3703SOL     OW22570   2.928   4.369   8.211 -0.4299 -0.3729  0.4314
 3703SOL    HW122571   2.945   4.463   8.203  2.8067 -0.8820  1.3035
 3703SOL    HW222572   2.926   4.352   8.305  0.4301  0.4735  0.6074
 3704SOL     OW22573   3.688   3.611   7.537 -0.3241  0.6924 -0.3829
 3704SOL    HW122574   3.648   3.663   7.607 -0.3331  0.2021 -0.0261
 3704SOL    HW222575   3.611   3.570   7.498 -1.2725  1.2410  0.9213
 3705SOL     OW22576   0.715   1.547  14.307  0.7478  0.2739 -0.0123
 3705SOL    HW122577   0.687   1.564  14.217  1.0875 -0.2549 -0.2170
 3705SOL    HW222578   0.748   1.459  14.290 -2.4813 -0.8461 -0.4313
 3706SOL     OW22579   1.589   4.283  12.844  0.4263  0.1881  0.0657
 3706SOL    HW122580   1.542   4.205  12.875  0.6501 -1.2019 -3.0544
 3706SOL    HW222581   1.573   4.350  12.911  0.4062  1.2779 -1.0413
 3707SOL     OW22582   3.701   2.530   7.341 -0.1349 -0.1803  0.4168
 3707SOL    HW122583   3.719   2.594   7.272 -3.2400 -0.4091 -0.5999
 3707SOL    HW222584   3.698   2.592   7.414 -0.5663 -0.2467  0.4509
 3708SOL     OW22585   1.267   4.347   0.698 -0.1274 -0.1759  0.3313
 3708SOL    HW122586   1.361   4.359   0.705  0.1066 -2.4089  1.2985
 3708SOL    HW222587   1.237   4.365   0.787  0.5692  0.6043  0.4000
 3709SOL     OW22588   4.272   2.153  13.328  0.2615  0.5215 -0.9270
 3709SOL    HW122589   4.181   2.159  13.300  0.0985  1.2438 -0.2450
 3709SOL    HW222590   4.278   2.232  13.381 -1.3842  0.2724 -0.3541
 3710SOL     OW22591   0.445   1.014   2.520  0.1383 -0.4851  0.1973
 3710SOL    HW122592   0.480   0.998   2.608 -2.7850 -0.6474  1.3211
 3710SOL    HW222593   0.378   1.081   2.534  1.7914  1.1028  0.6066
 3711SOL     OW22594   4.570   3.589   0.030 -0.2543  0.7973 -0.0839
 3711SOL    HW122595   4.576   3.542   0.113  2.0884  0.2305 -0.5545
 3711SOL    HW222596   4.477   3.611   0.032 -0.1333  1.6293 -3.1353
 3712SOL     OW22597   1.055   2.131   9.291  0.3669  0.7260  0.1878
 3712SOL    HW122598   1.036   2.097   9.378 -1.5344 -1.5439 -1.0981
 3712SOL    HW222599   1.146   2.160   9.301  0.5246  0.1431  0.4335
 3713SOL     OW22600   3.003   2.999   0.812  0.0261  0.4800  0.5506
 3713SOL    HW122601   3.019   2.929   0.749 -1.4576  1.4700 -0.9362
 3713SOL    HW222602   3.086   3.015   0.857 -0.6887  1.0569  1.6824
 3714SOL     OW22603   0.073   0.291  13.772 -0.3134  0.0961 -0.0731
 3714SOL    HW122604   0.076   0.384  13.748 -1.6280 -0.0092 -0.6340
 3714SOL    HW222605   4.718   0.259  13.727  0.9973 -0.9277 -1.6212
 3715SOL     OW22606   1.135   4.307   6.802 -0.2528  0.1003 -0.0716
 3715SOL    HW122607   1.129   4.402   6.813 -0.3129  0.1799 -0.7970
 3715SOL    HW222608   1.138   4.277   6.892  1.7499 -0.6488 -0.3793
 3716SOL     OW22609   3.698   3.105  10.711  0.2857 -0.4241  0.0116
 3716SOL    HW122610   3.776   3.052  10.731  1.0383  0.4290 -0.6432
 3716SOL    HW222611   3.629   3.039  10.709  0.9421 -1.1375  0.6898
 3717SOL     OW22612   0.487   2.848  12.608  0.6876  0.5641 -0.0824
 3717SOL    HW122613   0.537   2.825  12.530 -1.7930  0.7695 -1.7520
 3717SOL    HW222614   0.465   2.765  12.651 -0.0221  0.9692  0.3412
 3718SOL     OW22615   0.276   3.471  10.985  0.0459  0.0570  0.5410
 3718SOL    HW122616   0.352   3.502  10.936 -0.2551 -0.3592 -0.1908
 3718SOL    HW222617   0.227   3.429  10.914 -0.6062  0.7660  0.5733
 3719SOL     OW22618   1.981   2.801  11.381  0.0043 -0.5479  0.2066
 3719SOL    HW122619   1.947   2.874  11.434 -0.2815 -1.2272  0.9617
 3719SOL    HW222620   2.068   2.828  11.352 -1.2354  0.9247 -2.0873
 3720SOL     OW22621   1.642   1.421   4.764  0.1594  0.3517 -0.8553
 3720SOL    HW122622   1.616   1.494   4.820  0.9431 -0.3640  0.4344
 3720SOL    HW222623   1.708   1.378   4.818 -1.1401 -0.7641 -0.1673
 3721SOL     OW22624   1.451   0.932   4.560 -0.4335  0.1817 -0.2792
 3721SOL    HW122625   1.474   0.947   4.469 -1.4833 -1.3227 -0.7888
 3721SOL    HW222626   1.482   1.010   4.606  1.7316 -1.1220  0.4388
 3722SOL     OW22627   0.587   1.861  15.723 -0.0705 -0.5332 -0.0944
 3722SOL    HW122628   0.493   1.877  15.721 -0.2019 -1.0148  1.9474
 3722SOL    HW222629   0.606   1.906  15.641  0.6539 -2.2511 -0.8697
 3723SOL     OW22630   3.720   1.150  12.791 -0.3277  0.1657 -0.5390
 3723SOL    HW122631   3.632   1.113  12.797  0.2697 -0.8308  2.1158
 3723SOL    HW222632   3.722   1.197  12.874  2.5752  1.1503 -1.1990
 3724SOL     OW22633   3.427   1.557   3.009 -0.3327 -0.0081  0.4672
 3724SOL    HW122634   3.356   1.492   3.007  0.9423 -1.4006  0.1376
 3724SOL    HW222635   3.365   1.629   2.996  1.4995  1.7186  1.3470
 3725SOL     OW22636   3.657   1.261   0.144  0.1857  0.0884  0.5891
 3725SOL    HW122637   3.564   1.263   0.167  0.0426 -0.9043  0.1270
 3725SOL    HW222638   3.646   1.200   0.070 -1.0883  0.6792  0.2930
 3726SOL     OW22639   0.946   4.260   1.532 -0.4453 -0.5886  0.0078
 3726SOL    HW122640   1.013   4.301   1.588 -2.0376  1.5055  0.3724
 3726SOL    HW222641   0.870   4.311   1.559  0.9592  1.7998 -0.4813
 3727SOL     OW22642   3.790   4.147  13.939 -0.4914  0.5527  0.9456
 3727SOL    HW122643   3.822   4.078  13.882 -1.7242  0.5492  0.2411
 3727SOL    HW222644   3.766   4.095  14.016 -0.3954 -1.9004 -0.6919
 3728SOL     OW22645   4.310   1.219   3.521 -0.7226  0.8806 -0.4573
 3728SOL    HW122646   4.323   1.311   3.546  0.9028  0.5201 -0.0258
 3728SOL    HW222647   4.237   1.233   3.460 -0.6477  0.2067 -0.7005
 3729SOL     OW22648   3.028   0.711   7.021 -0.1533  1.0307 -0.4511
 3729SOL    HW122649   3.032   0.759   6.938 -1.3874 -0.6015 -1.4530
 3729SOL    HW222650   2.936   0.701   7.043  0.1543 -0.4072  0.2081
 3730SOL     OW22651   0.968   4.668   4.534 -0.4573  0.1482  0.5648
 3730SOL    HW122652   1.040   4.618   4.574 -0.4739 -0.1746  0.1907
 3730SOL    HW222653   0.907   4.671   4.608 -1.0618  0.4159  0.0572
 3731SOL     OW22654   4.119   1.497   6.789  0.4210  0.2890  0.4173
 3731SOL    HW122655   4.144   1.533   6.874  1.4249  3.6634 -1.3217
 3731SOL    HW222656   4.091   1.573   6.738  1.8610  0.3186 -0.3270
 3732SOL     OW22657   0.347   3.394   4.101  0.1510 -0.4483 -0.3006
 3732SOL    HW122658   0.426   3.366   4.055  0.4520 -1.0632  0.5911
 3732SOL    HW222659   0.369   3.377   4.193  0.8747  0.2629 -0.3404
 3733SOL     OW22660   0.204   1.795   4.230  0.2436 -0.0739  0.2897
 3733SOL    HW122661   0.176   1.869   4.177  0.7201  0.1406  0.3437
 3733SOL    HW222662   0.216   1.732   4.158 -1.9909 -1.0482  0.7523
 3734SOL     OW22663   4.620   4.151   4.673 -0.0864  0.2408 -0.4591
 3734SOL    HW122664   4.599   4.133   4.582 -0.9123 -2.0172  0.1744
 3734SOL    HW222665   4.715   4.145   4.678 -0.0912  1.1695  0.7533
 3735SOL     OW22666   3.996   0.585  10.577 -0.2546  0.4268 -0.6360
 3735SOL    HW122667   3.934   0.524  10.617 -0.6725  0.6661 -0.9200
 3735SOL    HW222668   4.016   0.540  10.495  1.0964  2.5192 -1.4504
 3736SOL     OW22669   2.408   1.609   3.422  0.1227  0.1595 -0.4741
 3736SOL    HW122670   2.360   1.609   3.339 -1.9952  1.4935  0.7456
 3736SOL    HW222671   2.495   1.635   3.394  0.0277  2.1484  1.0836
 3737SOL     OW22672   1.041   1.627   4.682  0.1037 -0.5712 -0.0331
 3737SOL    HW122673   1.025   1.594   4.594  0.9763 -0.3354 -0.2745
 3737SOL    HW222674   0.969   1.581   4.726 -0.7205  1.9208  1.2166
 3738SOL     OW22675   3.989   0.718   9.473 -0.0421  0.0932 -0.9048
 3738SOL    HW122676   4.025   0.718   9.562 -3.1225  2.3655  0.3312
 3738SOL    HW222677   3.902   0.757   9.483  0.0147 -0.1832  0.6661
 3739SOL     OW22678   3.303   2.414   4.068  0.2303 -0.3723  0.2671
 3739SOL    HW122679   3.314   2.476   3.995  1.0175 -1.6346 -0.6956
 3739SOL    HW222680   3.218   2.380   4.042 -0.9201  2.7779 -0.0213
 3740SOL     OW22681   3.772   1.869   6.594 -0.6045 -0.1929 -0.7668
 3740SOL    HW122682   3.799   1.814   6.667  0.5910  0.0304 -1.0321
 3740SOL    HW222683   3.697   1.912   6.636 -0.3731 -0.9152  0.3841
 3741SOL     OW22684   3.046   3.963  16.866 -0.1955 -0.4236  0.0894
 3741SOL    HW122685   3.036   3.868  16.875 -1.9282 -0.1812  0.7061
 3741SOL    HW222686   3.125   3.970  16.812  0.5940  0.0604  1.2882
 3742SOL     OW22687   1.702   0.121   5.254 -0.2031 -0.1668  0.0198
 3742SOL    HW122688   1.759   0.091   5.183 -0.6920 -0.0773 -0.4132
 3742SOL    HW222689   1.757   0.194   5.282 -1.9268  1.4236 -0.7349
 3743SOL     OW22690   0.484   2.192   9.883 -0.0216  0.2703 -0.5358
 3743SOL    HW122691   0.484   2.185   9.979 -1.9980  4.6479 -0.2048
 3743SOL    HW222692   0.396   2.225   9.863 -0.5947 -0.4920  0.6659
 3744SOL     OW22693   2.586   2.793  17.593  0.5201  0.1194  0.1197
 3744SOL    HW122694   2.616   2.717  17.543  0.8881  0.5252 -0.2716
 3744SOL    HW222695   2.494   2.772  17.613  0.4696 -0.9091 -1.2464
 3745SOL     OW22696   3.745   4.090   2.620  0.1175 -0.3739 -0.0485
 3745SOL    HW122697   3.739   4.143   2.541 -1.0804  2.0011  1.6394
 3745SOL    HW222698   3.808   4.134   2.677  0.4251 -0.8151 -0.0478
 3746SOL     OW22699   3.016   1.563   4.207 -0.2449  0.3114  0.2122
 3746SOL    HW122700   3.026   1.473   4.175 -0.1786  0.1763  0.6078
 3746SOL    HW222701   2.927   1.588   4.180  0.4265  1.8188 -0.5661
 3747SOL     OW22702   1.044   4.016   3.481 -0.3390  0.5214  0.7926
 3747SOL    HW122703   1.121   4.055   3.441  0.1248 -0.2015  0.9789
 3747SOL    HW222704   0.974   4.076   3.457 -0.3214 -0.6189 -2.1445
 3748SOL     OW22705   0.991   1.643   6.738 -0.0232 -0.5873  0.1329
 3748SOL    HW122706   1.011   1.588   6.814 -0.1639 -1.0725 -0.1785
 3748SOL    HW222707   0.900   1.618   6.722  0.7297 -1.8344 -2.3291
 3749SOL     OW22708   0.631   1.065   2.318 -0.4281 -0.3488  0.2949
 3749SOL    HW122709   0.549   1.061   2.367 -0.1806  2.1106  0.9035
 3749SOL    HW222710   0.638   1.157   2.293 -0.7879 -0.6526 -0.9276
 3750SOL     OW22711   0.313   2.086   6.284  0.3175 -0.0913  1.0953
 3750SOL    HW122712   0.396   2.039   6.273 -0.8193 -1.6654 -0.7958
 3750SOL    HW222713   0.331   2.180   6.290  0.6016 -0.0791  0.1719
 3751SOL     OW22714   0.756   3.223   2.703  0.3079  0.1911 -0.6366
 3751SOL    HW122715   0.680   3.260   2.659  0.1825  0.5908 -0.0755
 3751SOL    HW222716   0.736   3.129   2.699  1.6349 -0.2636  3.5154
 3752SOL     OW22717   0.376   3.743  14.630  0.8809  0.4269 -0.4724
 3752SOL    HW122718   0.428   3.765  14.707 -1.3075  0.6418  0.9532
 3752SOL    HW222719   0.381   3.827  14.583  0.9453  0.8757  0.3374
 3753SOL     OW22720   0.726   2.007   8.582  0.3196  0.1266  0.1833
 3753SOL    HW122721   0.785   2.082   8.586  1.1843 -0.6694  2.5446
 3753SOL    HW222722   0.686   2.035   8.499 -1.2236 -0.2994  0.7830
 3754SOL     OW22723   1.797   3.206   1.681  0.1318  0.2362  0.2435
 3754SOL    HW122724   1.745   3.167   1.610  2.6155 -1.6177 -0.5305
 3754SOL    HW222725   1.780   3.300   1.676  1.7814  0.5400  0.4276
 3755SOL     OW22726   4.185   4.437   6.485  0.5076  0.0175 -0.7241
 3755SOL    HW122727   4.187   4.532   6.491 -0.5552  0.0383 -0.6290
 3755SOL    HW222728   4.151   4.417   6.572  2.1559 -0.0862 -0.0998
 3756SOL     OW22729   3.766   2.792   6.560  0.9327  0.1413  0.0114
 3756SOL    HW122730   3.788   2.704   6.592  0.2432  1.0622  3.0161
 3756SOL    HW222731   3.854   2.822   6.538  0.5775 -0.8298 -2.7747
 3757SOL     OW22732   1.581   1.334   5.713  0.1818  0.0654 -0.0706
 3757SOL    HW122733   1.491   1.340   5.744  0.2968  0.0496  0.2678
 3757SOL    HW222734   1.564   1.355   5.622  0.5140  0.1574 -0.1127
 3758SOL     OW22735   2.801   4.122   0.578  0.6128 -0.7027  0.0017
 3758SOL    HW122736   2.711   4.153   0.569  0.2733 -1.7322 -0.1318
 3758SOL    HW222737   2.818   4.126   0.672 -0.0080 -0.2101  0.0915
 3759SOL     OW22738   3.017   1.802   8.158  0.4872 -0.0109 -0.5231
 3759SOL    HW122739   2.934   1.789   8.204  1.9846  1.1058  2.5174
 3759SOL    HW222740   3.071   1.751   8.219 -0.9938  1.1638  1.7672
 3760SOL     OW22741   0.678   0.277   5.142  0.8193  0.0860 -0.0556
 3760SOL    HW122742   0.634   0.196   5.116  1.5810  0.4708 -2.5412
 3760SOL    HW222743   0.755   0.240   5.184  0.7134  0.8927  0.8418
 3761SOL     OW22744   4.572   1.635  11.257  0.4661  0.3804 -0.4051
 3761SOL    HW122745   4.621   1.609  11.179  0.0324 -2.0993  0.1474
 3761SOL    HW222746   4.554   1.728  11.244  0.5782  0.7240  1.8198
 3762SOL     OW22747   0.571   1.322  12.295 -0.2662 -0.0163 -0.2489
 3762SOL    HW122748   0.599   1.235  12.322  0.0468  1.2736  3.4852
 3762SOL    HW222749   0.639   1.366  12.345 -0.3388  0.7745 -0.8422
 3763SOL     OW22750   3.490   4.548   6.963 -0.0573  0.6190  0.0416
 3763SOL    HW122751   3.449   4.634   6.961  0.4524  0.8734  0.3325
 3763SOL    HW222752   3.433   4.500   7.022 -0.7145  1.5439  0.1484
 3764SOL     OW22753   0.003   2.549   2.558  0.2202  0.1672  0.8298
 3764SOL    HW122754   4.702   2.486   2.626 -1.0159 -0.3784 -0.1164
 3764SOL    HW222755   0.026   2.622   2.616  2.4620  0.8567 -0.9228
 3765SOL     OW22756   2.407   0.215   9.540  0.4723 -0.0232  0.5666
 3765SOL    HW122757   2.349   0.179   9.607  0.9804  1.0581  1.5798
 3765SOL    HW222758   2.369   0.172   9.463 -0.1550 -0.8586  1.3367
 3766SOL     OW22759   3.336   2.196   8.591  0.1959 -0.4185 -0.0971
 3766SOL    HW122760   3.356   2.248   8.513  1.5293 -0.3386  0.3083
 3766SOL    HW222761   3.241   2.188   8.588  0.2035  0.1004 -1.8855
 3767SOL     OW22762   2.594   3.562   4.730 -0.0192  0.0756  0.3353
 3767SOL    HW122763   2.643   3.605   4.800  0.7080 -0.5827  0.2383
 3767SOL    HW222764   2.507   3.601   4.736  0.0245  0.3060 -0.6157
 3768SOL     OW22765   1.261   4.211   2.511 -0.2785 -0.1886  0.6170
 3768SOL    HW122766   1.309   4.239   2.588 -0.6835 -1.2789  1.2639
 3768SOL    HW222767   1.192   4.278   2.509  1.4978  1.5772 -1.6467
 3769SOL     OW22768   3.410   3.353   7.286 -0.1607  0.3353 -0.2633
 3769SOL    HW122769   3.476   3.398   7.233  0.9862 -1.0447 -0.0140
 3769SOL    HW222770   3.409   3.400   7.369 -1.0467 -0.2541  0.0625
 3770SOL     OW22771   3.753   2.346  11.433  0.1966  0.2455 -0.0165
 3770SOL    HW122772   3.736   2.421  11.491  0.1022 -0.7989  1.3006
 3770SOL    HW222773   3.707   2.374  11.354 -1.0487  0.9387  0.9497
 3771SOL     OW22774   2.848   3.259   1.690  0.0441 -0.2853  0.1084
 3771SOL    HW122775   2.901   3.337   1.673 -1.1540  0.4847 -0.0976
 3771SOL    HW222776   2.922   3.200   1.680 -0.0383 -0.2479 -0.6974
 3772SOL     OW22777   1.684   2.612   4.453  0.1685  0.2905 -0.5005
 3772SOL    HW122778   1.686   2.523   4.417 -0.3046 -0.9484  2.5383
 3772SOL    HW222779   1.768   2.640   4.418  0.7141 -1.0057 -0.2003
 3773SOL     OW22780   1.935   3.245   1.444  0.1376 -0.0849 -0.0891
 3773SOL    HW122781   1.952   3.165   1.494 -0.1654 -0.4670 -0.5985
 3773SOL    HW222782   2.003   3.308   1.469 -0.1871  1.4465 -3.0199
 3774SOL     OW22783   0.270   4.694   6.547  0.2752 -0.2216  0.0972
 3774SOL    HW122784   0.237   4.651   6.626  0.2339  3.4946  2.1226
 3774SOL    HW222785   0.349   0.006   6.587 -0.1311  1.1216 -0.2634
 3775SOL     OW22786   4.220   0.426   1.443 -0.4116 -0.2534  0.3728
 3775SOL    HW122787   4.203   0.374   1.364  1.4870 -0.6574  0.2410
 3775SOL    HW222788   4.126   0.429   1.462 -0.1745 -1.6183  1.7498
 3776SOL     OW22789   0.816   3.146   7.675 -0.6261 -0.4829  0.0736
 3776SOL    HW122790   0.768   3.203   7.615 -0.2621 -2.0934 -1.7246
 3776SOL    HW222791   0.751   3.089   7.716 -3.0111  2.3462  0.2100
 3777SOL     OW22792   1.698   1.509   5.179  0.0695 -0.5296 -0.3144
 3777SOL    HW122793   1.717   1.565   5.103  1.7533 -1.2128 -0.3934
 3777SOL    HW222794   1.622   1.458   5.151  0.7087 -0.8775 -1.4318
 3778SOL     OW22795   4.237   1.736  16.587  0.6101 -0.0126  0.2045
 3778SOL    HW122796   4.243   1.830  16.603  0.7763 -0.0720  0.4909
 3778SOL    HW222797   4.151   1.724  16.627  0.6025 -2.5117 -0.5317
 3779SOL     OW22798   3.591   0.922   5.505 -0.0249 -0.5009 -0.6113
 3779SOL    HW122799   3.617   0.984   5.572 -1.9092 -0.5223  0.1315
 3779SOL    HW222800   3.588   0.981   5.430  0.8804 -1.2534 -1.2356
 3780SOL     OW22801   0.094   4.225   3.166  0.1280  0.4862 -0.0552
 3780SOL    HW122802   0.030   4.246   3.099  0.4309  0.1305 -0.4581
 3780SOL    HW222803   0.136   4.154   3.117 -0.0713  0.3916 -0.0879
 3781SOL     OW22804   4.274   3.946  12.813 -0.0710  0.1289 -0.0060
 3781SOL    HW122805   4.228   3.929  12.730  2.1329  1.4689 -1.4935
 3781SOL    HW222806   4.209   3.910  12.874 -0.3537 -0.3751 -0.6024
 3782SOL     OW22807   3.006   3.203   4.335  0.4191 -0.4365 -0.0099
 3782SOL    HW122808   2.926   3.247   4.306  0.9924  1.4150  1.2012
 3782SOL    HW222809   2.998   3.121   4.286  0.6626  0.6838 -1.9061
 3783SOL     OW22810   0.001   1.038   3.370  0.0198  0.1484  0.3163
 3783SOL    HW122811   4.699   1.114   3.318 -0.5539 -0.3727 -0.1746
 3783SOL    HW222812   4.680   1.058   3.453  2.1084  0.0519  1.4531
 3784SOL     OW22813   0.952   1.503  10.692  0.0892 -0.2231  0.0091
 3784SOL    HW122814   0.917   1.564  10.628  0.2967 -0.2008 -0.0794
 3784SOL    HW222815   0.904   1.421  10.678  0.9992 -0.9817  1.2636
 3785SOL     OW22816   1.218   0.246   4.185  0.2420  0.3128  0.0301
 3785SOL    HW122817   1.282   0.220   4.251 -0.7335 -0.7271  0.5775
 3785SOL    HW222818   1.133   0.222   4.222  0.3466  0.7970  0.5706
 3786SOL     OW22819   3.940   1.197  17.483 -0.6122 -0.4634  0.6948
 3786SOL    HW122820   3.921   1.273  17.538  0.5244 -1.7858  2.8777
 3786SOL    HW222821   3.967   1.142  17.556 -1.6549 -2.1946 -0.2252
 3787SOL     OW22822   3.079   1.811   4.403  0.0048  0.3461  0.0665
 3787SOL    HW122823   3.060   1.740   4.341 -0.2128  0.0468  0.4795
 3787SOL    HW222824   3.107   1.757   4.476 -1.3544 -0.8155 -0.2599
 3788SOL     OW22825   0.084   3.384   3.342  0.0090  0.2619  0.4386
 3788SOL    HW122826   0.153   3.382   3.276 -0.1533  0.1419  0.2723
 3788SOL    HW222827   0.002   3.349   3.306 -0.0247  0.3078  0.4708
 3789SOL     OW22828   1.939   0.236  13.163 -0.5824  0.2154  0.3824
 3789SOL    HW122829   1.900   0.157  13.199 -0.4334  0.1014  0.2916
 3789SOL    HW222830   1.884   0.302  13.206  1.2447  0.7425  1.9388
 3790SOL     OW22831   4.674   1.943   9.536  0.9472 -0.0042 -0.1029
 3790SOL    HW122832   4.603   1.920   9.595 -0.5195  0.0646 -1.8512
 3790SOL    HW222833   4.708   2.020   9.582  0.1980 -0.5810  1.4182
 3791SOL     OW22834   2.540   4.393   6.883 -0.0499  0.0786 -0.2175
 3791SOL    HW122835   2.618   4.346   6.912  1.9271  1.6118 -2.9982
 3791SOL    HW222836   2.558   4.403   6.790 -0.4017  2.2577 -0.0510
 3792SOL     OW22837   0.965   2.250   3.069 -0.1945 -0.0208 -0.3806
 3792SOL    HW122838   0.958   2.339   3.035 -1.4348 -0.0384 -0.1751
 3792SOL    HW222839   0.986   2.198   2.991  0.3992 -1.7886  0.9525
 3793SOL     OW22840   3.295   3.250   2.476 -0.0636 -0.1381  0.1199
 3793SOL    HW122841   3.357   3.219   2.542  0.4036  1.6435  0.4979
 3793SOL    HW222842   3.255   3.173   2.435  0.2594 -0.0222 -0.4176
 3794SOL     OW22843   3.587   1.511   9.608  0.2242  0.1077  0.3006
 3794SOL    HW122844   3.530   1.455   9.662 -1.3110 -0.3092 -1.7237
 3794SOL    HW222845   3.668   1.461   9.604 -0.2191 -0.6843  1.1382
 3795SOL     OW22846   0.207   1.382  12.596 -0.2706  0.2344 -0.3856
 3795SOL    HW122847   0.158   1.458  12.563  0.5486  1.4114  1.1084
 3795SOL    HW222848   0.291   1.418  12.624 -0.2792  0.6195 -0.8538
 3796SOL     OW22849   0.676   1.390   4.656  0.2574  0.5230  1.0181
 3796SOL    HW122850   0.647   1.332   4.726 -0.5356 -0.0735  0.2052
 3796SOL    HW222851   0.755   1.414   4.705 -0.2865  2.2706  1.0418
 3797SOL     OW22852   4.268   4.710   3.274 -0.7175 -0.2200  0.2360
 3797SOL    HW122853   4.187   4.671   3.307 -1.0546 -0.6436 -1.0836
 3797SOL    HW222854   4.255   4.718   3.180 -0.9320  1.5087  0.4087
 3798SOL     OW22855   4.221   3.784   5.380 -0.0112 -0.2255  0.3014
 3798SOL    HW122856   4.240   3.704   5.427 -0.4690 -0.1412  0.6291
 3798SOL    HW222857   4.302   3.824   5.348  0.9545 -2.4391  0.0189
 3799SOL     OW22858   2.980   4.508   6.448 -0.1447  0.6379 -0.1160
 3799SOL    HW122859   2.938   4.594   6.450 -1.2592  0.1247 -1.4239
 3799SOL    HW222860   3.073   4.526   6.433  0.3483 -2.0965 -0.1903
 3800SOL     OW22861   2.896   1.066   7.084 -0.2911 -0.2219 -0.2053
 3800SOL    HW122862   2.821   1.080   7.142 -1.0695 -1.3092 -0.9384
 3800SOL    HW222863   2.880   0.982   7.041  1.9865 -2.0190  2.4409
 3801SOL     OW22864   4.463   3.591   7.615 -0.0590 -0.6138  0.1430
 3801SOL    HW122865   4.554   3.590   7.584  0.5755  1.0250  1.9238
 3801SOL    HW222866   4.440   3.499   7.601  0.5171 -0.5661 -1.0681
 3802SOL     OW22867   1.421   2.131   4.799  0.1755 -0.8235  0.4500
 3802SOL    HW122868   1.444   2.079   4.722  0.3643 -1.7775  1.1480
 3802SOL    HW222869   1.500   2.183   4.819 -0.7845  1.2613 -1.1592
 3803SOL     OW22870   2.599   3.076   8.946  0.0015 -0.0762 -0.4930
 3803SOL    HW122871   2.614   3.110   9.034  0.1080 -1.4457  0.0228
 3803SOL    HW222872   2.555   2.994   8.969 -0.5265  0.4592  0.3850
 3804SOL     OW22873   3.467   4.427   5.912  0.0450  0.4933  0.2271
 3804SOL    HW122874   3.545   4.468   5.874 -0.5263 -1.6414 -3.2086
 3804SOL    HW222875   3.447   4.499   5.973  0.6695 -0.5291  1.6433
 3805SOL     OW22876   1.016   0.046   9.423  0.2344  0.2887  0.1068
 3805SOL    HW122877   0.980   4.720   9.497 -0.5032 -0.3695 -0.6838
 3805SOL    HW222878   1.110   0.028   9.425 -0.0295 -1.1942 -0.9129
 3806SOL     OW22879   2.693   0.785   7.975 -0.5900  0.4260 -0.8261
 3806SOL    HW122880   2.671   0.711   7.918 -1.8942  0.8542 -0.8732
 3806SOL    HW222881   2.707   0.740   8.059  2.2504  2.2897 -0.2882
 3807SOL     OW22882   3.889   0.366   5.199  0.6649 -0.0442  0.7195
 3807SOL    HW122883   3.864   0.363   5.292 -1.4521 -1.5909  0.0891
 3807SOL    HW222884   3.804   0.360   5.155  0.3908  2.8541  0.8318
 3808SOL     OW22885   1.275   1.370   4.476  0.0450  0.2436 -0.6907
 3808SOL    HW122886   1.333   1.412   4.539 -2.2475 -0.6978  2.0287
 3808SOL    HW222887   1.340   1.329   4.418  2.2888 -0.3889  2.2794
 3809SOL     OW22888   2.696   1.251   2.387 -0.7089 -0.1588 -0.4344
 3809SOL    HW122889   2.699   1.173   2.332 -1.7126  0.5797 -1.5306
 3809SOL    HW222890   2.640   1.222   2.459  0.8337 -0.7236  0.5421
 3810SOL     OW22891   4.515   3.793   2.333  0.0475  0.0114 -0.3432
 3810SOL    HW122892   4.498   3.863   2.270  0.5987  1.3321  0.9820
 3810SOL    HW222893   4.569   3.836   2.399  1.3851 -1.4124 -0.5116
 3811SOL     OW22894   1.780   1.707  13.407  0.1246  0.2304 -1.0274
 3811SOL    HW122895   1.732   1.746  13.333  1.4279  0.2783 -1.8434
 3811SOL    HW222896   1.866   1.689  13.369 -0.5111  0.4605 -2.5730
 3812SOL     OW22897   3.364   4.284  12.307  0.4122  0.4155  0.6290
 3812SOL    HW122898   3.356   4.245  12.220 -3.3079  1.4213  0.5065
 3812SOL    HW222899   3.458   4.301  12.302  0.1633  1.6853  0.3073
 3813SOL     OW22900   1.536   3.279  17.606 -0.2640 -0.0591  0.1228
 3813SOL    HW122901   1.490   3.195  17.608 -0.2149 -0.0719  0.7602
 3813SOL    HW222902   1.461   3.338  17.594  1.0603  1.3233 -1.3061
 3814SOL     OW22903   4.506   2.641   6.570  0.4496  0.0900 -0.1848
 3814SOL    HW122904   4.563   2.582   6.520  0.2656  1.0728 -1.5575
 3814SOL    HW222905   4.570   2.688   6.622  0.5181 -1.3858  1.0750
 3815SOL     OW22906   4.037   2.259   6.188  0.1890  0.4425  0.4599
 3815SOL    HW122907   4.017   2.347   6.220  1.1321  0.4628  0.9942
 3815SOL    HW222908   3.947   2.227   6.196  0.1841  0.3720  0.1057
 3816SOL     OW22909   2.284   2.996   4.942 -0.2545 -0.4231 -0.7801
 3816SOL    HW122910   2.195   3.007   4.907 -0.2196 -0.1726 -0.7946
 3816SOL    HW222911   2.343   3.025   4.872 -0.0299  2.9651  0.7971
 3817SOL     OW22912   0.592   0.020  11.450  0.5673  0.6047  0.1768
 3817SOL    HW122913   0.513   4.701  11.485 -0.7777  0.9684 -2.4398
 3817SOL    HW222914   0.638   0.023  11.534 -1.6856 -2.2930  1.5032
 3818SOL     OW22915   2.215   3.993  15.923 -0.1210  0.1244  0.0110
 3818SOL    HW122916   2.228   4.087  15.913  1.0534  0.0426  0.9182
 3818SOL    HW222917   2.159   3.978  15.846 -0.1901 -1.2966  0.3356
 3819SOL     OW22918   0.149   1.528  17.317  0.5930  0.4206 -0.9265
 3819SOL    HW122919   0.214   1.588  17.278  1.2210 -1.4549 -2.7622
 3819SOL    HW222920   0.090   1.592  17.357 -2.6565 -2.2696 -1.4716
 3820SOL     OW22921   1.606   3.897   0.265 -0.6969 -0.2546  0.3328
 3820SOL    HW122922   1.636   3.979   0.226 -0.1762  0.2202  1.7279
 3820SOL    HW222923   1.517   3.926   0.285 -0.6705  0.4223 -0.5285
 3821SOL     OW22924   4.404   3.771   4.973 -0.0452  0.0026 -0.4436
 3821SOL    HW122925   4.403   3.686   4.930  1.1045 -0.5084  0.5492
 3821SOL    HW222926   4.310   3.792   4.969  0.4843  2.3091 -1.0708
 3822SOL     OW22927   1.371   0.692   7.054 -0.4034  0.1291 -0.5631
 3822SOL    HW122928   1.445   0.741   7.018 -0.4888  1.0110  0.4769
 3822SOL    HW222929   1.384   0.714   7.146  0.6565  0.9603 -0.9073
 3823SOL     OW22930   3.425   3.115   7.105 -0.4185 -0.1520 -0.1130
 3823SOL    HW122931   3.464   3.173   7.170 -0.5381  0.9876 -1.0806
 3823SOL    HW222932   3.369   3.179   7.061  1.3831  0.2675 -1.7483
 3824SOL     OW22933   1.160   0.068  15.576 -0.3332 -0.9241  0.3852
 3824SOL    HW122934   1.221   0.121  15.525 -0.7082 -0.8147  0.0485
 3824SOL    HW222935   1.112   0.019  15.509 -1.6318  0.2066  0.4751
 3825SOL     OW22936   3.508   2.264   5.077  0.3188  0.4726 -0.6345
 3825SOL    HW122937   3.602   2.283   5.089  0.3752  1.3458 -2.3579
 3825SOL    HW222938   3.469   2.351   5.086  0.7372  0.5966 -0.0004
 3826SOL     OW22939   1.650   0.922   7.764  0.3580  0.0810  0.1166
 3826SOL    HW122940   1.559   0.902   7.742  0.7209 -1.9692  0.4752
 3826SOL    HW222941   1.689   0.838   7.790  0.9080  0.3254  0.0736
 3827SOL     OW22942   2.154   3.464   3.774  0.3157  0.2432 -0.2780
 3827SOL    HW122943   2.062   3.445   3.760 -0.1216  1.3735  1.1779
 3827SOL    HW222944   2.141   3.510   3.857  1.6776  0.7919 -0.3673
 3828SOL     OW22945   2.604   4.414   9.333 -0.5594 -0.0365  0.4125
 3828SOL    HW122946   2.562   4.447   9.413  2.3275  0.7986  1.5723
 3828SOL    HW222947   2.683   4.370   9.365 -0.7121  1.0336  2.2931
 3829SOL     OW22948   0.030   0.054   3.439  0.1901 -0.4387  0.6661
 3829SOL    HW122949   4.666   0.073   3.476  0.2136  1.1966 -0.1205
 3829SOL    HW222950   0.048   0.116   3.369 -0.5470  0.1506  0.9960
 3830SOL     OW22951   4.516   0.346  16.989  0.8115  0.3635 -0.1775
 3830SOL    HW122952   4.500   0.371  17.080 -1.2613  0.2690 -0.5172
 3830SOL    HW222953   4.525   0.256  17.019 -1.7749 -1.5248 -4.9647
 3831SOL     OW22954   4.531   4.074   5.703  0.1734 -0.1749  0.2448
 3831SOL    HW122955   4.539   4.159   5.661 -2.2368 -0.1926 -0.2527
 3831SOL    HW222956   4.469   4.086   5.775 -0.1144  2.0270 -0.3873
 3832SOL     OW22957   0.134   0.184  14.617  0.9621 -0.2779 -0.7253
 3832SOL    HW122958   0.113   0.094  14.641 -1.3424  0.6039  0.4755
 3832SOL    HW222959   0.209   0.197  14.675  0.4550  3.5688 -0.9436
 3833SOL     OW22960   3.938   2.496   6.286  0.1568 -0.4945  0.9409
 3833SOL    HW122961   3.955   2.590   6.290 -2.1629 -0.0967  1.0624
 3833SOL    HW222962   3.921   2.472   6.377 -1.4479 -1.6476  0.3332
 3834SOL     OW22963   4.268   3.174   2.309  0.4692 -0.0535  0.5672
 3834SOL    HW122964   4.241   3.170   2.401 -1.2657  0.7619  0.0966
 3834SOL    HW222965   4.183   3.146   2.275  0.1885 -0.7507  1.8576
 3835SOL     OW22966   3.877   1.618  12.362  0.3571  0.0276 -0.0133
 3835SOL    HW122967   3.917   1.562  12.428 -0.1800  1.6106  1.7029
 3835SOL    HW222968   3.907   1.702  12.398  0.7237  1.5444 -3.8444
 3836SOL     OW22969   1.021   3.288   0.324 -0.3049  0.2129 -0.7278
 3836SOL    HW122970   1.062   3.253   0.403 -0.6854 -0.4061 -0.8035
 3836SOL    HW222971   0.930   3.276   0.349 -0.6120  0.9037 -1.5016
 3837SOL     OW22972   2.757   0.339   1.925  0.2948  0.1905 -0.3225
 3837SOL    HW122973   2.708   0.408   1.971  1.4727 -0.0978  1.3626
 3837SOL    HW222974   2.719   0.352   1.838 -0.0665 -1.3103 -0.3846
 3838SOL     OW22975   1.852   2.867   7.574 -0.5742  0.0475 -0.5870
 3838SOL    HW122976   1.816   2.940   7.522  0.5328  0.6112 -0.5615
 3838SOL    HW222977   1.940   2.906   7.577  0.6930 -2.5796 -3.2453
 3839SOL     OW22978   1.993   1.979   3.830 -0.3237 -0.0063  0.3841
 3839SOL    HW122979   2.033   2.014   3.751  2.6009  4.0548  3.6657
 3839SOL    HW222980   1.929   1.920   3.790  0.8515  0.3075 -1.9559
 3840SOL     OW22981   3.916   0.995   4.423  0.1044 -0.0014 -0.1791
 3840SOL    HW122982   3.881   1.011   4.511 -0.0373 -0.5278 -0.1417
 3840SOL    HW222983   3.913   0.900   4.409 -0.1003  0.0582 -0.5365
 3841SOL     OW22984   0.133   2.023   4.076  0.3412 -0.0502 -0.7322
 3841SOL    HW122985   0.145   2.016   3.981  0.6113  2.1285 -0.8566
 3841SOL    HW222986   0.054   2.077   4.086  1.6846  1.4734  1.5129
 3842SOL     OW22987   3.554   4.274   1.524 -0.2107  0.3537  0.3873
 3842SOL    HW122988   3.568   4.356   1.477  0.1043  0.3384  0.4552
 3842SOL    HW222989   3.495   4.229   1.464  1.1583 -2.2756  1.0434
 3843SOL     OW22990   2.300   0.584   5.224  0.7777 -0.2952  0.3471
 3843SOL    HW122991   2.382   0.582   5.272  1.1130  0.0941 -0.2077
 3843SOL    HW222992   2.311   0.670   5.182 -0.7674 -0.3946 -0.2793
 3844SOL     OW22993   0.884   3.979  12.068 -0.2019 -0.2549 -0.6192
 3844SOL    HW122994   0.908   4.047  12.005  0.5253 -0.6884 -0.8130
 3844SOL    HW222995   0.962   3.959  12.119 -1.0980  2.4386  1.8230
 3845SOL     OW22996   1.783   0.579   7.796  0.0766 -0.0488 -0.3820
 3845SOL    HW122997   1.772   0.504   7.738  1.4942  0.7058 -1.6750
 3845SOL    HW222998   1.853   0.555   7.856  2.2640  1.7190 -2.1916
 3846SOL     OW22999   0.845   3.684   3.109 -0.2436 -0.2133 -0.5505
 3846SOL    HW123000   0.932   3.644   3.116  0.0423  0.2652 -1.4103
 3846SOL    HW223001   0.864   3.773   3.080 -2.6856  0.9597  1.4406
 3847SOL     OW23002   2.799   4.523   8.959 -0.5528 -0.2795  0.3588
 3847SOL    HW123003   2.846   4.602   8.987 -1.6577  0.1258  1.0500
 3847SOL    HW223004   2.790   4.546   8.867 -2.1199  2.3205  1.1582
 3848SOL     OW23005   1.553   0.651   7.575  0.0393 -0.0866 -0.4437
 3848SOL    HW123006   1.496   0.582   7.609  0.4786  0.0680  0.6376
 3848SOL    HW223007   1.523   0.724   7.630  0.4036 -1.0292  1.0106
 3849SOL     OW23008   4.541   2.175  15.685 -0.6468 -0.1337  0.4378
 3849SOL    HW123009   4.623   2.218  15.709 -0.1068 -0.9511  0.0700
 3849SOL    HW223010   4.518   2.204  15.596 -0.6045  1.3623  0.9149
 3850SOL     OW23011   1.095   1.664   8.276  0.3387  0.4925 -0.0082
 3850SOL    HW123012   1.102   1.709   8.360 -1.6932 -0.1292  0.5014
 3850SOL    HW223013   1.178   1.617   8.270  0.3719  0.9526 -2.9067
 3851SOL     OW23014   0.249   4.515  13.938  0.3259 -0.7227 -0.6462
 3851SOL    HW123015   0.281   4.452  14.003 -0.4534 -0.8464 -0.3794
 3851SOL    HW223016   0.323   4.543  13.885  0.1548 -1.5306 -1.3313
 3852SOL     OW23017   1.500   4.577   0.958  0.2944 -0.6496 -0.0915
 3852SOL    HW123018   1.412   4.551   0.986  0.3885 -0.4069  0.4300
 3852SOL    HW223019   1.491   4.637   0.884 -0.5764  2.6035  2.6599
 3853SOL     OW23020   4.585   3.854   8.292  0.2590 -0.1531  0.1800
 3853SOL    HW123021   4.503   3.875   8.247  0.2431 -0.9035 -0.1471
 3853SOL    HW223022   4.598   3.935   8.342 -0.3955 -0.3583  0.6822
 3854SOL     OW23023   1.499   1.833   3.794  0.0599  0.0102 -0.0466
 3854SOL    HW123024   1.474   1.751   3.836 -1.1895 -0.0324 -0.8613
 3854SOL    HW223025   1.464   1.824   3.705  0.5163 -0.8782 -0.1342
 3855SOL     OW23026   0.299   0.878   8.082 -0.1324  0.3255  0.7618
 3855SOL    HW123027   0.289   0.897   7.989 -1.4257 -2.1277  0.4072
 3855SOL    HW223028   0.340   0.793   8.063 -0.3458 -0.0121  1.7684
 3856SOL     OW23029   3.884   0.766   4.166  0.1603  0.0575  0.3393
 3856SOL    HW123030   3.918   0.739   4.251 -1.1120  2.1548  1.5276
 3856SOL    HW223031   3.853   0.689   4.118  2.0063  0.4901 -1.5599
 3857SOL     OW23032   4.185   3.989  14.045 -0.1995  0.1875  0.3775
 3857SOL    HW123033   4.107   3.965  14.094 -1.6921  1.9437 -1.1404
 3857SOL    HW223034   4.236   3.909  14.049  1.4146  1.2213  0.5976
 3858SOL     OW23035   4.127   1.292   3.303 -0.2008 -0.2414 -0.0860
 3858SOL    HW123036   4.093   1.323   3.219  1.9139  1.5011 -0.3111
 3858SOL    HW223037   4.205   1.252   3.263 -2.5150 -3.2389 -1.6241
 3859SOL     OW23038   0.099   0.954   2.175  0.5436 -0.0680 -0.1872
 3859SOL    HW123039   0.070   1.042   2.152  0.0183  0.2611  1.7503
 3859SOL    HW223040   0.191   0.979   2.175  0.4242  0.3510 -0.5928
 3860SOL     OW23041   2.726   1.602   2.649  0.1993  0.1358  0.1893
 3860SOL    HW123042   2.667   1.619   2.575 -0.5866 -2.6328  0.1923
 3860SOL    HW223043   2.775   1.526   2.618 -0.0333  0.2473 -0.4710
 3861SOL     OW23044   4.284   2.975   4.935 -0.4565 -0.0044 -0.0713
 3861SOL    HW123045   4.251   2.981   5.025 -1.8476 -1.5193 -0.4937
 3861SOL    HW223046   4.198   2.972   4.895 -1.5592 -0.4759  2.3340
 3862SOL     OW23047   3.535   3.978  12.502  0.0474  0.7170 -1.0462
 3862SOL    HW123048   3.592   3.996  12.427 -0.4094  1.4027 -1.2293
 3862SOL    HW223049   3.461   3.937  12.458 -1.5986  1.2619  1.2428
 3863SOL     OW23050   4.197   3.835   4.635  0.1930  0.4457 -0.2034
 3863SOL    HW123051   4.258   3.885   4.581 -0.2113  1.0500 -0.1037
 3863SOL    HW223052   4.145   3.909   4.667 -0.6810  0.5254 -1.8191
 3864SOL     OW23053   3.671   4.456   3.126  0.3146 -0.2344 -0.4875
 3864SOL    HW123054   3.729   4.509   3.070 -1.5142  1.2640 -0.9681
 3864SOL    HW223055   3.583   4.480   3.097  0.1814  2.0910  1.8145
 3865SOL     OW23056   2.675   1.394   1.460 -0.0334 -0.4375  0.1069
 3865SOL    HW123057   2.611   1.324   1.470  0.1545 -0.7337 -0.7332
 3865SOL    HW223058   2.751   1.338   1.475  1.2176  1.1649 -0.1714
 3866SOL     OW23059   1.509   1.179   8.540 -0.2861 -0.1420  0.2209
 3866SOL    HW123060   1.524   1.274   8.546 -0.7513  0.1036 -2.3290
 3866SOL    HW223061   1.597   1.145   8.525 -0.2106  0.8843 -1.8030
 3867SOL     OW23062   1.436   1.412   3.041  0.3677  0.5382  0.3364
 3867SOL    HW123063   1.423   1.434   3.133  0.1033  0.0100  0.4249
 3867SOL    HW223064   1.520   1.367   3.046 -0.5502 -0.8506  3.1172
 3868SOL     OW23065   2.366   4.059  17.631  0.4797 -0.0053  0.6582
 3868SOL    HW123066   2.417   4.139  17.642  3.1366 -1.4878 -0.8397
 3868SOL    HW223067   2.277   4.090  17.615 -0.5138 -2.1562  2.0737
 3869SOL     OW23068   3.617   2.718   0.674 -0.7780 -0.0701  0.4772
 3869SOL    HW123069   3.540   2.706   0.618  0.9355  0.4346 -2.0217
 3869SOL    HW223070   3.664   2.636   0.659 -1.4966 -0.7269  1.8308
 3870SOL     OW23071   2.182   2.768  16.227 -0.2202 -0.7763 -0.3138
 3870SOL    HW123072   2.196   2.821  16.148  1.2218 -1.1407 -0.3086
 3870SOL    HW223073   2.263   2.718  16.229  0.3057  0.0060 -1.6928
 3871SOL     OW23074   0.928   0.394   4.586  0.3347  0.3405  0.1682
 3871SOL    HW123075   0.970   0.477   4.563  0.1543 -0.2894 -2.4016
 3871SOL    HW223076   1.003   0.335   4.590 -0.4194 -0.6451  0.0073
 3872SOL     OW23077   2.670   2.938   7.647 -0.3944 -0.3013 -0.3569
 3872SOL    HW123078   2.702   3.025   7.623 -0.6887 -0.6286 -1.9694
 3872SOL    HW223079   2.636   2.907   7.563 -4.0202  0.0176  0.9691
 3873SOL     OW23080   2.801   3.072  10.744 -0.2798 -0.0414  0.0713
 3873SOL    HW123081   2.796   3.119  10.827 -1.8630 -1.8703  1.0016
 3873SOL    HW223082   2.840   3.137  10.685 -0.3568 -0.1413 -0.0920
 3874SOL     OW23083   3.405   2.076   4.464  0.4578 -0.2764  0.4720
 3874SOL    HW123084   3.494   2.070   4.499 -0.2178 -2.4010  1.8872
 3874SOL    HW223085   3.413   2.155   4.411 -1.1424  0.1358  0.8315
 3875SOL     OW23086   3.737   2.494   1.241  0.2534  0.3782 -0.0520
 3875SOL    HW123087   3.806   2.560   1.232 -0.4067  0.5358 -4.0335
 3875SOL    HW223088   3.683   2.521   1.316 -0.6420 -0.5698 -0.3586
 3876SOL     OW23089   3.683   1.896   2.390 -0.2089  0.5914  0.1321
 3876SOL    HW123090   3.772   1.876   2.360  0.1014  0.4343  1.1559
 3876SOL    HW223091   3.635   1.869   2.312 -0.6819 -0.8565  0.9256
 3877SOL     OW23092   1.377   0.023  10.372 -0.7538 -0.0297  0.4911
 3877SOL    HW123093   1.327   0.102  10.393 -2.1257 -0.8528  0.3778
 3877SOL    HW223094   1.462   0.057  10.345 -0.3955  0.5035  2.3043
 3878SOL     OW23095   1.569   0.236   7.813 -0.3341 -0.4695 -0.1528
 3878SOL    HW123096   1.596   0.241   7.721 -0.5222 -0.4328 -0.2061
 3878SOL    HW223097   1.640   0.187   7.854  0.3586  1.7903  1.3663
 3879SOL     OW23098   1.098   4.656   1.363  0.2355  1.1659 -0.1493
 3879SOL    HW123099   1.119   4.682   1.453 -0.2213 -1.8593  0.8286
 3879SOL    HW223100   1.003   4.654   1.374  0.1483  1.0149 -0.9132
 3880SOL     OW23101   1.597   0.066   6.427  0.5278 -0.6596 -0.4369
 3880SOL    HW123102   1.631   0.061   6.517 -0.6162 -1.2683 -0.0328
 3880SOL    HW223103   1.623   0.152   6.396  0.6486 -0.5335  0.0153
 3881SOL     OW23104   4.611   0.978  17.410  0.4939 -0.4274  0.3366
 3881SOL    HW123105   4.613   1.073  17.400 -0.9759 -0.2882  1.2269
 3881SOL    HW223106   4.578   0.977  17.500 -2.1677  0.2624 -0.6123
 3882SOL     OW23107   2.769   4.011   6.884  0.3501 -0.0540 -0.5078
 3882SOL    HW123108   2.760   4.100   6.918  0.8724 -0.2859  0.2501
 3882SOL    HW223109   2.802   4.027   6.796  0.8509 -0.2669 -0.3608
 3883SOL     OW23110   2.081   2.409  13.939 -0.0683  0.1404 -0.5302
 3883SOL    HW123111   2.161   2.379  13.981 -0.2374  0.5870  0.1207
 3883SOL    HW223112   2.032   2.331  13.964 -0.1218  0.3705  0.0920
 3884SOL     OW23113   2.462   0.455   0.922  0.5531 -0.1467  0.4509
 3884SOL    HW123114   2.449   0.467   0.828 -3.8200 -1.1672  0.9564
 3884SOL    HW223115   2.518   0.377   0.924  1.4086  0.4396 -0.7408
 3885SOL     OW23116   2.400   0.890   9.702 -0.3918  0.2329 -0.4598
 3885SOL    HW123117   2.412   0.803   9.664  3.0999 -0.0037  1.1928
 3885SOL    HW223118   2.461   0.889   9.776  0.7122 -0.7684 -1.3940
 3886SOL     OW23119   4.074   3.361   4.222  0.4524  0.3447  0.5799
 3886SOL    HW123120   4.027   3.313   4.291 -2.3120  0.8687 -0.9554
 3886SOL    HW223121   4.059   3.447   4.261 -1.0261 -0.2707  1.3801
 3887SOL     OW23122   0.701   3.961   7.782 -0.5653 -1.1761 -0.3528
 3887SOL    HW123123   0.677   3.884   7.834 -2.3172 -0.8208 -0.6544
 3887SOL    HW223124   0.791   3.948   7.752 -1.1382 -1.1847 -2.0464
 3888SOL     OW23125   2.893   4.073  10.856  0.3239  0.4920  0.1243
 3888SOL    HW123126   2.946   4.074  10.777  1.9212  0.2550  1.2000
 3888SOL    HW223127   2.953   4.022  10.910  0.8690  0.9223 -0.0693
 3889SOL     OW23128   2.031   3.615   3.985  0.4850  0.4571 -0.1295
 3889SOL    HW123129   2.039   3.553   4.057 -0.8872 -0.2637 -0.6087
 3889SOL    HW223130   2.022   3.698   4.031 -4.6065 -0.0393 -0.2989
 3890SOL     OW23131   2.105   0.758   3.138  0.6050  0.2739 -0.5809
 3890SOL    HW123132   2.108   0.663   3.149 -1.1620  0.4131  1.0427
 3890SOL    HW223133   2.013   0.767   3.112  0.6291 -0.5672 -0.9763
 3891SOL     OW23134   3.069   0.562   3.203 -0.1575 -0.0243 -0.3733
 3891SOL    HW123135   3.086   0.531   3.115  2.5599  0.0479  0.1385
 3891SOL    HW223136   2.975   0.577   3.214 -0.0016  0.5458  0.2148
 3892SOL     OW23137   3.682   1.665   7.207  0.0826  0.3456 -0.3225
 3892SOL    HW123138   3.606   1.607   7.201  0.2842  0.1393 -0.8514
 3892SOL    HW223139   3.689   1.683   7.114  0.8520 -0.9901 -0.5119
 3893SOL     OW23140   2.209   1.400   8.269 -0.4046  0.3597  0.1388
 3893SOL    HW123141   2.244   1.342   8.201  0.8910 -0.2262  1.3087
 3893SOL    HW223142   2.278   1.465   8.254  0.0332  0.1200  1.1173
 3894SOL     OW23143   0.863   3.696   6.427 -0.4121 -0.1424  0.6659
 3894SOL    HW123144   0.914   3.679   6.506  1.4361  4.3040  0.4567
 3894SOL    HW223145   0.839   3.608   6.397 -1.2970  0.3032  0.0530
 3895SOL     OW23146   0.269   4.510   6.131  0.5469 -0.8289 -0.2930
 3895SOL    HW123147   0.199   4.476   6.075  0.1763  2.0900 -1.6124
 3895SOL    HW223148   0.340   4.491   6.070 -1.0387 -0.0022 -2.3980
 3896SOL     OW23149   4.304   3.818   5.963 -0.5707 -0.2036  0.1691
 3896SOL    HW123150   4.273   3.795   5.875 -1.0612  0.2252  0.2270
 3896SOL    HW223151   4.309   3.911   5.943  1.9845 -0.1006  1.2878
 3897SOL     OW23152   1.578   2.072   3.906 -0.3075 -0.3472 -0.5296
 3897SOL    HW123153   1.530   1.992   3.926  0.6764 -1.2275 -1.6402
 3897SOL    HW223154   1.572   2.069   3.810 -2.0237 -1.3968 -0.3752
 3898SOL     OW23155   0.600   3.886  17.448 -0.2912  0.2040  0.3583
 3898SOL    HW123156   0.667   3.929  17.501 -0.9162  1.3015  0.2491
 3898SOL    HW223157   0.536   3.862  17.514  0.2342 -2.0243  0.0483
 3899SOL     OW23158   3.519   2.738  15.388 -0.4153 -0.3242 -0.2234
 3899SOL    HW123159   3.533   2.644  15.388  0.4749 -0.1829  2.2871
 3899SOL    HW223160   3.429   2.753  15.419  0.5874  0.0677  2.5165
 3900SOL     OW23161   2.992   2.986  11.343  0.5228  0.3790 -1.2379
 3900SOL    HW123162   2.911   3.006  11.297 -1.0666 -1.7500  0.6437
 3900SOL    HW223163   3.053   2.996  11.269  2.1041  0.4336  0.0621
 3901SOL     OW23164   4.600   3.329   7.603 -0.5298  0.7983 -0.2254
 3901SOL    HW123165   4.627   3.247   7.643 -1.5778  0.1363 -0.8833
 3901SOL    HW223166   4.556   3.293   7.527  0.1049 -0.1534 -0.1361
 3902SOL     OW23167   1.274   0.680   3.691 -0.1554 -0.2466  0.0232
 3902SOL    HW123168   1.215   0.730   3.747 -0.3079  0.5456 -0.8330
 3902SOL    HW223169   1.231   0.707   3.609  0.6042 -2.0571 -0.9631
 3903SOL     OW23170   1.970   3.814  11.040 -0.0141 -0.6776 -0.2315
 3903SOL    HW123171   1.884   3.790  11.004  0.1491 -0.8613 -0.4923
 3903SOL    HW223172   2.024   3.813  10.961  0.2047 -1.7568 -0.0675
 3904SOL     OW23173   4.662   3.599   2.185  0.1176  0.2876  0.3607
 3904SOL    HW123174   0.022   3.635   2.216  0.4003 -0.1543  0.1101
 3904SOL    HW223175   4.616   3.680   2.161 -1.9636 -1.3382 -1.2344
 3905SOL     OW23176   3.083   3.221   0.451  0.3095 -0.3137  0.5578
 3905SOL    HW123177   2.987   3.219   0.453  0.2854 -1.3337 -1.8283
 3905SOL    HW223178   3.096   3.286   0.520  3.5785  0.2602 -0.5760
 3906SOL     OW23179   2.722   1.254   2.905  0.3479 -0.4151  0.0921
 3906SOL    HW123180   2.658   1.294   2.846 -0.5171 -0.3812  1.0394
 3906SOL    HW223181   2.673   1.249   2.987 -0.4188  0.9020 -0.2812
 3907SOL     OW23182   0.885   4.571   3.945 -0.2895 -0.9028  0.3449
 3907SOL    HW123183   0.948   4.630   3.986  1.0334 -2.0590 -0.0284
 3907SOL    HW223184   0.836   4.540   4.021  0.3441 -0.8793  0.7626
 3908SOL     OW23185   3.791   2.651   6.084 -0.2560  0.2708 -0.9090
 3908SOL    HW123186   3.768   2.588   6.152 -0.7857 -0.7639 -2.0419
 3908SOL    HW223187   3.866   2.611   6.040  0.9812  2.0590 -0.4171
 3909SOL     OW23188   3.748   3.054   5.182  0.2126  0.2647  0.5108
 3909SOL    HW123189   3.786   2.969   5.160 -0.8053 -0.8486  3.0294
 3909SOL    HW223190   3.791   3.065   5.267  0.1375 -0.1590  0.6030
 3910SOL     OW23191   1.125   2.832   2.334  0.0903  0.8024  0.2672
 3910SOL    HW123192   1.153   2.766   2.397 -1.0907 -0.1012 -0.1610
 3910SOL    HW223193   1.032   2.840   2.351  0.4307  1.3523  1.8644
 3911SOL     OW23194   0.002   1.291   2.922  0.0340  0.0792 -0.5306
 3911SOL    HW123195   0.093   1.313   2.941  0.1390  0.8910 -1.9807
 3911SOL    HW223196   0.004   1.197   2.902 -0.1605 -0.2925  1.1901
 3912SOL     OW23197   1.027   4.636   8.048  0.4554 -1.1227  0.2427
 3912SOL    HW123198   0.953   4.591   8.088 -2.5358  1.1092 -2.7464
 3912SOL    HW223199   1.040   4.709   8.108 -0.0202 -1.7111  1.0558
 3913SOL     OW23200   0.391   3.249   6.765 -0.0911 -0.4061  0.0432
 3913SOL    HW123201   0.443   3.295   6.831 -2.1029  0.8465  0.7550
 3913SOL    HW223202   0.450   3.179   6.737 -0.7965 -0.8910 -0.2190
 3914SOL     OW23203   4.592   4.291  17.644 -0.1655 -0.0998  0.8535
 3914SOL    HW123204   4.621   4.280  17.554  2.5153  2.1639  1.4337
 3914SOL    HW223205   4.665   4.245  17.685 -0.2358 -0.7643  0.2366
 3915SOL     OW23206   0.667   2.479  17.250  0.3860  0.4279 -0.5290
 3915SOL    HW123207   0.594   2.529  17.213 -0.7363 -0.0230  1.0942
 3915SOL    HW223208   0.706   2.539  17.313 -1.4356  2.7596 -1.6128
 3916SOL     OW23209   1.639   0.541   8.922 -0.2632  0.0503 -0.4514
 3916SOL    HW123210   1.571   0.532   8.989  1.3021  2.5170  1.4610
 3916SOL    HW223211   1.619   0.461   8.874 -1.9356 -0.3019  0.8391
 3917SOL     OW23212   1.748   3.067   4.992  0.8010  0.6611 -0.2727
 3917SOL    HW123213   1.729   3.146   5.044  0.8025  0.2117  0.4168
 3917SOL    HW223214   1.676   3.085   4.932  0.1437 -1.0773 -0.0144
 3918SOL     OW23215   0.794   0.838   2.308 -0.0234 -0.0916 -0.0792
 3918SOL    HW123216   0.754   0.756   2.278  0.4503  1.0959 -3.9419
 3918SOL    HW223217   0.733   0.911   2.297 -0.7196 -1.0522 -2.5974
 3919SOL     OW23218   0.379   2.296   3.783  0.2154  0.1164  0.3200
 3919SOL    HW123219   0.325   2.256   3.714  0.6509 -0.9537  0.6032
 3919SOL    HW223220   0.435   2.351   3.728  0.1707 -0.5532 -0.3963
 3920SOL     OW23221   3.749   1.213  13.068 -0.4127 -0.0429  0.2018
 3920SOL    HW123222   3.783   1.124  13.078 -0.4017 -0.1639 -0.9088
 3920SOL    HW223223   3.772   1.257  13.150 -1.3876  0.1501  0.3692
 3921SOL     OW23224   0.658   2.696  13.382  0.4745 -0.0611  0.8993
 3921SOL    HW123225   0.701   2.662  13.304  1.8167  3.3824  0.1340
 3921SOL    HW223226   0.669   2.790  13.368  0.5714  0.0637  1.7838
 3922SOL     OW23227   4.618   2.224   4.635  0.0473 -0.0398  0.1934
 3922SOL    HW123228   4.551   2.272   4.683  0.2641  0.4309  0.0263
 3922SOL    HW223229   4.605   2.138   4.675 -0.6788  0.7289  1.6100
 3923SOL     OW23230   3.526   2.060   6.409  0.1715 -0.3631  0.1739
 3923SOL    HW123231   3.568   2.138   6.373 -1.4731 -0.4627 -1.9268
 3923SOL    HW223232   3.596   1.997   6.390  1.1717  1.7459 -3.0339
 3924SOL     OW23233   4.215   3.129   3.099 -0.3047  0.0024  1.1867
 3924SOL    HW123234   4.243   3.213   3.136  2.9960  0.1117 -1.5810
 3924SOL    HW223235   4.121   3.135   3.115 -0.6447  0.0262 -0.8909
 3925SOL     OW23236   2.482   0.265   2.413 -0.3733 -0.1565 -0.1338
 3925SOL    HW123237   2.455   0.317   2.338  0.0081  1.9938  1.1965
 3925SOL    HW223238   2.500   0.183   2.367  0.6992 -0.0471  0.0781
 3926SOL     OW23239   3.867   2.559  10.831  0.1817  0.6812  0.2837
 3926SOL    HW123240   3.820   2.642  10.831 -3.4113 -1.3326 -3.2368
 3926SOL    HW223241   3.804   2.500  10.790  1.8097  0.1399 -1.4334
 3927SOL     OW23242   4.613   0.108  13.579 -0.0685 -0.1860  0.1941
 3927SOL    HW123243   4.572   0.058  13.508 -0.2280  1.8194 -1.1054
 3927SOL    HW223244   4.538   0.110  13.638 -0.9315  1.0179 -0.9369
 3928SOL     OW23245   0.066   2.001   8.417  0.3521  0.3314  0.3082
 3928SOL    HW123246   0.065   2.043   8.503 -1.2856 -0.0310  0.4674
 3928SOL    HW223247   0.138   1.938   8.422 -0.3495 -0.4377  0.9209
 3929SOL     OW23248   2.851   3.125  11.712 -0.7936  0.5613  0.0896
 3929SOL    HW123249   2.930   3.170  11.683 -1.9738  0.5088 -3.1416
 3929SOL    HW223250   2.825   3.071  11.637  0.8620  1.0859 -0.8414
 3930SOL     OW23251   2.592   0.978   0.745 -0.3113  0.0908 -0.0289
 3930SOL    HW123252   2.600   0.940   0.658  2.3303  3.7608 -1.3393
 3930SOL    HW223253   2.661   0.926   0.786  0.3153  0.7223 -0.2865
 3931SOL     OW23254   4.326   1.835  13.357  0.0615 -0.3881  0.2483
 3931SOL    HW123255   4.366   1.855  13.272 -1.2707  1.1879  0.0055
 3931SOL    HW223256   4.387   1.879  13.416 -2.1236  0.0654  2.1422
 3932SOL     OW23257   0.596   4.161  14.314  0.2167 -0.7571  0.0509
 3932SOL    HW123258   0.525   4.138  14.253 -1.8408  1.1042  1.7414
 3932SOL    HW223259   0.661   4.091  14.304  0.2186 -0.8472  0.7404
 3933SOL     OW23260   1.027   0.402   5.275  0.5522  0.6956  0.0967
 3933SOL    HW123261   0.971   0.333   5.239 -0.5693  1.2403  0.7733
 3933SOL    HW223262   1.028   0.379   5.368 -2.5139 -0.4387 -0.1352
 3934SOL     OW23263   0.111   0.319  15.656  0.0105  0.2196  0.0403
 3934SOL    HW123264   0.190   0.366  15.628  0.2854  0.8086  1.7803
 3934SOL    HW223265   0.133   0.232  15.623  0.7518  1.6835 -3.3301
 3935SOL     OW23266   0.369   4.598  11.557  0.0409 -0.7384  0.0662
 3935SOL    HW123267   0.275   4.612  11.550 -0.6317 -5.4728 -0.7373
 3935SOL    HW223268   0.356   4.507  11.530 -3.4316 -0.2598  0.1039
 3936SOL     OW23269   0.284   1.952   0.487 -0.3933  0.4788 -0.3475
 3936SOL    HW123270   0.222   1.977   0.419 -1.2442  0.2988  0.3673
 3936SOL    HW223271   0.307   1.863   0.461  1.4283  1.4061 -1.9602
 3937SOL     OW23272   0.073   1.421  14.020  0.2597  0.3157 -0.5561
 3937SOL    HW123273   0.089   1.448  14.111  1.6917  0.9938 -1.0145
 3937SOL    HW223274   0.138   1.479  13.982  0.7527 -0.3615 -0.7459
 3938SOL     OW23275   2.861   1.949   5.028  0.0043  0.9693  0.1945
 3938SOL    HW123276   2.880   1.970   5.120  0.9395  0.0621  0.2099
 3938SOL    HW223277   2.946   1.930   4.988  0.6027  2.5669  0.7008
 3939SOL     OW23278   4.532   2.980  16.012 -0.4110 -0.1466  0.4139
 3939SOL    HW123279   4.612   2.931  16.030 -1.7497 -2.1575  0.7910
 3939SOL    HW223280   4.565   3.021  15.932 -1.5607  0.5279  0.2832
 3940SOL     OW23281   2.497   4.647   1.526  0.0973 -0.8566  0.0172
 3940SOL    HW123282   2.558   4.575   1.512 -0.5261 -1.2948 -0.4133
 3940SOL    HW223283   2.425   4.620   1.470 -1.0916  1.1375  0.5709
 3941SOL     OW23284   3.307   1.817   2.937  0.5424 -0.6604  0.9476
 3941SOL    HW123285   3.304   1.891   2.877 -0.4502 -0.1633  1.6026
 3941SOL    HW223286   3.311   1.748   2.870 -1.3192 -0.3514  0.5272
 3942SOL     OW23287   0.872   3.611   7.864 -0.1631  0.4434  0.1721
 3942SOL    HW123288   0.908   3.587   7.779 -0.7307  0.9337 -0.2047
 3942SOL    HW223289   0.861   3.523   7.899  0.0972  0.6741  0.8352
 3943SOL     OW23290   0.707   4.656  14.962  0.1078  0.5764 -0.1757
 3943SOL    HW123291   0.685   4.716  14.891  0.7079  0.6653 -0.2814
 3943SOL    HW223292   0.642   4.588  14.945 -0.3706  0.9080  0.2972
 3944SOL     OW23293   4.059   0.521   2.528  0.0533  0.0454 -0.4339
 3944SOL    HW123294   4.054   0.488   2.618  1.0769  0.7513 -0.1109
 3944SOL    HW223295   3.973   0.553   2.501  0.0957  1.4228  1.0404
 3945SOL     OW23296   2.990   1.540   8.879 -0.7057 -0.3257 -0.0496
 3945SOL    HW123297   2.996   1.457   8.925  0.4857 -0.0194  0.3541
 3945SOL    HW223298   3.074   1.529   8.833 -0.7111 -0.5759  0.0039
 3946SOL     OW23299   3.538   3.811  11.053 -0.1292  0.1463 -0.7340
 3946SOL    HW123300   3.572   3.796  11.141 -0.0600  3.4828 -0.1801
 3946SOL    HW223301   3.623   3.828  11.014  0.3250 -0.0640  0.1711
 3947SOL     OW23302   2.654   0.526   5.510  0.2071  0.5114  0.0161
 3947SOL    HW123303   2.605   0.579   5.574  1.6733  3.4431 -1.2825
 3947SOL    HW223304   2.646   0.439   5.549  1.6768  0.6642  0.6627
 3948SOL     OW23305   3.162   2.163   0.297  0.5417  0.2635  0.4618
 3948SOL    HW123306   3.216   2.092   0.330  0.6985 -0.1359 -0.6692
 3948SOL    HW223307   3.094   2.162   0.365 -0.2092  0.4199 -0.2816
 3949SOL     OW23308   0.364   0.630   3.651 -0.0326  0.1563 -0.2610
 3949SOL    HW123309   0.437   0.605   3.706 -1.0468  1.3540  1.6103
 3949SOL    HW223310   0.418   0.688   3.597 -0.2845 -0.6486 -1.3858
 3950SOL     OW23311   2.686   4.141   7.793 -0.0423  0.3684 -0.4238
 3950SOL    HW123312   2.601   4.133   7.837  0.4328 -1.5561  0.1093
 3950SOL    HW223313   2.741   4.188   7.856  2.5544 -1.7925 -1.0900
 3951SOL     OW23314   1.814   3.704   1.453 -0.2195 -0.7693 -0.3285
 3951SOL    HW123315   1.722   3.710   1.425 -0.5064  0.3500  0.8653
 3951SOL    HW223316   1.814   3.754   1.535 -1.4676  1.3897 -1.6270
 3952SOL     OW23317   3.503   3.412   8.982 -0.0995 -0.0036 -0.0395
 3952SOL    HW123318   3.550   3.356   8.919 -2.3242 -1.8536 -0.0579
 3952SOL    HW223319   3.427   3.443   8.933  1.0230  2.1348 -0.3860
 3953SOL     OW23320   2.152   4.710   4.937 -0.3084 -0.3773 -0.0422
 3953SOL    HW123321   2.237   4.674   4.962 -0.1659 -0.9737 -1.4072
 3953SOL    HW223322   2.161   4.721   4.843  0.9052 -1.5949 -0.0562
 3954SOL     OW23323   2.193   0.613   9.602  0.5583  0.2226  0.2512
 3954SOL    HW123324   2.209   0.611   9.696  1.5522  0.8170  0.0893
 3954SOL    HW223325   2.099   0.631   9.596  0.2581 -1.4766 -0.2878
 3955SOL     OW23326   2.354   2.065  13.694  0.1258  0.7765  0.2537
 3955SOL    HW123327   2.362   2.157  13.667  0.2468  0.5755 -0.4029
 3955SOL    HW223328   2.260   2.060  13.712 -0.7865  2.0059 -4.0783
 3956SOL     OW23329   3.152   0.204   6.490 -0.0136  0.1668 -0.3434
 3956SOL    HW123330   3.077   0.263   6.491 -1.0041 -1.1047  0.3358
 3956SOL    HW223331   3.152   0.185   6.584  0.3841 -2.7720 -0.9550
 3957SOL     OW23332   0.837   1.769  13.951  0.2073  0.0529  0.2021
 3957SOL    HW123333   0.769   1.827  13.915 -2.1764 -2.9215 -0.0601
 3957SOL    HW223334   0.890   1.744  13.875  0.1347  1.5519 -0.3473
 3958SOL     OW23335   2.679   0.945   5.543 -0.2865 -0.4697  0.8106
 3958SOL    HW123336   2.698   1.007   5.473 -1.7070 -0.7606  0.1609
 3958SOL    HW223337   2.754   0.889   5.521 -0.6864 -0.9323  0.6273
 3959SOL     OW23338   4.602   1.028   5.574 -0.1313 -0.1728 -0.1431
 3959SOL    HW123339   4.591   1.093   5.505  0.3665 -0.1744 -0.2183
 3959SOL    HW223340   4.555   1.078   5.640 -0.4048 -0.3183 -0.2238
 3960SOL     OW23341   4.510   1.213   5.752  0.6723  0.7039 -0.1586
 3960SOL    HW123342   4.455   1.253   5.685  0.6417  0.2015 -0.4371
 3960SOL    HW223343   4.478   1.250   5.834 -1.8675  0.5733 -1.0672
 3961SOL     OW23344   3.629   4.079   4.274 -0.1447  0.3429 -0.2044
 3961SOL    HW123345   3.539   4.109   4.283  0.2369  1.3088  0.4201
 3961SOL    HW223346   3.652   4.099   4.183  2.5442 -0.3783  0.3073
 3962SOL     OW23347   1.271   3.099  15.434  0.1987 -0.3203 -0.4215
 3962SOL    HW123348   1.217   3.177  15.427 -1.5956 -1.4192  1.3055
 3962SOL    HW223349   1.204   3.039  15.465 -0.8675  1.9216  1.6066
 3963SOL     OW23350   2.356   2.171   6.704 -0.3121 -0.4639 -0.3368
 3963SOL    HW123351   2.432   2.112   6.710 -0.5269 -0.3559  3.6562
 3963SOL    HW223352   2.292   2.139   6.768 -0.5293 -0.8809 -0.7648
 3964SOL     OW23353   3.535   2.883   6.996 -0.1209  0.2018 -0.4314
 3964SOL    HW123354   3.485   2.953   7.037 -2.1384 -0.6188 -1.4997
 3964SOL    HW223355   3.573   2.923   6.918  2.9686 -0.0115  0.9666
 3965SOL     OW23356   1.830   0.704   5.976  0.3548 -0.0899  0.5091
 3965SOL    HW123357   1.775   0.782   5.985  1.8450  1.0686 -0.5376
 3965SOL    HW223358   1.806   0.658   5.895  2.9531 -0.2555 -0.1494
 3966SOL     OW23359   1.972   1.761  11.388  0.6802  0.1141 -0.2194
 3966SOL    HW123360   2.060   1.784  11.418  0.6716 -0.3684  0.1928
 3966SOL    HW223361   1.940   1.848  11.409 -1.6980 -0.6588 -0.6780
 3967SOL     OW23362   0.853   3.630   1.621  0.1674 -0.1294 -0.2115
 3967SOL    HW123363   0.824   3.614   1.711  0.1725  1.7423  0.1099
 3967SOL    HW223364   0.789   3.580   1.569  0.7040 -0.6856 -0.3432
 3968SOL     OW23365   3.055   2.798  12.170 -0.1809 -0.5694  0.0799
 3968SOL    HW123366   3.060   2.888  12.203 -0.8938 -0.4531 -0.1202
 3968SOL    HW223367   3.061   2.753  12.254  1.2923  0.8977  0.7454
 3969SOL     OW23368   4.516   1.849   7.560  0.6042 -0.2569  0.5139
 3969SOL    HW123369   4.509   1.944   7.572 -2.5401 -0.2833 -1.0714
 3969SOL    HW223370   4.427   1.814   7.565  0.9015 -1.1721 -0.6591
 3970SOL     OW23371   2.765   1.469   7.719 -0.2776  0.3013  0.4875
 3970SOL    HW123372   2.851   1.507   7.705 -0.4628  1.3642  2.1594
 3970SOL    HW223373   2.708   1.533   7.676  1.6356 -0.7229 -3.5513
 3971SOL     OW23374   1.254   4.491   3.498  0.4576 -0.2485  0.0038
 3971SOL    HW123375   1.299   4.487   3.582 -1.5913 -1.9627  1.0167
 3971SOL    HW223376   1.164   4.496   3.530  0.6579  0.4508  0.4691
 3972SOL     OW23377   3.341   1.382   7.482  0.3308 -0.2244  0.5315
 3972SOL    HW123378   3.409   1.429   7.434  1.7894 -1.0020  1.8565
 3972SOL    HW223379   3.316   1.456   7.537 -1.5425  0.2411 -0.9677
 3973SOL     OW23380   4.147   2.895   3.787  0.0958 -0.6376 -0.8593
 3973SOL    HW123381   4.218   2.831   3.779  1.9480  1.2227  0.9377
 3973SOL    HW223382   4.190   2.964   3.837  0.6715 -0.2999 -1.8253
 3974SOL     OW23383   1.687   1.021  17.253  0.4485 -0.9271 -0.2885
 3974SOL    HW123384   1.736   1.012  17.171  0.0713  0.8162 -0.7105
 3974SOL    HW223385   1.637   1.101  17.237 -0.8619 -2.0243 -1.7260
 3975SOL     OW23386   3.130   1.479   3.141  0.1537 -0.4409 -0.5512
 3975SOL    HW123387   3.093   1.395   3.168 -3.8049  1.1807 -0.9806
 3975SOL    HW223388   3.192   1.494   3.213  0.3259 -2.5374 -0.2502
 3976SOL     OW23389   4.703   4.520   4.883  0.3217 -0.1718  0.6940
 3976SOL    HW123390   4.697   4.545   4.790 -0.1234 -0.7930  0.5528
 3976SOL    HW223391   4.611   4.500   4.901 -0.1041  0.8566 -0.3522
 3977SOL     OW23392   3.330   2.084   5.886 -0.0667  0.4495  0.2374
 3977SOL    HW123393   3.390   2.152   5.855  0.4762  0.2782  0.9189
 3977SOL    HW223394   3.390   2.009   5.879 -2.5126 -1.3139 -1.5677
 3978SOL     OW23395   1.978   4.344  15.841  0.2717  0.9731 -0.5059
 3978SOL    HW123396   2.062   4.331  15.883  0.1781  0.1083 -0.5881
 3978SOL    HW223397   1.931   4.391  15.910 -0.4655  1.1727 -1.1443
 3979SOL     OW23398   0.907   0.620   4.969  0.7849  0.0646 -0.1388
 3979SOL    HW123399   0.940   0.601   5.057  0.3815 -1.4406 -0.3031
 3979SOL    HW223400   0.879   0.532   4.944  2.4918 -0.4368 -0.2573
 3980SOL     OW23401   2.528   2.183   0.682 -0.3351  0.5760 -0.2942
 3980SOL    HW123402   2.586   2.163   0.755 -1.2842  1.2364  0.6431
 3980SOL    HW223403   2.582   2.153   0.609  0.4022  1.8371 -0.2699
 3981SOL     OW23404   2.322   0.625   8.502 -0.1013  0.1415  0.4283
 3981SOL    HW123405   2.267   0.645   8.426 -0.5023 -0.8039  0.4736
 3981SOL    HW223406   2.353   0.715   8.510  0.2293  0.0343  0.3445
 3982SOL     OW23407   2.500   0.019   3.808 -0.3246 -0.6477  0.1813
 3982SOL    HW123408   2.533   0.048   3.893  1.1941  0.6110 -0.8144
 3982SOL    HW223409   2.572   0.037   3.747 -0.6326  1.5998  0.4867
 3983SOL     OW23410   0.437   2.843   4.857 -0.3547 -0.8663  0.2768
 3983SOL    HW123411   0.489   2.840   4.937  0.6125 -3.0539 -0.4213
 3983SOL    HW223412   0.504   2.870   4.795 -1.1520  0.1864 -0.1308
 3984SOL     OW23413   3.421   3.257   3.806  0.5797  0.0084  0.0754
 3984SOL    HW123414   3.477   3.304   3.743  0.6450 -1.0439 -0.6437
 3984SOL    HW223415   3.384   3.182   3.759  0.6988 -0.3785  0.6023
 3985SOL     OW23416   1.470   4.200   5.744  0.5755  0.4732 -0.3422
 3985SOL    HW123417   1.454   4.107   5.760  1.0621  0.3170 -0.7901
 3985SOL    HW223418   1.418   4.238   5.815 -2.0224 -3.1504 -0.3444
 3986SOL     OW23419   3.962   1.098   2.723  0.1904 -0.0922 -0.5844
 3986SOL    HW123420   4.010   1.064   2.648  3.2294  2.2919  0.3119
 3986SOL    HW223421   4.003   1.184   2.731 -3.2121  1.3064  2.0454
 3987SOL     OW23422   1.202   2.762   6.331 -0.5312  0.5223 -0.2466
 3987SOL    HW123423   1.172   2.686   6.381 -0.2470  0.5471 -0.0449
 3987SOL    HW223424   1.154   2.826   6.383  0.5463  1.7617 -0.7747
 3988SOL     OW23425   4.538   0.002  12.536  0.6429  0.3417  0.2170
 3988SOL    HW123426   4.611   0.002  12.474 -0.1987  3.0483 -0.7944
 3988SOL    HW223427   4.468   4.691  12.481  2.0302  0.8151 -1.8518
 3989SOL     OW23428   3.183   2.669   6.732  0.1640 -0.0312 -0.0490
 3989SOL    HW123429   3.207   2.737   6.796  1.1837 -0.6539  0.2284
 3989SOL    HW223430   3.144   2.611   6.797  0.5095  1.5773  1.6217
 3990SOL     OW23431   0.506   4.502  14.865 -0.5182  0.1685 -0.4940
 3990SOL    HW123432   0.423   4.534  14.901  0.1514 -0.5699  1.7407
 3990SOL    HW223433   0.470   4.427  14.818  1.9561 -1.1555 -0.3114
 3991SOL     OW23434   2.457   3.867   3.649 -0.8699  0.3357 -0.1269
 3991SOL    HW123435   2.446   3.783   3.605  1.0806 -0.2644  0.5217
 3991SOL    HW223436   2.449   3.837   3.740 -1.8234 -3.1697 -1.3580
 3992SOL     OW23437   3.118   1.906   6.075 -0.2473 -0.3162 -0.2994
 3992SOL    HW123438   3.023   1.895   6.083 -0.1103 -1.9262 -0.9573
 3992SOL    HW223439   3.120   2.000   6.057  1.7386  0.1067  2.2318
 3993SOL     OW23440   1.538   1.152   2.062  0.3772  0.2769  0.4135
 3993SOL    HW123441   1.466   1.185   2.008 -0.9275 -0.9909  1.3804
 3993SOL    HW223442   1.535   1.206   2.140  0.4658  0.6794  0.1353
 3994SOL     OW23443   1.895   1.860   6.119  0.0703  0.1341 -0.1330
 3994SOL    HW123444   1.807   1.882   6.087 -0.6007  3.4226  4.0888
 3994SOL    HW223445   1.892   1.863   6.214  2.0501 -1.9287  0.0025
 3995SOL     OW23446   2.538   2.858   7.008  0.4620 -0.4172 -0.0231
 3995SOL    HW123447   2.624   2.894   6.989  0.7893 -0.4251  1.4562
 3995SOL    HW223448   2.514   2.792   6.942  0.9350 -0.0001 -0.6103
 3996SOL     OW23449   0.528   0.964   4.938  0.1786 -0.2303 -0.0988
 3996SOL    HW123450   0.457   0.901   4.924 -1.4449  1.6927 -0.4344
 3996SOL    HW223451   0.573   0.913   5.006  1.2564  1.4563  0.4471
 3997SOL     OW23452   1.482   0.153  10.015 -0.2691  0.5629  0.9029
 3997SOL    HW123453   1.478   0.169  10.109 -1.3253 -1.3032  1.1776
 3997SOL    HW223454   1.410   0.091  10.005  0.6118 -0.2743 -0.3017
 3998SOL     OW23455   1.812   1.522   2.050  0.2942 -0.3292  0.2821
 3998SOL    HW123456   1.828   1.443   2.102 -0.2061  0.0901  1.0755
 3998SOL    HW223457   1.897   1.565   2.051  0.2882 -0.2843 -0.8005
 3999SOL     OW23458   1.640   0.883   2.473 -0.0700  0.5177 -0.3973
 3999SOL    HW123459   1.553   0.871   2.436  0.0765  0.7795 -0.8358
 3999SOL    HW223460   1.684   0.815   2.421  0.2800  1.3641 -1.2236
 4000SOL     OW23461   0.877   3.375   4.520 -0.8951 -1.0168 -0.0104
 4000SOL    HW123462   0.822   3.324   4.461  0.5912 -1.7618 -0.7675
 4000SOL    HW223463   0.811   3.421   4.571 -0.0750  1.9112 -1.6386
 4001SOL     OW23464   2.432   3.660   7.070  0.2435 -0.0196  0.0188
 4001SOL    HW123465   2.492   3.707   7.013  0.8728  0.1161  0.7890
 4001SOL    HW223466   2.369   3.636   7.003  3.0051 -0.4159 -2.4322
 4002SOL     OW23467   1.496   4.108  12.318  0.1240  0.3350 -0.0253
 4002SOL    HW123468   1.541   4.149  12.392  3.1250 -2.7327 -0.1427
 4002SOL    HW223469   1.506   4.176  12.251 -0.4609 -0.4933 -0.9550
 4003SOL     OW23470   3.543   2.619   5.557 -0.3014  0.1882  0.0918
 4003SOL    HW123471   3.548   2.676   5.480  1.1244 -0.1084 -0.0269
 4003SOL    HW223472   3.562   2.684   5.625  2.1873  0.0291 -0.4538
 4004SOL     OW23473   2.166   0.019   3.027 -0.2858  0.1737 -0.2268
 4004SOL    HW123474   2.115   4.711   3.102 -1.0693  0.2045 -0.7563
 4004SOL    HW223475   2.257   4.717   3.045  0.0149  1.5940  0.1666
 4005SOL     OW23476   2.461   3.073   2.299 -0.4023 -0.0977 -0.4902
 4005SOL    HW123477   2.432   2.982   2.298 -2.1004  0.4586 -1.9508
 4005SOL    HW223478   2.548   3.063   2.262 -0.5336  1.2786 -1.1919
 4006SOL     OW23479   4.147   4.454   3.104 -0.1117  0.4025  0.2633
 4006SOL    HW123480   4.162   4.528   3.044 -1.4233  1.1266  0.8410
 4006SOL    HW223481   4.064   4.421   3.069  0.8517 -1.8348  0.0831
 4007SOL     OW23482   4.400   2.038   9.980 -0.2680 -0.2793  0.0901
 4007SOL    HW123483   4.481   2.056  10.028 -0.2521  1.1518 -0.4559
 4007SOL    HW223484   4.411   2.106   9.913 -0.1619 -0.6499 -0.2740
 4008SOL     OW23485   3.844   1.247   4.871 -0.5370  0.0788 -0.0336
 4008SOL    HW123486   3.769   1.202   4.831 -2.0341 -0.1026  3.0024
 4008SOL    HW223487   3.903   1.270   4.799 -0.4186 -0.4330 -0.1015
 4009SOL     OW23488   4.050   4.008   6.343  0.1267 -0.4892 -0.0492
 4009SOL    HW123489   4.096   4.072   6.289  0.4664  0.8231  1.7824
 4009SOL    HW223490   4.105   3.933   6.321  0.8929  0.3309 -0.9101
 4010SOL     OW23491   4.074   2.246   3.855 -0.1548 -0.3018  0.0432
 4010SOL    HW123492   4.136   2.281   3.919  1.8243  1.3332 -2.7675
 4010SOL    HW223493   4.122   2.219   3.777 -3.3919 -2.1216 -1.3467
 4011SOL     OW23494   1.414   1.542   1.535  0.1267  0.2442 -0.6893
 4011SOL    HW123495   1.443   1.489   1.460  0.6264 -2.1616  1.1948
 4011SOL    HW223496   1.322   1.517   1.539 -0.0924  0.8247 -2.1883
 4012SOL     OW23497   3.133   3.876  14.021 -0.0565 -0.0347 -0.1057
 4012SOL    HW123498   3.116   3.959  14.065 -0.5407 -0.2857  0.1723
 4012SOL    HW223499   3.189   3.835  14.087 -0.4574  0.7354  0.7094
 4013SOL     OW23500   2.012   3.999   2.125  0.0343 -0.3503 -0.3098
 4013SOL    HW123501   1.927   3.962   2.100  0.2578 -0.6665 -0.5970
 4013SOL    HW223502   2.049   4.026   2.041 -0.7923  1.0546 -0.2341
 4014SOL     OW23503   2.895   4.112  15.386 -0.3351 -0.3696 -0.5331
 4014SOL    HW123504   2.910   4.048  15.316 -0.6484 -1.3686  0.3213
 4014SOL    HW223505   2.873   4.045  15.450 -1.7680 -0.4044 -1.0647
 4015SOL     OW23506   0.689   3.891   6.544  0.2199 -0.7833  0.1577
 4015SOL    HW123507   0.742   3.837   6.485  2.2963  1.7613 -0.3472
 4015SOL    HW223508   0.723   3.979   6.524 -1.8945  0.1722  0.7638
 4016SOL     OW23509   0.048   3.343  15.468  0.5989  0.5618  1.1670
 4016SOL    HW123510   0.006   3.419  15.507 -1.0331 -1.0481  2.5371
 4016SOL    HW223511   0.072   3.379  15.383 -1.5312  0.5200  0.5592
 4017SOL     OW23512   1.396   1.143   0.142 -0.4918 -0.1379 -0.1290
 4017SOL    HW123513   1.409   1.238   0.135 -1.5968  0.1855  2.1359
 4017SOL    HW223514   1.383   1.136   0.237 -1.5589  0.7299 -0.2102
 4018SOL     OW23515   1.295   0.690  15.344  0.3864  0.3237 -0.3505
 4018SOL    HW123516   1.337   0.763  15.299 -0.8368  0.5359 -1.1515
 4018SOL    HW223517   1.370   0.652  15.389  0.0004 -1.0199 -0.8418
 4019SOL     OW23518   1.420   0.924  15.217 -0.1475 -0.2982 -0.0689
 4019SOL    HW123519   1.380   0.931  15.131  2.4703 -0.5765 -1.2901
 4019SOL    HW223520   1.511   0.913  15.190  0.1778 -0.9322  1.2842
 4020SOL     OW23521   1.224   4.300   7.780 -0.3620 -0.0249 -0.3274
 4020SOL    HW123522   1.233   4.393   7.763 -1.2435 -0.2933 -2.3070
 4020SOL    HW223523   1.191   4.264   7.697  0.5433 -2.0992  0.1931
 4021SOL     OW23524   1.022   0.129   8.248  1.1407 -0.2541 -0.1304
 4021SOL    HW123525   1.101   0.168   8.284  1.1406  0.6170 -1.0594
 4021SOL    HW223526   0.970   0.207   8.229 -0.8214 -1.0166  2.1025
 4022SOL     OW23527   0.281   0.857   4.936 -0.6239 -0.0632  0.2688
 4022SOL    HW123528   0.240   0.932   4.893  1.5986  1.9896  1.7590
 4022SOL    HW223529   0.218   0.787   4.920  0.0536 -1.1374  2.3883
 4023SOL     OW23530   1.974   2.316  15.010  0.1911 -0.2290  0.0094
 4023SOL    HW123531   1.996   2.365  15.090 -2.0925  1.8390 -0.6042
 4023SOL    HW223532   2.029   2.363  14.948  1.0949 -0.0018  0.9839
 4024SOL     OW23533   2.117   2.529   4.664 -0.0060  0.0922 -0.3047
 4024SOL    HW123534   2.133   2.551   4.572  0.0503  0.9735 -0.0899
 4024SOL    HW223535   2.175   2.591   4.708  0.3690  0.1647 -0.9096
 4025SOL     OW23536   2.090   3.268   5.468 -0.2539 -0.6993  0.3856
 4025SOL    HW123537   2.127   3.322   5.538  0.9371 -0.2899 -0.5785
 4025SOL    HW223538   2.011   3.231   5.508 -1.0237  1.6081  1.0077
 4026SOL     OW23539   4.359   2.539  10.853 -0.1008  0.3929  0.3843
 4026SOL    HW123540   4.374   2.618  10.802  1.6489 -1.5289 -2.0718
 4026SOL    HW223541   4.421   2.558  10.923  1.1326 -0.6479 -0.4165
 4027SOL     OW23542   3.080   3.417   0.637  0.3059 -0.4794  0.6150
 4027SOL    HW123543   3.059   3.508   0.617 -0.4521 -0.9069 -0.5776
 4027SOL    HW223544   3.025   3.389   0.710 -2.8287 -0.0152 -1.5298
 4028SOL     OW23545   3.848   3.062   1.708 -0.3250 -0.0981 -0.4197
 4028SOL    HW123546   3.864   3.039   1.616  1.6674  1.6347 -0.5017
 4028SOL    HW223547   3.832   2.972   1.736 -2.8850  0.1901 -0.9502
 4029SOL     OW23548   1.689   1.436  10.777  0.1044 -0.8013  0.4103
 4029SOL    HW123549   1.750   1.378  10.731 -0.5746 -1.3297  0.1728
 4029SOL    HW223550   1.623   1.372  10.803 -1.8576  1.7080  1.5844
 4030SOL     OW23551   2.278   1.702   5.313 -0.1583  0.0790 -0.2422
 4030SOL    HW123552   2.208   1.750   5.356  1.7057  1.2456  1.5291
 4030SOL    HW223553   2.256   1.726   5.223  0.2100  0.5540 -0.2103
 4031SOL     OW23554   4.251   4.037   1.705  0.1718 -0.4688  0.1563
 4031SOL    HW123555   4.160   4.053   1.677  0.0909  0.5274  0.9640
 4031SOL    HW223556   4.232   4.045   1.799 -1.1994  0.5801 -0.1938
 4032SOL     OW23557   3.367   3.543   6.838 -0.4499  0.6742 -0.5644
 4032SOL    HW123558   3.450   3.525   6.794 -0.7392 -1.9531 -0.0278
 4032SOL    HW223559   3.315   3.571   6.763 -0.1472 -1.7797 -1.7032
 4033SOL     OW23560   4.226   1.087  15.717 -1.0257  0.1070 -0.1053
 4033SOL    HW123561   4.308   1.134  15.729  0.0968 -2.0838  0.7083
 4033SOL    HW223562   4.236   1.015  15.778 -1.1173 -0.1826 -0.4297
 4034SOL     OW23563   4.359   1.490  16.551 -0.0888  0.4282 -0.1344
 4034SOL    HW123564   4.355   1.577  16.591  0.1518  0.8485 -1.0433
 4034SOL    HW223565   4.297   1.499  16.479  0.4576 -1.3185 -0.8140
 4035SOL     OW23566   1.956   0.115   0.100  0.8666 -0.1348  0.1843
 4035SOL    HW123567   1.943   0.061   0.177  0.2252  1.0710  0.9261
 4035SOL    HW223568   1.903   0.191   0.125  0.8763 -0.7017  1.9118
 4036SOL     OW23569   3.394   4.501   1.357 -0.5045  0.0877  0.1723
 4036SOL    HW123570   3.335   4.426   1.367  1.0165 -1.2461 -0.9306
 4036SOL    HW223571   3.392   4.536   1.446  0.1464  1.3977 -0.3380
 4037SOL     OW23572   2.180   0.836   0.985 -0.4094  0.6096 -0.0166
 4037SOL    HW123573   2.221   0.915   1.020 -0.3035  0.2623  0.6480
 4037SOL    HW223574   2.254   0.792   0.944 -0.6548  2.1677 -2.1134
 4038SOL     OW23575   1.955   0.069   6.461 -0.3981 -0.5118  0.0333
 4038SOL    HW123576   2.004   0.131   6.514 -3.8607  0.9840  1.5318
 4038SOL    HW223577   1.874   0.073   6.513  0.2855  0.6575  1.0037
 4039SOL     OW23578   2.680   0.364   8.237 -0.0217 -0.5515  0.0126
 4039SOL    HW123579   2.708   0.411   8.315 -2.1722  1.9308 -0.7372
 4039SOL    HW223580   2.685   0.431   8.169  0.5514  0.5560  1.1525
 4040SOL     OW23581   2.798   4.267   4.278  0.1329 -0.3498  0.0809
 4040SOL    HW123582   2.718   4.227   4.245 -0.0893  1.2218 -1.2910
 4040SOL    HW223583   2.800   4.253   4.373  0.2694  1.2285  0.3185
 4041SOL     OW23584   0.264   0.374   2.975 -0.3092  0.0436  0.2703
 4041SOL    HW123585   0.272   0.288   2.934 -0.0242 -0.5089  1.4960
 4041SOL    HW223586   0.357   0.392   2.983 -0.2770  0.2535 -0.5223
 4042SOL     OW23587   4.643   0.055   6.014  0.1348  0.6517  0.5407
 4042SOL    HW123588   4.705   0.088   6.080  0.8064 -0.0590  0.2575
 4042SOL    HW223589   4.647   0.129   5.954 -1.9066  0.3071 -0.0405
 4043SOL     OW23590   2.288   2.994   8.558 -0.4948 -0.5341 -0.9536
 4043SOL    HW123591   2.308   2.902   8.572  0.4679 -0.2326 -0.2960
 4043SOL    HW223592   2.217   2.981   8.495  0.2546  0.0467 -1.9340
 4044SOL     OW23593   1.369   0.152  17.056 -0.2146  0.2084 -0.5094
 4044SOL    HW123594   1.294   0.105  17.018 -1.1336  1.9648 -0.8756
 4044SOL    HW223595   1.377   0.100  17.136 -1.5826 -0.7807 -1.0175
 4045SOL     OW23596   0.798   2.543  17.012  0.0977  0.8336  0.7189
 4045SOL    HW123597   0.777   2.496  17.092  2.2583 -1.0206  0.1708
 4045SOL    HW223598   0.784   2.479  16.942  0.6049  0.6578  0.7776
 4046SOL     OW23599   3.841   0.441   9.811 -0.3000 -0.4502  0.3925
 4046SOL    HW123600   3.799   0.448   9.896 -0.6371 -0.1974  0.2079
 4046SOL    HW223601   3.877   0.353   9.817 -0.9708 -0.6724  1.1398
 4047SOL     OW23602   4.121   1.339   8.319 -0.4900  0.3813 -0.0194
 4047SOL    HW123603   4.181   1.412   8.337 -0.2428 -0.1831  1.4464
 4047SOL    HW223604   4.074   1.327   8.401  0.7843 -0.2658  0.6176
 4048SOL     OW23605   0.039   0.800  13.024  0.3462  0.3249  0.1483
 4048SOL    HW123606   0.089   0.751  12.959  0.8802 -1.1407  1.6587
 4048SOL    HW223607   0.001   0.736  13.084  0.0533  0.4235  0.0684
 4049SOL     OW23608   3.829   4.083  12.049  0.1504  0.1372  0.3441
 4049SOL    HW123609   3.760   4.147  12.067 -0.1493  0.2696 -1.3370
 4049SOL    HW223610   3.904   4.137  12.075  0.0604  0.8560 -0.9108
 4050SOL     OW23611   2.335   3.904  12.285  0.0156 -0.2456  0.4978
 4050SOL    HW123612   2.307   3.813  12.298  2.4721 -0.8828  1.2701
 4050SOL    HW223613   2.264   3.941  12.338  0.8926  1.2400  0.6569
 4051SOL     OW23614   4.307   2.517   5.485  0.1248  0.3070 -0.2899
 4051SOL    HW123615   4.302   2.513   5.581  0.5654  1.2634 -0.2274
 4051SOL    HW223616   4.214   2.496   5.469 -0.0942  0.4626  0.7574
 4052SOL     OW23617   3.712   3.874   5.418  0.2124 -0.4325  0.2458
 4052SOL    HW123618   3.807   3.882   5.429  0.3670  1.9846 -2.7585
 4052SOL    HW223619   3.695   3.806   5.483 -0.0325  0.2626  0.8999
 4053SOL     OW23620   4.692   2.339  10.924  0.0350 -0.1211 -0.1906
 4053SOL    HW123621   4.630   2.391  10.975  0.1237 -1.4347  1.2635
 4053SOL    HW223622   4.641   2.264  10.895  1.5567 -1.0243 -0.5501
 4054SOL     OW23623   2.645   2.552   3.773  0.6447 -0.3777  0.5375
 4054SOL    HW123624   2.649   2.492   3.699  0.1578 -1.5572  1.4825
 4054SOL    HW223625   2.688   2.626   3.730 -2.7336  0.9780 -0.5228
 4055SOL     OW23626   1.288   0.480   5.608 -0.1553  0.6465  0.3817
 4055SOL    HW123627   1.199   0.504   5.633  0.3627  0.2162  2.6605
 4055SOL    HW223628   1.337   0.486   5.690 -0.2045 -2.7221  0.6575
 4056SOL     OW23629   0.302   2.305   7.000 -0.0097 -0.1657  0.0600
 4056SOL    HW123630   0.308   2.250   6.922  2.0326  3.9359 -2.6887
 4056SOL    HW223631   0.295   2.240   7.070 -0.1854  1.3715  1.4553
 4057SOL     OW23632   2.805   0.204   2.365 -0.0080 -0.3861  0.0176
 4057SOL    HW123633   2.732   0.176   2.310 -1.4137 -0.3985  1.9075
 4057SOL    HW223634   2.863   0.129   2.367  2.2128  1.3627  1.0653
 4058SOL     OW23635   2.877   0.480   6.162  0.0286  0.6411 -0.4229
 4058SOL    HW123636   2.805   0.526   6.205 -0.9069  0.4756 -1.7940
 4058SOL    HW223637   2.831   0.458   6.081  0.6245 -0.5753 -0.4350
 4059SOL     OW23638   1.704   3.115   0.835 -0.2746  0.1638  0.2067
 4059SOL    HW123639   1.780   3.059   0.850 -0.7897 -0.5321  0.2500
 4059SOL    HW223640   1.650   3.108   0.914  0.1698  0.2540  0.5192
 4060SOL     OW23641   4.401   0.368   5.898 -0.2014  0.5507  0.0973
 4060SOL    HW123642   4.328   0.429   5.911  0.9340  1.4167  2.3447
 4060SOL    HW223643   4.464   0.394   5.965 -0.1339 -0.1675  0.3148
 4061SOL     OW23644   2.697   0.671   1.255  0.1144  0.1012  0.4885
 4061SOL    HW123645   2.738   0.639   1.175 -0.9582 -0.6672  0.2364
 4061SOL    HW223646   2.629   0.731   1.224  1.1961  0.5598 -0.9825
 4062SOL     OW23647   0.353   3.161  15.162 -0.1668 -0.7292 -0.4432
 4062SOL    HW123648   0.362   3.113  15.080 -1.4727  0.5177 -1.3168
 4062SOL    HW223649   0.369   3.251  15.133 -2.3946  0.7604  2.8615
 4063SOL     OW23650   1.574   3.717  11.861  0.5389 -0.3641 -0.4779
 4063SOL    HW123651   1.560   3.627  11.833 -1.2621 -0.0915 -0.4780
 4063SOL    HW223652   1.669   3.717  11.857  0.5391 -1.1068 -0.4373
 4064SOL     OW23653   1.108   4.716   7.789  0.3004 -0.1504  0.5646
 4064SOL    HW123654   1.065   4.702   7.874  1.4758  0.2348  1.2181
 4064SOL    HW223655   1.045   4.672   7.732 -1.2995  0.8591  1.5382
 4065SOL     OW23656   4.634   4.533   3.162  0.2929  0.0907  0.5108
 4065SOL    HW123657   4.621   4.508   3.071  1.9257 -0.0128  0.3016
 4065SOL    HW223658   4.550   4.501   3.195  0.6662 -0.0616  1.3064
 4066SOL     OW23659   3.319   3.409   8.271  0.0215  0.0271 -0.5253
 4066SOL    HW123660   3.334   3.325   8.228  0.9628 -1.2965  2.3551
 4066SOL    HW223661   3.361   3.472   8.214  0.3954  1.4312  1.3166
 4067SOL     OW23662   3.571   0.720   7.794  0.1075  0.6399 -0.1183
 4067SOL    HW123663   3.562   0.804   7.748  0.3764  1.3623  1.1486
 4067SOL    HW223664   3.480   0.708   7.821 -0.4063  0.8125 -1.7633
 4068SOL     OW23665   1.517   4.615   1.268  0.3323  0.6300 -0.5063
 4068SOL    HW123666   1.594   4.649   1.221  1.0537 -0.1272  0.1250
 4068SOL    HW223667   1.499   4.530   1.227 -0.5021 -0.2452  1.6854
 4069SOL     OW23668   0.780   3.427   0.500  0.2089  0.5333  0.2073
 4069SOL    HW123669   0.746   3.338   0.510  0.6192  0.6611  2.5510
 4069SOL    HW223670   0.708   3.479   0.534 -0.0480  0.9599 -0.9649
 4070SOL     OW23671   4.206   3.421   3.169  0.0703  0.1151 -0.3958
 4070SOL    HW123672   4.127   3.470   3.195 -0.3640 -0.4659 -0.6256
 4070SOL    HW223673   4.273   3.436   3.235 -0.6757  1.1820  0.1261
 4071SOL     OW23674   3.856   0.983   7.165  0.1473  0.2236 -0.0383
 4071SOL    HW123675   3.842   0.935   7.246  0.5198  2.3780  1.3217
 4071SOL    HW223676   3.862   0.901   7.117  2.1963 -0.5749  1.6161
 4072SOL     OW23677   0.273   0.236   5.497 -0.3029 -0.0777 -0.0715
 4072SOL    HW123678   0.185   0.216   5.464  0.0019 -1.0654 -0.3013
 4072SOL    HW223679   0.329   0.231   5.420  0.9439  0.1009  0.8277
 4073SOL     OW23680   1.909   2.613  12.350 -0.1795  0.0278  0.3778
 4073SOL    HW123681   1.986   2.665  12.374 -0.2378 -0.0847  0.7971
 4073SOL    HW223682   1.944   2.577  12.268 -1.9938 -1.8448  0.4406
 4074SOL     OW23683   3.799   3.002   2.134  0.0921  0.2910  0.6943
 4074SOL    HW123684   3.814   2.985   2.041 -0.4356 -0.6867  0.7899
 4074SOL    HW223685   3.723   2.947   2.150  0.3042 -0.1596  0.1541
 4075SOL     OW23686   1.823   1.445   2.467 -0.2895  0.1140 -0.5267
 4075SOL    HW123687   1.853   1.536   2.470  0.3965 -0.1417  0.4690
 4075SOL    HW223688   1.755   1.453   2.400 -1.1997  1.0865  0.5195
 4076SOL     OW23689   0.227   3.289   3.063  0.2533 -0.0312 -0.1561
 4076SOL    HW123690   0.149   3.300   3.008  0.8377  1.8642 -0.6261
 4076SOL    HW223691   0.285   3.244   3.001  0.4764 -0.5965  0.4700
 4077SOL     OW23692   3.934   3.847   2.469  0.1365 -0.9958 -0.6534
 4077SOL    HW123693   3.894   3.904   2.535  1.1868 -0.4057 -0.5196
 4077SOL    HW223694   3.862   3.794   2.436  0.7864 -1.1001 -1.9064
 4078SOL     OW23695   1.149   2.443   8.970  0.3317 -0.6237  0.2755
 4078SOL    HW123696   1.153   2.431   8.875 -2.1559  0.8594 -0.0071
 4078SOL    HW223697   1.171   2.536   8.971 -0.6251 -0.4134  1.5271
 4079SOL     OW23698   0.311   1.449   0.328  0.3123 -0.2806  0.0625
 4079SOL    HW123699   0.217   1.449   0.344  0.2491  0.2167 -0.2868
 4079SOL    HW223700   0.309   1.401   0.246 -0.9458  0.8608 -0.5718
 4080SOL     OW23701   0.220   3.243   9.143  0.0432 -0.2264 -0.2105
 4080SOL    HW123702   0.220   3.200   9.057 -1.4780  0.9561 -0.7928
 4080SOL    HW223703   0.252   3.331   9.122 -0.3362  0.4322  2.0497
 4081SOL     OW23704   3.593   0.825   7.123  0.0100  0.0939 -0.5282
 4081SOL    HW123705   3.545   0.748   7.091  0.6820 -0.1808 -0.8699
 4081SOL    HW223706   3.664   0.821   7.059  2.2686  2.2997  1.8770
 4082SOL     OW23707   4.619   0.455   9.057  0.3175 -0.2954  0.4039
 4082SOL    HW123708   4.550   0.502   9.104  0.3761  1.6024 -1.4293
 4082SOL    HW223709   4.579   0.424   8.976 -0.3975 -0.5288  0.8452
 4083SOL     OW23710   2.787   4.276   4.829  0.5850 -0.2129 -0.4087
 4083SOL    HW123711   2.807   4.369   4.819 -0.4950  0.3119  2.4436
 4083SOL    HW223712   2.874   4.246   4.856  0.8724 -0.0902 -1.2015
 4084SOL     OW23713   2.882   3.568   3.113  0.6963 -0.2678  0.3247
 4084SOL    HW123714   2.918   3.557   3.025 -2.0867 -2.2585 -0.5588
 4084SOL    HW223715   2.792   3.546   3.088  1.0630 -0.5765 -0.7064
 4085SOL     OW23716   3.531   2.889  17.184  0.3868 -0.5496 -0.0280
 4085SOL    HW123717   3.486   2.967  17.217 -0.0382 -0.1130 -1.6520
 4085SOL    HW223718   3.594   2.876  17.255  1.4427  1.0770 -0.6434
 4086SOL     OW23719   1.099   0.189   4.428  0.1742 -0.6650 -0.0598
 4086SOL    HW123720   1.155   0.147   4.494  0.0366  1.5913  1.4881
 4086SOL    HW223721   1.028   0.127   4.445 -1.2360  0.9411 -0.1065
 4087SOL     OW23722   2.353   3.500   5.063  0.1600 -0.4614  0.2720
 4087SOL    HW123723   2.318   3.560   4.997  0.9453 -0.6217 -0.2897
 4087SOL    HW223724   2.426   3.552   5.097 -0.2446  0.1358  0.2266
 4088SOL     OW23725   1.452   0.870  11.208  0.5968 -1.1578  0.0054
 4088SOL    HW123726   1.382   0.881  11.144  0.6035  0.1244  0.2287
 4088SOL    HW223727   1.403   0.811  11.265 -0.7750  0.8164  0.8460
 4089SOL     OW23728   4.291   1.301   7.799 -0.0192 -0.2113 -0.2555
 4089SOL    HW123729   4.203   1.267   7.818  0.6791 -1.5611  0.6052
 4089SOL    HW223730   4.294   1.376   7.859 -0.7053  0.1965 -0.7335
 4090SOL     OW23731   0.099   4.255   3.435 -0.2425 -0.3311 -0.2015
 4090SOL    HW123732   0.079   4.264   3.342  2.2343  1.2417 -0.6092
 4090SOL    HW223733   0.144   4.171   3.426  1.8005  0.9545 -2.0941
 4091SOL     OW23734   4.285   2.481   8.674 -0.0647 -0.2109  0.3603
 4091SOL    HW123735   4.378   2.460   8.676 -0.1608 -0.6980 -0.0755
 4091SOL    HW223736   4.272   2.510   8.583  0.0093 -1.9728 -0.2098
 4092SOL     OW23737   3.689   0.777   8.559 -0.0003 -0.8371  0.2088
 4092SOL    HW123738   3.658   0.825   8.636  1.8087  1.3076 -0.4125
 4092SOL    HW223739   3.614   0.790   8.500  0.5060 -2.0898 -0.7064
 4093SOL     OW23740   3.837   3.135   5.434  0.3014  0.1477  0.2134
 4093SOL    HW123741   3.808   3.203   5.496  2.0775 -0.6793  1.9836
 4093SOL    HW223742   3.923   3.162   5.400  0.1559 -0.3768 -0.5484
 4094SOL     OW23743   2.070   1.853   2.896 -0.2097 -0.1909  0.4211
 4094SOL    HW123744   2.060   1.885   2.806  0.6482  0.4126  0.5440
 4094SOL    HW223745   1.979   1.826   2.912 -0.3965  1.3092  1.8417
 4095SOL     OW23746   3.535   3.503   3.170  0.1100  0.0793  0.4040
 4095SOL    HW123747   3.496   3.420   3.146 -0.9463  0.2013  1.7133
 4095SOL    HW223748   3.489   3.558   3.107 -0.7444  0.7831  1.6370
 4096SOL     OW23749   0.110   3.365  17.544 -0.3691  0.0006 -0.0433
 4096SOL    HW123750   0.194   3.392  17.581 -0.5860  2.4921 -1.3768
 4096SOL    HW223751   0.069   3.323  17.620 -0.9429 -1.0390 -0.9361
 4097SOL     OW23752   4.539   0.270   3.267 -0.4980 -0.1604  0.3183
 4097SOL    HW123753   4.628   0.302   3.260 -0.6210  0.2840  0.7780
 4097SOL    HW223754   4.533   0.196   3.207  1.4572  0.3423 -0.4834
 4098SOL     OW23755   3.363   3.009   3.322 -0.4914 -0.3823 -0.0250
 4098SOL    HW123756   3.401   3.073   3.382  0.6226 -0.0074 -1.1402
 4098SOL    HW223757   3.427   2.938   3.326 -0.9383 -0.8303 -0.7201
 4099SOL     OW23758   0.529   0.082   6.568 -0.5636 -0.3982  0.0545
 4099SOL    HW123759   0.516   0.100   6.474  2.3965  0.1287 -0.2440
 4099SOL    HW223760   0.615   0.119   6.588 -0.3313 -0.1308 -1.4265
 4100SOL     OW23761   0.700   1.617  15.710 -0.3234  0.3139 -0.0777
 4100SOL    HW123762   0.666   1.599  15.622  0.1845 -0.6562 -0.0785
 4100SOL    HW223763   0.687   1.712  15.706 -0.5841  0.3041  0.6069
 4101SOL     OW23764   4.043   3.068  14.296 -0.1500  0.2509 -0.5337
 4101SOL    HW123765   4.033   3.097  14.205  1.3202  1.2171 -0.3979
 4101SOL    HW223766   3.989   3.139  14.332  1.7914  2.1455 -1.3268
 4102SOL     OW23767   3.142   2.623  17.046 -0.3833 -0.2085 -0.1479
 4102SOL    HW123768   3.229   2.659  17.062 -0.4634 -0.4617  0.8722
 4102SOL    HW223769   3.146   2.618  16.951  0.1444 -0.2009 -0.1261
 4103SOL     OW23770   0.296   4.546  15.658 -0.4736 -0.1991  0.3919
 4103SOL    HW123771   0.335   4.505  15.735  0.3424  0.9196  0.5643
 4103SOL    HW223772   0.215   4.495  15.659  0.1809 -1.3187 -1.8156
 4104SOL     OW23773   2.552   4.177   4.179 -0.3622 -0.1736 -0.2923
 4104SOL    HW123774   2.516   4.176   4.090 -0.4298  1.0636 -0.2790
 4104SOL    HW223775   2.471   4.178   4.230 -0.8890  1.0708 -1.1602
 4105SOL     OW23776   1.225   1.724  17.435  0.3991 -0.1163  0.0308
 4105SOL    HW123777   1.169   1.772  17.495  1.6882  0.8586  0.4646
 4105SOL    HW223778   1.169   1.722  17.357  1.6311  1.1180 -0.9062
 4106SOL     OW23779   1.183   3.962  12.191  1.0557  0.3165  0.2738
 4106SOL    HW123780   1.197   4.015  12.112 -1.1253  1.1016  0.4023
 4106SOL    HW223781   1.244   3.889  12.182  2.9463  1.9539 -0.1065
 4107SOL     OW23782   3.559   0.354   0.573 -0.2500  0.5529  0.1054
 4107SOL    HW123783   3.600   0.432   0.610  0.5949 -0.9858  2.4081
 4107SOL    HW223784   3.577   0.290   0.642 -1.1856  1.7922  1.5111
 4108SOL     OW23785   2.808   3.579   7.132 -0.0006 -0.1015  0.0338
 4108SOL    HW123786   2.818   3.657   7.187  0.2766 -0.2485  0.1933
 4108SOL    HW223787   2.800   3.512   7.199  2.5266 -0.0547  0.4147
 4109SOL     OW23788   1.337   2.539   6.759 -0.2396  0.3925 -0.3916
 4109SOL    HW123789   1.429   2.557   6.778  0.0013  0.4719 -1.6132
 4109SOL    HW223790   1.300   2.575   6.839 -0.9871  1.0249 -1.0245
 4110SOL     OW23791   1.431   2.480   8.236  0.5239  0.3362 -0.0368
 4110SOL    HW123792   1.374   2.405   8.254  1.1470 -0.2314 -0.4434
 4110SOL    HW223793   1.504   2.436   8.192  0.3756  0.9939 -0.9250
 4111SOL     OW23794   3.828   1.279   9.646 -0.5529 -0.2693  0.0740
 4111SOL    HW123795   3.883   1.347   9.683 -0.7449 -1.6994  3.0144
 4111SOL    HW223796   3.895   1.229   9.599 -0.2100  0.6642 -0.4086
 4112SOL     OW23797   3.032   3.000   5.883  0.4490 -0.1588  0.3837
 4112SOL    HW123798   2.995   2.951   5.956  2.0953 -0.2276  1.1727
 4112SOL    HW223799   3.072   3.081   5.915 -2.6922  1.3195  0.6004
 4113SOL     OW23800   1.031   0.427   1.589 -0.2377  0.6976  0.4345
 4113SOL    HW123801   0.992   0.473   1.515 -0.8976 -1.4121 -0.5528
 4113SOL    HW223802   0.989   0.340   1.589 -1.4927  1.3060 -2.1225
 4114SOL     OW23803   1.025   3.919   7.367  0.1751  0.7127 -0.5316
 4114SOL    HW123804   1.048   3.937   7.276  1.0134  1.5305 -0.1551
 4114SOL    HW223805   1.097   3.862   7.393 -0.4470  1.3205  2.5259
 4115SOL     OW23806   3.426   2.746   0.485  0.3881  0.2489  0.6843
 4115SOL    HW123807   3.357   2.812   0.484  1.3324  1.2330  0.9497
 4115SOL    HW223808   3.458   2.767   0.397 -0.8414  1.0575  0.4265
 4116SOL     OW23809   2.811   0.807   2.837 -0.4605 -0.5918  0.4463
 4116SOL    HW123810   2.797   0.869   2.766  1.9988  1.9096  2.1149
 4116SOL    HW223811   2.742   0.746   2.813  0.6420 -1.2747 -0.9238
 4117SOL     OW23812   3.220   2.235   9.921 -0.1178  0.0123 -0.2189
 4117SOL    HW123813   3.308   2.268   9.902 -0.5615  0.5975 -1.2716
 4117SOL    HW223814   3.201   2.203   9.833 -0.7911 -0.5217  0.1197
 4118SOL     OW23815   0.203   2.395   4.758 -0.2858  0.0860  0.4041
 4118SOL    HW123816   0.190   2.312   4.712 -1.9920  0.2691  0.5687
 4118SOL    HW223817   0.207   2.457   4.684 -1.6175  0.7101  0.8603
 4119SOL     OW23818   4.212   0.952   9.769  0.3652 -0.5333 -0.0875
 4119SOL    HW123819   4.187   0.889   9.838  0.6117 -0.1060  0.3952
 4119SOL    HW223820   4.156   1.028   9.785  0.7605 -0.4714  1.0327
 4120SOL     OW23821   3.041   3.084   1.458  0.0577 -0.6277  0.4529
 4120SOL    HW123822   3.119   3.133   1.432 -0.2655 -1.1886 -1.6113
 4120SOL    HW223823   3.044   3.069   1.553  0.7779 -1.8203  0.2468
 4121SOL     OW23824   3.217   3.594   5.172 -0.3340  0.0748 -0.4357
 4121SOL    HW123825   3.161   3.533   5.220 -0.1207 -0.3386 -0.7096
 4121SOL    HW223826   3.222   3.668   5.233  0.8928 -2.5862  2.6946
 4122SOL     OW23827   1.881   4.451  14.348  0.5112 -0.1987 -0.1162
 4122SOL    HW123828   1.946   4.481  14.412  1.3114 -1.9778 -0.0971
 4122SOL    HW223829   1.905   4.490  14.264 -1.6343 -2.1293 -1.6045
 4123SOL     OW23830   2.402   2.644  13.170  0.0324  0.0566 -0.0132
 4123SOL    HW123831   2.337   2.655  13.101  1.7892 -1.7471 -1.9656
 4123SOL    HW223832   2.426   2.552  13.162  0.8156  0.1138  1.6785
 4124SOL     OW23833   4.558   1.520   5.078 -0.1489  0.7108 -0.2817
 4124SOL    HW123834   4.576   1.507   4.985  1.5570 -1.8289  0.4014
 4124SOL    HW223835   4.576   1.611   5.099  0.6469  0.3396  0.6418
 4125SOL     OW23836   3.313   1.848   8.790  0.0692  0.1045 -0.0134
 4125SOL    HW123837   3.299   1.880   8.879 -0.1741  1.7453 -0.6327
 4125SOL    HW223838   3.371   1.913   8.750  1.0212 -1.0324 -0.4796
 4126SOL     OW23839   0.240   1.587   7.341  0.0584  0.0300  0.0663
 4126SOL    HW123840   0.217   1.581   7.249 -0.4241  0.2027  0.1772
 4126SOL    HW223841   0.208   1.502   7.371  0.1955 -0.1576 -0.3224
 4127SOL     OW23842   0.693   4.223   5.737 -0.1148 -0.1503 -0.5120
 4127SOL    HW123843   0.765   4.226   5.674 -0.2982 -1.0773 -0.7565
 4127SOL    HW223844   0.741   4.262   5.811 -1.1117  0.1399 -0.0174
 4128SOL     OW23845   1.457   2.462   4.182 -0.1091 -0.4967 -0.1917
 4128SOL    HW123846   1.399   2.532   4.212  1.7745  1.0908 -0.2938
 4128SOL    HW223847   1.462   2.411   4.263 -0.6273  0.6764  0.5862
 4129SOL     OW23848   3.235   4.503   4.780 -0.5812  0.1145  0.0097
 4129SOL    HW123849   3.255   4.422   4.827  1.2790  0.6104  0.0677
 4129SOL    HW223850   3.266   4.576   4.834  1.2369  0.0144 -0.8918
 4130SOL     OW23851   1.962   4.190  11.686 -0.5422  0.2569  0.3366
 4130SOL    HW123852   1.916   4.110  11.663  1.1214 -0.7546  0.5407
 4130SOL    HW223853   1.968   4.174  11.781  1.9348  0.1032  0.1659
 4131SOL     OW23854   3.747   4.608   9.609  0.3183  0.5052 -0.0724
 4131SOL    HW123855   3.760   4.526   9.561  1.5970 -0.6816  2.2870
 4131SOL    HW223856   3.837   4.638   9.619  1.0520 -1.8982  0.6201
 4132SOL     OW23857   2.988   0.634   6.682  0.8415  0.1699 -0.0335
 4132SOL    HW123858   2.947   0.714   6.649 -1.7463 -1.2878 -0.3038
 4132SOL    HW223859   2.917   0.571   6.673 -0.3480  1.8322 -2.1312
 4133SOL     OW23860   0.436   2.691  15.689 -0.1293 -0.5490  0.4328
 4133SOL    HW123861   0.357   2.733  15.724  0.9924 -0.6414  3.0673
 4133SOL    HW223862   0.461   2.748  15.616 -0.1658  0.1628  0.9868
 4134SOL     OW23863   1.820   2.309   7.194  0.2113 -0.2596 -0.4083
 4134SOL    HW123864   1.841   2.297   7.101  0.2306 -0.1387 -0.4198
 4134SOL    HW223865   1.858   2.392   7.222  0.3693 -0.6956  0.6541
 4135SOL     OW23866   4.310   3.901   2.562  0.8160  0.1492 -0.6290
 4135SOL    HW123867   4.262   3.948   2.630  0.3301  0.1559 -0.9743
 4135SOL    HW223868   4.399   3.918   2.590  1.0915  1.0939 -2.0669
 4136SOL     OW23869   4.414   3.097   4.311 -0.6140  0.0698 -0.0748
 4136SOL    HW123870   4.450   3.009   4.311 -0.7612  0.0095  1.0712
 4136SOL    HW223871   4.321   3.075   4.305 -0.2810 -0.8499 -1.9578
 4137SOL     OW23872   3.432   2.656   2.782 -0.1444  0.7013 -0.1067
 4137SOL    HW123873   3.503   2.665   2.718 -0.4096  1.8212 -0.2460
 4137SOL    HW223874   3.479   2.684   2.860  1.1190 -0.6387 -0.3708
 4138SOL     OW23875   3.485   0.326   2.114 -0.0520 -0.2820  0.1408
 4138SOL    HW123876   3.553   0.389   2.090  1.2687 -1.4661  0.7780
 4138SOL    HW223877   3.416   0.378   2.155  0.2200  1.0558 -1.0750
 4139SOL     OW23878   2.491   4.091   7.397 -0.2137  0.5363 -0.0984
 4139SOL    HW123879   2.502   3.997   7.385  0.2549  0.4680  0.8949
 4139SOL    HW223880   2.478   4.102   7.491  0.6919  0.0221  0.0810
 4140SOL     OW23881   2.083   2.206  13.452  0.0688  0.3076 -0.5070
 4140SOL    HW123882   2.121   2.221  13.539  0.5273 -0.1165 -0.6333
 4140SOL    HW223883   2.029   2.127  13.460 -0.0149  0.2257 -2.0175
 4141SOL     OW23884   0.693   4.476   5.088 -0.2473  0.2553 -0.2300
 4141SOL    HW123885   0.628   4.454   5.021  0.6436 -1.2610 -0.6026
 4141SOL    HW223886   0.659   4.456   5.175 -1.8195  0.5523 -0.7943
 4142SOL     OW23887   2.088   1.607   9.339  0.8473 -0.1373 -0.2213
 4142SOL    HW123888   2.069   1.592   9.432 -1.8880  2.0142 -0.4298
 4142SOL    HW223889   2.134   1.526   9.317 -0.0903 -1.2436  1.8955
 4143SOL     OW23890   2.650   2.133   3.124 -0.4428  0.0039  0.0993
 4143SOL    HW123891   2.658   2.227   3.141 -0.0969  0.1371 -0.8195
 4143SOL    HW223892   2.743   2.118   3.107 -0.1879  1.0078  0.6230
 4144SOL     OW23893   1.659   2.099   2.268 -0.2813 -0.3544  0.6026
 4144SOL    HW123894   1.718   2.076   2.196 -1.8647 -1.3661 -0.3759
 4144SOL    HW223895   1.579   2.108   2.217  0.6703 -0.1391 -0.8734
 4145SOL     OW23896   4.547   3.925   3.849  0.5368  0.2098 -0.2591
 4145SOL    HW123897   4.519   4.014   3.869  0.7275  0.8692 -3.0097
 4145SOL    HW223898   4.528   3.925   3.755 -0.6125 -2.5423 -0.0335
 4146SOL     OW23899   2.497   2.123   2.680  0.1488 -0.0590 -0.5488
 4146SOL    HW123900   2.408   2.142   2.652 -0.2439 -3.0048 -1.2640
 4146SOL    HW223901   2.473   2.089   2.766  3.3128 -0.8529  0.0192
 4147SOL     OW23902   0.364   2.276   7.687 -0.1865  1.1249 -0.1503
 4147SOL    HW123903   0.379   2.186   7.713  0.8920  1.0041 -1.1885
 4147SOL    HW223904   0.331   2.316   7.767  2.8560  1.8215  0.7783
 4148SOL     OW23905   0.294   0.773   3.942 -0.1772  0.5659  0.2010
 4148SOL    HW123906   0.368   0.722   3.974 -0.8180 -0.6350 -0.2317
 4148SOL    HW223907   0.245   0.793   4.022 -1.4591  1.9975 -0.9291
 4149SOL     OW23908   2.155   3.011   5.726 -0.5858 -0.4172 -0.5083
 4149SOL    HW123909   2.139   2.919   5.746 -0.0054 -0.1837  1.0381
 4149SOL    HW223910   2.069   3.052   5.735 -0.2215 -0.0348  1.1607
 4150SOL     OW23911   0.846   0.772   3.286 -0.1473 -0.0492 -0.5376
 4150SOL    HW123912   0.811   0.843   3.231  0.5053  0.3850 -0.3953
 4150SOL    HW223913   0.932   0.749   3.251  1.1876  0.3391  2.5434
 4151SOL     OW23914   1.237   3.790   7.738 -0.4546 -0.3947  0.5284
 4151SOL    HW123915   1.159   3.841   7.762  1.9405  3.1152  0.7976
 4151SOL    HW223916   1.297   3.862   7.718 -0.0928 -0.9885 -0.5262
 4152SOL     OW23917   0.459   4.612   8.418  0.2584 -0.1104 -0.0405
 4152SOL    HW123918   0.479   4.648   8.505 -0.9088  1.7576 -0.5529
 4152SOL    HW223919   0.377   4.566   8.436  0.4286 -0.7643 -0.9329
 4153SOL     OW23920   0.085   1.748   6.902  0.1391 -0.0912  0.1103
 4153SOL    HW123921   0.054   1.791   6.822  2.7731  2.1373  0.2543
 4153SOL    HW223922   0.108   1.666   6.858 -0.1833 -0.9848  1.6138
 4154SOL     OW23923   3.337   1.815  11.671  0.3135 -0.6023 -0.3124
 4154SOL    HW123924   3.279   1.788  11.600  0.2723  2.7561 -1.5497
 4154SOL    HW223925   3.421   1.772  11.653  0.0732 -0.7449 -1.1022
 4155SOL     OW23926   3.033   0.026   5.204 -0.1420  0.2069 -0.3623
 4155SOL    HW123927   3.039   0.078   5.284  0.7660 -0.5152  0.0291
 4155SOL    HW223928   2.945   0.032   5.168 -1.3564 -2.1931  2.1629
 4156SOL     OW23929   3.885   3.184   3.086 -0.6437  0.0483  0.0642
 4156SOL    HW123930   3.857   3.150   3.001  1.0387 -0.7802 -0.1476
 4156SOL    HW223931   3.829   3.140   3.150  2.5449 -2.2086  1.2464
 4157SOL     OW23932   2.636   4.192   2.330  0.3780 -0.6213  0.0281
 4157SOL    HW123933   2.600   4.118   2.281 -0.8518  0.6817 -1.0292
 4157SOL    HW223934   2.696   4.229   2.266  1.5902 -2.9206 -0.1476
 4158SOL     OW23935   0.586   2.070   9.652  0.1721  0.1667  0.3280
 4158SOL    HW123936   0.514   2.018   9.616  1.9939 -1.2877 -1.1595
 4158SOL    HW223937   0.551   2.109   9.732 -2.5856 -2.6014  0.5177
 4159SOL     OW23938   1.051   1.500   6.955  0.7536 -0.3298 -0.3369
 4159SOL    HW123939   1.054   1.459   7.042  2.2939 -2.5838 -1.4526
 4159SOL    HW223940   1.136   1.469   6.925  1.1240  1.8742 -1.5392
 4160SOL     OW23941   0.630   4.260   5.414 -0.3035  0.3930  0.4910
 4160SOL    HW123942   0.592   4.216   5.338 -0.2986  0.0512  0.6878
 4160SOL    HW223943   0.703   4.198   5.422  0.4986  1.4939  1.8549
 4161SOL     OW23944   1.315   3.312   4.642 -0.6730  0.1887 -0.2003
 4161SOL    HW123945   1.287   3.297   4.733  0.8490  2.0026  0.5730
 4161SOL    HW223946   1.233   3.295   4.596 -0.2161 -0.9765 -0.5908
 4162SOL     OW23947   4.403   1.749   4.346 -1.0284 -0.0970 -0.8224
 4162SOL    HW123948   4.363   1.825   4.304  1.1435  1.0382 -0.8807
 4162SOL    HW223949   4.354   1.677   4.307  0.0881 -1.5659  0.4756
 4163SOL     OW23950   0.978   3.681  13.292  0.1668  0.1528  0.2394
 4163SOL    HW123951   0.888   3.714  13.285 -0.3229 -1.8326 -3.2995
 4163SOL    HW223952   1.026   3.762  13.275 -1.3781  1.3473  1.6300
 4164SOL     OW23953   1.683   0.370   7.594 -0.1465  0.0317  0.8222
 4164SOL    HW123954   1.609   0.391   7.536  0.1243 -0.8048  0.1703
 4164SOL    HW223955   1.703   0.282   7.564  1.4578 -0.0991  2.2871
 4165SOL     OW23956   4.470   2.113   5.969  0.4734  0.1819  0.3710
 4165SOL    HW123957   4.451   2.137   6.060 -2.9114  1.9515 -0.7917
 4165SOL    HW223958   4.394   2.057   5.950  0.0881  0.7389  0.2793
 4166SOL     OW23959   1.630   1.369  14.995  0.1923  0.0767  0.5240
 4166SOL    HW123960   1.630   1.283  15.037  3.4367 -0.9079 -1.4783
 4166SOL    HW223961   1.667   1.348  14.909 -1.6901 -1.3541  0.0439
 4167SOL     OW23962   3.579   2.730   8.169 -0.1217  0.2276 -0.3950
 4167SOL    HW123963   3.648   2.761   8.112  1.0357  1.3633  1.6192
 4167SOL    HW223964   3.535   2.810   8.197 -0.2735  0.1880 -0.5195
 4168SOL     OW23965   1.661   1.221   6.441  0.3658  0.2023 -0.1404
 4168SOL    HW123966   1.748   1.211   6.479  0.7258 -0.5132 -1.1334
 4168SOL    HW223967   1.641   1.314   6.435  2.2090  0.4860 -2.0323
 4169SOL     OW23968   3.886   0.476  13.882  0.2353 -0.1690  0.5634
 4169SOL    HW123969   3.800   0.482  13.840 -0.2772 -0.4967  1.5649
 4169SOL    HW223970   3.870   0.487  13.976  0.8044  2.0586  0.3999
 4170SOL     OW23971   3.727   2.163   3.639 -0.3999 -0.3097  0.0046
 4170SOL    HW123972   3.647   2.193   3.681  0.5982  2.2671  0.0310
 4170SOL    HW223973   3.759   2.236   3.587  1.0476 -0.3932  0.7893
 4171SOL     OW23974   3.597   3.055   3.468  0.2157 -0.0773 -0.5801
 4171SOL    HW123975   3.611   2.969   3.430  1.7874 -0.2665  0.4199
 4171SOL    HW223976   3.601   3.025   3.559 -1.0257  0.5456 -0.3181
 4172SOL     OW23977   4.332   3.306   6.057 -0.0399  0.5123  0.2045
 4172SOL    HW123978   4.419   3.345   6.061  0.2329  0.1535 -2.3966
 4172SOL    HW223979   4.332   3.249   6.134  0.8790  2.4497  1.6196
 4173SOL     OW23980   1.803   1.142   9.840  0.0962 -0.3092  0.1172
 4173SOL    HW123981   1.830   1.054   9.866 -1.2056 -0.7670 -0.0652
 4173SOL    HW223982   1.882   1.196   9.848  0.5296 -0.8086 -0.8524
 4174SOL     OW23983   4.302   3.098   0.644  0.1931 -0.2555 -0.3870
 4174SOL    HW123984   4.375   3.150   0.679 -0.2175  1.1823 -1.6794
 4174SOL    HW223985   4.342   3.013   0.663  0.9122 -0.3229 -2.2017
 4175SOL     OW23986   0.420   1.856   8.674 -0.0243 -0.2654 -0.4272
 4175SOL    HW123987   0.381   1.823   8.593 -0.4349 -0.5043 -0.1306
 4175SOL    HW223988   0.369   1.814   8.743  0.2586  0.9253  0.4896
 4176SOL     OW23989   1.517   0.454   4.405 -0.0764  0.3259 -0.5139
 4176SOL    HW123990   1.474   0.369   4.422 -1.4363  0.9155 -0.9783
 4176SOL    HW223991   1.558   0.438   4.321  1.6587 -3.0043  0.9681
 4177SOL     OW23992   4.382   1.480   7.957  0.0503  0.0703  0.5458
 4177SOL    HW123993   4.419   1.531   8.029 -1.2734 -0.1882  1.3909
 4177SOL    HW223994   4.316   1.543   7.929 -0.3991  0.3468  2.2759
 4178SOL     OW23995   0.395   0.044   6.101  0.2938  0.5390 -0.2541
 4178SOL    HW123996   0.391   0.025   6.007 -0.4616  1.1691 -0.3384
 4178SOL    HW223997   0.324   4.708   6.125  1.0623  0.1419  1.0555
 4179SOL     OW23998   1.562   0.872   2.149 -0.5941  0.4110 -0.2279
 4179SOL    HW123999   1.530   0.962   2.154 -1.4505  0.2845 -3.6559
 4179SOL    HW224000   1.517   0.839   2.227 -0.1697 -0.5346 -0.3841
 4180SOL     OW24001   4.435   2.140   7.254  0.1572  0.1991  0.8760
 4180SOL    HW124002   4.418   2.057   7.210  1.0633 -0.0843  1.0739
 4180SOL    HW224003   4.522   2.158   7.221  0.7001 -0.7096  1.8196
 4181SOL     OW24004   1.156   0.510   1.109 -0.2031 -0.0748 -0.1855
 4181SOL    HW124005   1.073   0.521   1.154  0.1083 -0.4652  0.4981
 4181SOL    HW224006   1.167   0.415   1.104  0.1160 -0.0404 -0.1488
 4182SOL     OW24007   0.051   2.415  12.533  0.2762 -0.4128 -0.2500
 4182SOL    HW124008   4.721   2.345  12.495 -0.0529 -0.3226  0.0435
 4182SOL    HW224009   0.071   2.386  12.622  2.2191 -0.3349 -0.6542
 4183SOL     OW24010   1.158   3.254   2.944  0.1926  0.5496  0.4584
 4183SOL    HW124011   1.234   3.283   2.892 -0.7205  1.0250 -0.6004
 4183SOL    HW224012   1.086   3.291   2.894  0.0611  0.3210  0.4825
 4184SOL     OW24013   1.729   1.572   3.764 -0.3242 -0.1166 -0.4201
 4184SOL    HW124014   1.686   1.504   3.712 -0.2145  0.9315 -1.8640
 4184SOL    HW224015   1.663   1.591   3.831  0.7631  0.2337  0.5513
 4185SOL     OW24016   1.349   4.626  10.006  0.4742 -0.1364  0.0088
 4185SOL    HW124017   1.303   4.542  10.005 -2.6958  1.5733  1.1912
 4185SOL    HW224018   1.435   4.608  10.043  1.4561  1.6281 -1.3842
 4186SOL     OW24019   2.689   3.251   2.621 -0.1279  0.6675 -0.0896
 4186SOL    HW124020   2.683   3.310   2.546 -1.3643 -0.4100 -0.8352
 4186SOL    HW224021   2.639   3.295   2.690 -1.6544 -0.8156 -0.2618
 4187SOL     OW24022   1.733   4.620   4.378  0.2272  0.5741  0.0588
 4187SOL    HW124023   1.754   4.639   4.287 -0.4315 -0.3952 -0.3032
 4187SOL    HW224024   1.769   4.532   4.392  1.9684  1.3144  0.1873
 4188SOL     OW24025   0.225   2.468  10.923 -0.3714 -0.2453  0.0443
 4188SOL    HW124026   0.244   2.470  11.017 -0.1684  0.2121 -0.0087
 4188SOL    HW224027   0.153   2.404  10.917  0.2755 -1.2722  2.9442
 4189SOL     OW24028   0.857   2.481   0.281 -0.3741  0.6538 -0.0609
 4189SOL    HW124029   0.772   2.467   0.323  0.4715 -2.5364  0.5595
 4189SOL    HW224030   0.904   2.401   0.305  0.9321  1.1790 -0.8562
 4190SOL     OW24031   3.982   0.400   0.561  0.2338 -0.4392 -0.2957
 4190SOL    HW124032   4.068   0.414   0.602 -0.0182  0.1136  0.0546
 4190SOL    HW224033   4.022   0.406   0.475  0.8728  1.2885  0.1158
 4191SOL     OW24034   3.468   0.720   5.676 -0.3539  0.1460 -0.0506
 4191SOL    HW124035   3.488   0.798   5.625  1.4846 -1.1497 -1.3587
 4191SOL    HW224036   3.540   0.713   5.739 -0.1550 -0.2766 -0.3166
 4192SOL     OW24037   1.576   3.809  10.183  0.2870 -0.5218  0.3237
 4192SOL    HW124038   1.588   3.854  10.266 -2.4939  1.5677 -0.3959
 4192SOL    HW224039   1.608   3.883  10.132 -1.7663 -0.9526 -1.6336
 4193SOL     OW24040   0.719   3.310   3.645 -0.6276 -0.0867  0.0802
 4193SOL    HW124041   0.742   3.289   3.735 -1.6069 -1.3938  0.0269
 4193SOL    HW224042   0.644   3.251   3.635 -0.7693  0.1455 -0.2218
 4194SOL     OW24043   4.043   0.776  13.633  0.2705  0.0864 -0.3419
 4194SOL    HW124044   3.975   0.709  13.634  1.2268 -0.8608  1.7412
 4194SOL    HW224045   4.106   0.735  13.573 -0.1242  0.3252 -0.9178
 4195SOL     OW24046   2.570   0.875   7.572 -0.4418  0.2445  0.7787
 4195SOL    HW124047   2.552   0.784   7.547  1.0318  1.1525 -3.6529
 4195SOL    HW224048   2.614   0.919   7.499 -1.3287  0.1618  0.1989
 4196SOL     OW24049   4.194   2.797   5.918 -0.1365  0.3082  1.1771
 4196SOL    HW124050   4.239   2.855   5.856  0.6561  1.7079  3.0203
 4196SOL    HW224051   4.136   2.861   5.960  1.1328  2.8154 -0.8889
 4197SOL     OW24052   4.582   1.578  10.819  0.0635 -0.1428  0.2811
 4197SOL    HW124053   4.607   1.597  10.910  3.0703  0.6284 -0.7001
 4197SOL    HW224054   4.500   1.533  10.839 -0.1497  0.4350  0.7137
 4198SOL     OW24055   1.741   0.105   0.351  0.1605  0.1725 -0.6962
 4198SOL    HW124056   1.753   0.183   0.298 -1.7729  1.4066  0.6834
 4198SOL    HW224057   1.707   0.048   0.282  0.2553  2.0540 -2.2774
 4199SOL     OW24058   2.545   3.998  14.630 -0.6498 -0.0579 -0.4905
 4199SOL    HW124059   2.554   4.092  14.645 -1.9873  0.2587 -1.6482
 4199SOL    HW224060   2.493   3.999  14.549 -0.3904 -0.2235 -0.6588
 4200SOL     OW24061   2.297   2.731   4.968 -0.4127  0.0947 -0.2477
 4200SOL    HW124062   2.208   2.717   4.935 -0.5051 -0.1829  0.1118
 4200SOL    HW224063   2.293   2.826   4.980 -0.5557 -0.3656  3.6079
 4201SOL     OW24064   0.477   2.965   5.849 -0.1296 -1.1471  0.3610
 4201SOL    HW124065   0.389   3.000   5.863 -0.7300 -1.9577 -1.4067
 4201SOL    HW224066   0.511   2.928   5.931  0.5266 -1.5530 -0.0947
 4202SOL     OW24067   2.258   0.028  16.060 -0.2560 -0.0973  0.1137
 4202SOL    HW124068   2.347   0.064  16.061 -0.4275  0.3881 -2.0096
 4202SOL    HW224069   2.284   4.659  16.056 -0.7516 -0.2804  1.0119
 4203SOL     OW24070   2.169   2.274   4.449  0.5591  0.0965  0.0601
 4203SOL    HW124071   2.244   2.259   4.507 -0.2449  1.2402  1.3888
 4203SOL    HW224072   2.212   2.238   4.371 -2.6109  0.3462 -1.7965
 4204SOL     OW24073   1.262   1.628  16.018 -0.6190 -0.5064 -0.1694
 4204SOL    HW124074   1.177   1.649  15.979 -0.3260  1.6118  0.3433
 4204SOL    HW224075   1.278   1.706  16.072 -0.9400  0.3310 -1.2747
 4205SOL     OW24076   2.298   1.242   8.057  0.3688 -0.0583  0.5273
 4205SOL    HW124077   2.284   1.152   8.087 -2.8781 -0.4761 -2.2280
 4205SOL    HW224078   2.350   1.228   7.978  0.7987 -3.4657  1.4044
 4206SOL     OW24079   1.809   0.428   8.624 -0.9312 -0.3228  0.3890
 4206SOL    HW124080   1.861   0.476   8.688 -0.9108 -1.1463  0.9843
 4206SOL    HW224081   1.733   0.483   8.607 -0.1536  0.9423  1.0283
 4207SOL     OW24082   3.807   2.829   4.802  0.5781  0.2705 -0.1471
 4207SOL    HW124083   3.801   2.777   4.722  0.3697  0.3262 -0.1680
 4207SOL    HW224084   3.716   2.849   4.824  1.0661  1.1191  1.0941
 4208SOL     OW24085   3.960   4.133  12.974  0.2068  0.0992  0.1717
 4208SOL    HW124086   4.024   4.138  13.044 -0.0674 -0.6891  0.4739
 4208SOL    HW224087   3.959   4.225  12.945  1.1916 -0.3908 -1.4469
 4209SOL     OW24088   0.543   3.745   9.689 -0.0146 -0.1115 -0.1520
 4209SOL    HW124089   0.619   3.769   9.637  0.6986  0.7345  1.2823
 4209SOL    HW224090   0.497   3.827   9.704  0.4980  0.7201 -3.2061
 4210SOL     OW24091   4.095   1.037  14.477  0.3541 -0.1324 -0.1523
 4210SOL    HW124092   4.056   1.029  14.390 -0.7084 -1.8909  0.5004
 4210SOL    HW224093   4.174   0.985  14.464  0.1474 -0.0475 -1.8278
 4211SOL     OW24094   0.194   2.479   5.689  0.8430  0.6717 -0.5679
 4211SOL    HW124095   0.280   2.495   5.727 -0.1617  0.9979  1.5610
 4211SOL    HW224096   0.130   2.520   5.748 -0.0501  0.2872 -1.2714
 4212SOL     OW24097   1.641   4.152   2.327  0.2794 -0.2084 -0.4554
 4212SOL    HW124098   1.609   4.175   2.414 -0.4476 -0.5469 -0.6347
 4212SOL    HW224099   1.613   4.062   2.310 -0.2877 -0.2367  0.6554
 4213SOL     OW24100   3.381   4.036   0.631  0.3722  0.4544  0.4692
 4213SOL    HW124101   3.347   3.960   0.678 -0.1263  0.5702  0.2946
 4213SOL    HW224102   3.327   4.097   0.681  0.0144  0.1959  0.3966
 4214SOL     OW24103   0.847   1.003   7.794  0.1949  0.1258  0.5698
 4214SOL    HW124104   0.816   1.053   7.869 -0.7795 -1.2500  1.0758
 4214SOL    HW224105   0.908   0.945   7.838  2.1701  1.5382 -0.3060
 4215SOL     OW24106   3.221   2.522   0.992  0.0984  0.0347  0.5720
 4215SOL    HW124107   3.138   2.547   1.031 -0.1546  2.0569 -1.2474
 4215SOL    HW224108   3.193   2.445   0.942 -0.7677  0.2724  0.6925
 4216SOL     OW24109   1.824   3.464   3.715  0.3192 -0.3888 -0.1214
 4216SOL    HW124110   1.739   3.489   3.750 -0.8087 -1.8514 -1.8284
 4216SOL    HW224111   1.803   3.382   3.670  2.6271 -0.8758 -0.3355
 4217SOL     OW24112   3.283   2.581   3.845  0.1859 -0.1901  0.1563
 4217SOL    HW124113   3.323   2.567   3.760  1.5102  1.2020  0.5525
 4217SOL    HW224114   3.248   2.670   3.840 -2.3956 -1.3634 -2.7318
 4218SOL     OW24115   1.299   3.273   3.200 -0.1274 -0.1853 -0.1369
 4218SOL    HW124116   1.250   3.266   3.118  0.8031 -0.5311 -0.6486
 4218SOL    HW224117   1.267   3.203   3.257  1.9144 -1.2500 -0.3449
 4219SOL     OW24118   4.088   3.578   0.484  0.3664 -0.4536 -0.0865
 4219SOL    HW124119   4.149   3.630   0.431  0.2316 -0.9411 -0.7232
 4219SOL    HW224120   4.087   3.634   0.561 -2.0013 -0.0922 -0.4014
 4220SOL     OW24121   0.353   1.676   8.863  0.2498  0.5917  0.2051
 4220SOL    HW124122   0.402   1.713   8.936  3.8260 -0.1186 -1.8438
 4220SOL    HW224123   0.426   1.628   8.825  1.1872  1.4224  0.9783
 4221SOL     OW24124   0.637   1.678  14.877  0.2004  0.3434 -0.3227
 4221SOL    HW124125   0.548   1.646  14.888 -0.5437  2.2615 -0.8582
 4221SOL    HW224126   0.633   1.768  14.910 -0.5753  0.8856 -1.8884
 4222SOL     OW24127   0.972   2.049   2.543  0.2185  0.1893  0.0499
 4222SOL    HW124128   0.922   2.112   2.595 -0.1259 -0.4708  0.5166
 4222SOL    HW224129   0.994   1.984   2.609  1.3015 -0.3118 -0.8050
 4223SOL     OW24130   1.732   0.063   3.825 -0.6070  0.7027  0.0800
 4223SOL    HW124131   1.660   0.047   3.764 -1.9510  0.9276  1.5953
 4223SOL    HW224132   1.744   0.156   3.809  0.1207  0.3447 -1.4590
 4224SOL     OW24133   0.249   3.875   6.517 -0.2746  0.1445  0.2708
 4224SOL    HW124134   0.175   3.863   6.577 -0.9129 -0.4043 -0.6313
 4224SOL    HW224135   0.229   3.960   6.479  0.5732  0.5066  0.6336
 4225SOL     OW24136   0.113   1.650   2.205 -0.5896 -0.5626 -0.4083
 4225SOL    HW124137   0.130   1.655   2.300 -0.4471 -0.6284 -0.4291
 4225SOL    HW224138   0.136   1.741   2.186 -0.6979 -0.5674 -0.5614
 4226SOL     OW24139   1.325   3.988   0.307  0.2367  0.1224  0.2206
 4226SOL    HW124140   1.260   4.033   0.253  1.4500 -0.1678 -1.5061
 4226SOL    HW224141   1.317   4.036   0.389  2.5495 -0.0409  0.5392
 4227SOL     OW24142   4.425   0.859   3.307 -0.9070 -0.0530 -0.2675
 4227SOL    HW124143   4.496   0.825   3.252 -0.2713 -0.2146  0.6502
 4227SOL    HW224144   4.459   0.838   3.394 -0.4138  0.9083 -0.2294
 4228SOL     OW24145   1.989   4.003   6.627  0.2344 -0.1313  0.5777
 4228SOL    HW124146   2.032   3.983   6.710  0.5125  0.6876  0.6353
 4228SOL    HW224147   2.048   4.072   6.595  0.0439 -0.5171 -0.5949
 4229SOL     OW24148   0.400   0.170  11.023  0.2137 -0.3264 -0.0544
 4229SOL    HW124149   0.339   0.231  11.065 -0.8786 -1.6586  0.3057
 4229SOL    HW224150   0.441   0.222  10.954 -2.1691  0.8712 -0.5889
 4230SOL     OW24151   1.822   4.079  12.788  0.4373 -0.1052 -0.9249
 4230SOL    HW124152   1.784   4.156  12.831 -0.7424 -1.0758 -0.2121
 4230SOL    HW224153   1.833   4.027  12.868 -0.6290  0.3194 -0.4869
 4231SOL     OW24154   2.297   4.709   0.183  0.0794 -0.1728 -0.1459
 4231SOL    HW124155   2.336   4.646   0.123 -0.2004  0.4370 -0.9635
 4231SOL    HW224156   2.250   0.050   0.130 -1.5772  0.5072  2.1352
 4232SOL     OW24157   3.393   2.995   5.175  0.1323  0.1557 -0.0532
 4232SOL    HW124158   3.323   2.936   5.205 -0.3137  1.6720  1.9717
 4232SOL    HW224159   3.349   3.072   5.139 -0.8317 -0.6630 -0.6311
 4233SOL     OW24160   4.338   1.999  17.591 -0.8179 -0.1514  0.6777
 4233SOL    HW124161   4.408   2.006  17.526 -1.6335  0.0039 -0.1894
 4233SOL    HW224162   4.352   1.917  17.639 -0.7814  0.9183  2.4712
 4234SOL     OW24163   2.823   2.776   1.159  0.0306  0.3028 -0.1012
 4234SOL    HW124164   2.790   2.793   1.071  1.3790  0.2703 -0.6053
 4234SOL    HW224165   2.743   2.784   1.211  1.2206  1.1844  1.5924
 4235SOL     OW24166   0.620   0.664   6.765  0.2387  0.6157  0.5988
 4235SOL    HW124167   0.630   0.688   6.857 -0.8415  0.2946  0.7962
 4235SOL    HW224168   0.545   0.604   6.767  2.5253 -2.2614  0.5422
 4236SOL     OW24169   0.174   0.740   9.913 -0.2992  0.0766  0.4630
 4236SOL    HW124170   0.153   0.803   9.845 -1.3472 -0.7608  0.0218
 4236SOL    HW224171   0.138   0.658   9.880  0.6794  0.4071 -1.4176
 4237SOL     OW24172   2.727   1.838  15.194  0.1684  0.0553 -0.2467
 4237SOL    HW124173   2.813   1.836  15.235  0.5205 -2.1039 -1.0978
 4237SOL    HW224174   2.673   1.887  15.256  1.3012  0.4189  0.4623
 4238SOL     OW24175   2.817   0.306  16.288  0.2575 -1.0425  0.0059
 4238SOL    HW124176   2.913   0.310  16.288  0.2505 -0.9058  0.8799
 4238SOL    HW224177   2.801   0.217  16.259 -0.1483 -1.2729  0.9622
 4239SOL     OW24178   3.472   3.900  11.495  0.0681 -0.0303 -0.1254
 4239SOL    HW124179   3.402   3.842  11.523 -0.8549  1.1338 -0.0404
 4239SOL    HW224180   3.432   3.958  11.431 -3.4811 -1.3056  0.9660
 4240SOL     OW24181   2.807   1.154   1.582 -0.6963 -0.4258  0.1061
 4240SOL    HW124182   2.859   1.160   1.502  0.7249 -0.1602  1.0674
 4240SOL    HW224183   2.828   1.066   1.612 -0.4358 -0.2629  0.3941
 4241SOL     OW24184   4.278   1.887   3.391  0.2838 -0.6468  0.0212
 4241SOL    HW124185   4.239   1.832   3.322 -0.5680 -0.5594  0.4412
 4241SOL    HW224186   4.199   1.934   3.414  0.1465 -1.5542  1.3802
 4242SOL     OW24187   2.048   3.773   7.632 -0.5524  0.5390 -0.1208
 4242SOL    HW124188   2.134   3.748   7.667  0.2169  2.9472 -0.2937
 4242SOL    HW224189   1.996   3.723   7.694 -0.0101  1.5016  1.1018
 4243SOL     OW24190   0.276   0.146   9.448  0.4001  0.1908 -0.0573
 4243SOL    HW124191   0.280   0.179   9.359  1.4752  1.2791  0.3949
 4243SOL    HW224192   0.180   0.139   9.448  0.4974 -1.2049  0.9968
 4244SOL     OW24193   2.181   2.980   8.179  0.1486 -0.1823  0.3628
 4244SOL    HW124194   2.221   3.016   8.100 -1.6830  1.5848  0.2395
 4244SOL    HW224195   2.252   2.922   8.207 -1.4496 -1.9895  0.6879
 4245SOL     OW24196   2.993   3.968   4.355 -0.3499  0.1473  0.0662
 4245SOL    HW124197   2.952   3.980   4.269  0.2679 -1.1208 -0.3972
 4245SOL    HW224198   3.041   4.051   4.357  1.9453 -1.0824 -3.7386
 4246SOL     OW24199   4.692   4.502   6.856 -0.0591  0.4803 -0.0097
 4246SOL    HW124200   4.705   4.426   6.799  0.5650  0.2384  0.4683
 4246SOL    HW224201   0.053   4.548   6.854 -0.1925  0.7287  0.1063
 4247SOL     OW24202   4.621   4.336  13.752  0.5327  0.3614  0.3789
 4247SOL    HW124203   4.665   4.380  13.679  0.5425  1.6107  1.1498
 4247SOL    HW224204   4.541   4.389  13.758  0.7582  0.4531  2.3831
 4248SOL     OW24205   0.572   2.090  16.288  0.0177 -0.2142 -0.3723
 4248SOL    HW124206   0.645   2.029  16.300 -1.1208 -1.3934  0.6072
 4248SOL    HW224207   0.582   2.104  16.194 -1.2853 -0.2847 -0.5234
 4249SOL     OW24208   0.744   4.590   2.939 -0.0554 -0.1245 -0.3788
 4249SOL    HW124209   0.674   4.562   2.880 -0.7859 -2.3079  1.5298
 4249SOL    HW224210   0.788   4.505   2.949  0.5881  0.0097 -2.0428
 4250SOL     OW24211   4.267   0.331   3.243  0.1083  0.3754  0.0856
 4250SOL    HW124212   4.270   0.280   3.324  2.7833  0.6016  0.1358
 4250SOL    HW224213   4.362   0.318   3.235 -0.1464 -1.6561  0.2858
 4251SOL     OW24214   0.560   3.730   7.038  0.2505 -0.0494  0.1044
 4251SOL    HW124215   0.495   3.779   6.988 -0.4368  0.8528  1.8836
 4251SOL    HW224216   0.630   3.712   6.975 -0.5353 -0.3153 -0.7001
 4252SOL     OW24217   4.560   1.505  10.340  0.2131  0.4517 -0.2047
 4252SOL    HW124218   4.514   1.443  10.397  1.5872 -1.5888 -1.3203
 4252SOL    HW224219   4.484   1.559  10.316 -1.2953 -0.5890  2.2255
 4253SOL     OW24220   3.768   2.888   2.461 -0.1395  0.2078 -0.2109
 4253SOL    HW124221   3.864   2.888   2.469  0.0276  3.7395 -2.3589
 4253SOL    HW224222   3.751   2.802   2.500 -2.4532  1.8343  2.3372
 4254SOL     OW24223   0.733   3.750   1.899  0.2499 -0.0073  0.0882
 4254SOL    HW124224   0.652   3.752   1.846  0.2343  1.9876  0.2058
 4254SOL    HW224225   0.753   3.657   1.890  3.0388  0.5802  0.4152
 4255SOL     OW24226   4.309   1.761  10.742  0.6068  0.3123  0.2256
 4255SOL    HW124227   4.397   1.796  10.728  0.6708  0.3360  0.6845
 4255SOL    HW224228   4.304   1.737  10.835  0.9887  2.6148  0.8410
 4256SOL     OW24229   3.519   3.593   5.371 -0.9922  0.0790 -0.1537
 4256SOL    HW124230   3.498   3.568   5.281 -0.8845 -1.7766  0.3399
 4256SOL    HW224231   3.603   3.547   5.371 -1.6939 -1.2100  0.2821
 4257SOL     OW24232   1.549   0.752   8.434  0.2128 -0.0823  0.3311
 4257SOL    HW124233   1.559   0.732   8.341 -0.9130 -0.6447  0.3338
 4257SOL    HW224234   1.599   0.833   8.435  0.4973 -0.2551  0.2610
 4258SOL     OW24235   2.811   1.973   8.533  0.6339  0.1410 -0.1331
 4258SOL    HW124236   2.878   1.992   8.599  2.3937  0.2592 -1.9795
 4258SOL    HW224237   2.737   1.971   8.594  0.6188 -1.0410 -0.1820
 4259SOL     OW24238   1.513   1.702   7.862  0.1556  0.5332  0.0831
 4259SOL    HW124239   1.559   1.777   7.825 -0.8472 -0.1480 -2.5707
 4259SOL    HW224240   1.512   1.640   7.789 -0.0056 -0.0375  0.5660
 4260SOL     OW24241   0.727   0.080   4.490  0.1119  0.0162 -0.1840
 4260SOL    HW124242   0.678   0.008   4.450 -1.4605  1.9848 -1.7963
 4260SOL    HW224243   0.811   0.035   4.496 -0.2668 -0.7231 -0.4425
 4261SOL     OW24244   2.671   1.266   4.010 -0.1957 -0.1153 -0.0249
 4261SOL    HW124245   2.640   1.345   4.053 -0.8092 -0.8807  0.9414
 4261SOL    HW224246   2.602   1.268   3.945 -2.0985 -1.0498  1.9741
 4262SOL     OW24247   0.575   0.207   7.363 -0.0497 -0.2337 -0.0905
 4262SOL    HW124248   0.537   0.166   7.440 -1.1605  3.7455  1.5122
 4262SOL    HW224249   0.496   0.236   7.317  0.9763 -0.3033 -1.9000
 4263SOL     OW24250   0.147   3.401   6.425 -0.1567 -0.0444  0.2373
 4263SOL    HW124251   0.069   3.440   6.385  0.3861  1.1783  0.3801
 4263SOL    HW224252   0.212   3.465   6.397 -1.5611  0.7661 -1.1356
 4264SOL     OW24253   2.485   0.901  16.691 -0.7910  0.6207 -0.1545
 4264SOL    HW124254   2.552   0.949  16.643 -0.8944  0.1435 -0.7664
 4264SOL    HW224255   2.496   0.928  16.782 -0.2908  0.4431 -0.1654
 4265SOL     OW24256   0.856   2.661   8.890  0.1528 -0.1337 -0.0975
 4265SOL    HW124257   0.848   2.631   8.799 -1.0240 -1.2306  0.3743
 4265SOL    HW224258   0.826   2.751   8.879  0.5628  0.2063  1.6055
 4266SOL     OW24259   1.190   1.581   9.055  0.2275  0.5361 -0.5777
 4266SOL    HW124260   1.283   1.572   9.074 -0.2286 -1.0348  0.9735
 4266SOL    HW224261   1.157   1.500   9.095 -0.9267  0.6125 -1.3773
 4267SOL     OW24262   3.871   3.852   3.906 -0.3448 -0.5322 -0.1334
 4267SOL    HW124263   3.781   3.830   3.929  0.1563 -0.6663  1.6593
 4267SOL    HW224264   3.918   3.769   3.904  0.8779  0.2046 -2.8058
 4268SOL     OW24265   1.433   2.738   7.414  0.1247 -0.3253 -0.2988
 4268SOL    HW124266   1.441   2.645   7.391 -1.0409 -0.3464 -0.6577
 4268SOL    HW224267   1.484   2.727   7.493  0.8657  1.9133 -0.4604
 4269SOL     OW24268   3.965   1.464  10.639  0.0266  0.1671 -0.0213
 4269SOL    HW124269   3.887   1.487  10.588  0.0009 -3.9549 -1.7960
 4269SOL    HW224270   4.027   1.527  10.602 -0.9971  0.4328 -1.2846
 4270SOL     OW24271   1.424   2.565   0.819 -0.2013  0.2089 -0.6579
 4270SOL    HW124272   1.403   2.490   0.875  0.7727 -0.0639 -0.6450
 4270SOL    HW224273   1.337   2.602   0.830  0.5003  1.9271 -0.9755
 4271SOL     OW24274   0.426   2.184   4.195  0.8588  0.3600  0.4221
 4271SOL    HW124275   0.478   2.144   4.125  0.6203 -0.0731  0.4940
 4271SOL    HW224276   0.417   2.102   4.244  1.8996  0.0583  0.1254
 4272SOL     OW24277   3.924   3.959  13.809  0.0163 -0.0987  0.4837
 4272SOL    HW124278   3.951   3.894  13.745  0.3866 -1.1225  1.6899
 4272SOL    HW224279   3.979   3.939  13.885  2.1230  0.9701 -0.7914
 4273SOL     OW24280   0.584   0.368  14.735  0.3912  0.4847 -0.3780
 4273SOL    HW124281   0.554   0.444  14.685  0.1139 -0.1847 -1.2245
 4273SOL    HW224282   0.642   0.324  14.673  0.9696 -3.4985  2.9789
 4274SOL     OW24283   2.549   1.923   7.598 -0.8247 -0.5975 -0.7101
 4274SOL    HW124284   2.470   1.959   7.559  0.4763  1.8103 -1.1700
 4274SOL    HW224285   2.527   1.835   7.629 -3.7492 -0.2405 -1.8432
 4275SOL     OW24286   1.673   2.449   3.322  0.0420  0.1171 -0.2837
 4275SOL    HW124287   1.670   2.375   3.261  1.4280 -0.0495 -0.1475
 4275SOL    HW224288   1.742   2.505   3.285 -0.0881 -0.0280 -0.7537
 4276SOL     OW24289   0.615   4.166   9.194 -0.3463  0.3682  0.2704
 4276SOL    HW124290   0.694   4.120   9.223 -1.4427  0.7276  3.8399
 4276SOL    HW224291   0.558   4.093   9.172  1.3760 -1.8359  2.9738
 4277SOL     OW24292   1.939   0.154  13.667  0.2081  0.0678  0.2119
 4277SOL    HW124293   2.002   0.173  13.597 -1.8770 -0.4663 -1.7983
 4277SOL    HW224294   1.860   0.141  13.614 -0.5506 -2.1649  1.8659
 4278SOL     OW24295   2.266   1.312   5.038 -0.2289  0.0595 -0.4012
 4278SOL    HW124296   2.280   1.406   5.023 -1.8741  0.4026  0.1271
 4278SOL    HW224297   2.356   1.290   5.060 -1.0756 -0.9463  2.0825
 4279SOL     OW24298   0.261   0.492   8.708 -0.6240  0.2432  0.2309
 4279SOL    HW124299   0.341   0.530   8.673 -0.1398 -0.6838  0.3310
 4279SOL    HW224300   0.192   0.553   8.679 -0.4790  0.0187 -0.5869
 4280SOL     OW24301   1.872   4.445  11.648  0.0586 -0.6891  0.1234
 4280SOL    HW124302   1.917   4.369  11.685 -0.8883 -1.3077  0.0118
 4280SOL    HW224303   1.898   4.516  11.706  1.4978 -1.0126 -0.1267
 4281SOL     OW24304   3.033   4.398   0.048  0.2460  0.0395  0.2783
 4281SOL    HW124305   3.107   4.456   0.066  0.3328  0.5550 -1.6951
 4281SOL    HW224306   3.049   4.328  17.679 -0.6279 -0.4158  0.5583
 4282SOL     OW24307   3.002   2.117  17.410  0.4711 -0.6405  0.0159
 4282SOL    HW124308   3.013   2.186  17.476  0.9076 -1.2453  0.5706
 4282SOL    HW224309   3.021   2.159  17.326 -1.2165  1.9763  0.9173
 4283SOL     OW24310   3.957   1.662   4.838 -0.0131 -0.1693  0.0304
 4283SOL    HW124311   4.011   1.595   4.879  0.2178 -0.9699 -1.5567
 4283SOL    HW224312   3.987   1.742   4.882 -2.4320  1.0970 -0.5863
 4284SOL     OW24313   2.990   0.459  10.925  0.4627 -0.0757 -0.2674
 4284SOL    HW124314   3.078   0.424  10.938 -0.1277 -1.9796 -1.2971
 4284SOL    HW224315   2.974   0.490  11.014  0.3049  3.3422 -1.5141
 4285SOL     OW24316   2.664   1.435   4.560 -0.4027 -0.5779  0.3530
 4285SOL    HW124317   2.654   1.449   4.654 -1.4367 -1.5843  0.3912
 4285SOL    HW224318   2.682   1.527   4.542 -2.5234  0.3541  2.9998
 4286SOL     OW24319   0.805   0.417  12.836 -0.0951  0.1310 -0.0063
 4286SOL    HW124320   0.888   0.411  12.883 -0.8349  0.7581  1.3795
 4286SOL    HW224321   0.775   0.327  12.849 -1.0358  0.4646  0.1155
 4287SOL     OW24322   2.123   2.925   7.588 -0.1131  0.3241 -0.1710
 4287SOL    HW124323   2.158   2.991   7.528  0.0050  1.0375  0.6836
 4287SOL    HW224324   2.197   2.909   7.646  0.4291 -1.2844 -1.3098
 4288SOL     OW24325   0.655   1.665   3.079  0.1377  0.0573  0.4011
 4288SOL    HW124326   0.682   1.576   3.101  2.3905  1.1437  2.1029
 4288SOL    HW224327   0.669   1.702   3.167  0.2564  0.3213  0.2702
 4289SOL     OW24328   2.713   1.545  13.716  0.4593 -0.0029 -0.0225
 4289SOL    HW124329   2.706   1.596  13.635 -0.7724  2.8532  1.8997
 4289SOL    HW224330   2.624   1.544  13.750  0.4867  2.8957  0.1568
 4290SOL     OW24331   0.627   2.783   9.223 -0.4906  0.1274 -0.0783
 4290SOL    HW124332   0.681   2.850   9.180  2.3643 -2.1763 -0.0413
 4290SOL    HW224333   0.684   2.733   9.281 -0.1585 -0.9777 -1.3542
 4291SOL     OW24334   0.823   4.200   3.492 -0.3375 -0.0811 -0.2663
 4291SOL    HW124335   0.780   4.285   3.497  3.2404  1.7903 -1.3002
 4291SOL    HW224336   0.781   4.165   3.571 -1.7890 -0.1883 -1.0758
 4292SOL     OW24337   3.035   0.550   1.790  0.0001 -0.6064  0.2028
 4292SOL    HW124338   3.030   0.456   1.776 -0.6804 -0.8237  1.9852
 4292SOL    HW224339   2.948   0.579   1.764  0.1521 -1.1447 -0.9250
 4293SOL     OW24340   0.162   3.552  12.627 -0.3896  0.0082 -0.0242
 4293SOL    HW124341   0.119   3.626  12.671  0.3584 -1.0029  2.3814
 4293SOL    HW224342   0.093   3.513  12.573 -0.9205 -2.4565  2.4514
 4294SOL     OW24343   3.640   1.616  13.236 -0.3759 -0.5563 -0.4563
 4294SOL    HW124344   3.719   1.634  13.286  1.4447  0.9132 -3.8516
 4294SOL    HW224345   3.580   1.690  13.244 -0.1788 -0.4525  0.0397
 4295SOL     OW24346   2.377   4.487  16.015  0.1467 -0.1837 -0.3459
 4295SOL    HW124347   2.452   4.540  15.989 -0.6343  0.1411 -1.9874
 4295SOL    HW224348   2.394   4.412  15.958 -1.2292 -1.4656  0.9464
 4296SOL     OW24349   3.240   1.248   7.253  0.0263 -0.2330  0.6096
 4296SOL    HW124350   3.319   1.248   7.199 -1.3871 -1.1141 -1.4589
 4296SOL    HW224351   3.267   1.287   7.336  0.0721 -1.1256  1.0132
 4297SOL     OW24352   1.136   4.469   4.644  0.2455  0.6676 -0.0179
 4297SOL    HW124353   1.161   4.424   4.725  0.4777  2.2183  0.7774
 4297SOL    HW224354   1.110   4.397   4.587 -0.8031 -0.9538  2.5111
 4298SOL     OW24355   2.212   0.867   6.630  0.1195  0.0376  0.0326
 4298SOL    HW124356   2.176   0.841   6.715  1.2039  2.2474  1.1675
 4298SOL    HW224357   2.232   0.961   6.633  0.3580  0.0151 -0.8382
 4299SOL     OW24358   4.015   2.991   5.977  0.3451 -0.4023 -0.3086
 4299SOL    HW124359   3.974   2.966   6.059  0.5373 -2.9419 -0.9507
 4299SOL    HW224360   4.034   3.083   5.990 -1.7171 -0.0897  0.4164
 4300SOL     OW24361   3.883   0.617   8.220 -0.2627  0.7417  0.6902
 4300SOL    HW124362   3.955   0.578   8.171  1.0360  1.7706  1.7876
 4300SOL    HW224363   3.807   0.574   8.180  0.4939 -3.2785  3.6165
 4301SOL     OW24364   2.216   0.279   7.239  0.6950 -0.0049 -0.7606
 4301SOL    HW124365   2.136   0.228   7.225 -0.5323  1.2986  1.5698
 4301SOL    HW224366   2.251   0.229   7.314  1.6764  0.7762 -0.7031
 4302SOL     OW24367   2.649   1.662   3.318  0.0857  0.5597 -0.2332
 4302SOL    HW124368   2.742   1.650   3.297  0.2311 -0.0956  0.7762
 4302SOL    HW224369   2.635   1.756   3.323  2.5940  0.9540 -0.5030
 4303SOL     OW24370   0.394   1.030  12.810  0.7055  0.0713  0.5772
 4303SOL    HW124371   0.394   1.095  12.879 -2.8211  0.0917  0.5173
 4303SOL    HW224372   0.323   1.065  12.756 -0.0545 -0.0145  1.5279
 4304SOL     OW24373   2.852   3.252   2.965 -0.0150 -0.4475 -0.6461
 4304SOL    HW124374   2.802   3.174   2.991  0.2452 -0.6396 -0.7171
 4304SOL    HW224375   2.784   3.305   2.924  0.4950  3.0242  3.0742
 4305SOL     OW24376   3.293   2.059   5.502 -0.0539  0.0747  0.6879
 4305SOL    HW124377   3.370   2.015   5.537  0.8632  1.5170  0.4907
 4305SOL    HW224378   3.230   2.041   5.571 -0.1754 -0.2982  0.4757
 4306SOL     OW24379   2.828   0.330   3.365 -0.7857 -0.0150  0.2167
 4306SOL    HW124380   2.877   0.316   3.284 -0.5002 -0.2775  0.4301
 4306SOL    HW224381   2.900   0.314   3.427  1.3293  1.9218 -1.7459
 4307SOL     OW24382   1.154   4.412   5.634 -0.1530  0.0787  0.5489
 4307SOL    HW124383   1.248   4.428   5.638  0.0215 -0.3931 -1.5449
 4307SOL    HW224384   1.120   4.497   5.662  2.6491  1.6701 -0.8931
 4308SOL     OW24385   4.216   4.166  12.578 -0.1056  0.7376 -0.5740
 4308SOL    HW124386   4.242   4.079  12.548  1.3188  0.2870  2.0516
 4308SOL    HW224387   4.256   4.216  12.507 -0.3746  2.2708  0.3426
 4309SOL     OW24388   0.962   3.511  12.129  0.1231 -0.5750  0.2669
 4309SOL    HW124389   1.014   3.541  12.204 -0.5401  2.3090 -0.4575
 4309SOL    HW224390   0.956   3.588  12.074 -0.7534  0.6224  2.0689
 4310SOL     OW24391   0.296   4.043   5.060 -0.5960  0.1921  0.1330
 4310SOL    HW124392   0.252   4.069   4.980 -0.5100 -0.4361 -0.1214
 4310SOL    HW224393   0.229   3.984   5.094 -1.8357  2.1587  1.1111
 4311SOL     OW24394   3.088   0.838   6.327 -0.8336 -0.2234 -0.9995
 4311SOL    HW124395   3.127   0.779   6.262 -1.0496 -1.5101  0.0428
 4311SOL    HW224396   3.081   0.905   6.259  0.4910  0.2456 -0.6755
 4312SOL     OW24397   0.243   3.772   3.278  1.0757  0.3082  0.5740
 4312SOL    HW124398   0.264   3.728   3.360  0.3787  0.8648  1.0533
 4312SOL    HW224399   0.246   3.702   3.213  2.0819  1.3033 -0.4632
 4313SOL     OW24400   2.855   2.695   4.504  0.1669  0.2581 -0.2413
 4313SOL    HW124401   2.832   2.608   4.536 -1.9337  0.5412 -1.0153
 4313SOL    HW224402   2.794   2.693   4.430 -1.6366  2.6917  1.2001
 4314SOL     OW24403   3.240   0.175   2.477 -0.0970 -0.0568  0.3049
 4314SOL    HW124404   3.290   0.125   2.413  0.0574  1.2172 -0.5675
 4314SOL    HW224405   3.173   0.221   2.428  0.2544 -0.1213 -0.2340
 4315SOL     OW24406   0.504   2.693   8.243 -0.0437  0.5859 -0.2779
 4315SOL    HW124407   0.509   2.629   8.171 -0.7624  0.3832 -0.1393
 4315SOL    HW224408   0.422   2.674   8.288  0.8095 -0.9355  0.6272
 4316SOL     OW24409   3.053   0.669  12.842 -0.2433  0.0324  0.0405
 4316SOL    HW124410   3.116   0.611  12.800 -0.6715 -0.6753  0.3759
 4316SOL    HW224411   2.980   0.668  12.780 -0.6725 -1.0711  0.5709
 4317SOL     OW24412   4.406   0.971  13.632  0.0302  0.0233  0.8553
 4317SOL    HW124413   4.478   0.977  13.569 -0.5509  0.1974  0.2007
 4317SOL    HW224414   4.429   1.015  13.713  2.1446 -1.8297  1.2780
 4318SOL     OW24415   3.135   2.355   4.513 -0.3765  0.1571  0.0411
 4318SOL    HW124416   3.205   2.419   4.510 -0.3943  0.3067  3.0734
 4318SOL    HW224417   3.173   2.275   4.476  0.8370  1.3255 -1.2466
 4319SOL     OW24418   1.956   1.585   3.299  0.5168  0.0823 -0.2593
 4319SOL    HW124419   1.926   1.546   3.381  0.1831  1.1619  0.1321
 4319SOL    HW224420   2.003   1.657   3.341  1.1262 -0.9969  0.9044
 4320SOL     OW24421   1.472   1.670   8.706  0.4453 -0.0157 -0.0440
 4320SOL    HW124422   1.491   1.638   8.618 -0.9360 -0.5287 -0.1499
 4320SOL    HW224423   1.536   1.742   8.706  2.0480 -1.4489 -1.3717
 4321SOL     OW24424   1.463   2.791   9.121  0.3229  0.0701  0.2423
 4321SOL    HW124425   1.507   2.812   9.204  0.3335 -0.0716  0.2731
 4321SOL    HW224426   1.511   2.855   9.069 -0.6102  2.0024  1.7388
 4322SOL     OW24427   4.581   3.860   2.032 -0.3530  0.2606  0.1681
 4322SOL    HW124428   4.596   3.932   2.093  0.5435 -0.5402  0.8741
 4322SOL    HW224429   4.519   3.897   1.969  0.1330  0.2463 -0.3130
 4323SOL     OW24430   3.148   3.741   7.198 -0.1109 -0.3034  0.3287
 4323SOL    HW124431   3.093   3.800   7.146  0.9734  1.1790  0.8908
 4323SOL    HW224432   3.224   3.739   7.140  0.7500  2.5413  1.4036
 4324SOL     OW24433   4.432   4.406   3.753  0.0488  0.6562  0.1116
 4324SOL    HW124434   4.366   4.470   3.729 -0.0624  0.4521 -0.1331
 4324SOL    HW224435   4.513   4.456   3.744  0.8253 -0.5239  0.5263
 4325SOL     OW24436   0.523   0.455   3.845 -0.0349 -0.5648 -0.2179
 4325SOL    HW124437   0.493   0.365   3.828 -0.0524 -0.6762  0.4179
 4325SOL    HW224438   0.612   0.459   3.809  0.2030 -2.3069  0.1791
 4326SOL     OW24439   3.578   0.333  12.385  0.6822 -0.0519  0.0904
 4326SOL    HW124440   3.655   0.279  12.401  1.9595  1.6599 -0.1832
 4326SOL    HW224441   3.526   0.308  12.462 -1.1061  1.0843 -0.7477
 4327SOL     OW24442   2.316   3.732  11.248 -0.0185 -0.5033 -0.4711
 4327SOL    HW124443   2.369   3.660  11.214 -0.6218 -0.9208 -0.5413
 4327SOL    HW224444   2.229   3.694  11.236  0.1886 -0.2572 -2.7161
 4328SOL     OW24445   4.074   4.354   1.594 -0.0638  0.8286 -0.5835
 4328SOL    HW124446   3.984   4.354   1.627  2.0562 -0.6975  5.2171
 4328SOL    HW224447   4.118   4.331   1.676  1.9961  1.1719 -1.5894
 4329SOL     OW24448   4.534   0.600   8.676  0.0935  0.1362 -0.2906
 4329SOL    HW124449   4.500   0.680   8.636 -1.5261  0.4489  1.7466
 4329SOL    HW224450   4.515   0.608   8.769  2.5042 -1.7194  0.3804
 4330SOL     OW24451   4.450   3.208  12.057  0.1837 -0.2547 -0.2960
 4330SOL    HW124452   4.524   3.269  12.054 -1.2973  1.6777  2.8063
 4330SOL    HW224453   4.402   3.215  11.974 -1.4084  1.7209  0.8085
 4331SOL     OW24454   4.125   0.562   2.002  0.6066  0.3913 -0.9516
 4331SOL    HW124455   4.200   0.508   2.025  1.3860  1.4022 -1.1100
 4331SOL    HW224456   4.063   0.499   1.964  0.8156 -0.8600  0.7804
 4332SOL     OW24457   4.559   4.411   8.655  0.8690  0.3845  0.4213
 4332SOL    HW124458   4.530   4.372   8.573 -0.2550 -0.2372  1.1102
 4332SOL    HW224459   4.480   4.405   8.709 -0.0538 -1.2084 -1.1195
 4333SOL     OW24460   2.435   3.249   5.329 -0.1732 -0.0544 -0.2219
 4333SOL    HW124461   2.493   3.196   5.382 -0.7345 -0.0423  0.4071
 4333SOL    HW224462   2.467   3.337   5.350 -1.2124  0.2721  0.0355
 4334SOL     OW24463   0.513   3.125   2.490 -0.2189  0.5098 -0.2498
 4334SOL    HW124464   0.518   3.219   2.473  0.2388  0.4966 -0.1846
 4334SOL    HW224465   0.561   3.086   2.417  0.1680 -0.5667  0.5819
 4335SOL     OW24466   4.107   2.793   1.834  0.7632 -0.3061  0.0104
 4335SOL    HW124467   4.056   2.715   1.812  0.3547 -0.4499  1.4683
 4335SOL    HW224468   4.122   2.788   1.928 -1.1440  1.5571  0.4192
 4336SOL     OW24469   0.005   4.564   8.427 -0.3258  0.0036  0.4895
 4336SOL    HW124470   0.020   4.658   8.434 -0.6783 -0.0547  2.0135
 4336SOL    HW224471   4.663   4.533   8.489 -1.5243  2.4393  0.4203
 4337SOL     OW24472   3.092   3.705  16.912 -0.4770  0.1916 -0.4768
 4337SOL    HW124473   3.185   3.681  16.918 -0.3286  1.4752  2.2926
 4337SOL    HW224474   3.049   3.622  16.932  0.8264  0.0614  1.7084
 4338SOL     OW24475   3.509   0.363   0.294 -0.0087 -0.3474 -0.0359
 4338SOL    HW124476   3.562   0.304   0.241  1.2255  1.2751 -0.6267
 4338SOL    HW224477   3.546   0.342   0.380  0.5454  0.9439  0.0480
 4339SOL     OW24478   0.229   3.762  13.014 -0.4045 -0.1898 -0.2025
 4339SOL    HW124479   0.275   3.718  12.942  1.7891  0.0295  1.0678
 4339SOL    HW224480   0.147   3.778  12.967 -1.0544 -1.3698  0.5099
 4340SOL     OW24481   0.547   2.059   0.913  0.1113  0.3299  0.2877
 4340SOL    HW124482   0.529   2.023   0.827  1.6198 -1.6474  0.8140
 4340SOL    HW224483   0.538   1.978   0.962  0.7315 -0.8588 -1.5785
 4341SOL     OW24484   3.014   0.281   1.864 -0.3196 -0.1861  0.3259
 4341SOL    HW124485   2.998   0.233   1.783 -1.8229 -0.3986  0.7456
 4341SOL    HW224486   2.928   0.277   1.907  0.2358 -0.8178  1.3671
 4342SOL     OW24487   0.460   2.527   6.979 -0.0187 -0.5862 -0.1305
 4342SOL    HW124488   0.526   2.503   7.045 -1.7631 -0.4376  1.6518
 4342SOL    HW224489   0.398   2.456   6.994  0.1780 -0.6134  0.5413
 4343SOL     OW24490   0.472   2.959   8.134 -0.6818  0.0852 -0.3037
 4343SOL    HW124491   0.389   2.938   8.090  0.8513 -2.1701 -2.0655
 4343SOL    HW224492   0.500   2.874   8.166  0.8022  1.7706  2.8335
 4344SOL     OW24493   0.630   2.092  14.044 -0.8723 -0.3534 -0.2020
 4344SOL    HW124494   0.626   2.020  14.106  1.2166 -0.0237  0.3156
 4344SOL    HW224495   0.539   2.121  14.046  0.0128  2.3652  1.5800
 4345SOL     OW24496   3.013   4.096   0.108  0.4481  0.2437 -0.0213
 4345SOL    HW124497   3.066   4.033   0.059 -1.1297  0.8588 -2.5099
 4345SOL    HW224498   3.091   4.152   0.113 -0.0014  1.1021 -2.5628
 4346SOL     OW24499   1.387   0.191  17.512 -0.2105 -0.2611  0.1334
 4346SOL    HW124500   1.313   0.135  17.489  1.4815 -3.4950  2.4870
 4346SOL    HW224501   1.419   0.204  17.423 -1.5297  2.2865  0.0345
 4347SOL     OW24502   4.457   0.206   2.096  0.0907  0.2385  0.1899
 4347SOL    HW124503   4.379   0.164   2.133  1.9831 -2.1427  1.4913
 4347SOL    HW224504   4.515   0.186   2.169  0.1109 -1.9744 -0.4281
 4348SOL     OW24505   3.885   2.434   6.551  0.1568 -0.1343 -0.4055
 4348SOL    HW124506   3.917   2.443   6.640 -2.5630 -0.4463  0.6139
 4348SOL    HW224507   3.792   2.451   6.570 -0.4565 -3.9974  0.0130
 4349SOL     OW24508   0.614   2.176   9.210 -0.5204 -0.0968  0.0102
 4349SOL    HW124509   0.700   2.208   9.185 -0.9326 -1.8021 -3.6229
 4349SOL    HW224510   0.604   2.205   9.301  0.7302 -0.7747  0.3536
 4350SOL     OW24511   3.587   2.820   3.289 -0.2498 -0.1735 -0.2341
 4350SOL    HW124512   3.679   2.845   3.287  0.2158 -1.9421 -1.0518
 4350SOL    HW224513   3.595   2.725   3.301  1.1528 -0.2085 -1.5764
 4351SOL     OW24514   2.653   4.622   3.454  0.1336 -0.4537 -0.1632
 4351SOL    HW124515   2.728   4.635   3.395 -0.1790  0.5200 -0.3546
 4351SOL    HW224516   2.669   4.691   3.519  0.6407 -1.2015  0.5030
 4352SOL     OW24517   4.675   2.617   8.895 -0.1204 -0.8068 -0.1908
 4352SOL    HW124518   4.685   2.684   8.963 -1.6782  0.3871 -1.1550
 4352SOL    HW224519   4.633   2.540   8.932 -0.0099 -1.0614 -0.5941
 4353SOL     OW24520   1.795   0.305  13.856 -0.4621 -0.3184  0.1063
 4353SOL    HW124521   1.812   0.394  13.825  0.8283 -0.6347 -0.0974
 4353SOL    HW224522   1.822   0.254  13.780  0.3488 -0.4019  0.4504
 4354SOL     OW24523   2.608   4.473   7.745 -0.2799 -0.2200  0.1397
 4354SOL    HW124524   2.672   4.433   7.804  0.2208  0.8010  0.2855
 4354SOL    HW224525   2.584   4.540   7.808  1.0642  1.0788 -0.7469
 4355SOL     OW24526   3.146   4.262   7.467 -0.0749  0.1618 -0.1271
 4355SOL    HW124527   3.138   4.185   7.411 -2.1633 -0.1762  0.6181
 4355SOL    HW224528   3.209   4.233   7.533 -1.0460  0.4600  0.9279
 4356SOL     OW24529   3.842   2.180  10.864  0.1306  0.9456  0.0700
 4356SOL    HW124530   3.792   2.257  10.893  0.2315  1.2411 -0.5313
 4356SOL    HW224531   3.935   2.194  10.884  0.1663  1.0221 -0.1477
 4357SOL     OW24532   3.745   2.257   3.289 -0.2257  0.3083  0.2952
 4357SOL    HW124533   3.840   2.270   3.292 -0.3058  0.9396 -0.1529
 4357SOL    HW224534   3.740   2.168   3.252  1.9544 -0.0949  0.9294
 4358SOL     OW24535   0.732   0.048  11.668 -0.5168  0.1050  0.6894
 4358SOL    HW124536   0.692   0.119  11.718 -0.1832 -0.1061  1.2510
 4358SOL    HW224537   0.825   0.062  11.684 -0.3970  0.0401  0.0244
 4359SOL     OW24538   0.611   0.641   2.594  0.0223  0.2444  0.2760
 4359SOL    HW124539   0.632   0.733   2.579 -0.3441  0.2956  0.0767
 4359SOL    HW224540   0.542   0.642   2.660  0.7155  0.1206  1.0087
 4360SOL     OW24541   2.238   3.405   6.683  0.2274  0.5059  0.1220
 4360SOL    HW124542   2.256   3.470   6.751 -0.5267  0.7338  0.0993
 4360SOL    HW224543   2.315   3.349   6.696  0.1028  0.3768  0.3061
 4361SOL     OW24544   4.258   2.164   7.008 -0.7223 -0.1373  0.4211
 4361SOL    HW124545   4.183   2.222   7.010 -0.0823  0.7760 -3.2727
 4361SOL    HW224546   4.326   2.224   7.039  0.9451 -0.6473 -2.2098
 4362SOL     OW24547   1.289   1.159  13.106  0.0089  0.0956 -0.0210
 4362SOL    HW124548   1.211   1.210  13.087 -0.4539 -0.8798 -0.7538
 4362SOL    HW224549   1.347   1.234  13.094 -2.2229  1.3576 -2.7255
 4363SOL     OW24550   0.289   0.190   5.791  0.2583 -0.2584 -0.4757
 4363SOL    HW124551   0.301   0.216   5.700 -1.4699 -1.5660 -1.0636
 4363SOL    HW224552   0.332   0.105   5.804 -0.3828 -0.5501 -0.2427
 4364SOL     OW24553   2.391   1.237   8.739  0.3077  0.1468 -0.1444
 4364SOL    HW124554   2.393   1.332   8.752 -0.2619  0.1833 -0.2905
 4364SOL    HW224555   2.343   1.239   8.656  0.5655 -1.9000 -0.3308
 4365SOL     OW24556   0.307   3.533   6.669 -0.6054  0.1379  0.0775
 4365SOL    HW124557   0.229   3.547   6.723 -0.8046 -4.1695  0.8928
 4365SOL    HW224558   0.365   3.478   6.722 -2.1641 -0.6656  0.9570
 4366SOL     OW24559   0.381   0.364   9.593  0.0031  0.0269 -0.7064
 4366SOL    HW124560   0.409   0.430   9.530  1.6099  0.4271  0.4298
 4366SOL    HW224561   0.325   0.298   9.553 -0.7428  0.0172  0.3462
 4367SOL     OW24562   0.790   3.047   9.626  0.5733  0.3139 -0.2451
 4367SOL    HW124563   0.818   2.957   9.637 -0.2375  0.4185  2.7341
 4367SOL    HW224564   0.781   3.084   9.714 -0.6762  0.3231 -0.3714
 4368SOL     OW24565   2.906   3.024  14.569 -0.0256  0.4252  0.1289
 4368SOL    HW124566   2.859   3.063  14.495  0.2906 -0.9603 -0.7902
 4368SOL    HW224567   2.864   2.938  14.574  1.0085 -0.0819  0.0876
 4369SOL     OW24568   1.957   2.266  11.827  0.4366  0.6412  0.2499
 4369SOL    HW124569   1.876   2.310  11.801 -1.6682 -1.9357  2.4016
 4369SOL    HW224570   1.917   2.187  11.865 -3.1460  1.1497 -2.4468
 4370SOL     OW24571   4.672   2.724   0.884 -0.5496  0.1785  0.0915
 4370SOL    HW124572   4.679   2.752   0.792  1.5392 -1.5245 -0.2566
 4370SOL    HW224573   4.579   2.704   0.885 -0.6975  0.9583  1.8475
 4371SOL     OW24574   2.354   2.873  14.804  0.4179  0.3075 -0.5418
 4371SOL    HW124575   2.364   2.958  14.761 -0.3447  0.7318  0.1161
 4371SOL    HW224576   2.385   2.822  14.729 -1.0541 -0.1173 -0.8502
 4372SOL     OW24577   3.491   1.384   5.893 -0.0504  0.2552 -0.7356
 4372SOL    HW124578   3.490   1.471   5.932  1.4310 -0.2915  0.5473
 4372SOL    HW224579   3.405   1.380   5.851  0.3782 -0.0206 -1.5952
 4373SOL     OW24580   4.473   1.337  10.542 -0.2264 -0.4053  0.0933
 4373SOL    HW124581   4.384   1.355  10.511 -0.2504 -0.2856  0.2331
 4373SOL    HW224582   4.456   1.247  10.572  0.3003 -0.5341 -0.0086
 4374SOL     OW24583   1.789   4.085   2.688  0.5413  0.2187 -0.0951
 4374SOL    HW124584   1.780   4.029   2.766 -4.5063  1.0698 -0.0922
 4374SOL    HW224585   1.838   4.163   2.716 -1.2264  1.6499 -1.0396
 4375SOL     OW24586   4.078   3.656   7.259  0.3098  0.3129 -0.0485
 4375SOL    HW124587   3.984   3.667   7.243  0.2848  0.5697  0.2965
 4375SOL    HW224588   4.074   3.590   7.328  1.6327 -0.2478 -0.5141
 4376SOL     OW24589   2.812   2.592  12.986 -0.2882  0.0971 -0.0582
 4376SOL    HW124590   2.794   2.500  12.966 -1.4142  0.3099 -0.0466
 4376SOL    HW224591   2.905   2.606  13.003 -0.0936 -0.3849 -0.6966
 4377SOL     OW24592   2.642   4.630   9.187  0.1387 -0.0690 -0.0703
 4377SOL    HW124593   2.722   4.600   9.142  0.7214  1.4934 -0.0764
 4377SOL    HW224594   2.635   4.559   9.251  1.7840 -0.3835 -0.2138
 4378SOL     OW24595   4.346   3.983   8.151 -0.2768  0.1632 -0.2506
 4378SOL    HW124596   4.291   3.961   8.076  2.9388  0.8437 -2.7696
 4378SOL    HW224597   4.365   4.075   8.136 -2.1564  1.1132  3.1158
 4379SOL     OW24598   2.222   0.980   3.234 -0.0750 -0.1085  0.2346
 4379SOL    HW124599   2.142   1.031   3.247  0.1512  0.6724 -1.5283
 4379SOL    HW224600   2.184   0.899   3.201  0.4409 -0.3544  0.2500
 4380SOL     OW24601   0.376   3.844   5.744 -0.3034  0.0660 -0.9125
 4380SOL    HW124602   0.386   3.883   5.657 -0.2703 -0.6206 -1.2193
 4380SOL    HW224603   0.443   3.887   5.798 -2.3432  2.5481 -0.3839
 4381SOL     OW24604   3.894   4.337   8.048 -0.1772  0.0544 -0.1933
 4381SOL    HW124605   3.955   4.271   8.079 -0.2289 -0.1012 -0.4188
 4381SOL    HW224606   3.885   4.383   8.131 -0.0575 -0.0714 -0.1111
 4382SOL     OW24607   1.768   3.101   3.765  0.3958 -0.3845  0.4138
 4382SOL    HW124608   1.737   3.163   3.699  2.3903 -1.3879 -1.4870
 4382SOL    HW224609   1.771   3.025   3.706  3.0873  0.8434 -1.0463
 4383SOL     OW24610   2.805   3.982   9.010 -0.1130  0.1034  0.3789
 4383SOL    HW124611   2.886   3.937   9.035  0.6367  0.5762 -1.2415
 4383SOL    HW224612   2.822   4.075   9.023  0.7655  0.2440 -1.8034
 4384SOL     OW24613   0.518   1.903   8.212  0.3922 -0.2125  0.4514
 4384SOL    HW124614   0.547   1.855   8.289 -0.2452 -0.4210  0.5589
 4384SOL    HW224615   0.469   1.837   8.164  0.4947  0.8322 -1.1035
 4385SOL     OW24616   2.444   1.681   7.744 -0.2979  0.1556  0.0092
 4385SOL    HW124617   2.451   1.722   7.830 -0.4188  0.4692 -0.1317
 4385SOL    HW224618   2.434   1.589   7.770 -0.1927  0.2588  0.4249
 4386SOL     OW24619   3.693   2.143   5.584 -0.1842  0.4677 -0.0441
 4386SOL    HW124620   3.764   2.196   5.620 -0.7227  0.2029  1.4323
 4386SOL    HW224621   3.662   2.200   5.513  3.1077  2.3696  0.0844
 4387SOL     OW24622   3.441   2.631   0.038 -0.2688  0.3652  0.3891
 4387SOL    HW124623   3.517   2.617   0.095 -0.7665 -0.1283  0.9267
 4387SOL    HW224624   3.453   2.558  17.670 -0.1641  0.6377  0.0811
 4388SOL     OW24625   1.381   0.221  15.407  0.2794 -0.2401 -0.4465
 4388SOL    HW124626   1.374   0.267  15.324  0.3238  0.3902 -0.1005
 4388SOL    HW224627   1.364   0.295  15.465  3.5470 -0.6441  1.0456
 4389SOL     OW24628   3.134   2.527  14.420 -0.6704  0.3801 -0.2713
 4389SOL    HW124629   3.039   2.528  14.426 -0.6929 -0.7580 -0.3709
 4389SOL    HW224630   3.159   2.484  14.502  0.3976  1.7449  0.1171
 4390SOL     OW24631   4.052   4.583  14.738  0.1767  0.2591  0.5221
 4390SOL    HW124632   4.002   4.505  14.765 -1.1741  1.0734  0.3737
 4390SOL    HW224633   4.139   4.544  14.736  0.8150  1.6499  1.8427
 4391SOL     OW24634   3.840   2.975  15.051  0.1520  0.1982 -0.2638
 4391SOL    HW124635   3.847   3.026  14.971 -0.1341 -0.1335 -0.5004
 4391SOL    HW224636   3.750   2.943  15.046 -0.2563  1.1805  0.8190
 4392SOL     OW24637   1.785   1.408  13.248  0.4437 -0.4699  0.3017
 4392SOL    HW124638   1.729   1.403  13.170  0.9707  1.6437 -0.2131
 4392SOL    HW224639   1.845   1.474  13.214 -1.7656  0.8163 -1.1506
 4393SOL     OW24640   2.914   0.181   0.411  0.4364 -0.8278 -0.2623
 4393SOL    HW124641   2.837   0.129   0.391  0.3108 -1.0516  0.7911
 4393SOL    HW224642   2.984   0.119   0.394  1.0285  0.7652 -3.5104
 4394SOL     OW24643   1.343   2.265   9.095  0.1442 -0.0374 -0.1590
 4394SOL    HW124644   1.289   2.307   9.027  1.5141  1.2665 -0.4415
 4394SOL    HW224645   1.353   2.336   9.159 -0.8947 -0.9236  0.9740
 4395SOL     OW24646   0.430   2.106   0.135 -0.5861  0.6076 -0.3519
 4395SOL    HW124647   0.464   2.189   0.101 -1.6736  0.2870 -2.2316
 4395SOL    HW224648   0.354   2.140   0.181  0.2449  1.7018  0.2069
 4396SOL     OW24649   2.286   3.784   2.040 -0.5878  0.3554  0.1698
 4396SOL    HW124650   2.244   3.723   2.101 -0.1753  0.1595  0.2630
 4396SOL    HW224651   2.214   3.806   1.981 -0.3954  1.5181  0.3708
 4397SOL     OW24652   4.265   2.319   3.485 -0.7925 -0.0138 -0.0994
 4397SOL    HW124653   4.289   2.389   3.425  1.1426 -0.3582  0.2513
 4397SOL    HW224654   4.283   2.355   3.572 -1.3105  2.5505 -1.0604
 4398SOL     OW24655   1.728   1.010  12.699  0.4536 -0.0028  0.2166
 4398SOL    HW124656   1.649   1.044  12.741 -1.6196 -1.8487 -2.1110
 4398SOL    HW224657   1.794   1.074  12.724 -1.0417  1.2435  1.0032
 4399SOL     OW24658   2.333   3.922   8.096  0.6204 -0.3342 -0.0469
 4399SOL    HW124659   2.348   3.930   8.190  0.6301 -1.1571  0.0258
 4399SOL    HW224660   2.330   3.826   8.092 -1.8421 -0.2685 -0.0163
 4400SOL     OW24661   3.876   2.391  16.785 -0.0535  0.2663 -0.3156
 4400SOL    HW124662   3.802   2.339  16.752  0.1275 -0.6784  0.7789
 4400SOL    HW224663   3.860   2.386  16.879 -2.9554  0.6426 -0.7828
 4401SOL     OW24664   3.517   3.156  10.086  0.1046  0.2624  0.1467
 4401SOL    HW124665   3.469   3.234  10.059 -0.5061 -0.0399  0.3627
 4401SOL    HW224666   3.452   3.104  10.133 -0.3092  1.5889  1.0296
 4402SOL     OW24667   2.577   0.344  14.095 -0.1190  0.0540  0.1160
 4402SOL    HW124668   2.641   0.348  14.024  1.3663 -2.4906  1.2970
 4402SOL    HW224669   2.501   0.312  14.046  1.4712 -0.4437 -2.0193
 4403SOL     OW24670   3.738   3.775   5.725  0.4440  0.4242  0.6745
 4403SOL    HW124671   3.656   3.779   5.774 -0.2952  0.3736 -0.5523
 4403SOL    HW224672   3.803   3.815   5.783  3.1718 -0.7709 -1.5481
 4404SOL     OW24673   1.304   3.156   6.938 -0.2408  0.3249  0.2667
 4404SOL    HW124674   1.296   3.124   7.028 -0.1686 -2.4259 -0.7062
 4404SOL    HW224675   1.313   3.249   6.956  0.9410  0.6833 -2.1944
 4405SOL     OW24676   0.331   3.634  14.975 -0.1233  0.4143  0.2873
 4405SOL    HW124677   0.299   3.676  15.055  0.7039  0.5756  0.5390
 4405SOL    HW224678   0.257   3.647  14.916 -0.5800  0.5835  0.9032
 4406SOL     OW24679   1.316   3.957  17.344 -0.0041 -0.8794 -0.6895
 4406SOL    HW124680   1.269   3.873  17.350 -1.9611  0.2027 -0.7808
 4406SOL    HW224681   1.250   4.019  17.312  1.3044  0.8266 -0.0124
 4407SOL     OW24682   1.574   4.244   3.477 -0.2617 -0.3379 -0.6212
 4407SOL    HW124683   1.615   4.331   3.481 -1.0721  0.0123  0.0960
 4407SOL    HW224684   1.562   4.225   3.570  0.2595  1.7100 -0.1276
 4408SOL     OW24685   0.020   2.951   8.036 -0.4646  0.1803  0.0253
 4408SOL    HW124686   0.076   3.007   8.090 -0.8501 -0.5727  1.1972
 4408SOL    HW224687   0.049   2.985   7.951 -0.9187 -0.8932 -0.5482
 4409SOL     OW24688   3.858   4.227   3.804 -0.0914  0.8312  0.5733
 4409SOL    HW124689   3.835   4.287   3.733 -0.8399 -0.9097 -0.6363
 4409SOL    HW224690   3.931   4.176   3.768 -1.0490  0.1338 -0.3675
 4410SOL     OW24691   4.115   3.763  15.013 -0.4421  0.4321  0.5410
 4410SOL    HW124692   4.134   3.671  14.996  1.1006  0.8447  0.0922
 4410SOL    HW224693   4.050   3.782  14.945  0.5164  1.7127 -0.0017
 4411SOL     OW24694   2.244   3.700  14.252 -0.1901  0.3841  0.1257
 4411SOL    HW124695   2.331   3.673  14.281  0.6830  1.6303 -1.2931
 4411SOL    HW224696   2.191   3.650  14.314 -0.7447  3.1350  1.8837
 4412SOL     OW24697   0.883   2.975   8.632 -0.2745  0.0659  0.3598
 4412SOL    HW124698   0.859   3.056   8.586  3.1383  1.8795  1.7374
 4412SOL    HW224699   0.969   2.951   8.598 -0.7115  0.7540 -1.2170
 4413SOL     OW24700   1.892   1.867  14.286 -0.3591  0.2484  0.3807
 4413SOL    HW124701   1.907   1.956  14.253 -2.4385  0.4217 -0.1353
 4413SOL    HW224702   1.804   1.877  14.322 -0.0787  0.3802  1.0306
 4414SOL     OW24703   2.879   1.182  15.010  0.0833 -0.5409 -0.4341
 4414SOL    HW124704   2.943   1.218  14.949  1.9718 -0.9455  1.2889
 4414SOL    HW224705   2.816   1.158  14.942 -0.6717 -0.2654  0.1700
 4415SOL     OW24706   4.605   2.305  13.397 -0.0486 -0.8885 -0.2986
 4415SOL    HW124707   4.635   2.324  13.485 -2.4667 -1.4769  0.6525
 4415SOL    HW224708   4.669   2.353  13.343 -0.3718 -0.2581 -0.1167
 4416SOL     OW24709   3.072   1.176   1.127 -0.1057 -0.3202 -0.0386
 4416SOL    HW124710   3.128   1.128   1.066  1.4099  0.6528  0.5950
 4416SOL    HW224711   2.990   1.127   1.125 -0.5688  0.5097 -1.8764
 4417SOL     OW24712   3.414   1.366  15.960  0.1146  0.1707  0.1391
 4417SOL    HW124713   3.420   1.293  16.022 -0.7601  0.9939  1.2053
 4417SOL    HW224714   3.365   1.429  16.014  0.8063  2.7515 -2.2254
 4418SOL     OW24715   2.556   0.967   1.432 -0.5195 -0.2116  1.0241
 4418SOL    HW124716   2.551   0.903   1.503 -1.0813 -0.6740  0.5766
 4418SOL    HW224717   2.531   0.920   1.352  0.9360 -0.1032  0.5092
 4419SOL     OW24718   4.680   3.705   3.905 -0.1777  0.0781  0.9355
 4419SOL    HW124719   4.697   3.710   3.999  0.4088  0.1636  0.8258
 4419SOL    HW224720   4.621   3.780   3.893  0.6348  0.6294  0.3921
 4420SOL     OW24721   0.581   1.440  14.716 -0.1879  0.1814 -0.6925
 4420SOL    HW124722   0.645   1.395  14.662  1.5082  0.6359  0.9376
 4420SOL    HW224723   0.621   1.527  14.716 -1.3082  0.7073 -0.2899
 4421SOL     OW24724   0.649   2.872   3.733  0.6515  0.3843  0.3213
 4421SOL    HW124725   0.704   2.818   3.790  1.2474  1.6472  0.9155
 4421SOL    HW224726   0.680   2.835   3.650  0.8431  0.2911  0.4335
 4422SOL     OW24727   3.244   0.171   3.795 -1.0704 -0.1417  0.1512
 4422SOL    HW124728   3.215   0.252   3.836 -1.4975 -0.1599 -0.1132
 4422SOL    HW224729   3.289   0.203   3.717 -1.5057  0.3977  0.1228
 4423SOL     OW24730   0.858   2.977   4.497 -0.5628 -0.0368  0.1734
 4423SOL    HW124731   0.819   2.903   4.451 -0.5815 -1.0767  1.8372
 4423SOL    HW224732   0.828   3.059   4.458  0.7785  1.2758  1.8987
 4424SOL     OW24733   2.355   4.209  16.792 -0.3260  0.8241  0.0149
 4424SOL    HW124734   2.340   4.115  16.797  0.2435  0.5311 -3.5753
 4424SOL    HW224735   2.264   4.232  16.775 -0.4790 -1.3492 -2.1425
 4425SOL     OW24736   3.338   0.594   2.976  0.2865  0.0207  0.4588
 4425SOL    HW124737   3.394   0.554   2.908  1.5975 -1.0269  2.1464
 4425SOL    HW224738   3.395   0.587   3.053  0.3299 -1.2158  0.3262
 4426SOL     OW24739   2.672   2.367   7.189  0.0963 -0.1329 -0.1764
 4426SOL    HW124740   2.733   2.425   7.234 -1.2684  0.0997  1.3967
 4426SOL    HW224741   2.658   2.309   7.263 -1.1025  0.4773  0.0779
 4427SOL     OW24742   2.271   2.580   6.403 -0.2182 -0.4084 -0.3977
 4427SOL    HW124743   2.246   2.613   6.316  0.2355  0.2888 -0.2617
 4427SOL    HW224744   2.194   2.579   6.459  1.2628  2.2370  1.6666
 4428SOL     OW24745   1.639   0.358  14.414 -0.1790 -0.2948 -0.0890
 4428SOL    HW124746   1.717   0.393  14.457  2.0049 -1.1329 -3.3213
 4428SOL    HW224747   1.642   0.267  14.441  0.3160 -0.0692  0.6103
 4429SOL     OW24748   4.288   1.661   2.294  0.0252  1.0398 -0.9751
 4429SOL    HW124749   4.366   1.628   2.339  0.2269  1.9882 -0.6251
 4429SOL    HW224750   4.214   1.634   2.349  0.4086  1.1507 -0.3978
 4430SOL     OW24751   1.995   2.969   7.924  0.0487 -0.1590  0.6112
 4430SOL    HW124752   2.041   3.007   7.998 -0.0270  0.7482  0.2018
 4430SOL    HW224753   1.986   3.047   7.869 -0.1139 -2.7897 -3.1462
 4431SOL     OW24754   3.162   0.423   7.934 -0.3297 -0.0105 -0.1175
 4431SOL    HW124755   3.241   0.389   7.892  0.1732  0.6570  0.2968
 4431SOL    HW224756   3.194   0.491   7.993  0.0144  0.2068 -0.5569
 4432SOL     OW24757   2.153   2.113  14.409  0.1413 -0.1399 -0.5316
 4432SOL    HW124758   2.098   2.108  14.487  1.7594 -0.9393  0.5566
 4432SOL    HW224759   2.236   2.116  14.457 -0.9404  4.1144  1.0776
 4433SOL     OW24760   4.201   4.428   7.368 -0.4305 -0.1753  0.1901
 4433SOL    HW124761   4.240   4.463   7.448  0.5284 -2.3493  0.6728
 4433SOL    HW224762   4.157   4.353   7.408  1.6612 -1.7783 -0.5436
 4434SOL     OW24763   4.333   4.431   6.939 -0.5633  0.0916 -0.0259
 4434SOL    HW124764   4.260   4.409   6.995 -0.1349  1.3527  1.0080
 4434SOL    HW224765   4.314   4.379   6.860 -0.4180  1.0449 -0.6947
 4435SOL     OW24766   3.674   2.141   6.017 -0.2940  0.4353 -0.5273
 4435SOL    HW124767   3.720   2.075   5.965  2.5907  0.6923  1.7056
 4435SOL    HW224768   3.644   2.206   5.955  0.7090 -0.6890 -2.1885
 4436SOL     OW24769   3.200   2.040   7.406  0.2450 -0.7953  0.3813
 4436SOL    HW124770   3.124   2.098   7.413  0.4709 -0.4916  0.3221
 4436SOL    HW224771   3.265   2.108   7.426 -0.2124  0.3363 -2.0426
 4437SOL     OW24772   4.081   2.028  12.010  0.1064 -0.8742  0.4495
 4437SOL    HW124773   4.033   2.111  12.002  1.7273 -0.0525 -0.8244
 4437SOL    HW224774   4.112   2.027  12.101  1.1170 -0.6619  0.1096
 4438SOL     OW24775   1.870   0.975   6.174 -0.0985  0.2352  0.4775
 4438SOL    HW124776   1.927   1.022   6.234  1.1485  0.7392 -1.0758
 4438SOL    HW224777   1.905   0.995   6.087  1.6623 -0.2226  1.0753
 4439SOL     OW24778   1.677   3.420   8.935 -0.2630  0.2927  0.5179
 4439SOL    HW124779   1.644   3.405   8.847  0.7078  2.9315 -0.2988
 4439SOL    HW224780   1.755   3.363   8.935  0.4163  1.2056  3.0037
 4440SOL     OW24781   4.194   3.413  16.487  0.1488  0.6158 -0.0669
 4440SOL    HW124782   4.158   3.379  16.406 -1.2009  1.9324 -0.0270
 4440SOL    HW224783   4.249   3.485  16.456  1.9617 -0.3106  1.0553
 4441SOL     OW24784   3.046   2.204   2.358  0.4491 -0.1903 -0.3841
 4441SOL    HW124785   3.139   2.196   2.336  0.3921 -1.2383 -0.2414
 4441SOL    HW224786   3.004   2.138   2.304 -1.8241  0.2440  0.8865
 4442SOL     OW24787   4.536   2.368   3.168  0.8975 -0.7633 -0.0824
 4442SOL    HW124788   4.473   2.297   3.162 -1.2965  1.2089 -0.3287
 4442SOL    HW224789   4.516   2.413   3.086  0.4478 -1.4196 -0.3358
 4443SOL     OW24790   2.531   0.953   8.116 -0.0291 -0.0600  0.5122
 4443SOL    HW124791   2.604   0.912   8.069  0.2849  1.4932 -0.3368
 4443SOL    HW224792   2.563   1.041   8.138  0.5011  0.3966 -2.1612
 4444SOL     OW24793   1.127   1.850   4.072 -0.2629 -0.2570 -0.2029
 4444SOL    HW124794   1.193   1.918   4.089 -1.5850  1.0559 -0.3373
 4444SOL    HW224795   1.178   1.772   4.097  1.2377  0.0071 -2.3935
 4445SOL     OW24796   0.997   0.256   7.205 -0.1177 -0.5350  0.8537
 4445SOL    HW124797   0.961   0.190   7.146  0.6645  0.4642 -0.7275
 4445SOL    HW224798   0.931   0.324   7.191  1.7812  1.2914  0.7283
 4446SOL     OW24799   0.514   0.347  14.281  0.2382  0.5199  0.4979
 4446SOL    HW124800   0.609   0.346  14.268  0.1674 -0.6978  0.0396
 4446SOL    HW224801   0.481   0.291  14.211 -0.4618 -0.3304  1.4962
 4447SOL     OW24802   4.326   1.818  11.325  0.0426 -0.3866 -0.2067
 4447SOL    HW124803   4.286   1.758  11.388  0.4112 -0.8736 -0.4354
 4447SOL    HW224804   4.400   1.857  11.371 -1.7839  0.4899  1.9841
 4448SOL     OW24805   2.168   2.142  11.716  0.1304  0.2946  0.1517
 4448SOL    HW124806   2.167   2.209  11.647 -1.2687  1.4866  1.3137
 4448SOL    HW224807   2.085   2.153  11.764  1.0840  1.2155  1.5842
 4449SOL     OW24808   2.093   4.275   9.142 -0.2548 -0.2672 -0.1156
 4449SOL    HW124809   2.187   4.288   9.156 -0.9213  1.2662  3.0120
 4449SOL    HW224810   2.067   4.269   9.234  2.1276  0.0745  0.5709
 4450SOL     OW24811   3.989   3.537   9.078 -0.4224  0.0619 -1.1323
 4450SOL    HW124812   3.900   3.556   9.109 -0.7328 -1.7765 -0.9230
 4450SOL    HW224813   3.966   3.452   9.041 -1.3644 -0.7378  1.2732
 4451SOL     OW24814   1.708   4.221   9.281  0.3849 -0.0697  0.0443
 4451SOL    HW124815   1.630   4.274   9.295  1.1553  1.3173 -0.9320
 4451SOL    HW224816   1.756   4.244   9.360 -1.6477 -2.1052  1.8458
 4452SOL     OW24817   4.111   0.794   6.449 -0.3147  0.1974 -0.1932
 4452SOL    HW124818   4.178   0.833   6.393 -0.4947  0.8380  0.0364
 4452SOL    HW224819   4.126   0.833   6.535  1.1028  0.7209 -0.6764
 4453SOL     OW24820   0.846   2.431   2.893  0.3341  0.1568  0.3826
 4453SOL    HW124821   0.784   2.501   2.917  0.1720 -0.0453  0.5497
 4453SOL    HW224822   0.833   2.434   2.798  1.0662 -1.9475  0.2219
 4454SOL     OW24823   3.970   3.389   3.369 -0.6768 -0.1555  0.0938
 4454SOL    HW124824   3.912   3.455   3.406 -0.0536  0.5764 -0.2153
 4454SOL    HW224825   3.914   3.341   3.308 -1.7990  1.1916  0.0676
 4455SOL     OW24826   3.314   0.473  10.659 -0.6390 -0.4606 -0.0635
 4455SOL    HW124827   3.272   0.537  10.601 -0.3960  0.3583  0.6619
 4455SOL    HW224828   3.401   0.511  10.673 -0.7731 -0.1538 -0.0663
 4456SOL     OW24829   2.579   4.340   3.846  0.2793 -0.5235 -0.3073
 4456SOL    HW124830   2.608   4.349   3.755  0.9678  0.8067  0.0392
 4456SOL    HW224831   2.556   4.248   3.854  0.9014 -0.5038  1.4704
 4457SOL     OW24832   1.885   2.084   5.532  0.6735  0.0119 -0.0108
 4457SOL    HW124833   1.942   2.146   5.486 -1.7549  2.3272  0.0879
 4457SOL    HW224834   1.826   2.147   5.574 -0.2586  0.3009 -1.7306
 4458SOL     OW24835   3.699   1.870   0.720 -0.2250 -0.4940 -0.0412
 4458SOL    HW124836   3.639   1.940   0.744  0.5859  0.2319 -0.1263
 4458SOL    HW224837   3.639   1.807   0.680 -1.1370  0.7876 -0.6834
 4459SOL     OW24838   0.705   3.788   2.740  0.0225 -0.1540  0.6480
 4459SOL    HW124839   0.731   3.855   2.804  1.4094 -0.7657  0.7206
 4459SOL    HW224840   0.633   3.743   2.785 -0.4043  0.8756  1.0120
 4460SOL     OW24841   1.378   4.281   3.121 -0.4752 -0.3282  0.2231
 4460SOL    HW124842   1.443   4.309   3.057 -0.6140 -1.1130 -0.2535
 4460SOL    HW224843   1.391   4.354   3.181 -1.5744  0.6549 -0.7403
 4461SOL     OW24844   4.481   0.630   3.772 -0.0364  0.8709 -0.7908
 4461SOL    HW124845   4.485   0.663   3.862  1.1637  1.8437 -1.2085
 4461SOL    HW224846   4.435   0.547   3.788 -3.6301  2.9145 -0.3041
 4462SOL     OW24847   3.598   1.503  16.196  0.4642 -0.4866 -0.3822
 4462SOL    HW124848   3.616   1.468  16.108 -1.0750 -0.9096 -0.5451
 4462SOL    HW224849   3.646   1.585  16.192 -1.2263  0.5199 -0.1503
 4463SOL     OW24850   1.653   3.542   8.356 -0.1609  0.1385 -0.2984
 4463SOL    HW124851   1.708   3.508   8.285 -0.3409  1.8403 -1.2547
 4463SOL    HW224852   1.716   3.558   8.425  0.1405 -1.1170 -0.2893
 4464SOL     OW24853   4.212   4.464   0.443  0.6017 -0.1234 -0.1465
 4464SOL    HW124854   4.140   4.413   0.479 -0.1430  0.9992 -0.0631
 4464SOL    HW224855   4.185   4.506   0.362  0.2326  1.3686  0.7493
 4465SOL     OW24856   3.052   2.179   8.621  1.0129 -0.3121  0.1422
 4465SOL    HW124857   2.964   2.182   8.584  0.1302 -3.1779  2.0109
 4465SOL    HW224858   3.029   2.215   8.707 -1.5637 -0.7284 -0.3603
 4466SOL     OW24859   1.141   1.192   7.786 -0.0809  0.1453 -0.1523
 4466SOL    HW124860   1.156   1.106   7.824 -2.4279  0.5658  1.6801
 4466SOL    HW224861   1.050   1.211   7.807 -0.2717 -1.4292  0.4822
 4467SOL     OW24862   0.452   1.912   2.516  0.2004 -0.3947 -0.0532
 4467SOL    HW124863   0.444   2.008   2.513  0.7677 -0.2844  1.8536
 4467SOL    HW224864   0.547   1.902   2.523 -0.1360 -4.1049 -0.9301
 4468SOL     OW24865   4.465   0.689   0.679  0.1351 -0.3925  0.2366
 4468SOL    HW124866   4.444   0.647   0.595  3.7600 -0.7241 -0.5157
 4468SOL    HW224867   4.385   0.676   0.730  0.5943 -1.9694  0.5613
 4469SOL     OW24868   3.913   4.488   8.748  0.4023 -0.3274  0.7630
 4469SOL    HW124869   3.973   4.432   8.698  2.0533  0.3312  2.0199
 4469SOL    HW224870   3.973   4.519   8.816  0.3573  1.5488 -0.0634
 4470SOL     OW24871   1.734   3.276  15.962 -0.3909  0.3483  0.4433
 4470SOL    HW124872   1.736   3.336  16.037 -0.6907  0.9045  0.0122
 4470SOL    HW224873   1.819   3.234  15.973 -1.5040 -1.5962  1.7122
 4471SOL     OW24874   1.077   2.075   2.892  0.1591  0.3573 -0.2929
 4471SOL    HW124875   1.048   1.999   2.843 -0.7384  1.1161 -0.9430
 4471SOL    HW224876   1.124   2.126   2.826  0.4345  0.4495 -0.0253
 4472SOL     OW24877   1.665   4.285   9.989 -0.1442  0.0384  0.2281
 4472SOL    HW124878   1.695   4.270  10.079 -0.6071  0.6609  0.4872
 4472SOL    HW224879   1.681   4.201   9.946  0.0097 -0.7821  1.8598
 4473SOL     OW24880   1.952   4.499   9.360 -0.0919  0.1040 -0.2337
 4473SOL    HW124881   1.985   4.420   9.403  0.9398  0.0645 -1.0815
 4473SOL    HW224882   2.008   4.517   9.284 -0.2557  1.1832 -0.0913
 4474SOL     OW24883   4.385   4.430   2.683  0.4872  0.6011 -0.7042
 4474SOL    HW124884   4.402   4.503   2.625 -0.0877  0.8471 -0.5594
 4474SOL    HW224885   4.291   4.442   2.684  0.7096  2.3179 -1.3318
 4475SOL     OW24886   1.876   4.380   4.443 -0.4372 -0.3549 -0.1879
 4475SOL    HW124887   1.960   4.343   4.469 -0.6624 -0.9755 -0.3633
 4475SOL    HW224888   1.874   4.360   4.350 -1.7450 -2.1050  0.2199
 4476SOL     OW24889   0.341   0.829   8.445 -0.4150 -0.1218 -0.3911
 4476SOL    HW124890   0.386   0.842   8.529 -1.1752  1.6237 -0.2502
 4476SOL    HW224891   0.259   0.794   8.481  0.2075 -1.5247 -0.3583
 4477SOL     OW24892   0.984   3.250  13.743  0.2009  0.3220  0.0254
 4477SOL    HW124893   0.908   3.276  13.796 -0.4648 -0.7345 -0.4038
 4477SOL    HW224894   0.980   3.313  13.672  0.0146 -0.6719 -0.8590
 4478SOL     OW24895   1.465   3.434   5.306  0.3586  1.0755 -0.2337
 4478SOL    HW124896   1.397   3.440   5.238 -0.4025  2.2558  0.6322
 4478SOL    HW224897   1.436   3.501   5.368  0.0565  0.2562  0.4925
 4479SOL     OW24898   1.700   1.841  13.188  0.1156 -0.5227  0.1599
 4479SOL    HW124899   1.633   1.904  13.163 -0.9361 -1.2200  1.2285
 4479SOL    HW224900   1.778   1.894  13.173  0.0773 -0.6905 -0.6378
 4480SOL     OW24901   3.716   2.488   1.537  0.3084  0.0192 -0.3779
 4480SOL    HW124902   3.766   2.412   1.568 -0.3797 -0.7584 -1.1610
 4480SOL    HW224903   3.781   2.547   1.500 -1.2214  1.9870  0.0829
 4481SOL     OW24904   0.608   2.683   9.709 -0.1832 -0.4964 -0.5655
 4481SOL    HW124905   0.625   2.612   9.647  5.0966 -0.1475  0.4949
 4481SOL    HW224906   0.687   2.737   9.707  0.6778 -1.7978 -1.5770
 4482SOL     OW24907   1.004   1.849   2.737  0.1073  0.0412  0.1029
 4482SOL    HW124908   1.060   1.772   2.726 -0.6181 -0.6499  1.2200
 4482SOL    HW224909   0.925   1.816   2.780 -0.2669  1.8973  0.8473
 4483SOL     OW24910   3.904   3.050   1.424  0.0680 -0.6101 -0.2308
 4483SOL    HW124911   3.851   3.129   1.410 -0.1370 -0.9745 -1.5280
 4483SOL    HW224912   3.957   3.052   1.344  0.7147  0.2603  0.2246
 4484SOL     OW24913   1.014   1.759   2.423 -0.0437  0.4021 -0.7297
 4484SOL    HW124914   1.000   1.693   2.356 -0.0911  0.9335 -1.2497
 4484SOL    HW224915   1.019   1.698   2.496 -3.3664  0.6152 -0.3225
 4485SOL     OW24916   0.189   4.139  13.902 -0.0822 -0.5190 -0.3177
 4485SOL    HW124917   0.235   4.184  13.831 -1.8794  1.9180  0.0492
 4485SOL    HW224918   0.143   4.075  13.847 -2.0269  1.4493 -0.9726
 4486SOL     OW24919   2.934   2.746   4.191 -0.3320  0.5715 -0.1924
 4486SOL    HW124920   2.961   2.658   4.163 -0.9825 -0.3233  1.9926
 4486SOL    HW224921   2.839   2.739   4.202 -0.5504  1.6826 -1.4040
 4487SOL     OW24922   1.213   1.233   6.853  0.2981  0.1946 -0.1349
 4487SOL    HW124923   1.288   1.293   6.858  1.2203 -0.9035 -0.5267
 4487SOL    HW224924   1.155   1.279   6.792 -0.5639 -0.7843 -0.0477
 4488SOL     OW24925   1.170   2.887   4.473 -1.1282 -0.1583 -0.1087
 4488SOL    HW124926   1.078   2.909   4.489 -1.1763 -0.3954 -0.0626
 4488SOL    HW224927   1.170   2.805   4.422 -0.3395 -1.2793  1.7124
 4489SOL     OW24928   3.545   1.741   7.795 -0.4696  0.5841 -0.0766
 4489SOL    HW124929   3.545   1.734   7.700 -0.7109  1.2606 -0.1239
 4489SOL    HW224930   3.613   1.808   7.802 -2.0879  2.1122  1.1661
 4490SOL     OW24931   4.629   3.860   5.098 -0.8984 -0.3594 -0.0513
 4490SOL    HW124932   4.683   3.868   5.019 -0.9167 -1.5007 -0.1854
 4490SOL    HW224933   4.553   3.816   5.059 -1.8541  4.1904 -3.3971
 4491SOL     OW24934   3.479   3.186   1.071  0.0291  0.3654  0.2067
 4491SOL    HW124935   3.464   3.281   1.066 -2.7216 -0.1493 -1.6672
 4491SOL    HW224936   3.566   3.182   1.111  0.1284 -0.8119 -0.1346
 4492SOL     OW24937   0.400   1.784  13.883  0.1485  0.0929 -0.6587
 4492SOL    HW124938   0.386   1.873  13.852  0.6772  0.6864  0.7705
 4492SOL    HW224939   0.445   1.756  13.803  0.0174 -1.2546 -0.2668
 4493SOL     OW24940   3.821   3.695   0.495 -0.1353  0.4059  0.3176
 4493SOL    HW124941   3.757   3.662   0.558  1.4457  0.3824  1.8881
 4493SOL    HW224942   3.866   3.612   0.479  1.3265  1.0522  1.1353
 4494SOL     OW24943   1.189   0.545   3.318 -0.2249  0.1037  0.1948
 4494SOL    HW124944   1.187   0.607   3.391 -0.5178 -0.5859  0.7778
 4494SOL    HW224945   1.102   0.505   3.315 -0.4452  0.5236  0.9038
 4495SOL     OW24946   1.068   2.973  14.270  0.0811 -0.5400  0.7195
 4495SOL    HW124947   0.992   3.001  14.220  0.9330 -1.5674 -1.1291
 4495SOL    HW224948   1.102   3.058  14.299 -1.3280 -0.3933  1.9781
 4496SOL     OW24949   3.438   1.294   8.516 -0.4017 -0.6145  0.2609
 4496SOL    HW124950   3.368   1.355   8.492  0.7442  0.5725 -0.0624
 4496SOL    HW224951   3.480   1.353   8.578  1.9975  0.1197 -2.0894
 4497SOL     OW24952   3.249   4.567   0.122  0.3399 -0.5595 -0.5809
 4497SOL    HW124953   3.285   4.538   0.206 -3.5294 -2.1492  0.5267
 4497SOL    HW224954   3.322   4.617   0.087 -0.4517  0.7380 -0.3954
 4498SOL     OW24955   4.357   2.646   1.409  0.1223  0.2132 -0.1522
 4498SOL    HW124956   4.415   2.630   1.335  1.9717 -0.5191  1.4539
 4498SOL    HW224957   4.276   2.666   1.363  0.1648 -0.5200 -0.5423
 4499SOL     OW24958   0.532   4.454  15.915  0.3047 -0.2366 -0.3506
 4499SOL    HW124959   0.514   4.371  15.870  0.6274 -0.6118  0.2014
 4499SOL    HW224960   0.450   4.478  15.957 -0.8633  0.5244 -3.0753
 4500SOL     OW24961   1.554   4.231   4.650 -0.4815  0.5287 -0.4755
 4500SOL    HW124962   1.493   4.304   4.657 -1.5196 -0.1847 -2.3043
 4500SOL    HW224963   1.539   4.178   4.728  0.3026  0.6803 -0.2223
 4501SOL     OW24964   1.721   2.568   1.008 -0.0239  0.1915  0.4914
 4501SOL    HW124965   1.711   2.502   1.076 -0.5069  2.5832  2.7284
 4501SOL    HW224966   1.668   2.635   1.050 -3.0875 -3.0729  1.7833
 4502SOL     OW24967   1.708   3.629   5.113  0.2920 -0.0152  0.0602
 4502SOL    HW124968   1.752   3.662   5.191 -1.3585 -0.5379  1.2206
 4502SOL    HW224969   1.615   3.633   5.137  0.8284  2.8873  1.6309
 4503SOL     OW24970   3.702   3.288   2.883  0.1362  0.2537  0.2671
 4503SOL    HW124971   3.680   3.213   2.938  1.4457  0.3062  0.8593
 4503SOL    HW224972   3.616   3.314   2.850  1.4203  2.8923 -1.0090
 4504SOL     OW24973   4.405   2.183   4.234  0.1995  0.3290  0.4003
 4504SOL    HW124974   4.474   2.191   4.300 -1.6043  0.5197  2.2702
 4504SOL    HW224975   4.349   2.124   4.285 -0.2845 -2.5247 -3.4880
 4505SOL     OW24976   2.091   3.773   1.467  0.9250  0.3621 -0.0109
 4505SOL    HW124977   2.019   3.730   1.421  0.2412  0.3197  1.0923
 4505SOL    HW224978   2.076   3.740   1.556  0.5978  0.8950  0.1340
 4506SOL     OW24979   0.181   3.015  10.622 -0.2819  0.5585  0.1215
 4506SOL    HW124980   0.227   3.031  10.704 -0.9053 -0.7168  0.7203
 4506SOL    HW224981   0.160   2.921  10.629 -2.9447  1.3785  2.9073
 4507SOL     OW24982   2.079   3.098   3.633  0.3501  0.3250  0.1223
 4507SOL    HW124983   2.074   3.180   3.583 -0.7036 -0.6088 -1.3065
 4507SOL    HW224984   2.048   3.132   3.717 -0.7118 -1.1051  0.3078
 4508SOL     OW24985   0.750   4.343   9.047  0.2335 -0.8986 -0.1436
 4508SOL    HW124986   0.819   4.301   8.996 -1.1505  0.1094 -2.9010
 4508SOL    HW224987   0.703   4.271   9.089 -0.1086 -0.0219  0.9747
 4509SOL     OW24988   1.926   2.011   2.700  0.2241  0.5050  0.3948
 4509SOL    HW124989   1.946   2.087   2.755  0.6195  0.2921  0.5426
 4509SOL    HW224990   1.840   1.986   2.734  0.7278 -1.4903  0.1720
 4510SOL     OW24991   2.299   2.038   6.453 -0.2025  0.4417 -0.3274
 4510SOL    HW124992   2.333   2.126   6.470  0.2634  0.1742  0.1152
 4510SOL    HW224993   2.263   2.023   6.540 -1.3234 -0.2358 -0.9182
 4511SOL     OW24994   0.963   1.126  10.410  0.0081  0.0489  0.1426
 4511SOL    HW124995   0.996   1.092  10.493 -1.2790 -0.5413  0.4155
 4511SOL    HW224996   0.925   1.205  10.447 -0.4202  0.3430 -0.9379
 4512SOL     OW24997   3.169   0.099   8.006 -0.3365 -0.0197  0.3799
 4512SOL    HW124998   3.185   0.013   7.968  2.0381  0.8676 -0.6505
 4512SOL    HW224999   3.232   0.140   7.947 -0.5902  0.8751  0.7339
 4513SOL     OW25000   1.344   0.978  11.591 -0.1622  0.0029 -0.8417
 4513SOL    HW125001   1.275   1.016  11.646 -0.8769 -1.5944 -0.6325
 4513SOL    HW225002   1.330   1.027  11.510  2.2291 -0.2721 -1.4175
 4514SOL     OW25003   3.249   0.978   4.303  0.2303  0.1626 -0.0263
 4514SOL    HW125004   3.304   1.009   4.375 -4.3710 -1.9061  4.4261
 4514SOL    HW225005   3.220   0.896   4.343 -0.3606  1.0131  1.3161
 4515SOL     OW25006   2.511   3.912   2.232 -0.7730  0.1883 -0.3663
 4515SOL    HW125007   2.574   3.903   2.304 -1.2503  1.0701  0.1641
 4515SOL    HW225008   2.556   3.870   2.159  0.5491 -0.2746  0.7294
 4516SOL     OW25009   4.276   3.697  12.571 -0.2410  0.9942 -0.1672
 4516SOL    HW125010   4.245   3.762  12.508  0.0660  1.4986  0.1960
 4516SOL    HW225011   4.200   3.645  12.598 -0.7530  1.9679  0.2800
 4517SOL     OW25012   3.165   4.181  17.517  0.0027  0.3954  0.2442
 4517SOL    HW125013   3.131   4.093  17.499 -2.2405  0.8894  2.0188
 4517SOL    HW225014   3.259   4.163  17.519 -0.6789 -3.2699  0.4170
 4518SOL     OW25015   3.753   2.444  11.791  0.5382  0.2215  0.5364
 4518SOL    HW125016   3.801   2.361  11.784  0.5772  0.1516  1.6619
 4518SOL    HW225017   3.698   2.444  11.712  0.5360 -1.4380  0.5385
 4519SOL     OW25018   1.087   1.542   2.897  0.0308 -0.1793  0.5253
 4519SOL    HW125019   1.120   1.597   2.968  1.1102  0.8535 -0.7803
 4519SOL    HW225020   1.144   1.464   2.898 -0.0303 -0.2019  2.1226
 4520SOL     OW25021   3.386   2.749  15.984 -0.1342  0.2963  0.6513
 4520SOL    HW125022   3.382   2.843  15.998  0.4678  0.3353  0.5347
 4520SOL    HW225023   3.480   2.743  15.995 -0.3840  0.4442  2.8354
 4521SOL     OW25024   1.445   0.011   5.445 -0.3766 -0.0447 -0.2336
 4521SOL    HW125025   1.490   0.081   5.493 -1.1877  0.5521 -0.3421
 4521SOL    HW225026   1.361   0.053   5.429  0.8103  2.3236 -0.2936
 4522SOL     OW25027   0.635   4.547   4.382 -0.1900 -0.4533 -0.1108
 4522SOL    HW125028   0.658   4.454   4.375  0.8093 -0.2623  0.5192
 4522SOL    HW225029   0.572   4.557   4.311 -0.5880 -0.1959  0.2799
 4523SOL     OW25030   0.652   1.691  16.175  0.1924  0.0167 -0.1022
 4523SOL    HW125031   0.599   1.747  16.119 -1.1291 -1.0045  0.1228
 4523SOL    HW225032   0.665   1.608  16.129  2.3263 -0.2987  1.0483
 4524SOL     OW25033   1.077   4.257   9.138 -0.5641  0.1460 -0.1592
 4524SOL    HW125034   1.130   4.217   9.207  1.2702  1.6130 -0.7203
 4524SOL    HW225035   1.081   4.194   9.065  1.7104  0.5323 -0.3686
 4525SOL     OW25036   2.668   2.636  16.050 -0.2665 -0.1227  0.1090
 4525SOL    HW125037   2.714   2.635  15.966 -1.7039 -1.3517 -0.6670
 4525SOL    HW225038   2.731   2.596  16.109  0.3642  0.8331  0.0863
 4526SOL     OW25039   1.731   3.156  10.555  0.0216  0.1653 -0.5458
 4526SOL    HW125040   1.702   3.211  10.628  0.8932 -1.1574  0.8103
 4526SOL    HW225041   1.647   3.138  10.513 -0.2736 -0.7193  0.4198
 4527SOL     OW25042   3.750   1.546   0.864 -0.3218 -0.4512 -0.0470
 4527SOL    HW125043   3.742   1.515   0.774 -1.7219  1.2940 -0.5375
 4527SOL    HW225044   3.656   1.560   0.876 -0.3809 -1.7208  0.9172
 4528SOL     OW25045   1.099   1.179   1.742  0.2765 -0.5626 -0.0560
 4528SOL    HW125046   1.129   1.098   1.700 -0.9660 -1.2280  0.3333
 4528SOL    HW225047   1.005   1.161   1.750  0.5768 -2.5726 -1.1237
 4529SOL     OW25048   3.741   3.326   5.577 -0.8067  0.2852  0.2525
 4529SOL    HW125049   3.661   3.296   5.620 -0.2352  0.1636  1.2222
 4529SOL    HW225050   3.792   3.356   5.652  1.3630  0.4816 -1.2849
 4530SOL     OW25051   4.192   3.548   5.919  0.1922 -0.9162 -0.1109
 4530SOL    HW125052   4.207   3.560   5.825  0.5535  1.2852  0.2204
 4530SOL    HW225053   4.275   3.507   5.943 -1.5508 -4.7039 -0.6062
 4531SOL     OW25054   4.400   4.355  10.804 -0.0527  0.2619 -0.5922
 4531SOL    HW125055   4.327   4.414  10.821 -0.5669 -0.1206 -1.4675
 4531SOL    HW225056   4.441   4.342  10.889 -0.5198 -2.3098 -0.7615
 4532SOL     OW25057   3.369   4.515   3.463 -0.0867  0.3219 -0.1487
 4532SOL    HW125058   3.420   4.450   3.510  1.0500  1.6363  0.4440
 4532SOL    HW225059   3.312   4.550   3.532 -0.1083  1.2752 -0.6479
 4533SOL     OW25060   1.161   1.499   7.550  0.5365  0.4501  0.7304
 4533SOL    HW125061   1.079   1.546   7.534 -0.1474 -0.7309  0.7932
 4533SOL    HW225062   1.162   1.512   7.645  2.2141  1.2801  0.5878
 4534SOL     OW25063   2.350   4.143   1.478  0.3831 -0.2519  0.8535
 4534SOL    HW125064   2.385   4.061   1.513  0.3394 -1.2799 -1.5677
 4534SOL    HW225065   2.258   4.119   1.468  0.2027  0.6104  0.4290
 4535SOL     OW25066   0.576   1.133   4.278 -0.2059 -0.6184  0.0934
 4535SOL    HW125067   0.652   1.082   4.304  2.0643  2.2407 -0.9956
 4535SOL    HW225068   0.545   1.095   4.196 -0.9619  0.1141  0.0336
 4536SOL     OW25069   1.441   3.803   4.646 -0.3354  0.0721 -0.0779
 4536SOL    HW125070   1.363   3.765   4.686 -0.7423  1.7768  0.7431
 4536SOL    HW225071   1.404   3.815   4.559  2.8495  1.0746 -1.2976
 4537SOL     OW25072   0.068   1.880   2.704  0.1525 -0.2998 -0.3614
 4537SOL    HW125073   0.108   1.960   2.670  1.5977 -0.3453  1.2181
 4537SOL    HW225074   0.027   1.910   2.785 -1.3367  1.0651 -1.6202
 4538SOL     OW25075   1.874   3.032   6.737  0.3139 -0.5240  0.4561
 4538SOL    HW125076   1.791   3.002   6.700 -0.8940 -0.5433  3.1993
 4538SOL    HW225077   1.889   3.116   6.694  0.5347 -0.9897 -0.3778
 4539SOL     OW25078   0.203   3.119   8.164 -0.1342 -0.3471  0.1606
 4539SOL    HW125079   0.235   3.193   8.112  1.0302 -1.9369 -1.3866
 4539SOL    HW225080   0.183   3.163   8.246  0.5449 -1.4215  0.9013
 4540SOL     OW25081   4.032   0.061  13.966 -0.2693  0.1298 -0.5773
 4540SOL    HW125082   4.071   0.041  13.882 -1.6574  0.2872 -1.2547
 4540SOL    HW225083   4.076   0.134  14.010 -1.0574  0.3892 -0.2023
 4541SOL     OW25084   1.205   3.600  15.138  0.2112  0.4985  0.0719
 4541SOL    HW125085   1.297   3.583  15.119  0.6113  0.8111  1.7282
 4541SOL    HW225086   1.202   3.695  15.123 -0.2058  0.4123 -0.4263
 4542SOL     OW25087   4.652   1.346   7.393 -0.1064 -0.4555 -0.0326
 4542SOL    HW125088   0.009   1.357   7.444  0.7238 -1.4738 -1.1280
 4542SOL    HW225089   4.684   1.339   7.303  1.0239 -0.3428  0.3656
 4543SOL     OW25090   3.173   1.207  15.648 -0.1683 -0.0216 -0.1575
 4543SOL    HW125091   3.179   1.164  15.733  1.7382  0.7228  0.0819
 4543SOL    HW225092   3.151   1.131  15.594  0.8883 -0.6164  0.2547
 4544SOL     OW25093   2.162   1.230   2.794  0.1096 -0.4564 -0.1389
 4544SOL    HW125094   2.114   1.176   2.857 -1.9502 -1.4936 -2.6374
 4544SOL    HW225095   2.147   1.190   2.709  1.4109 -1.3257  0.0374
 4545SOL     OW25096   4.484   0.205   4.325 -0.4590  0.7064  0.3711
 4545SOL    HW125097   4.575   0.175   4.320 -1.2109 -1.4197 -0.1860
 4545SOL    HW225098   4.495   0.299   4.311 -0.1723  0.3526 -1.8061
 4546SOL     OW25099   3.595   4.071  10.191 -0.2703  1.2072 -0.7752
 4546SOL    HW125100   3.578   3.979  10.209  0.4248  1.3105  0.4073
 4546SOL    HW225101   3.689   4.077  10.209 -0.7754  1.6491  1.7493
 4547SOL     OW25102   1.431   3.962  17.066 -0.0881 -0.0915 -0.1128
 4547SOL    HW125103   1.460   3.875  17.037  3.0585  0.4276  1.5078
 4547SOL    HW225104   1.392   3.941  17.151  0.0448  0.3817  0.0678
 4548SOL     OW25105   0.230   1.028   8.296 -0.1972 -0.3176 -0.2101
 4548SOL    HW125106   0.258   0.955   8.351  0.6922  0.7649  0.7692
 4548SOL    HW225107   0.244   0.986   8.211 -2.3962 -0.7178 -0.3697
 4549SOL     OW25108   4.601   1.994  13.415  0.9313  0.1105 -0.0028
 4549SOL    HW125109   4.660   2.032  13.350  0.8015  2.2431  1.1064
 4549SOL    HW225110   4.551   2.073  13.437  1.3944  0.2278  0.6226
 4550SOL     OW25111   2.925   0.589   5.489  0.0202  0.2474  0.4591
 4550SOL    HW125112   2.998   0.528   5.504  0.4037  0.7119  0.5002
 4550SOL    HW225113   2.852   0.550   5.537  0.8537 -2.0159 -0.0766
 4551SOL     OW25114   1.465   1.734  11.966  0.2221  0.1394  0.5454
 4551SOL    HW125115   1.438   1.757  11.877  2.1144 -0.7507 -0.2567
 4551SOL    HW225116   1.560   1.741  11.957  0.4695 -1.0129  2.1795
 4552SOL     OW25117   1.811   2.809   5.043  0.0989 -0.5771 -1.2291
 4552SOL    HW125118   1.776   2.763   4.966  0.8469  0.2252 -2.0431
 4552SOL    HW225119   1.768   2.891   5.019 -0.5534 -0.1018  1.5966
 4553SOL     OW25120   0.842   1.093   1.819 -0.2576  0.2823 -0.0563
 4553SOL    HW125121   0.852   1.112   1.913 -0.5424  2.8023 -0.5399
 4553SOL    HW225122   0.809   1.003   1.827  0.7984  0.0484  1.6132
 4554SOL     OW25123   0.657   0.306   6.104  0.0695  0.2302  0.6916
 4554SOL    HW125124   0.627   0.310   6.014 -2.5192  2.7670  1.6490
 4554SOL    HW225125   0.654   0.399   6.129 -2.6422 -0.3423  2.5147
 4555SOL     OW25126   4.350   2.990   5.762 -0.5378 -0.4556  0.0292
 4555SOL    HW125127   4.368   2.997   5.669  1.6477  0.1135  0.4676
 4555SOL    HW225128   4.301   3.069   5.785 -0.8641 -0.6833  0.1075
 4556SOL     OW25129   1.341   4.244   6.156 -0.0552  0.1773 -0.7916
 4556SOL    HW125130   1.366   4.290   6.076 -0.1388  0.3592 -0.7113
 4556SOL    HW225131   1.354   4.308   6.225 -1.4335 -1.0022  0.5613
 4557SOL     OW25132   1.426   1.848  13.423 -0.5491  0.6797 -0.2124
 4557SOL    HW125133   1.454   1.903  13.350  0.1567 -0.2386 -0.6285
 4557SOL    HW225134   1.489   1.868  13.492  1.0333  0.7820 -1.7177
 4558SOL     OW25135   1.046   4.492   4.229  0.1596  0.2231  0.4116
 4558SOL    HW125136   1.076   4.477   4.139 -0.1493  0.6656  0.2342
 4558SOL    HW225137   1.001   4.575   4.212  1.6671  0.6101 -1.7059
 4559SOL     OW25138   3.248   0.783   6.749 -0.8442 -0.2954 -0.0048
 4559SOL    HW125139   3.154   0.783   6.733 -1.0868 -1.5247  1.4935
 4559SOL    HW225140   3.282   0.792   6.660 -1.8148 -4.5919 -0.7897
 4560SOL     OW25141   3.917   3.697   6.326 -0.5540 -0.0711  0.1723
 4560SOL    HW125142   3.932   3.739   6.411 -0.7742 -0.9007  0.6147
 4560SOL    HW225143   4.007   3.671   6.304 -0.8402 -0.6370 -0.3160
 4561SOL     OW25144   2.892   1.499   3.744 -0.5398 -0.3473  0.0405
 4561SOL    HW125145   2.862   1.428   3.688  0.5730 -0.8796  0.1076
 4561SOL    HW225146   2.901   1.453   3.827 -0.3263  0.7880  0.6411
 4562SOL     OW25147   4.036   2.555  17.597  0.0090  0.0743  0.0725
 4562SOL    HW125148   4.032   2.600  17.513 -0.3572  3.3490  1.8583
 4562SOL    HW225149   4.080   2.473  17.573 -1.7282 -0.6908 -0.5216
 4563SOL     OW25150   2.303   0.791   8.131  0.4610 -0.2947 -0.0423
 4563SOL    HW125151   2.375   0.854   8.139 -1.4257  1.7615  0.7900
 4563SOL    HW225152   2.298   0.780   8.036  0.0087 -1.8820  0.1696
 4564SOL     OW25153   3.248   1.285   3.724 -0.2814 -0.2594 -0.3180
 4564SOL    HW125154   3.235   1.378   3.746 -1.2818 -0.2842 -0.7603
 4564SOL    HW225155   3.178   1.240   3.771 -0.6874  1.7194  0.9990
 4565SOL     OW25156   3.970   0.930  15.524  0.1678 -0.2806 -0.5277
 4565SOL    HW125157   3.964   0.987  15.601 -1.5707 -2.6167  1.0668
 4565SOL    HW225158   3.941   0.988  15.454 -2.7331 -0.8503  0.1999
 4566SOL     OW25159   3.287   1.723   9.959 -0.7731 -0.0026 -0.1823
 4566SOL    HW125160   3.340   1.792   9.999  0.5457 -1.2820  0.2880
 4566SOL    HW225161   3.208   1.768   9.988 -0.3663  1.4334 -1.3093
 4567SOL     OW25162   3.536   4.467   3.858 -0.4971  0.0757  0.1302
 4567SOL    HW125163   3.468   4.530   3.883  0.6823  0.9522  1.0736
 4567SOL    HW225164   3.604   4.528   3.827 -1.7672  1.4246 -0.0389
 4568SOL     OW25165   3.794   0.089   2.925 -0.2311  0.4860 -0.4004
 4568SOL    HW125166   3.726   0.152   2.948 -0.3097 -0.4192  1.8606
 4568SOL    HW225167   3.873   0.144   2.918  0.8135 -0.6732  2.1490
 4569SOL     OW25168   1.654   3.746   6.809  0.5879 -0.2319  0.1717
 4569SOL    HW125169   1.575   3.768   6.860  1.1783 -0.5903  1.2399
 4569SOL    HW225170   1.703   3.828   6.799  1.3164 -0.2446  3.4137
 4570SOL     OW25171   0.386   3.573   3.424  0.2458 -0.7711 -0.5217
 4570SOL    HW125172   0.440   3.526   3.361  1.2651 -1.5943  0.9870
 4570SOL    HW225173   0.370   3.513   3.496 -1.3436  0.2283 -0.0266
 4571SOL     OW25174   1.718   0.716  16.339 -0.3676  0.1061 -0.4095
 4571SOL    HW125175   1.678   0.636  16.306 -0.6348 -0.3070  0.9087
 4571SOL    HW225176   1.700   0.701  16.432 -3.1096 -0.5269 -1.0366
 4572SOL     OW25177   3.001   0.069   1.699 -0.5971  0.0754 -0.0931
 4572SOL    HW125178   3.016   0.043   1.608 -2.2963  1.1851 -0.6824
 4572SOL    HW225179   2.905   0.064   1.693 -0.5608  2.1519 -2.4598
 4573SOL     OW25180   0.181   4.260  16.192  0.2110  0.4664  0.2279
 4573SOL    HW125181   0.133   4.193  16.143  1.4364 -1.1703  1.2734
 4573SOL    HW225182   0.165   4.216  16.276  0.3342 -2.6838 -1.4091
 4574SOL     OW25183   2.308   3.013   5.496  0.0708  0.2299 -0.0370
 4574SOL    HW125184   2.349   2.927   5.492  1.5465  0.9176  0.2935
 4574SOL    HW225185   2.248   3.005   5.570  0.0683  1.5188  0.0940
 4575SOL     OW25186   1.341   3.944   5.678  0.5988 -0.5895 -0.3745
 4575SOL    HW125187   1.275   3.963   5.745 -0.2612 -2.9126 -0.5477
 4575SOL    HW225188   1.379   3.862   5.709  0.5890 -0.5940 -0.3742
 4576SOL     OW25189   0.292   2.006   3.026 -0.2846  0.3029  0.1441
 4576SOL    HW125190   0.373   1.970   3.062 -0.8028 -1.1300 -0.1277
 4576SOL    HW225191   0.232   1.933   3.010 -0.8731 -0.2108  4.8653
 4577SOL     OW25192   0.947   3.584   1.256  0.3970  0.0900  0.6885
 4577SOL    HW125193   0.897   3.645   1.202  1.3575 -1.5984 -2.0638
 4577SOL    HW225194   1.027   3.585   1.205 -0.1752 -1.0225 -0.2160
 4578SOL     OW25195   1.762   0.946   3.023  0.2668 -0.6039  0.8286
 4578SOL    HW125196   1.702   0.941   3.097 -1.7293  0.1266 -0.7400
 4578SOL    HW225197   1.788   0.854   3.024  3.4127  0.2869 -1.0350
 4579SOL     OW25198   0.660   2.210  12.672 -0.2736  0.3473  0.0220
 4579SOL    HW125199   0.691   2.293  12.636  0.1028  1.6398  3.3552
 4579SOL    HW225200   0.727   2.143  12.662 -0.3043  0.2334  0.6026
 4580SOL     OW25201   0.577   0.978  10.919  0.3662  0.0804 -0.3105
 4580SOL    HW125202   0.491   0.953  10.884 -0.6398  1.0977  1.4269
 4580SOL    HW225203   0.571   0.972  11.014 -0.2976  1.8314 -0.2243
 4581SOL     OW25204   2.806   3.046   5.703  0.0474  0.5099  0.1808
 4581SOL    HW125205   2.741   3.030   5.771  0.5947 -3.0868 -0.1404
 4581SOL    HW225206   2.888   3.055   5.752  0.2878 -0.4272 -0.0469
 4582SOL     OW25207   3.995   2.657  11.567  0.3483 -0.3072  0.0450
 4582SOL    HW125208   3.918   2.672  11.513  0.3313  3.3639  1.1064
 4582SOL    HW225209   4.050   2.733  11.548 -1.1186  1.1412  1.6493
 4583SOL     OW25210   0.478   2.428   4.367 -0.1024 -0.1379 -0.1316
 4583SOL    HW125211   0.542   2.386   4.310 -0.7353  0.3259 -1.2016
 4583SOL    HW225212   0.407   2.365   4.353 -1.4246  1.2939  0.0861
 4584SOL     OW25213   0.695   4.283   4.327  0.0441 -0.1323  0.2145
 4584SOL    HW125214   0.661   4.207   4.375  0.3469 -0.2859  0.1854
 4584SOL    HW225215   0.638   4.273   4.251 -0.2965  3.5371  0.0297
 4585SOL     OW25216   0.653   1.821   5.391  0.1424 -0.5607 -0.3555
 4585SOL    HW125217   0.619   1.860   5.471  1.3231  0.4275 -0.3478
 4585SOL    HW225218   0.595   1.851   5.321 -0.0689  0.0889  0.1005
 4586SOL     OW25219   2.926   3.937   8.373  0.2071  0.4604  0.6443
 4586SOL    HW125220   2.840   3.970   8.399 -1.6071 -1.7233 -2.6026
 4586SOL    HW225221   2.918   3.843   8.386  2.0277  0.5126  2.2568
 4587SOL     OW25222   0.087   3.186   5.176 -0.0034 -0.3472  0.2143
 4587SOL    HW125223   0.072   3.093   5.195  0.8827 -0.6553 -0.5439
 4587SOL    HW225224   0.171   3.183   5.129 -0.0121 -1.1989  0.2522
 4588SOL     OW25225   2.996   1.900   4.741  0.5017  0.1174  0.1744
 4588SOL    HW125226   3.051   1.827   4.713  3.7447  3.6703 -2.6448
 4588SOL    HW225227   3.060   1.968   4.761  0.4247  0.7097 -1.6165
 4589SOL     OW25228   1.730   2.478   4.064 -0.3929  0.0262 -0.0724
 4589SOL    HW125229   1.639   2.487   4.093  0.3197  1.4851  1.7288
 4589SOL    HW225230   1.715   2.426   3.985  3.7513 -1.1624 -0.0852
 4590SOL     OW25231   4.128   2.640   3.538  0.3010 -0.7567  0.1630
 4590SOL    HW125232   4.163   2.658   3.625  0.8575 -1.7768  0.1450
 4590SOL    HW225233   4.040   2.678   3.538  0.3138 -0.7300  0.4037
 4591SOL     OW25234   4.410   2.475   7.486  0.2617  0.5692 -1.2809
 4591SOL    HW125235   4.449   2.557   7.455 -0.3868  0.9425 -1.1085
 4591SOL    HW225236   4.432   2.415   7.415 -0.4957 -2.3883  0.9821
 4592SOL     OW25237   2.579   3.158   7.361  0.1440  0.1773  0.1500
 4592SOL    HW125238   2.510   3.225   7.360  1.2481  1.3355  2.5854
 4592SOL    HW225239   2.527   3.077   7.363  1.9169 -0.9996 -1.6577
 4593SOL     OW25240   1.363   4.654   5.172 -0.1450 -0.2619 -0.5483
 4593SOL    HW125241   1.318   4.617   5.248 -0.2759 -0.5557 -0.7667
 4593SOL    HW225242   1.445   4.691   5.204 -1.6644  0.5243  2.5027
 4594SOL     OW25243   0.214   2.627  16.991  0.3559  0.4431  0.2659
 4594SOL    HW125244   0.144   2.604  17.051  0.8516  2.1086  1.4809
 4594SOL    HW225245   0.289   2.631  17.050  0.9186 -0.8092 -0.3536
 4595SOL     OW25246   0.130   1.436  13.383  0.0055  0.1764  0.4339
 4595SOL    HW125247   0.046   1.417  13.342  1.1022 -0.0246 -1.7311
 4595SOL    HW225248   0.181   1.359  13.358 -0.7192 -0.6897  1.6583
 4596SOL     OW25249   2.880   0.310   6.510 -0.0494  0.8065 -0.3530
 4596SOL    HW125250   2.843   0.375   6.451 -0.3096  2.2717  1.4509
 4596SOL    HW225251   2.881   0.367   6.586  0.4426  1.5586 -0.9330
 4597SOL     OW25252   3.496   4.060  16.637  0.0769  0.3105  0.9183
 4597SOL    HW125253   3.474   4.140  16.685  1.4649 -0.0145  2.1182
 4597SOL    HW225254   3.587   4.043  16.662  0.1150  0.1879  0.6919
 4598SOL     OW25255   1.662   3.714   1.926  0.3273 -0.0290 -0.5806
 4598SOL    HW125256   1.671   3.618   1.928 -0.5105 -0.0231  2.6461
 4598SOL    HW225257   1.571   3.725   1.901 -0.3100 -0.8599  1.3536
 4599SOL     OW25258   2.376   4.582   6.638  0.4171  0.0175  0.9032
 4599SOL    HW125259   2.464   4.618   6.626  0.0868  0.3791 -0.4701
 4599SOL    HW225260   2.347   4.625   6.718 -0.6313  0.7177  0.1607
 4600SOL     OW25261   2.077   3.887   4.322 -0.1900 -0.5498  0.6272
 4600SOL    HW125262   2.031   3.934   4.391 -0.3268  0.3026 -0.0418
 4600SOL    HW225263   2.168   3.896   4.351 -0.6524  0.4260  1.7765
 4601SOL     OW25264   0.429   0.658   7.973  0.0210 -0.2555 -0.0932
 4601SOL    HW125265   0.457   0.611   8.051 -0.7796  0.7308  0.7984
 4601SOL    HW225266   0.420   0.583   7.916 -0.5291 -0.5644  0.3972
 4602SOL     OW25267   1.909   0.987   9.083  0.0553 -0.0193  0.0512
 4602SOL    HW125268   1.857   1.046   9.028 -0.2396  0.3220  0.6874
 4602SOL    HW225269   1.853   0.982   9.161  1.9556 -0.3423  1.3887
 4603SOL     OW25270   2.919   1.223   6.753 -0.4652 -0.0427 -0.2379
 4603SOL    HW125271   2.881   1.152   6.701  0.5212 -1.4060  0.8940
 4603SOL    HW225272   3.003   1.188   6.785  0.9332  2.6023 -1.0326
 4604SOL     OW25273   3.875   3.737   2.198  0.1307  0.0303  0.6023
 4604SOL    HW125274   3.874   3.663   2.137  0.4403  1.6080 -1.3397
 4604SOL    HW225275   3.805   3.787   2.157  0.0333 -0.7874 -0.2301
 4605SOL     OW25276   3.834   3.296  14.956 -0.1539 -0.0333  0.1300
 4605SOL    HW125277   3.823   3.350  14.878 -0.8002 -0.7509 -0.2684
 4605SOL    HW225278   3.748   3.294  14.998  0.7084  0.4591  1.9077
 4606SOL     OW25279   3.441   1.788   6.543 -0.3517 -0.2177  0.1069
 4606SOL    HW125280   3.516   1.796   6.484  0.7063  1.7419  1.7504
 4606SOL    HW225281   3.395   1.712   6.506 -0.9517 -1.4654  3.4218
 4607SOL     OW25282   0.928   0.870  12.797  0.2313 -0.0309  0.3527
 4607SOL    HW125283   0.853   0.929  12.805 -0.5109 -0.6487 -2.3270
 4607SOL    HW225284   0.873   0.793  12.787  1.8159 -1.1193  0.0465
 4608SOL     OW25285   4.522   2.745   7.040  0.2514  0.3049  0.2448
 4608SOL    HW125286   4.566   2.664   7.013 -1.4124 -1.0579  1.6968
 4608SOL    HW225287   4.594   2.787   7.087  0.6831  0.7803 -0.8235
 4609SOL     OW25288   3.720   4.416   0.650  0.0560  0.6253  0.3979
 4609SOL    HW125289   3.718   4.506   0.683 -1.4256  1.0332 -0.7339
 4609SOL    HW225290   3.811   4.392   0.663 -0.3769 -0.6559  1.0740
 4610SOL     OW25291   0.393   1.891   3.866 -0.8459 -0.1428 -0.1367
 4610SOL    HW125292   0.435   1.974   3.890 -0.8821 -0.1993  0.1282
 4610SOL    HW225293   0.436   1.858   3.788  0.0948  0.9731 -0.0979
 4611SOL     OW25294   3.743   3.464   6.639 -0.3105  0.5092 -0.3659
 4611SOL    HW125295   3.716   3.418   6.560 -2.7332  0.1366  0.6940
 4611SOL    HW225296   3.838   3.458   6.631 -0.6171 -1.7575 -2.1275
 4612SOL     OW25297   0.410   4.408   5.859  0.1747  0.0276 -0.1058
 4612SOL    HW125298   0.477   4.346   5.886 -0.8104 -0.3948  1.3960
 4612SOL    HW225299   0.418   4.403   5.764 -2.6419 -1.0740 -0.2932
 4613SOL     OW25300   1.830   4.312  10.619  0.2552 -0.4144 -0.0006
 4613SOL    HW125301   1.739   4.340  10.632  0.3842  0.7934 -1.6735
 4613SOL    HW225302   1.865   4.330  10.706  0.4279  0.8305 -0.3320
 4614SOL     OW25303   0.811   1.967  14.883  0.0130 -0.2765  0.3739
 4614SOL    HW125304   0.794   2.045  14.934  0.5270 -1.9870  3.1575
 4614SOL    HW225305   0.887   2.000  14.835  0.0029  0.7010  1.0469
 4615SOL     OW25306   3.559   0.938   4.236  0.2124  0.2235 -0.7713
 4615SOL    HW125307   3.636   0.959   4.183  0.4491  1.1679 -0.0284
 4615SOL    HW225308   3.494   0.992   4.193 -0.2930 -1.2298 -1.8466
 4616SOL     OW25309   0.855   2.949   2.803  0.7696  0.3354  0.1481
 4616SOL    HW125310   0.931   2.920   2.852  1.6350  1.0742 -0.7502
 4616SOL    HW225311   0.800   2.983   2.874 -0.5111  0.4193 -0.8720
 4617SOL     OW25312   1.668   4.517   2.352  0.1570 -0.3728  0.2415
 4617SOL    HW125313   1.683   4.499   2.259 -1.0225 -0.4829  0.0770
 4617SOL    HW225314   1.746   4.474   2.388  0.4635  1.1776  1.4543
 4618SOL     OW25315   3.750   0.134   1.837 -0.5853  0.1291  0.4726
 4618SOL    HW125316   3.735   0.130   1.932 -2.0306 -0.7498  0.2150
 4618SOL    HW225317   3.668   0.107   1.794  0.7732  0.2369 -2.1428
 4619SOL     OW25318   2.567   3.894   6.074  0.3294 -0.4649 -0.2603
 4619SOL    HW125319   2.510   3.929   6.005  0.3819 -0.2525 -0.1965
 4619SOL    HW225320   2.624   3.969   6.089 -2.3668  1.4633  0.3863
 4620SOL     OW25321   4.514   3.594  16.245 -0.1878 -0.0902  0.2502
 4620SOL    HW125322   4.548   3.582  16.156 -2.4497 -0.1462 -0.6092
 4620SOL    HW225323   4.421   3.595  16.220 -0.0821  1.1938 -0.0863
 4621SOL     OW25324   3.264   0.221   0.211  0.3008  0.3606 -0.0198
 4621SOL    HW125325   3.277   0.201   0.304 -2.0064  0.6764  0.3686
 4621SOL    HW225326   3.322   0.297   0.202 -1.9530  2.0187 -0.4300
 4622SOL     OW25327   1.567   3.846   4.070 -0.5888  0.0995 -0.2048
 4622SOL    HW125328   1.502   3.833   4.002 -1.7245  0.7474  0.7574
 4622SOL    HW225329   1.590   3.754   4.085  0.7945  0.5314  0.3837
 4623SOL     OW25330   3.183   1.092   6.778 -0.1258 -0.1906 -0.1601
 4623SOL    HW125331   3.249   1.074   6.844 -1.6305 -1.2963  1.0360
 4623SOL    HW225332   3.226   1.138   6.706  1.2196 -0.0281  0.7576
 4624SOL     OW25333   0.259   0.465  13.543 -0.7023  0.0342  0.4399
 4624SOL    HW125334   0.216   0.514  13.613  0.4422 -1.1319  1.9557
 4624SOL    HW225335   0.332   0.525  13.529 -0.9572  0.6259  1.7035
 4625SOL     OW25336   4.575   4.178  11.507  0.1195  0.1941  0.2134
 4625SOL    HW125337   4.656   4.200  11.462 -1.7598  1.8539 -2.3124
 4625SOL    HW225338   4.525   4.259  11.507 -0.4547 -0.1519  1.9732
 4626SOL     OW25339   4.425   2.927   6.856  0.3360 -0.7315 -0.1294
 4626SOL    HW125340   4.453   2.865   6.923 -1.6985  0.3472  1.7135
 4626SOL    HW225341   4.487   2.909   6.785 -0.1821  1.7050 -1.2158
 4627SOL     OW25342   1.853   2.901  12.303 -0.1571 -0.4828  0.7210
 4627SOL    HW125343   1.897   2.840  12.362  0.6105 -1.9454 -1.3636
 4627SOL    HW225344   1.900   2.895  12.220  0.0931  0.0669  0.8192
 4628SOL     OW25345   1.503   2.440   8.874 -0.7506 -0.2778 -0.0053
 4628SOL    HW125346   1.525   2.365   8.819  0.6145 -1.1176  1.6667
 4628SOL    HW225347   1.568   2.444   8.944  1.5098  1.8663 -2.2448
 4629SOL     OW25348   2.391   1.579  10.033 -0.2171  0.3564  0.6622
 4629SOL    HW125349   2.476   1.545  10.004 -0.8092  0.4695 -1.2101
 4629SOL    HW225350   2.382   1.529  10.115 -2.8911  0.1827  0.2738
 4630SOL     OW25351   1.095   4.703  12.709  0.1646  0.1776  0.0294
 4630SOL    HW125352   1.161   4.652  12.755  1.5577  2.2080  0.2604
 4630SOL    HW225353   1.039   4.713  12.787  0.1619 -0.4976  0.1198
 4631SOL     OW25354   4.145   0.630  13.404  0.5947  0.4898  0.1264
 4631SOL    HW125355   4.227   0.582  13.411 -0.5053 -1.1039  2.2305
 4631SOL    HW225356   4.084   0.558  13.424 -2.5119  2.9500 -0.4515
 4632SOL     OW25357   2.778   2.758   6.253 -0.3421  0.2569 -0.1102
 4632SOL    HW125358   2.836   2.707   6.310  1.4923  2.1401 -0.2907
 4632SOL    HW225359   2.703   2.778   6.308 -1.2837 -1.2887 -0.8238
 4633SOL     OW25360   2.702   3.933   3.124 -0.4785 -0.4130  0.1930
 4633SOL    HW125361   2.736   3.882   3.050  0.1589 -1.4232  1.1827
 4633SOL    HW225362   2.777   3.967   3.173 -1.9841  1.6677  1.0233
 4634SOL     OW25363   0.750   2.001   3.484 -0.1583  0.0015 -0.2666
 4634SOL    HW125364   0.800   2.081   3.473  0.1119 -0.4026 -2.1049
 4634SOL    HW225365   0.665   2.045   3.483  0.3513  0.9559 -1.7896
 4635SOL     OW25366   2.703   1.567   1.682  0.0233  0.0465  0.0523
 4635SOL    HW125367   2.678   1.542   1.593  0.4672 -1.3481  0.3220
 4635SOL    HW225368   2.797   1.584   1.674 -0.1174  0.2152 -1.2760
 4636SOL     OW25369   2.631   4.234   8.243  0.2720 -0.4489  0.2476
 4636SOL    HW125370   2.641   4.145   8.278 -2.1353 -0.9318 -0.2334
 4636SOL    HW225371   2.721   4.263   8.230  0.3516 -0.9779 -0.3937
 4637SOL     OW25372   4.554   0.488   5.408 -0.2745 -0.0731  0.2901
 4637SOL    HW125373   4.498   0.479   5.486 -0.7977 -0.2733 -0.1077
 4637SOL    HW225374   4.542   0.405   5.363  0.2417  0.8561 -1.5587
 4638SOL     OW25375   0.843   3.204   2.410  0.1004 -0.0161 -0.2147
 4638SOL    HW125376   0.791   3.126   2.391  0.2811 -0.3105  0.4789
 4638SOL    HW225377   0.926   3.181   2.452  0.5264  1.4394 -0.2659
 4639SOL     OW25378   4.041   1.865   4.403  0.9061  1.0125 -0.6300
 4639SOL    HW125379   3.999   1.944   4.437  0.7144  0.9715 -0.7727
 4639SOL    HW225380   4.039   1.808   4.480 -1.8901 -2.0908 -2.9677
 4640SOL     OW25381   2.670   2.275   1.917  0.2582 -0.3838  1.0046
 4640SOL    HW125382   2.613   2.320   1.980  0.4206  1.4439 -0.1462
 4640SOL    HW225383   2.611   2.213   1.875 -1.6687  0.5944  2.2367
 4641SOL     OW25384   0.883   4.172  11.865 -0.5979 -0.2021  0.1385
 4641SOL    HW125385   0.835   4.233  11.921 -0.3119  0.4989 -0.3744
 4641SOL    HW225386   0.804   4.133  11.827  0.0555  0.2656 -1.7120
 4642SOL     OW25387   2.023   1.291   8.705 -0.0859 -0.0122  0.4250
 4642SOL    HW125388   2.099   1.266   8.652  0.3794  1.1278  0.5747
 4642SOL    HW225389   2.040   1.381   8.731 -3.4383  0.9548 -0.6534
 4643SOL     OW25390   2.956   3.808   3.902 -0.2412 -0.1744 -0.4372
 4643SOL    HW125391   2.999   3.766   3.827  2.0118  1.3342  0.0169
 4643SOL    HW225392   3.006   3.767   3.973 -1.9155 -1.5342 -0.0458
 4644SOL     OW25393   4.337   0.377   3.722  0.7359  0.3119 -0.3471
 4644SOL    HW125394   4.313   0.300   3.671  0.9978 -0.0705  0.1084
 4644SOL    HW225395   4.408   0.387   3.659 -0.9585 -0.8483 -2.4526
 4645SOL     OW25396   2.323   2.652  10.956 -0.1769 -0.0567 -0.5475
 4645SOL    HW125397   2.268   2.588  10.911 -0.1603  0.4953 -1.3521
 4645SOL    HW225398   2.348   2.704  10.880  2.8092 -1.5023 -0.5383
 4646SOL     OW25399   4.491   2.857   3.340  0.0490  0.1080 -0.0563
 4646SOL    HW125400   4.405   2.874   3.301 -1.0382 -2.3603  1.2256
 4646SOL    HW225401   4.551   2.903   3.281 -1.0605  0.0990 -1.1983
 4647SOL     OW25402   3.316   0.138   5.275  0.7968 -0.1835 -1.2439
 4647SOL    HW125403   3.301   0.195   5.200  0.8999  2.5581  0.7902
 4647SOL    HW225404   3.227   0.117   5.305  0.8651  1.1343 -0.0617
 4648SOL     OW25405   1.807   3.464  13.820  0.2404  0.5052 -0.3584
 4648SOL    HW125406   1.760   3.511  13.752  1.7794  0.4564 -1.4506
 4648SOL    HW225407   1.773   3.375  13.809  0.3933  0.3411  0.5003
 4649SOL     OW25408   2.912   2.378  16.853  0.5375 -0.2872  0.5157
 4649SOL    HW125409   2.920   2.285  16.829  1.1682 -0.2294  0.4890
 4649SOL    HW225410   2.828   2.405  16.817  1.2952 -0.1272 -1.1275
 4650SOL     OW25411   1.646   1.926   4.305 -0.1760  0.6286  0.2574
 4650SOL    HW125412   1.713   1.940   4.372  0.5805  1.4526 -0.6890
 4650SOL    HW225413   1.664   1.999   4.247 -2.7698  2.2948  1.5522
 4651SOL     OW25414   3.028   0.004   1.967 -0.1207 -0.0846 -0.1557
 4651SOL    HW125415   3.089   4.652   1.968 -0.8977 -0.7014  0.8706
 4651SOL    HW225416   3.056   0.043   1.885  0.3815 -2.4619 -1.1301
 4652SOL     OW25417   1.657   2.089   2.795 -0.1043 -0.6974  0.4643
 4652SOL    HW125418   1.646   2.102   2.701  0.1110 -2.5574  0.1822
 4652SOL    HW225419   1.566   2.069   2.819 -0.5618 -0.9011 -1.3658
 4653SOL     OW25420   3.198   2.550   7.735  0.0030 -0.4905  0.8133
 4653SOL    HW125421   3.272   2.550   7.674 -0.8495 -1.7535 -0.2098
 4653SOL    HW225422   3.219   2.482   7.799  1.6247  1.4237  2.3288
 4654SOL     OW25423   0.905   3.787  13.856 -0.0117 -0.2993 -0.1647
 4654SOL    HW125424   0.885   3.877  13.830 -0.0847  0.1397  1.3704
 4654SOL    HW225425   0.992   3.785  13.897 -0.4654 -2.4101  0.6897
 4655SOL     OW25426   2.621   1.340   9.095 -0.1770  0.2858 -0.0984
 4655SOL    HW125427   2.622   1.258   9.046 -0.4872 -0.1736  0.6636
 4655SOL    HW225428   2.639   1.301   9.181  3.4874 -1.4703 -1.6811
 4656SOL     OW25429   0.480   1.336  10.343  0.1276  0.0862  0.1274
 4656SOL    HW125430   0.433   1.376  10.270 -0.0130 -1.3981 -0.5984
 4656SOL    HW225431   0.468   1.242  10.333 -0.4256  0.1463  0.2307
 4657SOL     OW25432   2.662   1.836   1.219 -0.4045  0.0429 -0.2916
 4657SOL    HW125433   2.723   1.762   1.224 -0.9522 -0.3579  0.3704
 4657SOL    HW225434   2.665   1.854   1.125  1.0451  1.7626  0.0690
 4658SOL     OW25435   3.679   3.277   3.339 -0.3490  0.7707 -0.0963
 4658SOL    HW125436   3.658   3.342   3.406 -0.0340  2.4950 -1.6979
 4658SOL    HW225437   3.664   3.195   3.387  0.4129  0.6584 -0.0430
 4659SOL     OW25438   3.453   3.007  12.390  0.0529 -0.0583  0.3470
 4659SOL    HW125439   3.376   2.950  12.396 -1.4605  1.8622 -1.0920
 4659SOL    HW225440   3.510   2.962  12.328 -1.0716 -1.0176  0.0063
 4660SOL     OW25441   4.543   2.879   8.356  0.4105 -0.3012  0.0831
 4660SOL    HW125442   4.586   2.813   8.410  0.3656 -0.2453  0.1878
 4660SOL    HW225443   4.615   2.942   8.355 -1.7557  2.1232 -1.9467
 4661SOL     OW25444   1.004   3.777   3.375  0.0031 -0.6863 -0.6979
 4661SOL    HW125445   1.056   3.801   3.298 -1.1756 -1.6459 -1.8017
 4661SOL    HW225446   1.014   3.851   3.435 -1.6851 -0.9775 -0.0591
 4662SOL     OW25447   3.087   2.575  16.785  0.4090 -0.0400 -0.3948
 4662SOL    HW125448   3.090   2.599  16.693  0.8330  2.9378  0.3921
 4662SOL    HW225449   3.021   2.506  16.795 -1.3861  1.6588 -0.5108
 4663SOL     OW25450   2.069   2.788   4.799  0.5438 -0.2685  0.2698
 4663SOL    HW125451   2.065   2.883   4.811 -0.0955 -0.0388 -1.6787
 4663SOL    HW225452   2.024   2.795   4.714  1.9878 -1.0128 -0.5508
 4664SOL     OW25453   1.306   2.255   7.708  0.2098  0.9703  0.4457
 4664SOL    HW125454   1.308   2.269   7.803 -0.9977 -0.7038  0.7179
 4664SOL    HW225455   1.400   2.247   7.694 -0.1295  0.2305 -1.4235
 4665SOL     OW25456   2.909   3.175  12.519 -0.6277 -0.5182 -0.0213
 4665SOL    HW125457   2.837   3.237  12.504  0.3672  0.4649 -0.7472
 4665SOL    HW225458   2.885   3.120  12.593  2.9538 -1.5965  0.2944
 4666SOL     OW25459   0.973   3.834   8.347  0.2696 -0.3864 -0.4690
 4666SOL    HW125460   0.957   3.842   8.253  1.7178 -1.5101 -0.7988
 4666SOL    HW225461   0.909   3.765   8.363  0.7370 -1.0464 -1.4491
 4667SOL     OW25462   3.375   0.625   7.553 -0.1985  0.3120  0.0944
 4667SOL    HW125463   3.441   0.677   7.508  0.5778 -0.8378 -0.1050
 4667SOL    HW225464   3.402   0.654   7.640 -0.0200 -1.2183  0.5491
 4668SOL     OW25465   2.881   2.527  14.503 -0.8186  0.3017 -0.1196
 4668SOL    HW125466   2.863   2.446  14.454  0.0594  0.3507 -0.5375
 4668SOL    HW225467   2.819   2.519  14.575 -0.7051  0.2020 -0.0327
 4669SOL     OW25468   2.551   1.739   5.311 -0.6076  0.3712 -0.0147
 4669SOL    HW125469   2.539   1.825   5.351  3.2149  0.3017  1.2438
 4669SOL    HW225470   2.457   1.718   5.308 -0.6362  0.0825  2.6886
 4670SOL     OW25471   3.552   0.119   4.973 -0.3545 -0.1832  0.2306
 4670SOL    HW125472   3.645   0.101   4.981 -0.5302 -0.8697  0.7460
 4670SOL    HW225473   3.538   0.132   4.879 -3.9275 -0.3224  0.7278
 4671SOL     OW25474   0.088   1.841  17.677  0.0572 -0.1965  0.0765
 4671SOL    HW125475   0.180   1.829  17.654  0.1868  1.6973 -0.3614
 4671SOL    HW225476   0.071   1.747  17.685 -1.2737  0.0212 -0.2191
 4672SOL     OW25477   3.223   0.908   5.485 -0.2453  0.1351  0.3559
 4672SOL    HW125478   3.263   0.990   5.455  1.7188 -0.5317  1.1737
 4672SOL    HW225479   3.283   0.839   5.456 -0.7806 -1.1123  2.2302
 4673SOL     OW25480   4.420   1.240   6.825  0.4838  0.1764 -0.4499
 4673SOL    HW125481   4.355   1.274   6.763 -0.0531  0.3643  0.2115
 4673SOL    HW225482   4.370   1.164   6.854 -0.4144  1.4231  1.3051
 4674SOL     OW25483   0.231   0.168   2.471  0.3744 -0.1045 -0.4406
 4674SOL    HW125484   0.239   0.213   2.387 -1.7973  1.0879 -0.0175
 4674SOL    HW225485   0.185   0.233   2.525 -0.5232 -0.5004 -0.7169
 4675SOL     OW25486   1.345   3.983   5.413  0.1204 -0.3464  0.5669
 4675SOL    HW125487   1.341   3.957   5.505 -1.0547  1.5354  1.0312
 4675SOL    HW225488   1.276   4.049   5.407 -0.2349 -0.6871  0.9296
 4676SOL     OW25489   0.578   3.658   9.120  0.2248 -0.2831 -0.0710
 4676SOL    HW125490   0.629   3.639   9.198  0.0951 -0.1084  0.0570
 4676SOL    HW225491   0.568   3.753   9.133 -3.7830 -1.0476  2.3979
 4677SOL     OW25492   3.804   0.584   7.311  0.4513  0.0596 -0.1395
 4677SOL    HW125493   3.730   0.640   7.288  0.9075  0.6210 -0.2321
 4677SOL    HW225494   3.783   0.559   7.401  0.9391  0.7053  0.1557
 4678SOL     OW25495   2.720   1.183   8.501 -0.2750 -0.4769  0.0270
 4678SOL    HW125496   2.788   1.180   8.434 -0.9241  1.3580 -0.7133
 4678SOL    HW225497   2.765   1.242   8.562  0.2204 -1.5632  0.7161
 4679SOL     OW25498   3.233   3.315  14.000  0.3936  0.1825  0.5298
 4679SOL    HW125499   3.265   3.405  13.995  0.7068  0.0204 -0.3676
 4679SOL    HW225500   3.315   3.270  14.020  0.1348 -0.4818  0.1018
 4680SOL     OW25501   3.787   4.210   7.127  0.4672  0.5712  0.3479
 4680SOL    HW125502   3.803   4.304   7.117  1.1009  0.4939  0.6743
 4680SOL    HW225503   3.692   4.212   7.116  0.3929  0.1542  0.9455
 4681SOL     OW25504   3.459   4.665   6.048 -0.0212  0.1923  0.5233
 4681SOL    HW125505   3.532   0.001   6.032 -0.5930  0.5905 -0.6261
 4681SOL    HW225506   3.394   4.701   5.987 -0.1670 -1.5567 -0.3530
 4682SOL     OW25507   1.045   0.008  12.455  0.3405  0.3061  0.4142
 4682SOL    HW125508   1.007   4.644  12.465  1.0579  0.0044  0.5067
 4682SOL    HW225509   1.081   0.020  12.543  2.4415  0.0219 -0.3996
 4683SOL     OW25510   1.059   3.970   8.675  0.1061 -0.5939  0.5545
 4683SOL    HW125511   1.103   4.010   8.600 -0.1366  0.5944  1.0377
 4683SOL    HW225512   0.971   3.986   8.641  0.0505 -1.3661  0.3364
 4684SOL     OW25513   2.224   1.110   4.314  0.0242 -0.5713 -0.2254
 4684SOL    HW125514   2.288   1.176   4.287 -1.8405  2.3380  2.3500
 4684SOL    HW225515   2.166   1.170   4.361 -0.1530 -1.2395  0.4164
 4685SOL     OW25516   0.690   0.042   8.312  0.6929  0.7564 -0.1635
 4685SOL    HW125517   0.728   0.065   8.397 -0.9271  2.6680  0.0508
 4685SOL    HW225518   0.631   4.695   8.342 -0.2718  0.4049 -2.8928
 4686SOL     OW25519   3.688   1.187   8.657 -0.4467  0.6680 -0.2948
 4686SOL    HW125520   3.700   1.265   8.710 -4.5913 -0.1454  1.8167
 4686SOL    HW225521   3.612   1.204   8.601 -1.0302  1.2278  0.6788
 4687SOL     OW25522   3.840   1.405   5.116 -0.2782 -0.0553 -0.5630
 4687SOL    HW125523   3.750   1.437   5.124 -0.3414 -0.0523 -1.2865
 4687SOL    HW225524   3.839   1.361   5.032 -1.5875  2.6086 -1.9469
 4688SOL     OW25525   3.347   0.167   1.634  0.4433 -0.0379 -0.2468
 4688SOL    HW125526   3.391   0.233   1.580  1.2620 -1.9503 -1.8998
 4688SOL    HW225527   3.311   0.226   1.701  1.5760 -1.0407  1.2471
 4689SOL     OW25528   4.489   1.563   7.440  0.1233  0.1595  0.8379
 4689SOL    HW125529   4.483   1.546   7.534  1.7208 -0.3232  0.8550
 4689SOL    HW225530   4.539   1.485   7.417  0.1030  0.6215 -0.8022
 4690SOL     OW25531   3.765   0.522   8.492  0.4176 -1.0851  0.1792
 4690SOL    HW125532   3.825   0.540   8.420 -0.2879 -0.9476 -0.3861
 4690SOL    HW225533   3.754   0.606   8.535  1.6794 -0.4157 -0.8076
 4691SOL     OW25534   0.934   1.436   5.820  1.0140 -0.2610 -0.0443
 4691SOL    HW125535   0.892   1.355   5.850 -0.3625 -0.3388 -2.1527
 4691SOL    HW225536   0.957   1.479   5.902 -0.6376 -0.7908  0.7033
 4692SOL     OW25537   0.356   1.174  13.881 -0.2682 -0.4879 -0.0553
 4692SOL    HW125538   0.292   1.125  13.932 -0.2252 -1.1180 -0.6023
 4692SOL    HW225539   0.316   1.181  13.795  1.3949  0.1342 -0.7901
 4693SOL     OW25540   3.392   0.572  11.015  0.2286  0.0878  0.1006
 4693SOL    HW125541   3.437   0.653  10.990  0.1040 -0.4012 -1.6855
 4693SOL    HW225542   3.356   0.596  11.100  1.1342  0.3687  0.4065
 4694SOL     OW25543   0.869   2.394   6.482  0.2154  0.4008 -0.2705
 4694SOL    HW125544   0.802   2.397   6.550  1.1808 -2.1193  0.7806
 4694SOL    HW225545   0.821   2.427   6.406  0.3727  1.2618  0.0073
 4695SOL     OW25546   0.390   1.299   2.849  0.2855  0.3661  0.0643
 4695SOL    HW125547   0.338   1.246   2.788  2.8392  0.5817 -2.3306
 4695SOL    HW225548   0.387   1.381   2.799 -1.0889 -0.0817 -0.6046
 4696SOL     OW25549   4.514   3.642   6.917  0.8658  0.6762 -0.0071
 4696SOL    HW125550   4.498   3.663   6.825  0.5107 -2.6952 -0.7089
 4696SOL    HW225551   4.502   3.728   6.957 -1.3962  0.5000 -0.2869
 4697SOL     OW25552   3.078   0.462  13.605 -0.3083  0.0581  0.9248
 4697SOL    HW125553   3.069   0.402  13.531  0.3012 -0.3849  1.2098
 4697SOL    HW225554   3.014   0.533  13.592  0.7170  0.8919  0.4178
 4698SOL     OW25555   0.024   3.683   3.025 -0.4024 -0.0808  0.7659
 4698SOL    HW125556   0.010   3.637   2.942 -0.0234  0.5735  0.3393
 4698SOL    HW225557   0.103   3.637   3.052  0.9465  1.3342 -0.7876
 4699SOL     OW25558   4.562   4.288   9.155 -0.0860  0.3500  0.4634
 4699SOL    HW125559   4.520   4.292   9.241  0.3838  2.8588  0.5767
 4699SOL    HW225560   4.645   4.335   9.158 -1.2246  2.3110  1.1707
 4700SOL     OW25561   1.758   2.144   9.172 -0.0268 -0.0851 -0.1184
 4700SOL    HW125562   1.819   2.122   9.242 -0.1000  0.3362  0.0760
 4700SOL    HW225563   1.750   2.238   9.187 -0.6389 -0.1961  0.2519
 4701SOL     OW25564   2.320   3.722  10.400  0.0641 -0.1840 -0.2199
 4701SOL    HW125565   2.251   3.776  10.440  1.0348 -0.3111  1.6113
 4701SOL    HW225566   2.368   3.776  10.338  1.7320 -0.9093  0.4374
 4702SOL     OW25567   3.984   3.392   2.784  0.1391 -0.2551 -0.1263
 4702SOL    HW125568   3.900   3.355   2.810  0.3238  1.7659  3.4748
 4702SOL    HW225569   3.977   3.487   2.781  0.3489 -0.1777  1.4759
 4703SOL     OW25570   3.542   4.350   3.572 -0.0961  0.3354 -0.0147
 4703SOL    HW125571   3.599   4.386   3.641 -1.1833  0.5023  0.7962
 4703SOL    HW225572   3.598   4.282   3.535 -0.7097  0.0311 -0.3903
 4704SOL     OW25573   1.120   1.135   8.680  0.0156  0.0462 -0.4441
 4704SOL    HW125574   1.209   1.102   8.696  0.1041  0.7925  0.6013
 4704SOL    HW225575   1.145   1.214   8.633 -2.1758  1.6821  1.1545
 4705SOL     OW25576   2.686   0.677   0.184  0.3028  0.1845  0.0411
 4705SOL    HW125577   2.676   0.772   0.176 -0.5759 -0.0752 -1.9593
 4705SOL    HW225578   2.699   0.647   0.094  0.6157 -1.2192  0.5618
 4706SOL     OW25579   0.007   3.119  15.334  0.5895  0.3905 -0.0472
 4706SOL    HW125580   0.092   3.129  15.291 -0.2287  0.5673 -1.6437
 4706SOL    HW225581   0.001   3.192  15.395  1.4507 -0.9435  1.6211
 4707SOL     OW25582   4.141   0.626  10.809  0.0523  0.0666 -0.1301
 4707SOL    HW125583   4.080   0.614  10.736 -0.2232 -1.7932  0.3879
 4707SOL    HW225584   4.084   0.613  10.886  0.0947 -0.5191 -0.1921
 4708SOL     OW25585   4.541   4.613  16.587  0.0680 -0.1510 -0.5450
 4708SOL    HW125586   4.615   4.645  16.638  0.0379  0.3399 -0.8088
 4708SOL    HW225587   4.592   4.574  16.517 -0.8621 -1.5209 -0.4513
 4709SOL     OW25588   2.896   2.663   8.852  0.1070  0.8197  0.0422
 4709SOL    HW125589   2.864   2.628   8.769  0.6201  2.1996 -0.7388
 4709SOL    HW225590   2.983   2.623   8.849  0.3932  1.4429  0.1233
 4710SOL     OW25591   2.408   4.120   4.875 -0.6775 -0.3819 -0.6878
 4710SOL    HW125592   2.354   4.121   4.795 -0.5174 -0.0417 -0.7905
 4710SOL    HW225593   2.356   4.054   4.921  0.8101  1.6782  3.8502
 4711SOL     OW25594   1.428   1.476  12.815 -0.4334 -0.1884 -0.6876
 4711SOL    HW125595   1.461   1.566  12.824 -0.2623 -0.4728  1.5243
 4711SOL    HW225596   1.336   1.483  12.840 -0.3367 -0.7132 -0.2016
 4712SOL     OW25597   0.148   0.613   2.879 -0.0244  0.4095  0.3410
 4712SOL    HW125598   0.178   0.532   2.920  0.2534 -1.2157 -3.0943
 4712SOL    HW225599   0.070   0.622   2.934 -1.0011  1.1658 -1.1971
 4713SOL     OW25600   1.652   1.556   1.702 -0.6731 -0.0078 -0.0754
 4713SOL    HW125601   1.712   1.567   1.628  0.3197 -0.9696  0.5941
 4713SOL    HW225602   1.570   1.557   1.652 -0.6215 -0.2418 -0.1640
 4714SOL     OW25603   4.355   3.038  11.395  0.6470 -0.1801 -0.1691
 4714SOL    HW125604   4.333   3.123  11.358  1.8519 -0.4951 -1.6128
 4714SOL    HW225605   4.428   3.067  11.450 -0.2432  1.4589  0.1498
 4715SOL     OW25606   3.059   1.011   2.633 -0.2378  0.2003 -0.2419
 4715SOL    HW125607   3.070   1.017   2.728 -0.2859  2.3788 -0.3710
 4715SOL    HW225608   3.069   1.101   2.600 -2.7479 -0.0664 -1.7506
 4716SOL     OW25609   0.438   4.382   5.595  0.5653  0.5631 -0.4498
 4716SOL    HW125610   0.502   4.327   5.550 -0.7420  0.2545 -1.9305
 4716SOL    HW225611   0.372   4.391   5.526  0.3192  0.7238 -0.1941
 4717SOL     OW25612   2.773   2.213   8.710 -0.3006  0.5457  0.4287
 4717SOL    HW125613   2.815   2.277   8.768  2.2093 -1.6680  1.0641
 4717SOL    HW225614   2.755   2.143   8.773  0.9364 -1.1078 -1.0604
 4718SOL     OW25615   1.972   0.273   5.233 -0.0972  0.4709  0.3651
 4718SOL    HW125616   1.921   0.351   5.254  1.8970  1.7914  0.2529
 4718SOL    HW225617   2.020   0.304   5.157 -0.7163  0.3038 -0.0951
 4719SOL     OW25618   1.969   1.840   4.065  0.3115  0.3287 -0.1985
 4719SOL    HW125619   1.925   1.913   4.021 -0.7958 -0.4693 -0.4115
 4719SOL    HW225620   2.050   1.831   4.015 -0.5773  0.0322 -1.5576
 4720SOL     OW25621   0.731   1.849   4.766  0.2177 -0.4231 -0.4868
 4720SOL    HW125622   0.736   1.792   4.689 -3.5237  0.4290 -1.3695
 4720SOL    HW225623   0.739   1.933   4.721  3.1319 -0.7090 -0.4861
 4721SOL     OW25624   0.449   4.433   5.242  0.2927 -0.2794  0.2818
 4721SOL    HW125625   0.475   4.343   5.224 -0.5841 -0.2338 -1.2025
 4721SOL    HW225626   0.361   4.421   5.279  0.7720 -1.7133  0.9689
 4722SOL     OW25627   0.072   1.409  17.575 -0.3969  1.0158 -0.1422
 4722SOL    HW125628   4.714   1.376  17.534 -1.8102  2.2093  1.6928
 4722SOL    HW225629   0.123   1.430  17.497 -2.2006 -1.6958 -2.0432
 4723SOL     OW25630   1.787   2.691   9.007 -0.4170  0.0564  0.4589
 4723SOL    HW125631   1.738   2.661   8.930 -0.2898 -0.3970  0.5536
 4723SOL    HW225632   1.817   2.774   8.971 -0.8338  0.3811  0.8703
 4724SOL     OW25633   3.386   0.518   3.699 -0.2048 -0.0163 -0.1638
 4724SOL    HW125634   3.332   0.548   3.626  1.7853 -1.2719 -2.1645
 4724SOL    HW225635   3.458   0.465   3.666  0.1313 -0.1102  0.7131
 4725SOL     OW25636   3.546   4.524   6.279  0.1936 -0.0466 -0.6188
 4725SOL    HW125637   3.531   4.533   6.185  0.1155  0.5282 -0.5554
 4725SOL    HW225638   3.543   4.617   6.304 -1.1218  0.5315 -2.9479
 4726SOL     OW25639   3.538   2.936   0.827 -0.1128  0.0375  1.0213
 4726SOL    HW125640   3.581   2.877   0.764 -2.9227 -0.1913 -0.6902
 4726SOL    HW225641   3.479   2.866   0.856 -0.2699  0.0137  0.6522
 4727SOL     OW25642   0.202   0.845   7.812  0.1332 -0.4136 -0.4845
 4727SOL    HW125643   0.154   0.893   7.745 -0.1645 -0.7355 -0.5023
 4727SOL    HW225644   0.277   0.816   7.760  1.3612  2.9152 -0.6033
 4728SOL     OW25645   3.509   0.064   8.598 -0.3844 -0.2424  0.3891
 4728SOL    HW125646   3.426   0.018   8.590  0.1054 -1.2452  1.1590
 4728SOL    HW225647   3.499   0.117   8.519  0.2190  0.4857  0.7987
 4729SOL     OW25648   1.722   3.693   0.907  0.5475  0.3690 -0.1830
 4729SOL    HW125649   1.811   3.664   0.885 -0.4882 -1.2786 -2.2006
 4729SOL    HW225650   1.712   3.641   0.987  2.0083  1.2701  0.5941
 4730SOL     OW25651   4.045   2.034   0.325  0.5895  0.1160  0.5864
 4730SOL    HW125652   4.083   2.020   0.238 -1.1757  0.4642 -0.2319
 4730SOL    HW225653   4.120   2.020   0.383 -0.7577 -1.6238  1.8779
 4731SOL     OW25654   2.997   4.381   0.531 -0.0904 -0.2364  0.3286
 4731SOL    HW125655   3.066   4.423   0.479 -0.1081 -1.6161 -0.8076
 4731SOL    HW225656   2.929   4.374   0.464  0.3229  0.0037 -0.1240
 4732SOL     OW25657   4.702   4.699  15.778 -0.8267  0.2164  0.1862
 4732SOL    HW125658   4.627   4.650  15.742 -0.0148  0.5984 -2.0314
 4732SOL    HW225659   0.010   4.637  15.844  0.0588  3.9181  3.2381
 4733SOL     OW25660   2.517   2.761   5.588  0.5375 -0.2540  0.3835
 4733SOL    HW125661   2.586   2.719   5.639  2.0916  2.6145  0.6432
 4733SOL    HW225662   2.558   2.844   5.565 -1.9116  1.3757  1.8253
 4734SOL     OW25663   3.583   0.980   7.693  0.5118 -0.4705  0.4715
 4734SOL    HW125664   3.534   1.061   7.680  2.7950  0.8014 -0.1883
 4734SOL    HW225665   3.668   1.008   7.660 -0.4946  0.0460 -1.6650
 4735SOL     OW25666   0.188   0.549   9.670  0.0922  0.5356  0.0216
 4735SOL    HW125667   0.241   0.494   9.612 -0.4631 -1.1303  1.0776
 4735SOL    HW225668   0.227   0.634   9.653  0.8316  0.4728  1.4099
 4736SOL     OW25669   3.622   0.697   2.869 -0.6054  0.4503  0.0962
 4736SOL    HW125670   3.692   0.632   2.872 -0.1441  0.8086 -3.1665
 4736SOL    HW225671   3.595   0.703   2.777 -0.3088 -1.5760 -0.1205
 4737SOL     OW25672   2.413   2.872   8.947 -0.1912 -0.1577 -0.4732
 4737SOL    HW125673   2.471   2.797   8.940 -0.0163 -0.0930  0.3267
 4737SOL    HW225674   2.388   2.896   8.857  0.4367 -0.3011 -0.6826
 4738SOL     OW25675   3.881   3.196   0.576  0.1325  0.2975  0.1607
 4738SOL    HW125676   3.919   3.141   0.644  1.8683  0.0506 -1.0042
 4738SOL    HW225677   3.802   3.223   0.623  0.2415  0.5179  0.2151
 4739SOL     OW25678   2.991   0.438   7.695  0.3776 -0.3775  0.1693
 4739SOL    HW125679   2.976   0.354   7.652 -0.4629 -0.8120  1.3109
 4739SOL    HW225680   3.034   0.405   7.774  1.7864  0.3171 -0.3002
 4740SOL     OW25681   3.644   2.733   5.793 -0.0416 -0.2326  0.1211
 4740SOL    HW125682   3.735   2.707   5.808  0.4325  1.5971  0.3959
 4740SOL    HW225683   3.599   2.655   5.826  2.6883 -2.2720 -1.0445
 4741SOL     OW25684   3.070   1.895  14.231 -0.3664 -0.5907 -0.3188
 4741SOL    HW125685   3.057   1.828  14.165 -3.1988 -0.2808 -0.0580
 4741SOL    HW225686   3.165   1.899  14.247 -0.2336 -0.8941 -1.0705
 4742SOL     OW25687   1.163   4.295  13.635 -0.0304  0.3470 -0.4571
 4742SOL    HW125688   1.217   4.303  13.714 -0.2402 -0.9771 -0.1719
 4742SOL    HW225689   1.150   4.200  13.629 -0.8311  0.7455 -4.8189
 4743SOL     OW25690   0.152   2.108   9.956 -0.3477 -0.1525  0.4861
 4743SOL    HW125691   0.204   2.030   9.976  0.0786  0.2518  0.9484
 4743SOL    HW225692   0.159   2.123   9.862  0.0579 -0.1959  0.5094
 4744SOL     OW25693   4.018   3.117   2.260  0.2734  0.3561  0.1441
 4744SOL    HW125694   3.964   3.192   2.284  0.9656  1.6357 -2.2546
 4744SOL    HW225695   3.964   3.067   2.198  1.4441 -0.6468 -0.0614
 4745SOL     OW25696   1.220   0.586   6.605  0.0715 -0.1769 -1.0649
 4745SOL    HW125697   1.219   0.498   6.642  1.7460  0.4592  0.4977
 4745SOL    HW225698   1.242   0.639   6.682 -0.9176 -0.5451 -0.5446
 4746SOL     OW25699   1.731   4.025   5.888  1.0133  0.7133  0.0480
 4746SOL    HW125700   1.825   4.041   5.888  1.0390  0.5625  0.1836
 4746SOL    HW225701   1.704   4.111   5.921  3.7061  1.5675  0.0382
 4747SOL     OW25702   4.306   4.713  14.131  0.3460  0.1757  0.3347
 4747SOL    HW125703   4.301   4.636  14.187 -0.2085  0.0703  0.1368
 4747SOL    HW225704   4.221   4.709  14.088  0.8981 -1.5924 -0.5870
 4748SOL     OW25705   1.648   2.939   2.628 -0.6221  0.0089  0.2302
 4748SOL    HW125706   1.634   3.023   2.584  0.8999  0.0217 -0.2202
 4748SOL    HW225707   1.674   2.969   2.715  1.1920  0.6153 -0.5259
 4749SOL     OW25708   2.503   1.756   7.113 -0.3014  0.4249 -0.9274
 4749SOL    HW125709   2.455   1.686   7.158  1.2652 -1.5902 -2.3772
 4749SOL    HW225710   2.577   1.711   7.072 -0.7533 -0.0224 -1.2484
 4750SOL     OW25711   4.570   1.505  17.404 -0.8200 -0.1014  0.1699
 4750SOL    HW125712   4.608   1.593  17.405 -0.9689 -0.0134 -1.7453
 4750SOL    HW225713   4.491   1.505  17.350 -1.6509  0.3895  1.3787
 4751SOL     OW25714   0.531   0.469  11.183 -0.2403 -0.0728  0.7533
 4751SOL    HW125715   0.514   0.562  11.172 -1.9223 -0.3062  1.4105
 4751SOL    HW225716   0.444   0.441  11.154 -0.7087 -0.6283  2.7305
 4752SOL     OW25717   1.179   3.446   5.750  0.6105  0.0236 -0.4249
 4752SOL    HW125718   1.153   3.467   5.661  1.7645  1.7282 -0.3632
 4752SOL    HW225719   1.109   3.384   5.769 -0.1010  1.2075  0.9057
 4753SOL     OW25720   1.892   4.434   6.065 -0.6388 -0.0409  0.1653
 4753SOL    HW125721   1.949   4.380   6.119 -0.5826  1.8562  1.9995
 4753SOL    HW225722   1.888   4.515   6.115  0.2312 -0.8065  1.4804
 4754SOL     OW25723   1.942   4.059   3.527  0.4508  0.2190  0.0256
 4754SOL    HW125724   1.931   3.997   3.600  0.9359  0.1608  0.0498
 4754SOL    HW225725   1.999   4.123   3.570  2.4920  0.4401 -3.0446
 4755SOL     OW25726   0.522   2.831  15.473 -0.6898  0.3156 -0.1707
 4755SOL    HW125727   0.593   2.895  15.470  0.4215 -0.9002  0.2383
 4755SOL    HW225728   0.523   2.808  15.380  0.3258  2.1443 -0.6062
 4756SOL     OW25729   3.627   3.386  10.642  0.0051  0.5038 -0.5327
 4756SOL    HW125730   3.623   3.442  10.720 -0.2317 -2.0692  1.2942
 4756SOL    HW225731   3.636   3.304  10.690  1.9642  0.3358 -1.2201
 4757SOL     OW25732   3.698   4.016   3.120  0.0390  0.3998 -0.1643
 4757SOL    HW125733   3.620   4.043   3.071 -0.7328  0.3553  1.0392
 4757SOL    HW225734   3.713   3.928   3.085  0.2352  0.8236 -1.1180
 4758SOL     OW25735   4.484   2.249   1.976 -0.0708 -0.6693 -0.0327
 4758SOL    HW125736   4.522   2.166   2.006 -1.7537 -0.7519  1.8321
 4758SOL    HW225737   4.459   2.283   2.061 -0.1354 -0.1679 -0.2551
 4759SOL     OW25738   4.483   2.542   5.271  0.1957 -0.1609 -0.4593
 4759SOL    HW125739   4.557   2.587   5.311  0.0154 -0.8163  0.6121
 4759SOL    HW225740   4.434   2.522   5.350 -1.0460 -0.1339 -1.2251
 4760SOL     OW25741   0.063   4.076   9.391 -0.3869  0.1872  0.0155
 4760SOL    HW125742   0.021   3.993   9.368 -0.2348  0.4766 -1.3424
 4760SOL    HW225743   0.097   4.104   9.306 -0.6060 -2.9511 -1.1187
 4761SOL     OW25744   4.699   3.829  16.552 -0.5221 -0.4782  0.2936
 4761SOL    HW125745   0.018   3.791  16.475 -2.5088 -2.9479  0.4117
 4761SOL    HW225746   4.609   3.834  16.519 -0.1345  2.0644 -0.3683
 4762SOL     OW25747   1.512   0.572   4.895  0.0259  0.4135 -0.2167
 4762SOL    HW125748   1.588   0.526   4.859 -0.7335  0.4303 -1.8399
 4762SOL    HW225749   1.455   0.581   4.818 -1.0011  1.2320  0.6362
 4763SOL     OW25750   0.841   3.973  16.686  0.0308 -0.1637  0.1930
 4763SOL    HW125751   0.879   3.972  16.598  1.0122 -0.9098  0.6266
 4763SOL    HW225752   0.784   4.049  16.675  0.0182 -0.2491 -0.3155
 4764SOL     OW25753   0.505   2.549   4.047 -0.0319 -0.4457 -0.0351
 4764SOL    HW125754   0.454   2.537   3.967 -0.8063 -2.7563  0.7816
 4764SOL    HW225755   0.509   2.460   4.083  0.0223  0.4139  2.1161
 4765SOL     OW25756   2.054   2.513   0.266 -0.4467 -0.1447  0.2886
 4765SOL    HW125757   2.030   2.446   0.202  0.4470 -2.2561  2.1689
 4765SOL    HW225758   1.969   2.546   0.297  0.4497  0.1777  2.4521
 4766SOL     OW25759   1.281   0.004  10.986  0.2861  0.1865  0.2603
 4766SOL    HW125760   1.224   4.650  10.983 -0.9400  1.1098 -0.1496
 4766SOL    HW225761   1.368   4.689  10.976  0.5700  1.1101 -0.8328
 4767SOL     OW25762   4.573   4.429   7.072  1.0615 -0.2261  0.1464
 4767SOL    HW125763   4.484   4.429   7.038 -0.0174 -3.7754  2.9770
 4767SOL    HW225764   4.617   4.473   6.999  3.3093 -0.2078  1.5108
 4768SOL     OW25765   1.870   3.123  11.698 -0.1035 -0.7900 -0.2205
 4768SOL    HW125766   1.918   3.195  11.738 -2.3544  0.6082  0.0116
 4768SOL    HW225767   1.916   3.115  11.615 -0.2064 -0.2856 -0.3259
 4769SOL     OW25768   4.356   2.035   8.155  0.1382  0.0267  0.2617
 4769SOL    HW125769   4.434   2.087   8.135  2.0825 -2.2998  1.6551
 4769SOL    HW225770   4.387   1.996   8.237  1.6515  1.6118  0.4367
 4770SOL     OW25771   1.835   4.207   3.781 -0.4810  0.1835 -0.0306
 4770SOL    HW125772   1.803   4.221   3.692 -1.8275  0.0239  0.4414
 4770SOL    HW225773   1.928   4.199   3.757 -0.5485 -1.8488  0.4580
 4771SOL     OW25774   2.738   1.085   9.007  0.5215  0.4141  0.1737
 4771SOL    HW125775   2.744   1.132   8.923 -0.5349  1.0702  0.4620
 4771SOL    HW225776   2.814   1.120   9.053  1.5810 -0.3979 -0.9592
 4772SOL     OW25777   0.310   0.922  12.503  0.4022  0.4485 -0.1326
 4772SOL    HW125778   0.258   0.990  12.547 -2.1429 -0.8554 -1.0783
 4772SOL    HW225779   0.281   0.835  12.533  2.0464 -0.0328  0.0292
 4773SOL     OW25780   2.905   0.874   1.615 -0.0555  0.5722  0.3442
 4773SOL    HW125781   2.893   0.876   1.520  2.0068  1.0606  0.1010
 4773SOL    HW225782   2.854   0.798   1.644  1.0996 -1.2295 -2.4210
 4774SOL     OW25783   2.872   0.377  13.912 -0.0355 -0.0224  0.1421
 4774SOL    HW125784   2.962   0.345  13.918  0.0427  0.5925  2.2569
 4774SOL    HW225785   2.829   0.330  13.841 -1.1912  2.7694 -1.0118
 4775SOL     OW25786   2.244   3.625   1.722  0.0266  0.1881  0.8626
 4775SOL    HW125787   2.296   3.569   1.780  0.6294 -0.2678 -0.1277
 4775SOL    HW225788   2.319   3.677   1.694 -2.2022  3.3152  0.6280
 4776SOL     OW25789   2.868   0.602   4.083 -0.1772  0.5367  0.3447
 4776SOL    HW125790   2.874   0.509   4.063 -1.9431  0.4847  0.0339
 4776SOL    HW225791   2.945   0.609   4.138  0.6194 -0.5553 -0.6234
 4777SOL     OW25792   0.202   2.931   2.135  0.2870  1.1429 -0.1320
 4777SOL    HW125793   0.177   2.924   2.043  0.0574  0.4924 -0.0211
 4777SOL    HW225794   0.285   2.882   2.140 -1.1367 -1.5063 -2.2446
 4778SOL     OW25795   0.015   2.926  12.228  0.1194  0.5743 -0.5858
 4778SOL    HW125796   0.026   2.837  12.262  2.0961  0.8550 -0.4686
 4778SOL    HW225797   0.085   2.935  12.163 -0.2877  0.6024 -1.0270
 4779SOL     OW25798   0.334   0.145   1.845  0.3572 -0.2550 -0.1965
 4779SOL    HW125799   0.364   0.101   1.766  0.3638 -0.0294 -0.3201
 4779SOL    HW225800   0.240   0.152   1.831 -0.0797  0.5165  2.9956
 4780SOL     OW25801   3.238   1.183   4.762 -0.4937  0.5221  0.4310
 4780SOL    HW125802   3.249   1.192   4.857 -0.0142 -1.2903  0.5343
 4780SOL    HW225803   3.301   1.112   4.750 -0.3918  0.8327 -0.8328
 4781SOL     OW25804   3.125   4.638   7.632 -0.0589  0.0507  0.3406
 4781SOL    HW125805   3.115   4.550   7.668 -0.6329  0.2697  0.7128
 4781SOL    HW225806   3.213   4.665   7.660 -0.1283  0.9396 -0.3060
 4782SOL     OW25807   0.457   2.629   3.443 -0.4385 -0.2812 -1.0343
 4782SOL    HW125808   0.536   2.672   3.413 -0.5917  0.9062  0.2820
 4782SOL    HW225809   0.395   2.691   3.405 -0.6739 -1.5666 -2.7623
 4783SOL     OW25810   1.874   0.842   4.938  0.3428 -0.3943 -0.1708
 4783SOL    HW125811   1.846   0.879   4.855  1.1464  0.6230  0.0087
 4783SOL    HW225812   1.794   0.826   4.987  0.2187 -0.1880 -0.3074
 4784SOL     OW25813   4.666   0.820   5.736 -0.6692  0.3712 -0.4637
 4784SOL    HW125814   0.007   0.777   5.679  0.4632 -0.1766  1.2050
 4784SOL    HW225815   4.651   0.895   5.678 -1.9795  1.5827  1.4443
 4785SOL     OW25816   2.748   1.061  14.794 -0.0306  0.2694  0.8218
 4785SOL    HW125817   2.821   1.015  14.836  0.8125  1.7177  0.9738
 4785SOL    HW225818   2.738   1.018  14.710  1.5093 -1.6036  1.5957
 4786SOL     OW25819   1.269   0.430   6.947  0.0305  0.3082  0.2271
 4786SOL    HW125820   1.197   0.461   7.001  0.9222 -0.0001  1.6149
 4786SOL    HW225821   1.328   0.506   6.947 -0.2487  0.5215  0.1769
 4787SOL     OW25822   0.041   2.091   6.360  0.9491 -0.6879 -0.4085
 4787SOL    HW125823   0.113   2.106   6.297 -0.6382 -1.5122 -2.4177
 4787SOL    HW225824   4.703   2.163   6.343 -0.4250 -2.0708 -1.3479
 4788SOL     OW25825   0.070   2.329  10.106 -0.4181 -0.1878  0.3984
 4788SOL    HW125826   4.709   2.294  10.137 -0.2644 -2.0056 -1.2477
 4788SOL    HW225827   0.094   2.259  10.046 -1.0654  1.0606 -1.3219
 4789SOL     OW25828   4.582   4.035  16.925  0.7392  0.1497  0.3620
 4789SOL    HW125829   4.572   4.017  17.018 -1.9830 -1.8324 -0.2994
 4789SOL    HW225830   4.617   3.951  16.894 -0.0601  0.3712 -1.1602
 4790SOL     OW25831   1.554   3.212  16.626  0.3604  0.1364  0.4049
 4790SOL    HW125832   1.594   3.288  16.584 -0.7148  2.2750  3.1948
 4790SOL    HW225833   1.600   3.222  16.710  2.2781 -1.3760 -0.4582
 4791SOL     OW25834   3.828   1.718  13.389  0.6101  1.3889 -0.3037
 4791SOL    HW125835   3.845   1.701  13.482 -0.7581  0.9583 -0.1335
 4791SOL    HW225836   3.913   1.756  13.367  0.6374  1.8384  0.5819
 4792SOL     OW25837   0.090   4.047   7.519  0.2486  0.1784  0.3066
 4792SOL    HW125838   0.138   4.096   7.585 -1.6761 -1.9460  3.3180
 4792SOL    HW225839   0.143   3.969   7.503  0.5644  0.3508  0.5192
 4793SOL     OW25840   4.611   3.059  15.756 -0.4839  0.2043 -0.0215
 4793SOL    HW125841   4.542   3.002  15.721  2.1445 -2.1594 -1.3723
 4793SOL    HW225842   4.678   3.036  15.691 -0.9897  2.6793 -1.3973
 4794SOL     OW25843   1.545   2.911   4.224  0.2746 -0.3027  0.2882
 4794SOL    HW125844   1.513   2.887   4.138 -0.4116  1.0973  0.1432
 4794SOL    HW225845   1.534   2.834   4.279  3.1393 -1.4523 -0.7538
 4795SOL     OW25846   4.036   0.211   3.780 -0.3184 -0.1462  0.3742
 4795SOL    HW125847   3.999   0.258   3.706 -0.4750 -2.8847 -1.2763
 4795SOL    HW225848   4.051   0.123   3.747 -1.1465 -0.1932  0.1244
 4796SOL     OW25849   2.749   0.459   8.505 -0.7639  0.2871 -0.2906
 4796SOL    HW125850   2.693   0.478   8.580 -1.1288  0.0001 -0.4909
 4796SOL    HW225851   2.798   0.539   8.486  0.2301 -0.5198 -1.1215
 4797SOL     OW25852   1.146   3.567   0.060  0.3217 -0.0930 -0.8859
 4797SOL    HW125853   1.168   3.604  17.667 -1.5570  0.7986 -0.9813
 4797SOL    HW225854   1.121   3.649   0.103  0.1741  0.0271 -1.2000
 4798SOL     OW25855   3.750   4.388   7.442  0.2713  0.1289  0.6954
 4798SOL    HW125856   3.780   4.333   7.370 -1.2424 -0.9064  0.8467
 4798SOL    HW225857   3.664   4.417   7.412  0.3825 -1.8829 -1.5190
 4799SOL     OW25858   2.999   4.340   1.162 -0.0939  0.0240 -0.4594
 4799SOL    HW125859   3.062   4.279   1.201 -0.5372  1.0363  1.8797
 4799SOL    HW225860   3.055   4.383   1.097 -2.2528 -1.7329 -3.4539
 4800SOL     OW25861   1.392   3.622   2.958  0.3337  0.4966 -0.6311
 4800SOL    HW125862   1.486   3.607   2.964  0.3641  0.4647 -1.1926
 4800SOL    HW225863   1.366   3.548   2.903  1.2023  0.1826 -0.6215
 4801SOL     OW25864   2.486   1.216   1.394 -0.2525  0.8292  0.1361
 4801SOL    HW125865   2.397   1.184   1.404  0.6650 -1.1873  1.7945
 4801SOL    HW225866   2.538   1.136   1.396 -1.1343  0.2635  0.1659
 4802SOL     OW25867   3.888   1.449   7.916  0.7236 -0.5293 -0.0592
 4802SOL    HW125868   3.908   1.481   8.005  0.6199 -0.3020 -0.1173
 4802SOL    HW225869   3.925   1.361   7.925  0.1307 -0.6680  1.0973
 4803SOL     OW25870   3.820   0.778   6.046 -0.7726 -0.1407  0.3396
 4803SOL    HW125871   3.893   0.826   6.007 -0.2007 -2.1907 -1.1509
 4803SOL    HW225872   3.852   0.795   6.135 -1.6916 -0.2657  0.6901
 4804SOL     OW25873   4.591   3.138   3.968  0.0312 -0.0104 -0.3074
 4804SOL    HW125874   4.643   3.060   3.988 -1.6606 -1.5086 -1.7112
 4804SOL    HW225875   4.660   3.203   3.979 -0.1666 -0.1111  1.5019
 4805SOL     OW25876   0.869   1.513   9.534 -0.4720 -0.1842 -0.2110
 4805SOL    HW125877   0.853   1.606   9.549  1.3061  0.2114 -0.7766
 4805SOL    HW225878   0.964   1.512   9.532 -0.4551 -2.4253  1.8960
 4806SOL     OW25879   0.551   4.169   3.199  0.1640  0.7895 -0.0222
 4806SOL    HW125880   0.547   4.096   3.260  0.3448  1.9297  1.3534
 4806SOL    HW225881   0.480   4.217   3.242  1.7873  2.4139  0.8437
 4807SOL     OW25882   2.057   2.358   4.128  0.2048 -0.7192  0.2416
 4807SOL    HW125883   2.147   2.382   4.148  0.0093  0.8648 -0.7350
 4807SOL    HW225884   2.038   2.444   4.090  2.3463 -0.2295  0.2565
 4808SOL     OW25885   1.879   1.373   4.941 -0.1795  0.5263  0.2182
 4808SOL    HW125886   1.870   1.466   4.964  3.6592  0.6895  1.1213
 4808SOL    HW225887   1.940   1.372   4.867  0.6399  2.0021  0.8857
 4809SOL     OW25888   0.779   4.499   8.026  0.4767  0.2364  0.3741
 4809SOL    HW125889   0.715   4.522   8.092 -0.3494  0.4135 -0.4881
 4809SOL    HW225890   0.749   4.556   7.955  0.8383  0.5781  0.4933
 4810SOL     OW25891   1.975   3.434   1.889  0.2614 -0.3638 -0.2442
 4810SOL    HW125892   2.003   3.352   1.848  1.1575  0.0217 -0.4110
 4810SOL    HW225893   1.890   3.447   1.847  0.2463 -1.4473 -0.5615
 4811SOL     OW25894   0.145   2.773   4.831 -0.6039 -0.1710 -0.4214
 4811SOL    HW125895   0.124   2.739   4.917  0.2151  1.6731  0.5042
 4811SOL    HW225896   0.240   2.780   4.827 -0.6580  0.0821 -1.3010
 4812SOL     OW25897   2.321   4.446   0.587 -0.0246 -0.4825 -0.0931
 4812SOL    HW125898   2.401   4.428   0.636 -1.0350 -2.0766  0.9618
 4812SOL    HW225899   2.255   4.419   0.652  0.3207  0.1773  0.5305
 4813SOL     OW25900   4.372   2.143   3.238  0.2653 -0.4597  0.3953
 4813SOL    HW125901   4.367   2.058   3.282  0.0301  0.1677  1.5811
 4813SOL    HW225902   4.353   2.196   3.315 -1.3426  2.2097 -1.8553
 4814SOL     OW25903   3.948   0.452   7.131 -0.6157 -0.8908  0.4180
 4814SOL    HW125904   3.955   0.481   7.222  1.7142 -0.7205  0.1769
 4814SOL    HW225905   3.859   0.488   7.120 -1.1523 -1.6227  2.4650
 4815SOL     OW25906   3.869   4.012  15.388 -0.3039 -0.2839  0.3611
 4815SOL    HW125907   3.784   4.055  15.396 -0.0372  0.1225  1.0012
 4815SOL    HW225908   3.837   3.925  15.363  1.1999 -0.9253  0.6686
 4816SOL     OW25909   4.359   2.810  14.836 -0.3349 -0.1500  0.7122
 4816SOL    HW125910   4.399   2.864  14.904 -0.6510  0.1998  0.6233
 4816SOL    HW225911   4.423   2.743  14.814 -0.0234  0.8354 -1.4446
 4817SOL     OW25912   0.385   0.386   9.210  0.1403 -0.3038 -0.2049
 4817SOL    HW125913   0.445   0.311   9.209 -0.6050 -0.9043  0.6274
 4817SOL    HW225914   0.390   0.419   9.120 -0.7461  1.6484  0.4681
 4818SOL     OW25915   0.706   3.781   6.044 -0.7047  0.1435 -0.2202
 4818SOL    HW125916   0.654   3.788   5.964 -0.4163 -0.9396 -0.5058
 4818SOL    HW225917   0.655   3.846   6.092  0.2053  1.8450 -1.5332
 4819SOL     OW25918   1.125   2.266   6.855  0.3614 -0.5403 -0.0230
 4819SOL    HW125919   1.168   2.191   6.812 -0.4446 -1.5099  0.8566
 4819SOL    HW225920   1.179   2.262   6.934  0.1139  0.0947  0.1758
 4820SOL     OW25921   2.198   0.137   4.647  0.0135  0.0244  0.0618
 4820SOL    HW125922   2.240   0.139   4.561 -0.1750  1.3980  0.0004
 4820SOL    HW225923   2.266   0.171   4.706  1.6250 -0.1084 -1.7447
 4821SOL     OW25924   2.591   3.169   3.732 -0.4214  0.0206 -0.7680
 4821SOL    HW125925   2.596   3.250   3.783  0.6366 -1.5807  1.6216
 4821SOL    HW225926   2.523   3.194   3.669 -0.7197  1.4130  0.0890
 4822SOL     OW25927   1.585   3.105   7.001 -0.3236  0.5295  0.1024
 4822SOL    HW125928   1.501   3.129   6.961 -1.1038 -3.3052 -0.5790
 4822SOL    HW225929   1.584   3.010   7.000 -1.3742  0.5081  2.8848
 4823SOL     OW25930   2.990   4.139   4.952 -0.1792 -0.6914  0.0723
 4823SOL    HW125931   2.961   4.056   4.991  0.9902 -0.4765  1.3651
 4823SOL    HW225932   3.054   4.171   5.015 -0.3051 -0.2456 -0.0294
 4824SOL     OW25933   0.453   2.445   6.101  0.1047  0.0169 -0.2487
 4824SOL    HW125934   0.466   2.371   6.159 -2.7718  0.3398  0.8043
 4824SOL    HW225935   0.445   2.402   6.015 -0.4740  1.8675 -1.1174
 4825SOL     OW25936   0.571   1.769  14.586  0.4869  0.0392  0.0141
 4825SOL    HW125937   0.546   1.829  14.516 -0.5513 -0.9607 -0.4705
 4825SOL    HW225938   0.487   1.735  14.616  0.2094  0.7557  0.0377
 4826SOL     OW25939   1.933   3.075   8.670 -0.1588  0.7841 -0.8114
 4826SOL    HW125940   1.886   3.001   8.632 -1.1000  1.3590 -0.7720
 4826SOL    HW225941   2.004   3.078   8.606  0.1591 -2.0256 -0.5704
 4827SOL     OW25942   0.111   0.706   6.946  0.4052 -0.0721  0.5631
 4827SOL    HW125943   0.188   0.762   6.947 -1.2535  2.1888  0.0211
 4827SOL    HW225944   0.110   0.666   7.033  5.5607  0.9623  1.1210
 4828SOL     OW25945   3.125   0.604   6.187  0.7266 -0.3946  0.5609
 4828SOL    HW125946   3.190   0.583   6.120 -0.6821  1.2874 -1.3443
 4828SOL    HW225947   3.051   0.551   6.157  0.4533 -0.0598  0.6416
 4829SOL     OW25948   0.952   2.745  12.033  0.2436  0.5030 -0.3826
 4829SOL    HW125949   0.947   2.769  11.940  1.1966  1.3772 -0.2115
 4829SOL    HW225950   0.932   2.652  12.023 -0.8558  0.9660 -2.4164
 4830SOL     OW25951   2.933   3.802   6.216 -0.1002  0.1010 -0.2399
 4830SOL    HW125952   2.837   3.802   6.208 -0.1127  2.2495 -0.0505
 4830SOL    HW225953   2.956   3.739   6.148 -0.3475 -1.1547  0.8180
 4831SOL     OW25954   0.078   2.407  13.192 -0.9492  0.6370 -0.2180
 4831SOL    HW125955   0.005   2.375  13.140  0.2745 -2.3637 -0.0902
 4831SOL    HW225956   0.104   2.483  13.139 -0.8477 -0.3784 -1.6178
 4832SOL     OW25957   0.213   3.267   6.032 -0.1146  0.3495 -0.0536
 4832SOL    HW125958   0.299   3.247   6.071  0.2241  0.5078 -0.7198
 4832SOL    HW225959   0.231   3.350   5.989  1.7205 -0.4814 -0.9347
 4833SOL     OW25960   2.631   0.430  11.742  0.0653 -0.3108  0.5736
 4833SOL    HW125961   2.591   0.346  11.720  1.2686 -0.9568  0.8545
 4833SOL    HW225962   2.582   0.486  11.682  0.7001 -0.3732  0.0010
 4834SOL     OW25963   3.075   1.774   8.654  0.4125  0.7516  0.0726
 4834SOL    HW125964   3.156   1.823   8.669  1.3426 -1.7870  3.3174
 4834SOL    HW225965   3.016   1.837   8.695 -1.5956 -2.2230  1.7628
 4835SOL     OW25966   4.610   1.062   8.136 -0.2804 -0.5396 -0.2717
 4835SOL    HW125967   4.545   1.021   8.193  0.1878 -1.5336 -0.4513
 4835SOL    HW225968   4.563   1.083   8.056  4.4880 -0.3928 -3.0589
 4836SOL     OW25969   0.882   3.367   2.217 -0.1906 -0.2192 -0.0946
 4836SOL    HW125970   0.975   3.377   2.197 -0.1742 -0.3669 -0.0926
 4836SOL    HW225971   0.879   3.294   2.279  0.3803  1.8162  2.3286
 4837SOL     OW25972   1.467   3.411   0.749 -0.2934  0.3390  0.5277
 4837SOL    HW125973   1.456   3.413   0.844 -0.8345  0.5450  0.4644
 4837SOL    HW225974   1.536   3.476   0.736  1.2461 -1.6044 -0.9178
 4838SOL     OW25975   4.540   2.451   6.940  0.2863 -0.6309  0.2463
 4838SOL    HW125976   4.520   2.359   6.926 -0.8392  0.0140 -2.5762
 4838SOL    HW225977   4.636   2.448   6.938  0.3378  1.3924 -0.8757
 4839SOL     OW25978   0.274   1.251  16.235  0.5181  0.5376 -0.7024
 4839SOL    HW125979   0.211   1.264  16.163  0.6093  0.9354 -0.7053
 4839SOL    HW225980   0.356   1.275  16.192  0.6786  0.5399 -0.3960
 4840SOL     OW25981   3.883   1.798   8.184  0.0873 -0.3315  0.2928
 4840SOL    HW125982   3.800   1.765   8.149 -0.5608  0.7914  0.7538
 4840SOL    HW225983   3.923   1.711   8.185 -0.0176 -0.3721  1.0615
 4841SOL     OW25984   3.639   3.786  11.317 -0.2936 -0.0205 -0.0775
 4841SOL    HW125985   3.570   3.807  11.380 -1.0852  0.9120 -1.2529
 4841SOL    HW225986   3.710   3.847  11.333  0.0967  0.1190 -2.3464
 4842SOL     OW25987   1.919   2.344   6.389  0.0660  0.4875 -0.2371
 4842SOL    HW125988   1.986   2.386   6.336 -0.1336  0.4615 -0.5117
 4842SOL    HW225989   1.935   2.250   6.378 -0.9956  0.4048 -1.0252
 4843SOL     OW25990   4.251   0.344   4.974 -0.3069 -0.1403 -0.0410
 4843SOL    HW125991   4.206   0.316   4.894  0.6944 -1.6820 -0.0661
 4843SOL    HW225992   4.287   0.262   5.007  1.4666 -0.1437 -1.9983
 4844SOL     OW25993   3.814   2.146   2.234  0.2306 -0.0777  0.4169
 4844SOL    HW125994   3.886   2.199   2.200 -0.4773  0.4963 -0.1788
 4844SOL    HW225995   3.861   2.065   2.250 -0.1523 -0.5189 -0.7030
 4845SOL     OW25996   1.476   3.776  10.739  0.3277  0.0357 -0.6620
 4845SOL    HW125997   1.409   3.812  10.798  1.4471  1.9583 -0.5560
 4845SOL    HW225998   1.423   3.735  10.670  0.6735 -0.9001 -0.3650
 4846SOL     OW25999   0.079   4.164   4.391  0.3610  0.1037  0.0412
 4846SOL    HW126000   0.126   4.245   4.371  0.8618  0.4148  2.5014
 4846SOL    HW226001   4.710   4.173   4.364 -1.0545 -2.0314  3.9418
 4847SOL     OW26002   2.116   4.554  11.036 -0.2282 -0.1914  0.3101
 4847SOL    HW126003   2.039   4.585  11.083 -0.6188  0.4667 -0.7685
 4847SOL    HW226004   2.193   4.589  11.081  1.3094 -2.0768 -0.8139
 4848SOL     OW26005   3.396   0.811   3.295  0.3409  0.2207  0.2760
 4848SOL    HW126006   3.303   0.802   3.315  0.3323  0.8150  0.4909
 4848SOL    HW226007   3.427   0.888   3.342  2.9317 -0.0077 -1.0263
 4849SOL     OW26008   2.576   0.343  16.050  0.0514  0.5375 -0.1048
 4849SOL    HW126009   2.644   0.388  16.100 -2.1633  0.8659  2.6245
 4849SOL    HW226010   2.543   0.411  15.991 -1.0634  0.8316  0.8476
 4850SOL     OW26011   2.304   3.410   5.648  0.6528  0.5455  0.4374
 4850SOL    HW126012   2.328   3.332   5.698 -2.5763 -1.0214 -0.4441
 4850SOL    HW226013   2.353   3.399   5.567 -2.7589  1.0970 -1.6819
 4851SOL     OW26014   4.702   2.265   7.516  0.0674 -0.5309 -0.1537
 4851SOL    HW126015   4.621   2.220   7.542 -1.9580  3.2177 -0.0231
 4851SOL    HW226016   0.028   2.196   7.471  0.0045 -1.0823  0.6315
 4852SOL     OW26017   2.531   2.538  13.499 -0.3987  0.4324 -0.5964
 4852SOL    HW126018   2.514   2.631  13.515 -0.2963  0.1453  1.1739
 4852SOL    HW226019   2.613   2.549  13.451 -0.6805  1.2208 -0.8952
 4853SOL     OW26020   0.151   3.933   5.515 -0.3696 -0.8244  0.6911
 4853SOL    HW126021   0.237   3.973   5.530 -0.5369  0.0623 -0.6846
 4853SOL    HW226022   0.147   3.910   5.423 -0.8159  1.7744  0.0703
 4854SOL     OW26023   3.951   2.817   5.489  0.3590 -0.5307  0.0125
 4854SOL    HW126024   4.010   2.766   5.433  2.7753  0.0056  2.0215
 4854SOL    HW226025   3.948   2.896   5.436  0.4032  0.5533  1.6311
 4855SOL     OW26026   1.974   2.096   0.255 -0.1473  0.8375  0.2244
 4855SOL    HW126027   1.995   2.170   0.313 -1.2182 -0.2820  2.0239
 4855SOL    HW226028   1.903   2.143   0.212 -1.0939 -2.7306 -2.0656
 4856SOL     OW26029   3.051   1.294   8.975  0.0089 -0.2865 -0.0310
 4856SOL    HW126030   3.117   1.226   8.958  2.5174  1.6287  2.0586
 4856SOL    HW226031   3.007   1.263   9.054  0.1463  1.0409  0.5639
 4857SOL     OW26032   3.698   2.429   4.110  0.0114  0.1918  0.6220
 4857SOL    HW126033   3.735   2.517   4.109  2.1359 -0.7060  1.6292
 4857SOL    HW226034   3.649   2.426   4.193 -0.3208 -0.8729  0.3895
 4858SOL     OW26035   3.777   4.153   5.910 -0.0645 -0.6520 -0.4344
 4858SOL    HW126036   3.682   4.156   5.912 -0.0875 -1.7680  0.5540
 4858SOL    HW226037   3.786   4.058   5.919 -0.3508 -0.5859  0.4989
 4859SOL     OW26038   3.007   0.913  10.891  0.2940  0.5064 -0.8369
 4859SOL    HW126039   3.010   0.905  10.986  0.0084  1.5071 -0.7460
 4859SOL    HW226040   3.036   0.829  10.855  0.9448  0.2841  0.2201
 4860SOL     OW26041   3.105   0.008   0.348 -0.0595 -0.4684  0.2485
 4860SOL    HW126042   3.059   4.675   0.285  0.1130 -1.1124  0.6989
 4860SOL    HW226043   3.164   0.047   0.283 -0.8265 -0.6781 -0.5790
 4861SOL     OW26044   2.334   2.432  10.553  0.5115  0.1607 -0.2201
 4861SOL    HW126045   2.402   2.468  10.497  0.4028  0.8128  0.0644
 4861SOL    HW226046   2.329   2.342  10.522 -0.2910  0.1403 -0.0297
 4862SOL     OW26047   4.411   3.176   7.464  0.1221 -0.6407 -0.3876
 4862SOL    HW126048   4.345   3.116   7.430  1.7588 -2.6206 -0.0443
 4862SOL    HW226049   4.398   3.258   7.415  1.0231 -0.5237 -0.4350
 4863SOL     OW26050   0.752   4.715   8.601  0.3114 -0.0462 -0.0370
 4863SOL    HW126051   0.716   0.035   8.678 -1.8730 -0.1620 -1.0083
 4863SOL    HW226052   0.743   4.621   8.616 -0.1614 -0.1165 -0.7900
 4864SOL     OW26053   4.489   1.289   5.196  0.3709 -0.1290 -0.3421
 4864SOL    HW126054   4.459   1.244   5.118 -3.1452 -1.5039  1.7958
 4864SOL    HW226055   4.532   1.370   5.169  3.1627 -1.6568 -0.4751
 4865SOL     OW26056   1.665   4.204   7.090 -0.1209 -0.0537  0.2311
 4865SOL    HW126057   1.620   4.287   7.100  0.9774  0.3141  2.0056
 4865SOL    HW226058   1.597   4.143   7.118  2.5141 -3.3401 -0.5029
 4866SOL     OW26059   1.316   3.038  14.082 -0.2002  0.1937 -0.0237
 4866SOL    HW126060   1.318   3.132  14.101 -0.8790 -0.1474  1.8258
 4866SOL    HW226061   1.249   3.043  14.014 -0.3469 -0.1979  0.0867
 4867SOL     OW26062   0.046   1.472  12.997 -0.2523  0.2211 -0.1401
 4867SOL    HW126063   4.707   1.540  13.023 -0.2498 -0.3635  1.4580
 4867SOL    HW226064   0.026   1.407  13.065  0.3655 -0.2300 -0.3856
 4868SOL     OW26065   4.383   2.016   2.985  0.3802  0.0421  0.1266
 4868SOL    HW126066   4.371   2.078   3.057 -3.1773  0.5801 -0.9127
 4868SOL    HW226067   4.308   1.960   3.004 -0.3296  1.0151  0.2100
 4869SOL     OW26068   4.047   2.159   6.667 -0.3790  0.0351  0.1323
 4869SOL    HW126069   4.072   2.249   6.688  2.4449 -0.5919 -0.5483
 4869SOL    HW226070   3.976   2.180   6.605 -0.8984  0.6673  0.9323
 4870SOL     OW26071   3.498   3.020   4.184 -0.6261  0.5763  0.2819
 4870SOL    HW126072   3.566   3.084   4.162  0.3315 -0.6468 -0.3203
 4870SOL    HW226073   3.427   3.083   4.174 -0.1953  1.0445  0.1411
 4871SOL     OW26074   4.616   2.281   3.810 -0.4555 -0.0048  0.2346
 4871SOL    HW126075   4.632   2.351   3.874  0.2585 -0.0408  0.0948
 4871SOL    HW226076   4.645   2.206   3.862  0.9418 -0.1824 -0.7881
 4872SOL     OW26077   3.233   4.019  16.653  0.5325  0.4690  0.1560
 4872SOL    HW126078   3.311   3.994  16.603  0.3450  0.4988 -0.1518
 4872SOL    HW226079   3.267   4.104  16.682 -0.7648  0.5481  1.4389
 4873SOL     OW26080   3.970   3.921   7.291  0.3853  0.2831 -0.3442
 4873SOL    HW126081   4.041   3.985   7.288  0.2352  0.4060 -1.1371
 4873SOL    HW226082   4.017   3.861   7.349  1.8901  0.8290 -1.0127
 4874SOL     OW26083   4.543   0.434   6.654  0.3662 -0.4537 -0.2013
 4874SOL    HW126084   4.474   0.371   6.636 -1.1792  1.8350 -2.3466
 4874SOL    HW226085   4.539   0.485   6.573  0.6932 -1.3783 -0.7916
 4875SOL     OW26086   3.644   4.245   5.300  0.2097 -0.1261  0.6067
 4875SOL    HW126087   3.635   4.175   5.236  1.4831 -0.8834  1.2568
 4875SOL    HW226088   3.566   4.227   5.353 -0.6468  0.7081 -0.3752
 4876SOL     OW26089   1.287   2.754  10.042  0.3639 -1.0018 -0.3406
 4876SOL    HW126090   1.330   2.722  10.121 -2.7503  1.2136  2.2484
 4876SOL    HW226091   1.214   2.809  10.070  1.7798  0.3366  0.7525
 4877SOL     OW26092   1.342   2.837   8.010 -0.0351 -0.4531  0.5994
 4877SOL    HW126093   1.388   2.755   8.024  1.3217 -0.4422 -3.8549
 4877SOL    HW226094   1.346   2.844   7.915  0.3430 -1.5660  0.5344
 4878SOL     OW26095   2.661   2.700  16.834  0.0564  0.0187  0.1422
 4878SOL    HW126096   2.738   2.669  16.881  0.0943  0.3801  0.3231
 4878SOL    HW226097   2.592   2.658  16.885 -0.7822  0.2535 -0.7996
 4879SOL     OW26098   2.514   2.018   5.318  0.3300  0.0416  0.0024
 4879SOL    HW126099   2.551   2.025   5.230  0.0881 -0.3748 -0.1327
 4879SOL    HW226100   2.476   2.106   5.328  0.4777  0.0660  0.3690
 4880SOL     OW26101   4.577   4.055   0.723 -0.3863 -0.0901 -0.2346
 4880SOL    HW126102   4.566   4.126   0.660  1.2898  0.1010 -0.3102
 4880SOL    HW226103   4.629   3.991   0.673 -0.1842  1.2161 -1.7130
 4881SOL     OW26104   4.376   3.841   7.610 -0.0596  0.0067  0.0174
 4881SOL    HW126105   4.402   3.756   7.645 -1.1462  0.1441  1.1879
 4881SOL    HW226106   4.435   3.907   7.646 -1.3544  0.1034  1.9820
 4882SOL     OW26107   3.844   3.916   8.549 -0.5759  0.0825  0.1433
 4882SOL    HW126108   3.920   3.901   8.493  1.0861  1.2426  2.0771
 4882SOL    HW226109   3.878   3.894   8.635 -0.5828 -0.2420  0.0616
 4883SOL     OW26110   2.017   1.049   2.938  0.4346 -0.7096 -0.4778
 4883SOL    HW126111   1.927   1.021   2.921 -0.2650  1.1495  0.1283
 4883SOL    HW226112   2.034   1.037   3.032  2.9205 -3.0240 -1.2397
 4884SOL     OW26113   1.236   3.380   8.259  0.0669 -0.5089 -0.0997
 4884SOL    HW126114   1.219   3.426   8.176 -1.9700 -0.7602  0.1812
 4884SOL    HW226115   1.183   3.302   8.244 -0.6922 -0.4892  2.6168
 4885SOL     OW26116   3.644   4.687   7.227 -0.3154  0.3308  0.0351
 4885SOL    HW126117   3.579   0.030   7.202  0.6463  1.5468  0.7443
 4885SOL    HW226118   3.583   4.618   7.251 -0.2051 -0.4278 -1.8888
 4886SOL     OW26119   2.723   2.107   0.854  0.0282 -0.1903 -0.7607
 4886SOL    HW126120   2.676   2.037   0.899 -0.1641  1.3252  1.3885
 4886SOL    HW226121   2.775   2.143   0.926 -1.4971 -2.2873  1.3687
 4887SOL     OW26122   1.213   0.345   7.315  0.7135  0.6948 -0.2134
 4887SOL    HW126123   1.274   0.290   7.266 -0.1573  0.8022 -1.4062
 4887SOL    HW226124   1.129   0.312   7.283  0.5308 -0.0474  1.0219
 4888SOL     OW26125   1.269   2.674   9.407 -0.7431 -0.6270  0.1773
 4888SOL    HW126126   1.348   2.726   9.420 -0.6301 -0.6435 -0.4353
 4888SOL    HW226127   1.309   2.610   9.347  1.3297  1.1032 -0.2990
 4889SOL     OW26128   3.044   1.585  10.016  0.3372 -0.1092 -0.1591
 4889SOL    HW126129   3.128   1.602   9.972  0.1216 -2.3746 -1.4071
 4889SOL    HW226130   3.083   1.554  10.098 -0.8041 -1.2265 -0.0465
 4890SOL     OW26131   3.586   2.555  11.573 -0.1591 -0.1798  0.0564
 4890SOL    HW126132   3.522   2.492  11.538  2.0673 -1.8934 -0.9522
 4890SOL    HW226133   3.546   2.607  11.642 -0.7229  0.7836 -0.9952
 4891SOL     OW26134   0.980   1.383   5.386  0.0789 -0.0814  0.4118
 4891SOL    HW126135   0.907   1.334   5.425 -0.7535  0.3671 -0.6090
 4891SOL    HW226136   1.025   1.401   5.469 -0.1697 -2.0527  0.9895
 4892SOL     OW26137   2.915   0.700   8.422  0.0168 -0.6402  0.1298
 4892SOL    HW126138   2.894   0.791   8.442  3.0007  0.3812 -1.4012
 4892SOL    HW226139   3.000   0.689   8.465 -0.2139 -2.1422  0.1961
 4893SOL     OW26140   0.413   3.425  15.103 -0.1197  0.2745  0.2008
 4893SOL    HW126141   0.396   3.503  15.051  2.9345  0.3310 -0.6926
 4893SOL    HW226142   0.508   3.418  15.099 -0.0969  0.0460  1.0936
 4894SOL     OW26143   3.396   0.356   2.718  0.4232  0.1909 -0.5169
 4894SOL    HW126144   3.312   0.399   2.700  0.3047 -0.2273 -0.9716
 4894SOL    HW226145   3.401   0.286   2.653 -2.5224 -1.4283  0.9876
 4895SOL     OW26146   2.530   1.933   5.916  0.1190  0.0210  1.1210
 4895SOL    HW126147   2.498   2.012   5.872  1.4258 -0.2647 -0.3540
 4895SOL    HW226148   2.621   1.961   5.924  1.2798 -3.5130  0.3389
 4896SOL     OW26149   2.948   1.711   1.664  0.2941  0.5627 -0.1612
 4896SOL    HW126150   2.963   1.705   1.570 -0.2753  0.2757 -0.2318
 4896SOL    HW226151   3.040   1.727   1.686 -0.3403  0.8964  2.2923
 4897SOL     OW26152   3.656   1.670   4.508 -0.1869  0.0394 -0.1497
 4897SOL    HW126153   3.686   1.670   4.418  1.5769  0.1946  0.4265
 4897SOL    HW226154   3.563   1.658   4.493 -0.2990 -0.5076  0.9765
 4898SOL     OW26155   0.327   1.516   2.709  0.4344  0.4462 -0.0212
 4898SOL    HW126156   0.364   1.604   2.702 -1.9313  1.3223 -1.4415
 4898SOL    HW226157   0.234   1.529   2.727  1.0036  2.0563  1.7993
 4899SOL     OW26158   2.731   0.058  15.026  0.0347 -0.2347 -0.0571
 4899SOL    HW126159   2.747   0.135  15.080 -2.2577 -0.7005  1.2807
 4899SOL    HW226160   2.745   0.096  14.939 -0.8076 -1.1825 -0.6155
 4900SOL     OW26161   3.862   1.702  11.134  0.2539  0.0950 -0.3627
 4900SOL    HW126162   3.904   1.762  11.072  0.0580  0.9471  0.3302
 4900SOL    HW226163   3.769   1.720  11.143  0.1976 -0.6985  0.6286
 4901SOL     OW26164   2.691   1.451   6.180  0.1937 -0.0250 -0.1486
 4901SOL    HW126165   2.625   1.512   6.146 -0.9479 -1.0837  0.1520
 4901SOL    HW226166   2.714   1.410   6.096 -1.6888 -1.2114 -0.0870
 4902SOL     OW26167   0.399   2.927   9.273  0.9678 -0.3001  0.5303
 4902SOL    HW126168   0.427   2.966   9.356  0.3516 -0.5105  0.8357
 4902SOL    HW226169   0.480   2.880   9.254  0.4349 -0.6256 -0.8907
 4903SOL     OW26170   4.472   2.161   8.947  0.4474 -0.3481  0.4931
 4903SOL    HW126171   4.501   2.078   8.910  2.2329  0.2828  0.5071
 4903SOL    HW226172   4.378   2.150   8.966  0.3880 -0.5772  0.0683
 4904SOL     OW26173   3.237   3.520   0.862 -0.1563 -0.1067  0.4863
 4904SOL    HW126174   3.226   3.448   0.800  0.6582  1.0789 -1.0131
 4904SOL    HW226175   3.153   3.565   0.855 -0.8255 -1.3485  0.6223
 4905SOL     OW26176   1.878   3.912   6.361  0.7658 -0.2597  0.6509
 4905SOL    HW126177   1.916   3.948   6.441  1.5254  1.5272 -0.5062
 4905SOL    HW226178   1.797   3.963   6.365  0.3161 -0.9928  0.8657
 4906SOL     OW26179   2.202   3.269   4.640 -0.0522 -0.6414  0.0006
 4906SOL    HW126180   2.131   3.209   4.618 -0.6460 -0.2902  0.9782
 4906SOL    HW226181   2.258   3.226   4.706 -0.5263  0.0348  0.8335
 4907SOL     OW26182   4.707   1.143  12.872 -0.2273 -0.4732 -0.0300
 4907SOL    HW126183   4.624   1.188  12.858 -1.0633 -2.2107 -0.6095
 4907SOL    HW226184   4.692   1.099  12.956 -0.5887  2.9088  1.7019
 4908SOL     OW26185   4.229   4.566   7.868 -0.1323 -0.1521  0.0115
 4908SOL    HW126186   4.155   4.506   7.863  0.7926 -1.4192  1.6629
 4908SOL    HW226187   4.256   4.563   7.776  0.1668 -0.8595  0.1281
 4909SOL     OW26188   2.265   2.434   2.716  0.1650  0.3654 -0.3053
 4909SOL    HW126189   2.216   2.463   2.639 -2.5646 -1.2116  0.8437
 4909SOL    HW226190   2.354   2.451   2.685  0.4603 -0.8853 -0.1664
 4910SOL     OW26191   0.867   2.057   2.156  0.3131  0.0548  0.2863
 4910SOL    HW126192   0.776   2.083   2.165  0.7499  1.6649  0.2020
 4910SOL    HW226193   0.874   2.056   2.060 -1.0119 -1.3761  0.2172
 4911SOL     OW26194   1.014   1.970  12.594  0.0420 -0.1781 -0.3879
 4911SOL    HW126195   1.060   2.050  12.619  0.7317 -0.3277 -1.1981
 4911SOL    HW226196   1.021   1.967  12.499  1.9453 -1.2803 -0.2296
 4912SOL     OW26197   2.543   0.382   6.136 -0.1112  0.5618  0.1277
 4912SOL    HW126198   2.510   0.292   6.135  0.0878  0.4771  1.5120
 4912SOL    HW226199   2.569   0.396   6.227 -3.0256  2.4373  0.6860
 4913SOL     OW26200   0.954   2.360  11.759  0.0043  0.0303  0.3382
 4913SOL    HW126201   1.044   2.360  11.725 -0.2749  1.0686 -0.3830
 4913SOL    HW226202   0.923   2.443  11.722  2.1523  1.0448  0.8043
 4914SOL     OW26203   0.326   1.361   9.255 -0.2955  0.1024 -0.2738
 4914SOL    HW126204   0.318   1.318   9.340 -0.8549  1.1773  0.1987
 4914SOL    HW226205   0.343   1.281   9.205  2.5439 -0.1465  1.0621
 4915SOL     OW26206   2.757   4.304   5.607  0.4545  0.5648 -0.2613
 4915SOL    HW126207   2.757   4.394   5.575  0.5793 -0.0190 -1.9166
 4915SOL    HW226208   2.756   4.242   5.534 -1.5507 -1.7408  1.7210
 4916SOL     OW26209   4.370   2.385   3.724 -0.0881 -0.8259 -0.4604
 4916SOL    HW126210   4.449   2.336   3.748  0.0921  1.4972  3.7591
 4916SOL    HW226211   4.341   2.397   3.815  2.4954  2.4850 -0.0822
 4917SOL     OW26212   0.008   1.636   4.659 -0.2347  0.2055  0.4766
 4917SOL    HW126213   0.036   1.610   4.571 -0.5951 -0.7483  0.6438
 4917SOL    HW226214   0.093   1.663   4.693  0.7818 -0.1590 -1.7773
 4918SOL     OW26215   1.472   0.027   0.760  0.0246 -0.3851  0.5699
 4918SOL    HW126216   1.541   0.082   0.722  0.5002 -0.4768  1.3034
 4918SOL    HW226217   1.419   4.718   0.687  0.1637  0.7665 -0.0380
 4919SOL     OW26218   2.808   1.441  12.732  0.2058 -0.1190  1.0371
 4919SOL    HW126219   2.757   1.400  12.802 -0.1350 -0.2678  0.6977
 4919SOL    HW226220   2.772   1.530  12.741  4.5169  1.8086 -0.5477
 4920SOL     OW26221   3.144   2.220   2.640  0.1329  0.0982 -0.1665
 4920SOL    HW126222   3.111   2.224   2.550 -0.8361  0.6704  0.2137
 4920SOL    HW226223   3.173   2.308   2.662  1.2486  0.3673 -2.6844
 4921SOL     OW26224   3.789   3.500   4.868 -0.4675  0.0691 -0.4633
 4921SOL    HW126225   3.846   3.423   4.874 -1.0996 -0.1256  2.7266
 4921SOL    HW226226   3.713   3.465   4.915 -0.1263 -0.5307 -0.3541
 4922SOL     OW26227   0.703   2.168   3.069 -0.5013 -0.4747 -0.1691
 4922SOL    HW126228   0.788   2.211   3.075 -0.6081  0.1490 -3.3915
 4922SOL    HW226229   0.650   2.248   3.066  0.6610  0.2836 -0.0744
 4923SOL     OW26230   0.170   3.346   9.471  0.8519  0.2119  0.1354
 4923SOL    HW126231   0.236   3.277   9.476 -0.4203 -0.8315  2.4215
 4923SOL    HW226232   0.135   3.346   9.560 -2.1378 -0.3456 -1.0564
 4924SOL     OW26233   0.379   1.452   8.146  0.2460 -0.3288  0.6270
 4924SOL    HW126234   0.307   1.472   8.205 -0.4446 -1.5781  0.2264
 4924SOL    HW226235   0.435   1.418   8.216 -1.3923 -0.5747  1.8236
 4925SOL     OW26236   4.560   0.455  13.662 -0.2262  0.6615 -0.0861
 4925SOL    HW126237   4.479   0.438  13.709  1.5541 -3.4558  1.4565
 4925SOL    HW226238   4.590   0.536  13.703  0.9468 -0.2064  0.7784
 4926SOL     OW26239   2.109   2.269  10.675  0.1056  0.2332 -0.0016
 4926SOL    HW126240   2.060   2.198  10.717  0.0776  0.5936  0.5585
 4926SOL    HW226241   2.062   2.279  10.592 -2.0968  0.5190  1.2632
 4927SOL     OW26242   1.358   3.862   3.896  0.0462 -0.4224 -0.1378
 4927SOL    HW126243   1.289   3.802   3.867  0.8290 -0.3447 -2.0922
 4927SOL    HW226244   1.297   3.910   3.953  1.2634 -0.4120  1.1632
 4928SOL     OW26245   3.726   4.325   0.378 -0.3872 -0.3891 -0.4649
 4928SOL    HW126246   3.787   4.396   0.357 -0.4877 -0.0550  0.3524
 4928SOL    HW226247   3.688   4.368   0.455 -0.7736  0.6405 -1.2350
 4929SOL     OW26248   4.644   2.175   6.985  0.1092  0.3843  0.4908
 4929SOL    HW126249   4.722   2.140   7.029  0.4605  0.8188  0.2227
 4929SOL    HW226250   4.664   2.148   6.895 -4.4214 -0.9319 -0.1059
 4930SOL     OW26251   2.539   0.171   2.854 -0.1112  0.6602 -0.4754
 4930SOL    HW126252   2.537   0.229   2.778  1.4345 -0.3815 -1.2936
 4930SOL    HW226253   2.556   0.087   2.812  0.1199  0.3856  0.1648
 4931SOL     OW26254   1.542   2.094   8.996  0.4588 -0.1248 -0.0913
 4931SOL    HW126255   1.486   2.167   9.024 -1.0446 -1.5334  0.6035
 4931SOL    HW226256   1.611   2.095   9.062  0.9721  0.6263 -0.6435
 4932SOL     OW26257   2.519   4.521   4.044  0.8606  0.2352 -0.4564
 4932SOL    HW126258   2.468   4.573   3.982  0.2514  2.0217  1.5358
 4932SOL    HW226259   2.570   4.456   3.995  1.4021  0.1422  0.2376
 4933SOL     OW26260   0.392   2.903   7.006  0.2359  0.2990  0.0437
 4933SOL    HW126261   0.310   2.951   6.995  0.1112 -0.5349 -2.6734
 4933SOL    HW226262   0.422   2.942   7.089 -2.1239  1.0456  0.5306
 4934SOL     OW26263   1.539   1.482   9.721 -0.7595 -0.0847  0.4938
 4934SOL    HW126264   1.542   1.410   9.658  0.4013  0.0787  0.3617
 4934SOL    HW226265   1.574   1.441   9.800  1.3148  1.6155  0.4367
 4935SOL     OW26266   0.999   0.418   7.540  0.0540  0.3204 -0.1939
 4935SOL    HW126267   0.930   0.443   7.478  2.0490 -0.6328 -2.8040
 4935SOL    HW226268   0.970   0.327   7.544 -2.3472  1.1723  2.5233
 4936SOL     OW26269   1.921   3.936   5.459 -0.0961  0.2493 -0.5030
 4936SOL    HW126270   1.979   4.007   5.486  1.2917 -0.6556 -1.0975
 4936SOL    HW226271   1.902   3.958   5.368  1.5669 -0.2530 -0.9814
 4937SOL     OW26272   0.165   0.963  16.470  0.0827 -0.0696 -0.1549
 4937SOL    HW126273   0.080   0.932  16.439 -0.7603  1.5874  0.5555
 4937SOL    HW226274   0.221   0.906  16.417 -0.1354  1.6406 -2.1943
 4938SOL     OW26275   1.952   0.456  10.943 -0.1009 -0.0659 -0.0818
 4938SOL    HW126276   1.999   0.515  11.002 -0.6156  1.7227 -1.4933
 4938SOL    HW226277   1.893   0.523  10.908  0.3576  0.6125  0.4578
 4939SOL     OW26278   2.865   0.066  11.581 -0.3299 -0.2715  0.0654
 4939SOL    HW126279   2.815   4.707  11.580 -1.5288  0.4562 -0.0433
 4939SOL    HW226280   2.840   0.120  11.506  1.8794  1.9129  0.9012
 4940SOL     OW26281   2.557   1.597   9.374  0.0240 -0.4530  0.5654
 4940SOL    HW126282   2.640   1.566   9.337  0.7934 -0.3408  2.1926
 4940SOL    HW226283   2.572   1.690   9.358 -1.0981 -0.7212 -2.0750
 4941SOL     OW26284   1.413   1.322   7.253 -0.7890 -0.4920  0.0732
 4941SOL    HW126285   1.478   1.390   7.235  0.1981 -0.9964  1.7340
 4941SOL    HW226286   1.431   1.297   7.344 -1.1179  0.3570  0.3672
 4942SOL     OW26287   4.182   0.031   7.066  0.1224 -0.1518  0.4464
 4942SOL    HW126288   4.141   0.083   7.134 -0.2456 -1.4627  1.2326
 4942SOL    HW226289   4.213   4.680   7.119  1.2546 -1.0042 -1.4122
 4943SOL     OW26290   4.531   0.065   3.067  0.0365 -0.3870  0.0767
 4943SOL    HW126291   4.463   0.077   3.000 -0.0018 -0.1512  0.1581
 4943SOL    HW226292   4.534   4.694   3.083 -1.8701 -0.3705  0.5659
 4944SOL     OW26293   0.619   3.662  14.925 -0.1328  0.1221  0.0878
 4944SOL    HW126294   0.630   3.739  14.868  2.2532 -1.8433 -2.0698
 4944SOL    HW226295   0.524   3.674  14.924 -0.2502 -0.8860 -0.8777
 4945SOL     OW26296   1.512   1.441   7.748 -0.2620  0.4831  0.5014
 4945SOL    HW126297   1.435   1.432   7.804 -0.7552 -1.8186 -0.5736
 4945SOL    HW226298   1.554   1.358   7.769 -1.4038 -0.2412 -0.0879
 4946SOL     OW26299   1.549   0.695   7.280 -0.1477 -0.2020  0.1655
 4946SOL    HW126300   1.559   0.618   7.224 -0.5156 -1.1923  1.4643
 4946SOL    HW226301   1.580   0.659   7.363  1.3351 -0.8540 -0.6675
 4947SOL     OW26302   2.196   0.666   5.649 -0.2414  0.0401 -0.4276
 4947SOL    HW126303   2.165   0.637   5.564 -3.3502 -1.3592  1.1635
 4947SOL    HW226304   2.235   0.590   5.692 -1.4995 -1.0493 -1.1954
 4948SOL     OW26305   1.210   1.927   7.808 -0.1320 -0.6093 -0.3340
 4948SOL    HW126306   1.177   2.015   7.791  0.2336 -0.4783 -0.3531
 4948SOL    HW226307   1.270   1.908   7.736 -1.4767 -0.6627 -1.4570
 4949SOL     OW26308   4.503   1.927   9.197 -0.3507  0.2546  0.2949
 4949SOL    HW126309   4.554   1.846   9.198 -0.3417  0.2647  1.2385
 4949SOL    HW226310   4.569   1.995   9.206  0.5961 -0.6940  0.6076
 4950SOL     OW26311   2.673   1.500   4.814  0.2301  0.2289 -0.3738
 4950SOL    HW126312   2.622   1.499   4.895 -0.7010 -1.1774 -0.9774
 4950SOL    HW226313   2.701   1.592   4.821  0.4636 -0.0387  2.2939
 4951SOL     OW26314   1.595   0.942  11.718  0.7454 -0.3149  0.3577
 4951SOL    HW126315   1.505   0.971  11.707 -0.0984 -2.3352  1.9907
 4951SOL    HW226316   1.615   0.908  11.631  2.9302  2.7727 -0.3592
 4952SOL     OW26317   4.144   0.649   6.101 -0.5829  0.5687 -0.0445
 4952SOL    HW126318   4.141   0.644   6.005  3.2387 -0.7350 -0.0950
 4952SOL    HW226319   4.120   0.740   6.120  2.9600  0.9966  2.3442
 4953SOL     OW26320   1.422   4.105   1.934 -0.2485 -0.7283 -0.2136
 4953SOL    HW126321   1.327   4.104   1.938 -0.2581 -2.5696 -0.6221
 4953SOL    HW226322   1.450   4.022   1.972  1.6995 -0.6395 -1.4465
 4954SOL     OW26323   1.386   3.075   6.275 -0.4796 -0.6475 -0.6494
 4954SOL    HW126324   1.398   3.139   6.205  1.2858  0.9336  1.1147
 4954SOL    HW226325   1.432   3.001   6.236  0.9023  0.4406 -1.0628
 4955SOL     OW26326   0.105   3.297   4.035 -0.3029 -0.1409  0.0521
 4955SOL    HW126327   0.144   3.347   3.964  1.3815 -2.2638 -0.5237
 4955SOL    HW226328   0.188   3.288   4.082  0.3686  1.2349 -0.8775
 4956SOL     OW26329   3.104   3.200   1.084 -0.2342 -0.5132  0.3392
 4956SOL    HW126330   3.093   3.117   1.129  1.5172 -1.6189 -1.2792
 4956SOL    HW226331   3.169   3.161   1.026 -0.0207  2.5114 -1.4571
 4957SOL     OW26332   1.200   1.398   8.617  0.2133  0.2056  0.2054
 4957SOL    HW126333   1.177   1.487   8.644  0.8269  0.3023  0.4253
 4957SOL    HW226334   1.187   1.414   8.523  0.7590 -0.7047 -0.0226
 4958SOL     OW26335   3.708   4.225   4.013 -0.1800 -0.1419  0.7087
 4958SOL    HW126336   3.614   4.230   3.998 -0.2290  0.0900  1.1219
 4958SOL    HW226337   3.748   4.216   3.926 -3.3045 -1.8778 -0.5654
 4959SOL     OW26338   1.332   0.438   2.682  0.0872  0.1420 -0.4283
 4959SOL    HW126339   1.308   0.382   2.608  2.7423 -1.1393 -0.3415
 4959SOL    HW226340   1.428   0.445   2.677  0.0756  2.2019  2.4918
 4960SOL     OW26341   1.710   3.395   0.121  0.2483  0.0668 -0.5006
 4960SOL    HW126342   1.645   3.409   0.053  0.5159  0.6835 -0.6267
 4960SOL    HW226343   1.672   3.319   0.165 -0.6772  0.1915 -1.0815
 4961SOL     OW26344   3.242   1.542   3.780 -0.1863  0.0192  0.0769
 4961SOL    HW126345   3.288   1.599   3.718 -1.3851  0.9436  0.0516
 4961SOL    HW226346   3.231   1.588   3.863 -1.3781 -0.4381  0.1684
 4962SOL     OW26347   1.584   3.327   7.227  0.0013 -0.1638  0.3674
 4962SOL    HW126348   1.541   3.245   7.200  2.0099 -1.3896  0.9396
 4962SOL    HW226349   1.514   3.388   7.204 -0.4476 -0.3365  1.2467
 4963SOL     OW26350   2.278   4.574  11.448 -0.4390 -0.3449  0.1770
 4963SOL    HW126351   2.206   4.540  11.395  0.2008 -0.1095 -0.8354
 4963SOL    HW226352   2.262   4.659  11.407  0.9256 -0.3963 -0.4380
 4964SOL     OW26353   3.422   0.210   9.334 -0.1138  0.1992 -0.0099
 4964SOL    HW126354   3.506   0.249   9.355  1.3628 -2.9740 -0.0043
 4964SOL    HW226355   3.370   0.290   9.331 -1.0099 -0.2321  3.8765
 4965SOL     OW26356   4.275   3.728   3.134  0.3154 -0.6394  0.2531
 4965SOL    HW126357   4.369   3.713   3.149 -0.1717 -1.7457  2.0664
 4965SOL    HW226358   4.271   3.814   3.177 -0.8719 -0.5196 -0.0968
 4966SOL     OW26359   0.891   1.295  13.565  0.1707  0.8166  0.1272
 4966SOL    HW126360   0.960   1.268  13.505 -0.8418 -2.4901  0.4883
 4966SOL    HW226361   0.880   1.381  13.524 -1.8676  0.8638  0.7348
 4967SOL     OW26362   4.714   1.747  17.378  0.2965 -0.0454  0.3060
 4967SOL    HW126363   4.684   1.812  17.441  0.3811  1.4769 -1.2327
 4967SOL    HW226364   0.052   1.800  17.327 -0.7916 -1.1836 -2.2059
 4968SOL     OW26365   2.668   3.703  10.852  0.1561 -0.1079 -0.4870
 4968SOL    HW126366   2.678   3.628  10.911  2.9304 -0.5066 -1.5041
 4968SOL    HW226367   2.750   3.752  10.854  0.6729 -0.9569 -0.9356
 4969SOL     OW26368   1.168   4.648   2.495 -0.0161 -0.2631 -0.0915
 4969SOL    HW126369   1.196   0.001   2.546 -2.2964 -0.7788  1.8896
 4969SOL    HW226370   1.135   4.690   2.415 -1.4418 -0.2206  0.5256
 4970SOL     OW26371   4.253   0.410   7.705 -0.4499 -0.4070  0.6634
 4970SOL    HW126372   4.263   0.492   7.753  1.7826  0.9789 -2.2260
 4970SOL    HW226373   4.326   0.410   7.643 -2.2496 -2.1037 -1.4466
 4971SOL     OW26374   0.341   1.452  12.336  0.0446  0.0558  0.6429
 4971SOL    HW126375   0.305   1.410  12.414 -2.2823  0.0611 -0.4033
 4971SOL    HW226376   0.421   1.401  12.322  0.4703  0.4739  1.5569
 4972SOL     OW26377   4.409   1.565   3.070 -0.1658 -0.6310  0.2452
 4972SOL    HW126378   4.500   1.596   3.078 -0.9496  1.8218 -0.3707
 4972SOL    HW226379   4.371   1.585   3.155  0.7162  0.6015  0.3567
 4973SOL     OW26380   1.372   3.866   0.063  0.4877  0.2250 -0.2756
 4973SOL    HW126381   1.283   3.865   0.030  0.9191  0.2459 -1.4384
 4973SOL    HW226382   1.356   3.883   0.156 -1.1375 -0.1292 -0.4950
 4974SOL     OW26383   0.117   4.154   8.007 -0.1148 -0.2521  0.1144
 4974SOL    HW126384   0.167   4.208   8.069 -1.9200 -0.4978  1.7820
 4974SOL    HW226385   0.042   4.124   8.058 -0.0425 -0.9254 -0.1742
 4975SOL     OW26386   0.342   0.119   1.578  0.0708 -0.1334 -0.2390
 4975SOL    HW126387   0.334   0.206   1.539  0.7161 -0.0809 -0.2416
 4975SOL    HW226388   0.408   0.082   1.519  0.1894  0.6310 -0.5949
 4976SOL     OW26389   1.145   3.525   3.162 -0.1324 -0.2991 -0.1758
 4976SOL    HW126390   1.103   3.524   3.076 -0.5979 -1.7391  0.0681
 4976SOL    HW226391   1.236   3.531   3.131  0.1173 -0.3227  0.5430
 4977SOL     OW26392   2.992   3.485   8.546  0.3885  0.0414 -0.2547
 4977SOL    HW126393   2.899   3.462   8.542  0.4390 -0.1480 -0.3539
 4977SOL    HW226394   2.998   3.545   8.472 -0.1578  0.8053  0.3147
 4978SOL     OW26395   3.662   0.189   3.254  0.2514 -0.3970  0.0910
 4978SOL    HW126396   3.640   0.172   3.163  0.9656 -0.6507 -0.0279
 4978SOL    HW226397   3.598   0.254   3.285 -0.8919 -2.0676  1.2699
 4979SOL     OW26398   0.843   2.767   3.877 -0.0364 -0.8616 -0.4657
 4979SOL    HW126399   0.892   2.695   3.838  0.6418 -0.5625 -0.1631
 4979SOL    HW226400   0.909   2.835   3.890 -3.5142  2.4461 -0.0898
 4980SOL     OW26401   0.013   1.464   2.592 -0.0082  0.0873 -0.0217
 4980SOL    HW126402   4.690   1.381   2.580  1.4069 -0.7823  0.5058
 4980SOL    HW226403   0.085   1.443   2.533  0.1583  1.8611 -0.4429
 4981SOL     OW26404   2.906   0.804  17.504  0.2590  0.0331 -0.0186
 4981SOL    HW126405   2.938   0.895  17.501 -0.8082  0.4535  1.5708
 4981SOL    HW226406   2.812   0.814  17.486  0.1477  2.6363  2.0673
 4982SOL     OW26407   2.917   1.961   3.496  0.1093 -0.0009 -0.3354
 4982SOL    HW126408   2.927   1.961   3.401 -0.3194 -3.6426 -0.4136
 4982SOL    HW226409   2.896   1.871   3.521 -1.3465  0.1533 -1.0075
 4983SOL     OW26410   0.941   3.340   5.810  0.0764 -0.2632  0.1100
 4983SOL    HW126411   0.879   3.275   5.777 -0.2301  0.1530 -0.1413
 4983SOL    HW226412   0.957   3.305   5.897 -0.6732 -0.1408  0.2947
 4984SOL     OW26413   0.190   3.114   8.902 -0.1233  0.0004  0.2392
 4984SOL    HW126414   0.101   3.124   8.868  0.2380  2.0612 -0.1335
 4984SOL    HW226415   0.217   3.050   8.837  0.4264  2.0097 -1.5334
 4985SOL     OW26416   2.784   0.384   9.967  0.4478 -0.0907  0.2313
 4985SOL    HW126417   2.743   0.470   9.972  1.2406  0.2148  1.6307
 4985SOL    HW226418   2.814   0.366  10.056  1.0779 -0.1412  0.0073
 4986SOL     OW26419   2.625   4.016   2.691 -0.0298 -0.1920 -0.0005
 4986SOL    HW126420   2.564   3.959   2.737 -0.2453  0.6659  0.7806
 4986SOL    HW226421   2.591   4.101   2.720 -0.9780 -0.7136  0.4164
 4987SOL     OW26422   3.999   1.709  16.702 -0.6647  0.1386 -0.4049
 4987SOL    HW126423   3.945   1.636  16.732  2.0538 -0.3029  3.4446
 4987SOL    HW226424   3.981   1.703  16.608 -0.3313 -2.9371 -0.2821
 4988SOL     OW26425   1.161   4.221   7.096 -0.4332 -0.1720 -0.5226
 4988SOL    HW126426   1.128   4.132   7.107  1.0441 -0.4096  1.9071
 4988SOL    HW226427   1.204   4.229   7.182  2.4409  0.7260 -2.0479
 4989SOL     OW26428   1.889   0.647  15.828 -0.7106  0.1382  0.2928
 4989SOL    HW126429   1.822   0.688  15.882 -1.3297 -0.2858 -0.1622
 4989SOL    HW226430   1.851   0.560  15.821  2.0867 -1.0586 -0.0273
 4990SOL     OW26431   3.667   2.927   1.072 -0.3277 -0.0118  0.1514
 4990SOL    HW126432   3.595   2.919   1.134 -0.7321 -1.2123 -0.4807
 4990SOL    HW226433   3.628   2.945   0.986  1.3584 -0.0791 -0.6428
 4991SOL     OW26434   1.776   4.450   4.693  0.3697 -0.0502  0.4466
 4991SOL    HW126435   1.726   4.371   4.714  1.3884 -0.7057  0.4565
 4991SOL    HW226436   1.810   4.435   4.605 -0.0820  1.8131 -0.0272
 4992SOL     OW26437   0.642   2.111   8.097  0.2002 -0.2345 -0.0955
 4992SOL    HW126438   0.569   2.050   8.109  1.0828 -1.1546  0.6850
 4992SOL    HW226439   0.677   2.083   8.013 -1.3686 -2.1044 -0.1293
 4993SOL     OW26440   3.342   2.613   3.192 -0.4384 -0.0298  0.0706
 4993SOL    HW126441   3.360   2.569   3.275  0.5657 -0.5877 -0.4501
 4993SOL    HW226442   3.302   2.536   3.152  0.0326 -0.0874 -0.2833
 4994SOL     OW26443   2.304   4.123   4.295  0.1506  0.0099  0.0470
 4994SOL    HW126444   2.276   4.206   4.334 -1.5063  0.9477 -3.1272
 4994SOL    HW226445   2.243   4.114   4.222  2.0177 -2.1793 -1.2716
 4995SOL     OW26446   0.507   0.296   8.256 -0.4849  0.2296 -0.0332
 4995SOL    HW126447   0.596   0.270   8.278  0.0693  1.2874 -1.0093
 4995SOL    HW226448   0.519   0.387   8.283 -3.1725  0.7689 -0.6711
 4996SOL     OW26449   1.441   1.387  15.368 -0.0364  0.2234 -0.2857
 4996SOL    HW126450   1.468   1.295  15.360 -0.5265  0.1298 -0.8528
 4996SOL    HW226451   1.387   1.386  15.447  0.4662  0.1961  0.0576
 4997SOL     OW26452   4.093   0.874  13.290 -0.6944  0.0641 -0.5592
 4997SOL    HW126453   4.171   0.866  13.235  1.3664 -0.1402  2.3727
 4997SOL    HW226454   4.108   0.799  13.347 -1.0486  0.4373  0.0289
 4998SOL     OW26455   1.441   3.400  16.274 -0.7334  0.2113 -0.2753
 4998SOL    HW126456   1.394   3.476  16.239 -0.8544  0.4334  0.3677
 4998SOL    HW226457   1.428   3.413  16.368  1.4209 -1.0764  0.2022
 4999SOL     OW26458   0.073   1.003  15.421 -0.1539 -0.0408  0.8072
 4999SOL    HW126459   0.034   0.932  15.370 -1.8471  1.4648 -0.0322
 4999SOL    HW226460   0.066   1.079  15.363 -0.6891  0.2996  1.3117
 5000SOL     OW26461   0.046   1.161   0.234 -0.3319  0.1309  0.0761
 5000SOL    HW126462   0.067   1.161   0.328  0.2298  2.6709 -0.0491
 5000SOL    HW226463   0.125   1.127   0.193 -0.6579  0.6518 -0.9759
 5001SOL     OW26464   0.740   3.536   4.675 -0.1607 -0.2813  0.0141
 5001SOL    HW126465   0.650   3.506   4.663  0.3014 -0.6733 -2.4093
 5001SOL    HW226466   0.740   3.559   4.768 -1.0694  2.8192 -0.7439
 5002SOL     OW26467   3.506   3.267   3.119 -0.1083 -0.1819  0.1616
 5002SOL    HW126468   3.578   3.281   3.181  0.5754 -0.6807 -0.5296
 5002SOL    HW226469   3.521   3.177   3.093  2.1505 -0.0884  1.1709
 5003SOL     OW26470   4.298   1.061   4.693  0.2008 -0.3238  0.3085
 5003SOL    HW126471   4.357   1.095   4.625 -0.1680 -0.2627  0.0192
 5003SOL    HW226472   4.215   1.101   4.666 -0.1297 -1.7819 -0.8524
 5004SOL     OW26473   0.783   2.830   7.028  0.0896  0.0622  0.0199
 5004SOL    HW126474   0.871   2.818   6.993  0.7156 -0.9949  1.9241
 5004SOL    HW226475   0.735   2.826   6.945  1.6610 -1.6747 -0.8056
 5005SOL     OW26476   1.617   2.359   8.074 -0.3917 -0.2856  0.4009
 5005SOL    HW126477   1.615   2.290   8.008  0.6455  0.0201  0.0502
 5005SOL    HW226478   1.616   2.430   8.010 -0.4172 -1.2696 -0.6790
 5006SOL     OW26479   2.377   3.107  15.663  0.4415 -0.0315  0.0193
 5006SOL    HW126480   2.398   3.023  15.623 -2.8769 -1.7787  1.8985
 5006SOL    HW226481   2.450   3.130  15.720  1.4446 -0.7603 -0.9712
 5007SOL     OW26482   2.697   0.955   5.161  0.3140  0.0102  0.0522
 5007SOL    HW126483   2.729   0.865   5.166  0.7330  0.1485 -0.1573
 5007SOL    HW226484   2.666   0.951   5.070 -1.4763  0.0988  0.6607
 5008SOL     OW26485   4.348   1.003   5.951 -0.0605 -0.5136  0.0305
 5008SOL    HW126486   4.442   1.012   5.936 -0.4509  1.7148 -1.0460
 5008SOL    HW226487   4.318   0.988   5.862 -0.6366  2.5487 -0.3004
 5009SOL     OW26488   0.084   0.770  14.638 -0.0624  0.1684  0.0306
 5009SOL    HW126489   0.094   0.681  14.604  4.2100  0.7866 -0.3702
 5009SOL    HW226490   0.174   0.799  14.619  0.0942 -0.1607  0.2675
 5010SOL     OW26491   2.925   1.946   8.797  0.1949  0.8137 -0.0275
 5010SOL    HW126492   2.840   1.983   8.819 -0.7144 -2.1857  1.5089
 5010SOL    HW226493   2.936   1.899   8.880 -2.4280  0.2690  0.0010
 5011SOL     OW26494   3.019   4.271  15.811 -0.0895 -0.1393  0.0967
 5011SOL    HW126495   3.094   4.280  15.870 -0.4574 -0.7594  0.6663
 5011SOL    HW226496   3.063   4.276  15.726  1.1728  0.9557  0.8207
 5012SOL     OW26497   3.310   2.844   1.086 -0.4810 -0.5257 -0.1235
 5012SOL    HW126498   3.241   2.828   1.151 -2.2546  0.4822 -1.7900
 5012SOL    HW226499   3.317   2.764   1.034  1.3962 -2.2389  2.7039
 5013SOL     OW26500   3.328   0.092  17.645 -0.1663 -0.2652 -0.2776
 5013SOL    HW126501   3.251   0.048  17.609 -1.3319  2.2706 -0.8215
 5013SOL    HW226502   3.300   0.135   0.032 -2.3663  1.0601 -1.7532
 5014SOL     OW26503   0.798   4.182  13.088  0.0382 -0.4738  0.5722
 5014SOL    HW126504   0.832   4.266  13.119 -2.9100  0.8573  0.2464
 5014SOL    HW226505   0.741   4.200  13.013  0.0019 -1.6126  0.3252
 5015SOL     OW26506   0.897   1.179   3.725 -0.6634  0.7042 -0.2888
 5015SOL    HW126507   0.823   1.237   3.707 -1.1600  0.4722  0.9671
 5015SOL    HW226508   0.962   1.244   3.750  1.1022 -1.0156 -0.4553
 5016SOL     OW26509   4.007   3.484  15.026  0.3862  0.0443  0.1565
 5016SOL    HW126510   3.985   3.505  15.117  0.6992 -1.1680  0.5130
 5016SOL    HW226511   3.946   3.413  15.009 -0.1428  1.1278 -2.5218
 5017SOL     OW26512   0.582   4.510  17.619  0.4339  0.0969 -0.1201
 5017SOL    HW126513   0.494   4.518  17.582  0.3615  0.6750  0.1901
 5017SOL    HW226514   0.606   4.419  17.598  1.1423  0.0201  0.9988
 5018SOL     OW26515   0.483   4.487   4.863 -0.2043 -0.4862  0.1862
 5018SOL    HW126516   0.505   4.568   4.816  0.6124 -1.5157 -1.2010
 5018SOL    HW226517   0.423   4.508   4.934 -1.9910 -1.1426 -1.1139
 5019SOL     OW26518   2.687   4.333  12.260  0.3761  0.3555 -0.0663
 5019SOL    HW126519   2.606   4.296  12.224  0.8689  0.2930 -1.1091
 5019SOL    HW226520   2.660   4.424  12.253  0.6322  0.2385 -2.5511
 5020SOL     OW26521   1.003   0.174  11.703 -0.1323 -0.0293  0.5446
 5020SOL    HW126522   0.953   0.248  11.736 -3.2361 -3.0094  2.6163
 5020SOL    HW226523   1.061   0.161  11.778 -0.9060  0.2102  1.1865
 5021SOL     OW26524   4.450   0.846   2.917 -0.2535  0.3031  0.6286
 5021SOL    HW126525   4.495   0.808   2.992 -1.0981 -2.7561 -0.3912
 5021SOL    HW226526   4.399   0.767   2.898 -1.2867  1.1682 -0.2574
 5022SOL     OW26527   0.036   1.847   5.071  0.2379  0.3643 -0.2029
 5022SOL    HW126528   0.011   1.769   5.120  2.2279  1.0647  1.8931
 5022SOL    HW226529   0.127   1.848   5.100  1.0577  0.1222 -2.7118
 5023SOL     OW26530   0.385   2.571  12.586 -0.3152  0.5389 -0.2579
 5023SOL    HW126531   0.378   2.541  12.677 -2.0515  0.8827 -0.2882
 5023SOL    HW226532   0.429   2.496  12.547 -0.1240  0.6707 -0.2988
 5024SOL     OW26533   1.385   0.160   7.197  0.1202 -0.5764  0.4754
 5024SOL    HW126534   1.447   0.132   7.129  0.5663 -1.5046  1.2560
 5024SOL    HW226535   1.385   0.088   7.261 -0.8284 -0.5122  0.5373
 5025SOL     OW26536   3.321   2.198  10.388  0.0568  0.3412 -0.2665
 5025SOL    HW126537   3.241   2.178  10.436 -0.5515 -0.9647 -1.8225
 5025SOL    HW226538   3.277   2.234  10.311 -0.2112 -3.2151 -1.7397
 5026SOL     OW26539   3.101   1.997  15.049  0.4404 -0.2305  0.3832
 5026SOL    HW126540   3.143   1.911  15.047  0.4001 -0.2347 -0.3166
 5026SOL    HW226541   3.060   1.983  15.134  0.2335  0.1543  0.3476
 5027SOL     OW26542   4.506   1.577   9.556  0.3245 -1.1721  0.1791
 5027SOL    HW126543   4.545   1.650   9.507 -2.2923  0.3441  0.3863
 5027SOL    HW226544   4.421   1.572   9.513  0.3774  2.8004 -0.3453
 5028SOL     OW26545   4.558   1.568  11.535  0.1744  0.4117 -0.0051
 5028SOL    HW126546   4.595   1.567  11.446  1.7631  0.9435  0.6362
 5028SOL    HW226547   4.562   1.659  11.564  4.3745  0.5572 -0.9950
 5029SOL     OW26548   1.591   1.047  16.512  0.2592 -0.0085 -0.4172
 5029SOL    HW126549   1.615   1.002  16.592 -1.4506  0.2932  0.2633
 5029SOL    HW226550   1.593   1.141  16.527 -0.4950  0.2273 -1.7054
 5030SOL     OW26551   2.201   2.373  17.307 -0.9498  0.5368  0.3963
 5030SOL    HW126552   2.121   2.346  17.261  0.1028 -1.2837 -0.3822
 5030SOL    HW226553   2.223   2.450  17.254  1.7527  0.0893  0.9001
 5031SOL     OW26554   3.256   1.446   8.334  0.4362  0.1986  0.5887
 5031SOL    HW126555   3.201   1.518   8.363  2.4836  1.5453  1.1383
 5031SOL    HW226556   3.304   1.487   8.262  1.3799  1.1595  1.7593
 5032SOL     OW26557   4.510   2.752   2.979 -0.5961 -0.8882  0.1265
 5032SOL    HW126558   4.541   2.810   3.047 -1.6309  0.6311 -0.7058
 5032SOL    HW226559   4.463   2.810   2.919  1.8751  2.2724  1.2531
 5033SOL     OW26560   0.413   0.118   4.300 -0.3621  0.0099 -0.1257
 5033SOL    HW126561   0.407   0.040   4.246 -1.4171 -0.9141  1.3090
 5033SOL    HW226562   0.353   0.174   4.250 -0.6075 -0.5436 -0.4526
 5034SOL     OW26563   1.452   3.211   5.669  0.5488 -0.4426 -0.3125
 5034SOL    HW126564   1.375   3.243   5.622 -0.2396 -0.0993  1.1983
 5034SOL    HW226565   1.518   3.229   5.602  0.5373 -0.7817 -0.4136
 5035SOL     OW26566   0.240   0.754  10.581  0.1669  0.3147  0.4418
 5035SOL    HW126567   0.255   0.686  10.647 -0.6498  1.6503  2.0085
 5035SOL    HW226568   0.150   0.749  10.548  0.5635 -0.4314 -0.5359
 5036SOL     OW26569   2.666   0.289   2.613  0.5887  0.0395  0.6116
 5036SOL    HW126570   2.709   0.209   2.584  1.1975  1.5962 -2.7638
 5036SOL    HW226571   2.599   0.292   2.545  1.7031 -0.0436 -0.4948
 5037SOL     OW26572   0.984   2.581  13.480 -0.0510 -0.0571  0.2288
 5037SOL    HW126573   0.965   2.566  13.387  0.7535 -0.3794  0.1148
 5037SOL    HW226574   1.058   2.521  13.489 -0.4043 -0.4009  0.8007
 5038SOL     OW26575   3.705   0.128   5.805  0.5834  0.7547 -0.3419
 5038SOL    HW126576   3.688   0.129   5.899 -0.3242 -1.1171 -0.4918
 5038SOL    HW226577   3.775   0.192   5.791  1.4743 -0.1166  0.1778
 5039SOL     OW26578   2.597   3.612   4.081  0.2020  0.1913 -0.3085
 5039SOL    HW126579   2.579   3.539   4.140  2.6796  1.1435  1.6743
 5039SOL    HW226580   2.677   3.650   4.119 -0.6089  2.2806 -0.6928
 5040SOL     OW26581   2.281   3.192   8.345 -0.1747  0.0137  0.1353
 5040SOL    HW126582   2.200   3.143   8.332  0.8950 -0.7569 -3.6025
 5040SOL    HW226583   2.308   3.161   8.431 -0.0103  1.7767  0.7185
 5041SOL     OW26584   4.313   3.138   6.275  0.1072 -0.0995  0.0177
 5041SOL    HW126585   4.361   3.120   6.356 -1.6711  1.5231  1.4317
 5041SOL    HW226586   4.228   3.156   6.315  0.0073  0.4308 -0.4238
 5042SOL     OW26587   1.948   4.697   9.098  0.8112  0.4358  0.0402
 5042SOL    HW126588   1.969   0.050   9.152  1.3852  1.0427 -1.0550
 5042SOL    HW226589   2.012   4.694   9.027  1.0172  0.2066  0.2370
 5043SOL     OW26590   1.168   0.467   9.889 -0.6390  0.4502  0.0414
 5043SOL    HW126591   1.199   0.396   9.833  0.3660  1.3762 -0.5590
 5043SOL    HW226592   1.201   0.541   9.839  0.3586  1.2481  1.8853
 5044SOL     OW26593   2.444   1.447   1.244  0.3657  0.5498  0.0485
 5044SOL    HW126594   2.429   1.499   1.323  0.0150  0.4234  0.0652
 5044SOL    HW226595   2.486   1.368   1.279  1.8801  0.8930 -0.9772
 5045SOL     OW26596   0.452   1.351  16.046 -0.3480  0.1864 -0.1162
 5045SOL    HW126597   0.377   1.353  15.986 -0.3055  0.0617 -0.1744
 5045SOL    HW226598   0.520   1.383  15.986 -0.0033  0.9209  0.6621
 5046SOL     OW26599   3.293   1.238  10.358  0.0831 -0.2794  0.6131
 5046SOL    HW126600   3.205   1.209  10.331  0.8153 -0.8765 -1.1091
 5046SOL    HW226601   3.271   1.293  10.433  1.5277 -0.1431  0.9316
 5047SOL     OW26602   0.591   0.534   5.233 -0.2805 -0.2905  0.1410
 5047SOL    HW126603   0.500   0.518   5.208 -0.7838  1.4088  0.8577
 5047SOL    HW226604   0.620   0.444   5.220  0.8784 -0.4275  3.7434
 5048SOL     OW26605   4.293   3.761   4.003 -0.3661 -0.1423  0.3117
 5048SOL    HW126606   4.360   3.784   3.938 -0.6299  0.4853  0.2681
 5048SOL    HW226607   4.223   3.746   3.939 -0.4246  0.5363  0.2195
 5049SOL     OW26608   4.691   0.738  10.513  0.3583 -0.4921 -0.2994
 5049SOL    HW126609   4.694   0.830  10.538  1.4737  0.5146 -4.1441
 5049SOL    HW226610   4.601   0.714  10.536 -0.2824 -0.3999 -2.7776
 5050SOL     OW26611   0.016   2.533   7.378  0.0309 -0.6503  0.0612
 5050SOL    HW126612   4.716   2.440   7.382 -2.4849 -0.0657 -0.9873
 5050SOL    HW226613   0.094   2.541   7.433 -0.0918 -1.1352  0.3016
 5051SOL     OW26614   0.852   2.862  15.295  0.4017 -0.6543  0.3238
 5051SOL    HW126615   0.766   2.851  15.255  0.1673 -2.1297  1.2188
 5051SOL    HW226616   0.875   2.769  15.299  2.0839 -0.2877 -0.7253
 5052SOL     OW26617   1.258   0.638  11.267 -0.1193 -0.1675  0.0397
 5052SOL    HW126618   1.196   0.566  11.260 -0.6018  0.2560 -0.0347
 5052SOL    HW226619   1.194   0.693  11.312  1.8966  1.0301  1.4725
 5053SOL     OW26620   3.233   0.902  17.303  0.3677  0.1790  0.0607
 5053SOL    HW126621   3.162   0.840  17.289 -0.1281  0.5437  0.9783
 5053SOL    HW226622   3.246   0.926  17.211 -2.8141 -1.1343 -0.7444
 5054SOL     OW26623   1.051   3.600   0.427  0.2446  0.4484 -0.3757
 5054SOL    HW126624   0.997   3.677   0.440 -1.3868 -0.6955 -0.4559
 5054SOL    HW226625   1.140   3.636   0.419  0.8134 -0.5077  1.6406
 5055SOL     OW26626   2.635   0.969   8.664 -0.0934 -0.1283 -0.4848
 5055SOL    HW126627   2.623   1.057   8.629  1.9269 -0.4838 -2.0958
 5055SOL    HW226628   2.726   0.957   8.636  0.5608 -1.1244  2.0628
 5056SOL     OW26629   4.525   0.226  12.682  0.2955  0.5339  0.0083
 5056SOL    HW126630   4.518   0.159  12.613 -1.2638 -0.6666  1.3292
 5056SOL    HW226631   4.487   0.292  12.624 -0.1557 -0.6554 -1.0708
 5057SOL     OW26632   0.862   3.619   0.787  0.4779  0.0548 -0.0538
 5057SOL    HW126633   0.768   3.624   0.799  0.7460  0.5198  1.8030
 5057SOL    HW226634   0.885   3.711   0.773  0.0886  0.2100  0.3309
 5058SOL     OW26635   1.482   2.008   4.550  0.1911  0.3882  0.4164
 5058SOL    HW126636   1.535   2.002   4.471 -0.8334  0.4925 -0.2830
 5058SOL    HW226637   1.393   1.984   4.524  0.6806  1.0137 -1.8550
 5059SOL     OW26638   2.660   0.354  12.896 -0.0382  0.0282 -0.4820
 5059SOL    HW126639   2.610   0.388  12.822 -2.2222 -1.0293  0.5051
 5059SOL    HW226640   2.716   0.284  12.862 -0.1107 -0.9579  1.4176
 5060SOL     OW26641   2.092   3.476  16.875 -0.1883 -0.3457 -0.1558
 5060SOL    HW126642   2.032   3.548  16.891 -2.3233 -2.1528 -0.0406
 5060SOL    HW226643   2.128   3.492  16.787 -1.4724  0.3829 -0.5399
 5061SOL     OW26644   2.907   2.652   2.389 -0.3155  0.1351  0.3265
 5061SOL    HW126645   2.981   2.700   2.426 -0.3112  0.4165 -0.0464
 5061SOL    HW226646   2.961   2.577   2.365  2.0233  2.1378 -0.6006
 5062SOL     OW26647   3.135   3.846   4.572 -0.1246  0.0854  0.3166
 5062SOL    HW126648   3.219   3.888   4.552 -0.5134  0.2226 -1.0317
 5062SOL    HW226649   3.081   3.883   4.503  1.7430  1.2273 -0.5401
 5063SOL     OW26650   4.557   3.591   2.573  0.2140 -0.8669 -0.0578
 5063SOL    HW126651   4.578   3.523   2.509 -1.8647 -1.0734 -0.5142
 5063SOL    HW226652   4.549   3.665   2.513  3.4255 -0.9511 -0.6059
 5064SOL     OW26653   2.526   4.236   3.125  0.2134  0.3483  0.0059
 5064SOL    HW126654   2.497   4.227   3.216 -1.7071  0.1767 -0.6127
 5064SOL    HW226655   2.508   4.148   3.091  1.2893  0.3413 -0.5242
 5065SOL     OW26656   1.460   4.278  10.295  0.1375  0.3002  0.6804
 5065SOL    HW126657   1.549   4.250  10.273 -0.4028 -1.5417  0.7937
 5065SOL    HW226658   1.473   4.365  10.332  1.5335  0.6180 -0.5569
 5066SOL     OW26659   3.907   2.639   7.698 -0.4881 -0.4640  0.1905
 5066SOL    HW126660   3.992   2.669   7.729  0.1624 -0.4358 -1.5805
 5066SOL    HW226661   3.902   2.544   7.709  0.0870 -0.6409 -1.0172
 5067SOL     OW26662   3.931   1.521   8.179 -0.4247  0.1534 -0.1566
 5067SOL    HW126663   4.007   1.477   8.217 -0.0182 -0.7196 -1.9508
 5067SOL    HW226664   3.865   1.512   8.247 -0.0774 -2.1612 -0.1279
 5068SOL     OW26665   2.667   0.556   4.394  0.4287 -0.2536 -0.1758
 5068SOL    HW126666   2.719   0.632   4.366  0.9971  0.0048  1.5780
 5068SOL    HW226667   2.650   0.573   4.486  0.2116  1.9640 -0.6176
 5069SOL     OW26668   0.719   0.423   0.483  0.5746  0.2273 -0.0960
 5069SOL    HW126669   0.759   0.494   0.434  0.1639  0.3628 -0.2358
 5069SOL    HW226670   0.634   0.458   0.508  0.5502  0.5953 -0.7016
 5070SOL     OW26671   0.678   0.624   2.196 -0.6823 -0.6596  0.2583
 5070SOL    HW126672   0.758   0.582   2.167 -0.3037  0.3121 -0.1169
 5070SOL    HW226673   0.631   0.614   2.113  3.2024 -2.4849 -1.6822
 5071SOL     OW26674   3.694   0.960   9.885  0.8861 -0.3336  0.0467
 5071SOL    HW126675   3.683   1.008   9.968  1.2773  1.3544 -0.8843
 5071SOL    HW226676   3.664   0.871   9.906 -0.4992  0.3117  0.8875
 5072SOL     OW26677   3.700   2.750   7.177  0.2039 -0.0801  0.7328
 5072SOL    HW126678   3.785   2.791   7.164 -0.9101  1.8897 -0.4095
 5072SOL    HW226679   3.656   2.783   7.098  0.6387 -0.1815  0.4500
 5073SOL     OW26680   1.065   3.842  11.784  0.1804  0.4828  0.1938
 5073SOL    HW126681   1.018   3.900  11.724 -0.2123 -0.6116 -0.5550
 5073SOL    HW226682   1.154   3.845  11.748 -0.8996 -0.9422 -2.6133
 5074SOL     OW26683   0.845   4.459   2.658 -0.1600 -0.5447 -0.0297
 5074SOL    HW126684   0.824   4.534   2.604  0.5214 -1.0084 -0.9377
 5074SOL    HW226685   0.754   4.435   2.677 -0.0616 -1.3229 -0.5493
 5075SOL     OW26686   2.053   3.985   2.953 -0.5270 -0.3776 -0.4275
 5075SOL    HW126687   2.060   3.952   2.863  3.4204  0.2061 -0.3431
 5075SOL    HW226688   1.958   3.993   2.960 -0.5275  1.8969 -2.9908
 5076SOL     OW26689   1.171   3.545   8.829  0.4310 -0.3734 -0.1121
 5076SOL    HW126690   1.263   3.544   8.854  0.5217 -2.1687 -0.5248
 5076SOL    HW226691   1.128   3.590   8.902  0.5965 -0.0498 -0.2167
 5077SOL     OW26692   1.516   3.475   0.478  0.3209  0.1155 -0.2949
 5077SOL    HW126693   1.606   3.502   0.464 -0.2163  2.3856  0.6226
 5077SOL    HW226694   1.463   3.533   0.422  3.1543  0.7093 -2.3364
 5078SOL     OW26695   1.064   1.566   2.624 -0.3481  0.4624 -0.0517
 5078SOL    HW126696   1.089   1.534   2.711 -0.4344 -0.2922 -0.3101
 5078SOL    HW226697   1.154   1.565   2.591 -0.8604  0.9796 -1.4689
 5079SOL     OW26698   1.979   0.653   0.261 -0.3950 -0.1917  0.0380
 5079SOL    HW126699   1.954   0.731   0.212 -0.5157 -1.9206 -2.5958
 5079SOL    HW226700   1.989   0.586   0.194 -1.4613 -0.3142  0.0058
 5080SOL     OW26701   0.264   1.161   0.474 -0.0345 -0.7134 -0.2349
 5080SOL    HW126702   0.288   1.107   0.549 -0.0071 -0.9944 -0.4458
 5080SOL    HW226703   0.335   1.148   0.411  1.6155 -0.6301  1.5903
 5081SOL     OW26704   0.550   0.549   8.340  0.1809 -0.2132 -0.0216
 5081SOL    HW126705   0.598   0.632   8.329 -0.5802  0.3069  0.5576
 5081SOL    HW226706   0.537   0.544   8.435  1.9058  0.9545  0.2830
 5082SOL     OW26707   4.454   4.667   6.460  0.1690 -0.1658 -0.1640
 5082SOL    HW126708   4.493   4.650   6.546  0.7317 -2.3152 -0.8270
 5082SOL    HW226709   4.361   4.675   6.481  0.0875 -0.9966 -0.1995
 5083SOL     OW26710   2.604   1.490   9.859  0.0522  0.1645 -0.4401
 5083SOL    HW126711   2.623   1.397   9.844 -0.2721  0.3023 -1.7703
 5083SOL    HW226712   2.578   1.515   9.770 -1.9676 -0.4462 -0.0238
 5084SOL     OW26713   1.493   2.354   2.333  0.4008  0.6034  0.2840
 5084SOL    HW126714   1.567   2.413   2.319  0.4613  0.5162  0.2344
 5084SOL    HW226715   1.500   2.287   2.265 -0.9429  2.3804 -1.5635
 5085SOL     OW26716   3.548   0.146   6.913 -0.1084  0.0352 -0.4789
 5085SOL    HW126717   3.495   0.224   6.900 -1.9043 -1.4881 -2.3434
 5085SOL    HW226718   3.516   0.126   7.001 -1.1283  1.4388 -0.5433
 5086SOL     OW26719   2.509   1.792   1.746 -0.5386 -0.0848 -0.4333
 5086SOL    HW126720   2.579   1.823   1.688 -0.5258  1.5390  0.4756
 5086SOL    HW226721   2.537   1.701   1.731 -3.5017 -0.9601 -0.6985
 5087SOL     OW26722   2.249   1.293   0.660 -0.0592 -0.0922  0.0395
 5087SOL    HW126723   2.224   1.201   0.662  1.6524 -0.5074  2.0529
 5087SOL    HW226724   2.323   1.283   0.720 -1.2677 -1.2797  1.3307
 5088SOL     OW26725   2.483   3.779   3.903 -0.3816  0.0786 -0.4881
 5088SOL    HW126726   2.505   3.738   3.987 -0.3847  2.6242  0.7610
 5088SOL    HW226727   2.563   3.822   3.873  0.0284  1.9127  3.1295
 5089SOL     OW26728   2.630   1.196   7.071 -0.6221  0.0202  0.7736
 5089SOL    HW126729   2.634   1.160   6.983 -2.8590  1.6168  0.0096
 5089SOL    HW226730   2.659   1.286   7.059  2.0512 -1.0949 -1.0174
 5090SOL     OW26731   0.199   2.067   0.848  0.3221  0.4923 -0.3452
 5090SOL    HW126732   0.279   2.021   0.825 -0.2367 -0.5870 -0.1199
 5090SOL    HW226733   0.153   2.050   0.765 -0.3938 -1.9629  0.5604
 5091SOL     OW26734   0.973   4.101   6.203 -0.0915 -0.3654  0.0097
 5091SOL    HW126735   0.999   4.009   6.206  0.5125 -0.1860  0.2360
 5091SOL    HW226736   0.972   4.118   6.297  2.3091 -1.8025  0.3043
 5092SOL     OW26737   3.120   4.687  17.539  0.5539 -0.2479 -0.1417
 5092SOL    HW126738   3.080   4.613  17.493 -0.6851  0.4034 -0.1266
 5092SOL    HW226739   3.063   4.702  17.615 -1.0116 -4.5908 -0.4040
 5093SOL     OW26740   2.320   0.619  14.668 -0.1720  0.0326 -0.8790
 5093SOL    HW126741   2.268   0.652  14.741  1.0974 -0.0751  0.0819
 5093SOL    HW226742   2.250   0.604  14.605 -1.4643  0.0252  0.5788
 5094SOL     OW26743   2.615   4.377   1.736 -0.5518  0.0446 -0.6867
 5094SOL    HW126744   2.663   4.448   1.777  1.0571 -0.2033 -2.1589
 5094SOL    HW226745   2.669   4.305   1.769 -1.3881  0.3217  1.3153
 5095SOL     OW26746   4.563   4.243   3.026 -0.8857 -0.5629 -0.0716
 5095SOL    HW126747   4.499   4.308   2.996  2.5895  2.9189  0.0041
 5095SOL    HW226748   4.546   4.248   3.120 -1.9422 -1.4361 -0.2194
 5096SOL     OW26749   2.391   0.808   6.127  0.3592 -0.0753 -0.2280
 5096SOL    HW126750   2.315   0.823   6.070 -0.2741 -2.9739 -0.1097
 5096SOL    HW226751   2.441   0.883   6.092  0.4561  1.1679  2.6104
 5097SOL     OW26752   4.669   2.059  17.657  0.0565  0.1625  0.4433
 5097SOL    HW126753   4.702   1.970  17.670  0.2322  0.4776  2.2206
 5097SOL    HW226754   4.654   2.078  17.565  2.7350 -2.5036 -0.5363
 5098SOL     OW26755   1.039   4.069   6.697  0.1612 -0.0688 -0.4231
 5098SOL    HW126756   1.074   4.148   6.737  0.8572 -0.6843  0.1890
 5098SOL    HW226757   0.984   4.020   6.757  1.6220  1.4066  2.1096
 5099SOL     OW26758   2.500   0.187   8.046 -0.1214  0.0034  0.0978
 5099SOL    HW126759   2.480   0.248   7.975  1.6495  1.5046  0.8801
 5099SOL    HW226760   2.543   0.246   8.108  0.3673  2.1497 -2.2937
 5100SOL     OW26761   1.036   2.148   5.688  0.5070  0.2455 -0.1016
 5100SOL    HW126762   1.107   2.153   5.625 -0.6183 -4.1825 -1.7011
 5100SOL    HW226763   1.002   2.237   5.680  2.3804  0.9648  0.1419
 5101SOL     OW26764   1.826   3.727   8.110  0.2581 -0.0543  0.3291
 5101SOL    HW126765   1.884   3.801   8.091  1.2886 -1.2824 -1.3125
 5101SOL    HW226766   1.879   3.681   8.175 -2.2850  0.3863  2.7133
 5102SOL     OW26767   3.561   4.133   6.108  0.2709  0.4393 -0.4601
 5102SOL    HW126768   3.579   4.107   6.198 -0.9083  1.8954  0.2068
 5102SOL    HW226769   3.472   4.167   6.122  0.9028  1.3931  1.2744
 5103SOL     OW26770   3.535   3.347   0.410 -0.3593 -0.0078  0.0099
 5103SOL    HW126771   3.477   3.290   0.360  2.3131 -2.7534  0.0971
 5103SOL    HW226772   3.485   3.426   0.387  0.8234  0.1862 -1.9219
 5104SOL     OW26773   2.652   1.542  16.415  0.3201 -0.6715 -0.3951
 5104SOL    HW126774   2.708   1.468  16.393  0.7720 -0.4095 -0.1305
 5104SOL    HW226775   2.605   1.513  16.494  2.4540 -1.1174  0.7049
 5105SOL     OW26776   2.524   2.489   9.019 -0.5547  0.3763  0.3722
 5105SOL    HW126777   2.431   2.467   9.016 -0.6061  0.4769  1.3201
 5105SOL    HW226778   2.567   2.405   9.002 -1.0677 -0.2743  2.2819
 5106SOL     OW26779   0.655   4.365   1.536 -0.0342 -0.1620  0.0276
 5106SOL    HW126780   0.636   4.446   1.583  0.3865 -0.0883  0.0736
 5106SOL    HW226781   0.612   4.294   1.583  1.4749  0.3824  2.2246
 5107SOL     OW26782   4.067   4.072   5.984  0.1742  0.1319 -0.0670
 5107SOL    HW126783   4.011   4.120   6.045 -0.6095  1.3331 -1.7335
 5107SOL    HW226784   4.026   3.986   5.984 -1.5249  0.9365 -2.7120
 5108SOL     OW26785   3.395   2.242   7.482  0.1219 -0.2359 -0.2431
 5108SOL    HW126786   3.399   2.176   7.551  0.3207  0.8469  0.8043
 5108SOL    HW226787   3.338   2.312   7.516 -1.7705 -1.1559 -1.5150
 5109SOL     OW26788   2.019   3.232  17.099  0.1940 -0.0314  0.1194
 5109SOL    HW126789   2.050   3.280  17.175  3.4503 -0.8818 -0.6949
 5109SOL    HW226790   1.975   3.309  17.062  0.4893  0.2267  0.3142
 5110SOL     OW26791   3.371   1.544   4.942 -0.0718 -0.3678  0.1492
 5110SOL    HW126792   3.281   1.515   4.931 -0.4234  0.0051  2.0410
 5110SOL    HW226793   3.383   1.626   4.894  1.5474 -0.7824 -0.1749
 5111SOL     OW26794   4.635   1.360   3.427  0.4418  0.6526  0.0649
 5111SOL    HW126795   4.615   1.299   3.498  0.6243  0.0728 -0.3790
 5111SOL    HW226796   4.708   1.410   3.463  0.7364 -0.3038  0.8171
 5112SOL     OW26797   3.102   2.046  10.435 -0.2267  0.5366 -0.4020
 5112SOL    HW126798   3.122   1.988  10.507  1.8718  0.4454 -1.0789
 5112SOL    HW226799   3.096   1.988  10.359  1.2196  1.9776 -1.6047
 5113SOL     OW26800   4.110   1.589  13.709 -0.2885 -0.4799 -0.6277
 5113SOL    HW126801   4.144   1.589  13.619  0.1616  0.6755 -0.4637
 5113SOL    HW226802   4.097   1.494  13.712 -0.2589 -0.4236  1.3103
 5114SOL     OW26803   4.542   2.942   5.530 -0.5256 -0.0096  0.5292
 5114SOL    HW126804   4.580   2.879   5.469  0.2650  0.6215  0.3637
 5114SOL    HW226805   4.587   3.025   5.512  1.8912 -1.9529 -2.3034
 5115SOL     OW26806   1.577   2.682   6.460 -0.1629 -0.1866 -0.1647
 5115SOL    HW126807   1.629   2.652   6.386 -2.8035 -2.4299 -1.0825
 5115SOL    HW226808   1.501   2.625   6.452  0.0942 -0.6669  0.8254
 5116SOL     OW26809   0.112   4.013   3.836  0.8353  0.1975  0.2673
 5116SOL    HW126810   0.108   4.102   3.870 -0.9983  0.5282 -0.8303
 5116SOL    HW226811   0.035   3.973   3.877  0.6920 -0.4894 -0.6749
 5117SOL     OW26812   1.484   3.237   6.077 -0.6148  0.8661  0.2319
 5117SOL    HW126813   1.528   3.294   6.140  1.7283 -2.1458  1.3274
 5117SOL    HW226814   1.471   3.298   6.004 -0.5144 -1.5756 -1.8454
 5118SOL     OW26815   4.688   2.001   5.613 -0.0552  0.4027 -0.1039
 5118SOL    HW126816   4.664   2.002   5.520  0.3384 -1.6215 -0.2327
 5118SOL    HW226817   4.651   2.081   5.650 -1.7000  0.0150 -0.8797
 5119SOL     OW26818   1.074   0.198   9.217  0.0062  0.5840  0.0699
 5119SOL    HW126819   1.036   0.147   9.288  0.5234 -0.0276 -0.0907
 5119SOL    HW226820   1.072   0.128   9.152  1.8700 -0.1021  0.7466
 5120SOL     OW26821   3.406   3.451   2.319 -0.2463  0.5172  0.0313
 5120SOL    HW126822   3.357   3.391   2.375  1.8221 -1.8167 -0.6326
 5120SOL    HW226823   3.490   3.405   2.319 -1.4730 -1.7131 -0.2638
 5121SOL     OW26824   3.976   1.473  12.591 -0.0390  0.2749 -0.2422
 5121SOL    HW126825   4.062   1.457  12.630 -1.2542 -1.1728  1.8358
 5121SOL    HW226826   3.939   1.386  12.605  1.5913 -0.5423 -0.9708
 5122SOL     OW26827   0.901   2.885   5.557 -0.0912 -0.6171 -0.2275
 5122SOL    HW126828   0.808   2.875   5.574  0.0612 -2.2501 -0.3498
 5122SOL    HW226829   0.948   2.877   5.641 -0.2230  1.4387  0.0261
 5123SOL     OW26830   1.894   1.561   7.216  0.3708  0.1380 -0.0294
 5123SOL    HW126831   1.969   1.586   7.270  0.8046 -0.0192 -0.5589
 5123SOL    HW226832   1.942   1.506   7.154 -3.1319 -2.1960 -0.6871
 5124SOL     OW26833   1.600   2.678   3.750  0.3754 -0.3062  0.4024
 5124SOL    HW126834   1.518   2.629   3.757  0.0582 -0.1322 -2.1791
 5124SOL    HW226835   1.638   2.634   3.674 -2.5293 -0.1557 -1.1433
 5125SOL     OW26836   2.930   3.064   8.272 -0.0821  0.4640 -0.0140
 5125SOL    HW126837   2.854   3.028   8.317  0.5919 -0.3585  0.4697
 5125SOL    HW226838   2.973   3.112   8.343 -1.6089 -0.2796  1.4064
 5126SOL     OW26839   2.604   0.398   1.703  0.3336  0.0467  0.0294
 5126SOL    HW126840   2.515   0.428   1.722 -0.1038 -0.5391 -1.0815
 5126SOL    HW226841   2.566   0.369   1.620 -0.3589  0.3697  0.2329
 5127SOL     OW26842   4.317   4.097   5.911  0.7006 -0.4592 -0.0223
 5127SOL    HW126843   4.233   4.132   5.941  0.3608 -2.8598  1.8424
 5127SOL    HW226844   4.378   4.141   5.970 -0.0688 -0.9122  1.1252
 5128SOL     OW26845   4.390   4.650   4.117  0.2606  0.6051 -0.1913
 5128SOL    HW126846   4.416   0.009   4.159  1.1010  0.4298 -0.3753
 5128SOL    HW226847   4.324   4.616   4.178  1.2281 -0.5445  0.2188
 5129SOL     OW26848   2.214   1.353   9.237 -0.0496 -0.0278 -0.3913
 5129SOL    HW126849   2.223   1.355   9.141  1.8998  0.6911 -0.2099
 5129SOL    HW226850   2.177   1.266   9.252  0.7367 -0.5850 -1.5716
 5130SOL     OW26851   1.221   2.175   7.370 -0.4618 -0.5219 -0.5316
 5130SOL    HW126852   1.252   2.204   7.456 -0.2147  0.0612 -0.8179
 5130SOL    HW226853   1.153   2.238   7.347  0.2571  0.5160  0.2004
 5131SOL     OW26854   1.637   2.347   4.385 -0.1933 -0.0187  0.4494
 5131SOL    HW126855   1.708   2.288   4.413  1.2459  1.0582 -0.9029
 5131SOL    HW226856   1.649   2.344   4.290 -1.7652  0.3796  0.2450
 5132SOL     OW26857   3.672   2.873  14.285 -0.6743 -0.0064  0.0505
 5132SOL    HW126858   3.736   2.854  14.353  1.2155  2.3723 -1.0572
 5132SOL    HW226859   3.646   2.781  14.274 -0.5039  0.3487 -3.4064
 5133SOL     OW26860   3.323   3.590  14.016  0.1225 -1.0013 -0.3133
 5133SOL    HW126861   3.291   3.644  14.089 -1.9067 -0.9562 -1.2472
 5133SOL    HW226862   3.414   3.615  14.032  0.0275 -0.4943 -0.5745
 5134SOL     OW26863   0.302   1.681   3.992  0.4911  0.3561  0.0265
 5134SOL    HW126864   0.388   1.642   4.007  0.7491  1.0351  0.3062
 5134SOL    HW226865   0.330   1.752   3.934 -0.2226  1.5084  1.0921
 5135SOL     OW26866   2.733   3.721  11.428 -0.4682 -0.1978  0.1324
 5135SOL    HW126867   2.783   3.784  11.478  2.4877 -0.6527 -2.2261
 5135SOL    HW226868   2.649   3.734  11.471 -0.5390 -0.6190  0.1243
 5136SOL     OW26869   1.854   0.334   9.507  1.0649 -0.2908 -0.5614
 5136SOL    HW126870   1.930   0.369   9.552  0.4910  1.2473 -0.7728
 5136SOL    HW226871   1.800   0.308   9.581  1.3694 -1.3430 -0.7061
 5137SOL     OW26872   1.045   3.831   2.083  0.0675 -0.5293  0.4378
 5137SOL    HW126873   1.080   3.766   2.022  0.7257  0.3947 -0.1524
 5137SOL    HW226874   1.011   3.897   2.023 -0.7799 -1.3665 -0.0070
 5138SOL     OW26875   3.460   3.606   8.107 -0.1900 -0.2810 -0.5371
 5138SOL    HW126876   3.555   3.599   8.115 -0.4226 -0.8347  1.8638
 5138SOL    HW226877   3.443   3.652   8.025  1.0895  0.6121 -0.3081
 5139SOL     OW26878   3.687   4.105   5.562 -0.5945  0.3042  0.0834
 5139SOL    HW126879   3.682   4.038   5.494  0.0457 -1.3266  1.6451
 5139SOL    HW226880   3.620   4.069   5.620 -1.3442  1.2809 -0.1722
 5140SOL     OW26881   0.873   2.042   1.883  0.5938  0.1031 -0.4188
 5140SOL    HW126882   0.799   1.981   1.890  1.4708 -0.8738  0.3757
 5140SOL    HW226883   0.842   2.097   1.812  0.6508  2.9546  1.7660
 5141SOL     OW26884   3.624   3.780   4.042  0.4410  0.0653  0.0755
 5141SOL    HW126885   3.563   3.852   4.023  1.8627  1.1881 -0.2588
 5141SOL    HW226886   3.589   3.701   4.000  0.4254  1.4710 -2.5421
 5142SOL     OW26887   2.124   2.193  13.042  1.0457  0.1169  0.4785
 5142SOL    HW126888   2.098   2.274  12.998  1.1897  0.3839  0.8845
 5142SOL    HW226889   2.145   2.147  12.961  0.0639 -0.9036  0.8034
 5143SOL     OW26890   3.318   3.018   7.377 -0.0136 -0.1713  0.1961
 5143SOL    HW126891   3.369   2.958   7.323  1.3001  0.1613  1.0609
 5143SOL    HW226892   3.338   2.975   7.461  2.4872  1.5461  0.4786
 5144SOL     OW26893   3.986   0.366   3.579  0.2995  0.3036 -0.4529
 5144SOL    HW126894   3.991   0.461   3.588 -0.1482  0.4702 -2.0254
 5144SOL    HW226895   3.938   0.348   3.498  0.7446  0.3545 -0.7239
 5145SOL     OW26896   3.549   3.207   5.699  0.2740  0.4064  0.3011
 5145SOL    HW126897   3.527   3.160   5.619 -1.3959 -0.6848  1.3891
 5145SOL    HW226898   3.546   3.129   5.755  0.0228  0.3606  0.2244
 5146SOL     OW26899   2.101   4.721   6.931 -0.4365  0.1288  0.1320
 5146SOL    HW126900   2.158   0.065   6.892 -0.2619 -0.4202 -0.5661
 5146SOL    HW226901   2.167   4.657   6.957 -1.4157 -1.4521 -1.3055
 5147SOL     OW26902   4.685   3.258   0.068  0.1143  0.4572  0.4230
 5147SOL    HW126903   4.612   3.197   0.054  2.0597 -1.9928  0.9182
 5147SOL    HW226904   4.648   3.308   0.141 -1.0148 -1.1097  0.9227
 5148SOL     OW26905   1.010   1.599   0.352 -0.1485 -0.0016 -0.0713
 5148SOL    HW126906   1.033   1.524   0.407  1.4280  0.8556  0.4485
 5148SOL    HW226907   1.030   1.668   0.415 -1.5729  1.1634 -0.9171
 5149SOL     OW26908   4.341   0.944   6.204 -0.0935 -0.1579  0.1584
 5149SOL    HW126909   4.324   1.019   6.261 -2.6166 -0.6644  0.0633
 5149SOL    HW226910   4.328   0.975   6.114  3.8639  1.5542  0.1363
 5150SOL     OW26911   3.754   2.750  11.497 -0.6359  0.1212  0.2136
 5150SOL    HW126912   3.678   2.798  11.463 -1.5834 -0.4171  1.5650
 5150SOL    HW226913   3.709   2.671  11.528  0.5928 -0.0662  1.4953
 5151SOL     OW26914   3.666   4.590   6.738 -0.1779  0.6103  0.1604
 5151SOL    HW126915   3.617   4.650   6.681 -0.4706  1.1669  1.0079
 5151SOL    HW226916   3.604   4.577   6.809 -0.7078  0.9883 -0.2292
 5152SOL     OW26917   1.110   0.529   6.321  0.1588 -0.2836  0.1216
 5152SOL    HW126918   1.195   0.510   6.283  0.2317 -2.6521  1.4920
 5152SOL    HW226919   1.135   0.520   6.413  3.4857  0.5840 -0.6891
 5153SOL     OW26920   2.748   1.341   5.667 -0.0344 -0.2574 -0.4863
 5153SOL    HW126921   2.778   1.396   5.595  0.3207 -1.7649 -1.4818
 5153SOL    HW226922   2.662   1.310   5.638 -1.2447  0.9313  1.7484
 5154SOL     OW26923   1.377   4.681   7.411  0.4990  0.2128 -0.2720
 5154SOL    HW126924   1.369   0.014   7.488 -1.4376  1.1765 -1.1614
 5154SOL    HW226925   1.330   4.600   7.429  1.8600 -0.7590 -1.0207
 5155SOL     OW26926   1.969   0.681   1.091  0.8179  0.3030 -0.4075
 5155SOL    HW126927   2.042   0.726   1.048 -0.9758  0.6769 -3.0503
 5155SOL    HW226928   1.985   0.696   1.184  0.4614  0.0419 -0.3057
 5156SOL     OW26929   0.287   2.830   2.934  0.3343  0.7748  0.3651
 5156SOL    HW126930   0.192   2.827   2.939  0.4921 -1.5890  1.9207
 5156SOL    HW226931   0.318   2.899   2.994  0.8466 -1.0001  2.1293
 5157SOL     OW26932   1.035   4.296   8.266 -0.3163 -0.4565 -0.7264
 5157SOL    HW126933   1.005   4.366   8.323 -0.3618 -0.7396 -0.4021
 5157SOL    HW226934   1.098   4.342   8.211 -0.2354  0.1057 -0.1632
 5158SOL     OW26935   0.930   2.030   6.996  0.3836  0.1251 -0.5055
 5158SOL    HW126936   0.876   2.060   7.069 -1.0809  1.8416 -2.2867
 5158SOL    HW226937   1.005   2.002   7.049 -1.6035 -1.4630  1.4387
 5159SOL     OW26938   3.531   0.762   7.415  0.4846  0.5182  0.2048
 5159SOL    HW126939   3.599   0.823   7.443  0.6435 -0.0957  1.1386
 5159SOL    HW226940   3.528   0.800   7.327 -1.1171 -1.3863 -0.5801
 5160SOL     OW26941   1.352   2.407  16.167 -0.0940 -0.2509  0.0426
 5160SOL    HW126942   1.411   2.340  16.201  0.5082  0.0015 -0.4830
 5160SOL    HW226943   1.322   2.453  16.245 -1.3396 -0.9894 -0.0116
 5161SOL     OW26944   3.192   2.254   8.318 -0.8461  0.4541 -0.1457
 5161SOL    HW126945   3.165   2.346   8.318 -0.6842  0.4985 -1.7607
 5161SOL    HW226946   3.112   2.204   8.301 -1.1165  0.2577  1.7278
 5162SOL     OW26947   2.196   0.444   4.004  0.4430  0.2029  0.3449
 5162SOL    HW126948   2.174   0.473   3.916  1.2644  1.1537  0.4500
 5162SOL    HW226949   2.136   0.489   4.062 -0.5157  1.3717 -1.5695
 5163SOL     OW26950   2.629   0.587   4.963  0.6030  0.5558 -0.0486
 5163SOL    HW126951   2.542   0.565   4.930  1.2020 -0.1217 -1.1600
 5163SOL    HW226952   2.627   0.549   5.051 -0.6544  0.7365  0.0091
 5164SOL     OW26953   2.305   2.130   4.230 -0.0138 -0.0533 -0.0237
 5164SOL    HW126954   2.221   2.084   4.226  0.9807 -1.6871 -1.7274
 5164SOL    HW226955   2.325   2.124   4.137 -0.6744 -1.0681 -0.1008
 5165SOL     OW26956   3.518   1.775   4.120  0.3857 -0.3020 -0.4368
 5165SOL    HW126957   3.443   1.829   4.145 -0.6251 -2.7998  1.9872
 5165SOL    HW226958   3.569   1.840   4.071  1.7784 -0.8631  0.2466
 5166SOL     OW26959   1.656   0.672   6.297  0.0092 -0.2654 -0.0625
 5166SOL    HW126960   1.566   0.644   6.279  0.1074 -0.6268  0.0269
 5166SOL    HW226961   1.659   0.764   6.268 -0.5522 -0.5049 -0.8934
 5167SOL     OW26962   2.724   0.771  10.640  0.1091 -0.1483 -0.0025
 5167SOL    HW126963   2.647   0.788  10.586  0.3341  0.1944 -0.2207
 5167SOL    HW226964   2.691   0.803  10.724  1.5737  0.9956  0.1522
 5168SOL     OW26965   1.848   0.577   4.070 -0.7420 -0.2300  0.2667
 5168SOL    HW126966   1.937   0.594   4.101  0.8084 -2.7833 -2.6890
 5168SOL    HW226967   1.809   0.519   4.135  0.6752 -1.0895  0.3638
 5169SOL     OW26968   1.261   0.520   4.130 -0.1436  0.0230 -0.1185
 5169SOL    HW126969   1.210   0.574   4.069 -1.8032  0.1134  1.3554
 5169SOL    HW226970   1.243   0.426   4.126  0.2325 -0.1693  2.4358
 5170SOL     OW26971   4.339   2.747   7.239 -0.1079  0.3463  0.3051
 5170SOL    HW126972   4.397   2.774   7.311  1.4391 -1.1671 -0.3833
 5170SOL    HW226973   4.389   2.764   7.160 -0.1916  0.5180  0.2876
 5171SOL     OW26974   1.056   0.427  13.017 -0.2370 -0.3164 -0.2031
 5171SOL    HW126975   1.101   0.369  12.956  0.0651  0.3597 -0.6291
 5171SOL    HW226976   1.114   0.503  13.018 -1.8764  1.0118 -4.9281
 5172SOL     OW26977   4.690   1.944   5.999 -0.0079  0.7598  0.0857
 5172SOL    HW126978   4.621   2.008   6.015 -0.3768  0.9482 -2.2651
 5172SOL    HW226979   4.705   1.952   5.905 -0.3849 -1.1936 -0.1346
 5173SOL     OW26980   1.944   4.326   1.511 -0.4811  0.4493  0.4980
 5173SOL    HW126981   1.888   4.264   1.558  0.9818 -0.9653  0.3835
 5173SOL    HW226982   2.009   4.258   1.492 -0.4539  1.4416 -2.8561
 5174SOL     OW26983   3.495   1.225   4.560 -0.9285  0.0314  0.2578
 5174SOL    HW126984   3.456   1.147   4.597  0.7497 -0.3019  1.3475
 5174SOL    HW226985   3.517   1.269   4.642  2.2911  0.5764 -0.8673
 5175SOL     OW26986   1.011   0.996   1.502  0.3033 -0.4048 -0.0592
 5175SOL    HW126987   0.935   0.962   1.456 -0.9811 -0.1464  1.8761
 5175SOL    HW226988   1.082   0.966   1.445 -0.1988 -1.2637 -0.2293
 5176SOL     OW26989   4.676   1.028  13.109  0.3370 -0.5345 -0.0939
 5176SOL    HW126990   4.694   0.952  13.054  1.8826 -1.0898  1.1998
 5176SOL    HW226991   4.682   0.992  13.197  0.5679  0.1323  0.1610
 5177SOL     OW26992   0.282   4.259   9.411  0.4394 -0.1581 -0.4620
 5177SOL    HW126993   0.254   4.247   9.320  1.0397  0.2247 -0.6955
 5177SOL    HW226994   0.260   4.352   9.411 -0.8575 -0.4526 -0.5067
 5178SOL     OW26995   0.551   0.397   3.004 -0.3786  0.0391 -0.5646
 5178SOL    HW126996   0.578   0.351   3.084 -1.1246  1.6162  0.6087
 5178SOL    HW226997   0.632   0.448   2.994 -0.3639  0.4083  1.3665
 5179SOL     OW26998   4.513   3.249   4.893 -0.3176 -0.1902 -0.5089
 5179SOL    HW126999   4.601   3.224   4.867 -0.0234  0.9382 -0.6172
 5179SOL    HW227000   4.466   3.176   4.854  0.3848 -0.8088 -0.1908
 5180SOL     OW27001   4.718   2.255   8.300  0.1417 -0.3389 -0.7810
 5180SOL    HW127002   0.035   2.171   8.324  1.4922  1.1272  2.0675
 5180SOL    HW227003   4.669   2.233   8.221 -1.3098  1.5827 -0.4147
 5181SOL     OW27004   1.684   2.998  12.516  0.5614 -0.4078 -0.4495
 5181SOL    HW127005   1.734   3.076  12.491  2.0775 -0.6633  1.8007
 5181SOL    HW227006   1.721   2.946  12.445  0.4822 -0.5997 -0.3509
 5182SOL     OW27007   4.302   3.575   4.664  0.1675  0.2941 -0.4432
 5182SOL    HW127008   4.332   3.544   4.579 -0.9311 -1.0499 -0.3310
 5182SOL    HW227009   4.271   3.661   4.635 -1.0707  0.7422  2.2084
 5183SOL     OW27010   3.817   1.563   3.888  0.1177  0.2490  0.0037
 5183SOL    HW127011   3.729   1.599   3.889 -0.9401 -2.3342 -0.5315
 5183SOL    HW227012   3.799   1.487   3.832 -0.3893  1.7688 -1.8523
 5184SOL     OW27013   4.696   3.543   8.702  0.4112  0.1728 -0.1134
 5184SOL    HW127014   0.019   3.549   8.786  0.5090  0.3986 -0.1809
 5184SOL    HW227015   4.689   3.636   8.679  0.3690 -0.0370 -0.9174
 5185SOL     OW27016   2.487   2.513  15.672  0.0541  0.2108  0.7526
 5185SOL    HW127017   2.494   2.446  15.604 -1.3013 -0.0058  0.8285
 5185SOL    HW227018   2.576   2.548  15.675  0.5374 -0.9201 -0.2597
 5186SOL     OW27019   0.998   0.570   9.589 -0.8366 -0.3336  0.1102
 5186SOL    HW127020   0.924   0.610   9.635  0.5895  1.7496  0.5876
 5186SOL    HW227021   0.952   0.497   9.548  2.0414 -0.2501 -3.2570
 5187SOL     OW27022   1.251   0.558   0.811  0.1622 -0.0600 -0.4143
 5187SOL    HW127023   1.278   0.477   0.855 -0.4949  0.8540  1.7115
 5187SOL    HW227024   1.334   0.582   0.771  0.1753  0.5637 -0.0211
 5188SOL     OW27025   2.957   3.358   3.258  0.1799  0.3823 -0.8197
 5188SOL    HW127026   3.015   3.312   3.198  1.6429 -0.3868  1.1477
 5188SOL    HW227027   2.926   3.433   3.208  1.3885  1.7513  0.4686
 5189SOL     OW27028   3.414   0.068   2.109  0.3177 -0.2198 -0.1124
 5189SOL    HW127029   3.327   0.097   2.137  0.0669 -1.2348  0.1692
 5189SOL    HW227030   3.458   0.152   2.120 -2.2028  0.9303  1.2160
 5190SOL     OW27031   4.418   4.063  11.325  0.1064  0.1957 -0.2791
 5190SOL    HW127032   4.455   4.091  11.409 -0.3617  0.6934 -0.2395
 5190SOL    HW227033   4.494   4.018  11.288  0.3721  1.4663 -1.2744
 5191SOL     OW27034   4.102   2.875   8.594 -0.7368  0.0203 -0.5686
 5191SOL    HW127035   4.083   2.965   8.568  0.8718 -0.2822 -2.7348
 5191SOL    HW227036   4.065   2.882   8.682 -0.1100 -0.8032 -0.2442
 5192SOL     OW27037   4.217   1.219  10.479 -0.6992  0.2988  0.6156
 5192SOL    HW127038   4.259   1.134  10.465 -0.7260  0.3110  0.4612
 5192SOL    HW227039   4.132   1.176  10.462  1.5295 -3.5827 -0.7539
 5193SOL     OW27040   0.998   1.917   3.656  0.0715 -0.6731  0.7284
 5193SOL    HW127041   0.909   1.915   3.621  0.7575  2.6388 -1.1889
 5193SOL    HW227042   0.972   1.915   3.748 -0.8423 -1.1820  0.4579
 5194SOL     OW27043   3.140   1.390   2.214  0.0364 -0.1376  0.0702
 5194SOL    HW127044   3.095   1.436   2.143 -0.9785  0.8135  1.3381
 5194SOL    HW227045   3.125   1.450   2.287  0.3274  0.4327 -0.3336
 5195SOL     OW27046   2.816   2.523   0.572  0.4521  0.5525 -0.3472
 5195SOL    HW127047   2.834   2.473   0.493  1.3911 -1.1935  0.9573
 5195SOL    HW227048   2.722   2.515   0.589  0.8941 -0.5501  1.6211
 5196SOL     OW27049   3.397   2.689  17.063 -0.3523 -0.2663  0.1064
 5196SOL    HW127050   3.477   2.659  17.019  0.0288  0.5960  0.2068
 5196SOL    HW227051   3.433   2.777  17.075  0.5398 -0.3224 -2.0249
 5197SOL     OW27052   4.163   1.578   2.908 -0.0857  0.2595 -0.0774
 5197SOL    HW127053   4.234   1.571   2.972 -0.7398  0.2314  0.6356
 5197SOL    HW227054   4.214   1.570   2.827 -0.1610 -1.0766  0.0100
 5198SOL     OW27055   2.739   1.217  15.813  0.3259 -0.5304 -0.5802
 5198SOL    HW127056   2.751   1.124  15.794 -2.2473 -0.7684 -1.0620
 5198SOL    HW227057   2.646   1.241  15.811  0.7114  1.2722  3.0574
 5199SOL     OW27058   4.120   2.090  12.282 -0.3522  0.0642  0.7185
 5199SOL    HW127059   4.152   2.036  12.354  0.5712  1.0937  1.0733
 5199SOL    HW227060   4.056   2.137  12.336 -1.3112  1.2060 -1.3883
 5200SOL     OW27061   4.094   3.038   8.039  0.3534 -0.2113  0.4874
 5200SOL    HW127062   4.128   2.958   7.999  0.6026  0.3820 -0.4808
 5200SOL    HW227063   4.073   2.990   8.119  0.4255 -1.0639 -0.0038
 5201SOL     OW27064   2.386   3.957  11.112  0.1109 -0.4209  0.1167
 5201SOL    HW127065   2.393   3.878  11.165  0.0808  0.8733  2.0689
 5201SOL    HW227066   2.426   4.025  11.167 -0.7816 -0.6872  1.1068
 5202SOL     OW27067   1.383   3.291   4.030  0.0811 -0.0495 -0.3436
 5202SOL    HW127068   1.369   3.348   4.105 -0.7643 -2.2098  1.1228
 5202SOL    HW227069   1.466   3.249   4.052  0.5139 -0.5313 -2.8807
 5203SOL     OW27070   2.725   1.602   3.008  0.4672 -0.3770  0.2166
 5203SOL    HW127071   2.660   1.586   2.940  0.4854  1.7825 -0.3213
 5203SOL    HW227072   2.697   1.683   3.051  2.3513  1.4053 -1.9406
 5204SOL     OW27073   1.010   1.586   3.955 -0.1430  0.3111 -0.1896
 5204SOL    HW127074   1.053   1.618   4.034  2.3005 -0.2280 -1.2962
 5204SOL    HW227075   1.039   1.648   3.888 -0.4000 -1.3782 -1.8832
 5205SOL     OW27076   3.342   4.503  14.173  0.0242 -0.7268 -0.1555
 5205SOL    HW127077   3.426   4.538  14.143 -0.5294  0.9206  0.2022
 5205SOL    HW227078   3.351   4.415  14.137 -1.6409 -0.9853  0.0770
 5206SOL     OW27079   3.852   2.244   1.582 -0.1828  0.2608  0.4711
 5206SOL    HW127080   3.904   2.163   1.584 -1.4741 -0.5609  0.9707
 5206SOL    HW227081   3.815   2.254   1.670  1.4094 -1.0051  1.2782
 5207SOL     OW27082   4.554   1.941  11.206 -0.3346  0.4723 -0.0745
 5207SOL    HW127083   4.617   2.010  11.186  2.4290 -2.7071 -2.3986
 5207SOL    HW227084   4.474   1.982  11.171 -0.5967  0.8438  0.9811
 5208SOL     OW27085   1.079   1.841   0.496 -0.2764 -0.0624  0.6467
 5208SOL    HW127086   1.129   1.820   0.575  1.9004  2.6153 -0.0450
 5208SOL    HW227087   1.030   1.919   0.522 -1.3255 -0.7718  0.8091
 5209SOL     OW27088   2.158   2.685  11.164 -0.0090  0.0225 -0.0986
 5209SOL    HW127089   2.106   2.605  11.165  0.4058 -0.2458  0.1719
 5209SOL    HW227090   2.211   2.680  11.084 -1.9654  1.0213 -1.4644
 5210SOL     OW27091   1.161   1.227  12.394  0.3175  0.4268 -0.6623
 5210SOL    HW127092   1.075   1.190  12.374  0.4344  0.1759 -0.7010
 5210SOL    HW227093   1.140   1.313  12.358 -2.2275  0.1913  0.2886
 5211SOL     OW27094   0.878   4.097   6.469  0.6249 -0.1749  0.1849
 5211SOL    HW127095   0.859   4.191   6.470 -2.6440 -0.8278 -1.0121
 5211SOL    HW227096   0.947   4.084   6.534  1.4445  2.3293 -0.1961
 5212SOL     OW27097   0.556   4.424   6.511  0.3780  0.2107  0.8643
 5212SOL    HW127098   0.519   4.420   6.599  0.7362  0.7339  1.0336
 5212SOL    HW227099   0.485   4.477   6.472  0.7575 -1.0130 -1.5248
 5213SOL     OW27100   2.968   3.047   6.671 -0.3353 -0.8070 -0.4440
 5213SOL    HW127101   2.993   2.977   6.611  0.7603 -2.1122  1.5198
 5213SOL    HW227102   2.897   2.999   6.713  0.9518 -0.6885  1.8693
 5214SOL     OW27103   0.969   1.813  15.636 -0.0872  0.3011  0.2754
 5214SOL    HW127104   0.983   1.881  15.569  1.3628  0.1864  0.4658
 5214SOL    HW227105   0.944   1.738  15.583 -1.8912  2.3377 -1.7698
 5215SOL     OW27106   3.027   3.422   1.626 -0.4818  0.2622  0.0207
 5215SOL    HW127107   3.112   3.416   1.669 -0.5909  0.7998  0.3045
 5215SOL    HW227108   3.042   3.509   1.588 -1.2611  1.1731  1.7951
 5216SOL     OW27109   2.314   4.514   7.694 -0.2858 -0.1025 -0.2433
 5216SOL    HW127110   2.232   4.533   7.648 -1.0228 -1.1146  0.6560
 5216SOL    HW227111   2.362   4.499   7.612  0.6426 -1.0272  0.4737
 5217SOL     OW27112   4.627   1.234   2.448  0.2895 -0.3926  0.1385
 5217SOL    HW127113   4.548   1.183   2.463  0.2904 -1.2422 -2.7273
 5217SOL    HW227114   4.641   1.211   2.356 -2.1416  3.1548 -1.0743
 5218SOL     OW27115   2.579   3.242   7.959  0.1019  0.0442 -0.0870
 5218SOL    HW127116   2.624   3.168   8.000 -0.6750 -0.4975 -0.2273
 5218SOL    HW227117   2.504   3.261   8.015 -0.2955 -0.2677 -0.5114
 5219SOL     OW27118   1.974   0.746   2.821 -0.2671  0.5563 -0.3031
 5219SOL    HW127119   1.899   0.765   2.765 -1.0259  0.2059  0.6090
 5219SOL    HW227120   1.981   0.825   2.875  0.7310  2.2670 -2.8661
 5220SOL     OW27121   0.118   1.947  17.230  0.0137 -0.0183  0.1105
 5220SOL    HW127122   0.163   1.971  17.149 -0.0529 -1.7705 -0.4528
 5220SOL    HW227123   0.184   1.979  17.292  0.7963 -1.1416 -0.1361
 5221SOL     OW27124   4.169   4.712   6.524  0.5002  0.7222 -0.4904
 5221SOL    HW127125   4.144   4.704   6.616 -1.3782 -1.3570 -1.1489
 5221SOL    HW227126   4.133   0.075   6.500  0.5489  1.7168  3.0851
 5222SOL     OW27127   4.632   1.827   4.452  0.1611 -0.4707 -0.1182
 5222SOL    HW127128   4.655   1.745   4.494  2.2234  0.2317  0.1238
 5222SOL    HW227129   4.563   1.796   4.394 -0.5633 -1.4990  1.3030
 5223SOL     OW27130   1.536   2.715   2.772 -0.1696 -0.0669  0.1222
 5223SOL    HW127131   1.463   2.760   2.814 -1.9601 -0.9821 -1.9817
 5223SOL    HW227132   1.549   2.765   2.691 -1.5752  1.6425  0.9695
 5224SOL     OW27133   2.916   1.338   3.192 -0.8742  0.5938  0.2200
 5224SOL    HW127134   2.864   1.341   3.272 -2.8254 -0.3468 -1.0121
 5224SOL    HW227135   2.859   1.400   3.146 -0.0572  1.7252  0.7272
 5225SOL     OW27136   0.958   1.914  15.378  0.0779 -0.4862  0.4848
 5225SOL    HW127137   1.024   1.846  15.386 -1.2984 -1.9659 -0.6942
 5225SOL    HW227138   0.936   1.905  15.285  1.9344  3.6643 -0.3739
 5226SOL     OW27139   3.490   4.467   7.323 -0.1964  0.0403  0.6703
 5226SOL    HW127140   3.464   4.427   7.406  0.1367  1.4042  1.4297
 5226SOL    HW227141   3.445   4.407   7.264  0.9792  2.1042 -2.3337
 5227SOL     OW27142   3.481   0.809   8.073 -0.6752  0.9292  0.7617
 5227SOL    HW127143   3.457   0.902   8.074 -2.4723  0.4667 -1.5464
 5227SOL    HW227144   3.564   0.819   8.026  0.5464 -0.1923  2.6574
 5228SOL     OW27145   0.806   3.598   8.250  0.5630 -0.5050 -0.0015
 5228SOL    HW127146   0.794   3.503   8.245 -2.9971 -0.1338  1.3315
 5228SOL    HW227147   0.715   3.626   8.244  0.7189  0.1461  0.6644
 5229SOL     OW27148   0.697   1.545   4.994  0.8951 -0.3829  0.3022
 5229SOL    HW127149   0.705   1.559   5.088 -2.7679 -1.5939  0.7975
 5229SOL    HW227150   0.633   1.475   4.988  0.9932 -0.2631 -2.0696
 5230SOL     OW27151   2.988   2.300   8.896  0.4960  0.0519 -0.4803
 5230SOL    HW127152   3.071   2.267   8.933  1.3698 -0.3183 -2.7851
 5230SOL    HW227153   2.960   2.357   8.968 -2.4473 -2.7260  0.5663
 5231SOL     OW27154   3.574   2.094   2.577  0.0081 -0.1731 -0.1724
 5231SOL    HW127155   3.616   2.029   2.521  0.9116  0.1888  0.0945
 5231SOL    HW227156   3.488   2.053   2.585 -0.7131  1.3893 -0.0439
 5232SOL     OW27157   1.750   3.686  14.316  0.5623 -0.9806  0.3009
 5232SOL    HW127158   1.669   3.733  14.338 -0.2613 -0.5590 -3.5576
 5232SOL    HW227159   1.750   3.692  14.220 -0.3484 -1.9056  0.2382
 5233SOL     OW27160   1.473   0.925   4.288 -0.3561 -0.1226 -0.0050
 5233SOL    HW127161   1.563   0.905   4.261 -0.5767 -0.4897 -0.4623
 5233SOL    HW227162   1.430   0.841   4.271 -0.5258  0.3026 -1.6710
 5234SOL     OW27163   0.311   1.717  13.426 -0.5860  0.6636  0.3229
 5234SOL    HW127164   0.277   1.804  13.445  2.4906  2.5678 -2.9248
 5234SOL    HW227165   0.308   1.687  13.517 -3.3283 -2.1491 -0.6826
 5235SOL     OW27166   3.390   4.254   5.679  0.0118  0.5222 -0.1122
 5235SOL    HW127167   3.311   4.211   5.714  0.0474  0.7842  0.2995
 5235SOL    HW227168   3.410   4.311   5.754 -1.2255  0.0356  0.5967
 5236SOL     OW27169   1.973   1.646   6.692  0.5458  0.2910  0.2831
 5236SOL    HW127170   1.999   1.736   6.673  0.2955  1.0925  3.7647
 5236SOL    HW227171   1.911   1.662   6.762 -1.6013  2.0757 -2.0225
 5237SOL     OW27172   0.818   2.759  13.595 -0.0603  0.3443  0.0648
 5237SOL    HW127173   0.893   2.818  13.585 -2.6313  3.5487 -0.3317
 5237SOL    HW227174   0.851   2.684  13.545  0.2485  1.4141 -1.3192
 5238SOL     OW27175   3.249   2.349   1.479 -0.3336  0.2487  0.0105
 5238SOL    HW127176   3.340   2.367   1.504  0.2091 -0.8711 -1.1249
 5238SOL    HW227177   3.216   2.297   1.552 -2.0830  0.9373 -0.3027
 5239SOL     OW27178   3.278   1.752  10.268 -0.1999  0.5779  0.2225
 5239SOL    HW127179   3.213   1.683  10.252 -0.2937  1.0761 -1.5270
 5239SOL    HW227180   3.233   1.827  10.229 -0.1097 -0.1859 -1.3749
 5240SOL     OW27181   4.266   1.975  14.269  0.1858  0.1753 -0.4291
 5240SOL    HW127182   4.307   1.929  14.195 -0.6695 -0.9323 -0.2159
 5240SOL    HW227183   4.344   1.989  14.323  0.3064  0.9310 -0.7999
 5241SOL     OW27184   2.640   1.061  10.044  0.0525 -0.7779 -0.5283
 5241SOL    HW127185   2.663   0.979  10.087  2.5072  0.0577 -0.2648
 5241SOL    HW227186   2.653   1.118  10.120 -1.7242 -0.4047 -0.5026
 5242SOL     OW27187   1.162   1.458  15.258 -0.0152 -0.3057 -0.2636
 5242SOL    HW127188   1.252   1.435  15.283 -0.3965 -1.9588 -0.3814
 5242SOL    HW227189   1.106   1.381  15.265  1.9603 -1.6456  1.1048
 5243SOL     OW27190   4.448   1.914   7.122  0.3227  0.7175  0.2273
 5243SOL    HW127191   4.503   1.864   7.182 -0.9414  0.0596  0.8301
 5243SOL    HW227192   4.412   1.843   7.070  3.1250  0.4907 -1.3815
 5244SOL     OW27193   0.465   0.020   6.820  0.7257 -0.4850 -0.2885
 5244SOL    HW127194   0.487   0.037   6.728 -1.0387  1.0730 -0.4311
 5244SOL    HW227195   0.549   4.712   6.854  0.8476 -1.1561 -1.1988
 5245SOL     OW27196   0.050   2.674  12.038  0.1577  0.2713 -0.4159
 5245SOL    HW127197   0.014   2.593  12.003  0.1121 -0.1511  0.6256
 5245SOL    HW227198   0.071   2.644  12.126  1.1529 -0.2451 -0.8279
 5246SOL     OW27199   4.493   0.166   7.287 -0.0897  0.2532 -0.8334
 5246SOL    HW127200   4.539   0.087   7.258 -0.1426 -0.8653  2.1331
 5246SOL    HW227201   4.434   0.124   7.350 -0.1332  0.2254 -0.8929
 5247SOL     OW27202   2.121   3.545   3.339  0.3660  0.0271 -0.3407
 5247SOL    HW127203   2.164   3.595   3.409 -2.1768 -0.0853  1.3076
 5247SOL    HW227204   2.032   3.578   3.334 -0.3412 -1.4199  2.6301
 5248SOL     OW27205   4.339   4.082   4.209 -0.3937  0.1988 -0.3558
 5248SOL    HW127206   4.244   4.070   4.209 -0.4677  0.8162 -0.0027
 5248SOL    HW227207   4.363   3.992   4.230 -0.0700  0.4573  0.3643
 5249SOL     OW27208   0.593   3.686   3.207  0.0681 -0.3340  0.1122
 5249SOL    HW127209   0.562   3.597   3.223 -0.9791  0.0870  0.4445
 5249SOL    HW227210   0.681   3.663   3.179  0.3092  1.8551 -0.9777
 5250SOL     OW27211   1.823   1.516   7.605  0.0583  0.9614  1.0744
 5250SOL    HW127212   1.811   1.459   7.680  0.0735 -0.3174  0.1008
 5250SOL    HW227213   1.771   1.594   7.623 -0.3267  0.1388  3.4428
 5251SOL     OW27214   0.056   0.518   4.039  0.6712 -1.0101  0.0643
 5251SOL    HW127215   0.150   0.531   4.039  0.5624 -0.1833  0.7509
 5251SOL    HW227216   0.052   0.444   3.978  2.0517  0.0286 -1.2957
 5252SOL     OW27217   2.366   0.767   7.301  0.0991 -0.2276 -0.1561
 5252SOL    HW127218   2.381   0.695   7.240  1.2228 -0.1580  0.0402
 5252SOL    HW227219   2.293   0.820   7.269 -0.0894 -0.9833 -0.9871
 5253SOL     OW27220   2.615   2.223   3.863  0.3509  0.1249  0.5143
 5253SOL    HW127221   2.650   2.262   3.783 -0.4157  0.5026  0.3652
 5253SOL    HW227222   2.685   2.160   3.883  0.8458 -0.3687 -2.7958
 5254SOL     OW27223   1.668   2.133   6.491  0.2166 -0.0966  0.3556
 5254SOL    HW127224   1.596   2.184   6.455 -1.9305 -1.6682  2.5064
 5254SOL    HW227225   1.706   2.094   6.412 -0.4367 -1.8560  0.9124
 5255SOL     OW27226   0.168   1.544   8.295  0.3492 -0.3108 -0.0216
 5255SOL    HW127227   0.138   1.477   8.357  0.5361 -1.4102 -1.1203
 5255SOL    HW227228   0.086   1.592   8.284 -0.3126 -1.1115  1.4390
 5256SOL     OW27229   2.689   4.581  11.516 -0.5324 -0.0192 -0.0667
 5256SOL    HW127230   2.619   4.646  11.507 -0.3434  0.5645  2.7433
 5256SOL    HW227231   2.634   4.505  11.538 -1.0739 -0.0504 -1.5215
 5257SOL     OW27232   3.003   2.428   0.777 -0.2831  0.1377  0.1551
 5257SOL    HW127233   2.972   2.377   0.852  0.3761  0.2854  0.5232
 5257SOL    HW227234   2.926   2.479   0.751  0.9184  2.2862  0.8276
 5258SOL     OW27235   1.279   0.112   3.788  0.4461 -0.2458 -0.7036
 5258SOL    HW127236   1.318   0.107   3.701  2.4599  0.3399  0.1706
 5258SOL    HW227237   1.267   0.207   3.788  0.4260 -0.2516 -1.3164
 5259SOL     OW27238   3.454   3.458   1.082 -0.4563 -0.7735  0.0937
 5259SOL    HW127239   3.370   3.493   1.051  0.1374 -0.2546 -0.8976
 5259SOL    HW227240   3.511   3.521   1.039 -0.6886 -0.2937  0.4937
 5260SOL     OW27241   2.453   0.204   4.737 -0.3856 -0.4239  0.4815
 5260SOL    HW127242   2.526   0.156   4.777  1.0618  0.7152 -0.8201
 5260SOL    HW227243   2.475   0.203   4.644 -1.4459  0.0007  0.2238
 5261SOL     OW27244   4.070   3.008   7.137 -0.5280 -0.0118  0.0323
 5261SOL    HW127245   4.018   3.004   7.057 -1.4393  1.7981  0.5350
 5261SOL    HW227246   4.025   2.947   7.195 -1.8961 -0.4575 -1.5004
 5262SOL     OW27247   0.180   1.378   7.508 -0.2289 -0.3825  0.2145
 5262SOL    HW127248   0.202   1.430   7.586  2.1355 -0.7732 -0.1916
 5262SOL    HW227249   0.240   1.305   7.523  0.4087 -0.0729 -0.8028
 5263SOL     OW27250   2.560   2.843   5.201 -0.4704  0.0162 -0.2722
 5263SOL    HW127251   2.593   2.899   5.271  0.2961  0.3420 -0.9059
 5263SOL    HW227252   2.468   2.831   5.225 -0.2066  0.9212  1.1964
 5264SOL     OW27253   2.812   0.685  14.616 -0.0523  0.7480  0.2596
 5264SOL    HW127254   2.723   0.672  14.583 -0.1545 -0.0646  0.8402
 5264SOL    HW227255   2.816   0.780  14.606 -1.6170  0.8063  0.0706
 5265SOL     OW27256   2.329   4.369   9.809 -0.0757 -0.1533  0.2610
 5265SOL    HW127257   2.295   4.283   9.784 -0.2931 -0.0499  0.2058
 5265SOL    HW227258   2.330   4.369   9.905 -1.0263  1.4595  0.2726
 5266SOL     OW27259   1.029   4.635  16.349 -0.1219 -0.1379  0.6565
 5266SOL    HW127260   1.091   4.684  16.403 -0.3142  2.1280 -1.1831
 5266SOL    HW227261   0.947   4.643  16.397 -1.5455 -0.2391 -1.7305
 5267SOL     OW27262   0.125   0.474  10.537  0.0626  0.3427  0.4126
 5267SOL    HW127263   0.087   0.561  10.528  5.5831  2.8369  1.3822
 5267SOL    HW227264   0.121   0.445  10.446  2.6441 -0.8309  0.6633
 5268SOL     OW27265   0.969   0.926   8.737  0.3334  0.3513 -0.0860
 5268SOL    HW127266   1.037   0.859   8.727  1.8168  2.1731 -2.2639
 5268SOL    HW227267   1.013   1.004   8.701  0.0183  1.2110  1.3869
 5269SOL     OW27268   3.597   0.414   4.685 -0.3909  0.5787 -0.1433
 5269SOL    HW127269   3.681   0.390   4.725 -1.3560 -0.5082  1.2314
 5269SOL    HW227270   3.596   0.355   4.609  1.0460 -1.0727  1.1168
 5270SOL     OW27271   2.704   0.284  12.443 -0.8542 -0.0754 -0.0354
 5270SOL    HW127272   2.743   0.265  12.528  0.6041  0.1533 -0.6437
 5270SOL    HW227273   2.624   0.234  12.461 -0.2898 -0.9668  0.0015
 5271SOL     OW27274   1.168   1.976   2.155 -0.4528  0.0035  0.6560
 5271SOL    HW127275   1.135   1.931   2.078  0.2198 -0.9825  0.9303
 5271SOL    HW227276   1.240   1.918   2.180 -1.5934 -1.5026  0.4499
 5272SOL     OW27277   3.197   2.766   5.444  0.2156  0.2849 -0.0071
 5272SOL    HW127278   3.161   2.826   5.378 -2.6972 -2.1608 -0.6346
 5272SOL    HW227279   3.175   2.684   5.399  1.2560 -0.5577  1.0497
 5273SOL     OW27280   2.479   2.570   2.969  0.2845  0.0121 -0.6063
 5273SOL    HW127281   2.547   2.623   3.012  0.4588 -1.9507  1.5142
 5273SOL    HW227282   2.531   2.517   2.908  0.6582  0.2297 -0.4814
 5274SOL     OW27283   3.828   0.800   3.803  0.4727  0.7012 -0.4577
 5274SOL    HW127284   3.917   0.768   3.819  0.6530  1.6667  0.4739
 5274SOL    HW227285   3.792   0.766   3.885 -0.2316 -0.0002 -1.0562
 5275SOL     OW27286   2.246   4.287  11.278 -0.0524 -0.0680 -0.2554
 5275SOL    HW127287   2.178   4.324  11.335  0.3911  1.3024 -0.6400
 5275SOL    HW227288   2.313   4.251  11.335 -1.4345  1.3102  2.2641
 5276SOL     OW27289   2.937   4.127   4.084 -0.2668  0.0487 -0.1579
 5276SOL    HW127290   2.858   4.074   4.073 -1.2496  1.4955 -0.0555
 5276SOL    HW227291   2.912   4.185   4.156  0.5643 -0.0186  0.1904
 5277SOL     OW27292   3.704   4.289  16.930  0.5018 -0.4389 -0.3795
 5277SOL    HW127293   3.781   4.235  16.913  0.4804  0.2136 -2.5071
 5277SOL    HW227294   3.689   4.273  17.023  0.3608 -2.0664 -0.6804
 5278SOL     OW27295   4.544   4.123  14.159 -0.0861 -0.3999  0.0621
 5278SOL    HW127296   4.505   4.116  14.246  2.4012 -2.2414  1.0252
 5278SOL    HW227297   4.622   4.174  14.180 -1.0327  1.3279 -0.5850
 5279SOL     OW27298   3.980   3.671   1.864  0.1857  0.4512 -0.3884
 5279SOL    HW127299   4.018   3.673   1.776 -3.4331 -0.7124 -1.9583
 5279SOL    HW227300   4.053   3.714   1.908  1.9586 -1.3756 -1.5502
 5280SOL     OW27301   3.041   1.453   1.103  0.0304 -0.2125  0.6726
 5280SOL    HW127302   3.049   1.359   1.122 -0.4424  0.0395  2.0597
 5280SOL    HW227303   2.946   1.459   1.108  0.0269 -1.6065  2.2765
 5281SOL     OW27304   1.147   0.481  11.661 -0.2429  0.4079 -0.4742
 5281SOL    HW127305   1.211   0.528  11.608 -0.3974 -1.0276 -1.9274
 5281SOL    HW227306   1.204   0.417  11.705  0.1612 -0.3759 -2.1536
 5282SOL     OW27307   0.378   0.920  13.535 -0.5385  0.1973  0.0285
 5282SOL    HW127308   0.393   0.869  13.614 -1.1699  1.1508  0.7678
 5282SOL    HW227309   0.439   0.890  13.468 -0.2928 -0.5968  0.6144
 5283SOL     OW27310   0.521   0.738   6.476  0.2630  0.1559  0.0252
 5283SOL    HW127311   0.592   0.743   6.540  1.2032 -2.8362 -0.7865
 5283SOL    HW227312   0.502   0.644   6.476 -3.9777  1.0137  0.8734
 5284SOL     OW27313   4.389   2.145  16.204 -0.6173 -0.6060 -0.5392
 5284SOL    HW127314   4.296   2.130  16.186 -1.4740  0.5948  2.8356
 5284SOL    HW227315   4.428   2.134  16.117 -0.7211 -1.7144 -0.4426
 5285SOL     OW27316   2.135   4.557   1.098 -0.0627 -0.4106  0.2135
 5285SOL    HW127317   2.043   4.538   1.077 -0.4424 -0.1100  1.6133
 5285SOL    HW227318   2.170   4.469   1.116 -0.1038 -0.3451  0.6006
 5286SOL     OW27319   1.911   0.147   4.699 -0.1159 -0.1035 -0.1476
 5286SOL    HW127320   1.927   0.215   4.764 -0.8953 -0.2007  0.1444
 5286SOL    HW227321   2.002   0.134   4.671 -0.3770 -1.1327 -0.5581
 5287SOL     OW27322   1.031   3.267   9.183 -0.5578 -0.5943  0.4891
 5287SOL    HW127323   1.059   3.177   9.167 -2.7596 -1.1091 -0.3619
 5287SOL    HW227324   1.047   3.280   9.277  0.7113  1.9898 -0.0725
 5288SOL     OW27325   1.661   4.043   6.477  0.8302  0.3709 -0.3655
 5288SOL    HW127326   1.591   4.021   6.417 -0.6392  1.6509  0.8783
 5288SOL    HW227327   1.689   4.123   6.434  0.3780  0.3566 -0.6842
 5289SOL     OW27328   2.804   2.406   9.457 -0.3201  0.5781 -0.2588
 5289SOL    HW127329   2.812   2.374   9.367 -0.8842 -0.1960 -0.0252
 5289SOL    HW227330   2.744   2.338   9.487  1.0341 -1.9414 -3.2954
 5290SOL     OW27331   1.149   1.292   8.134  0.1492 -0.2594 -0.2853
 5290SOL    HW127332   1.081   1.290   8.067 -0.1002 -1.0259 -0.0095
 5290SOL    HW227333   1.172   1.199   8.142  1.1018 -0.1096 -1.4048
 5291SOL     OW27334   3.959   1.597   2.120 -0.1815  0.1073  0.0722
 5291SOL    HW127335   3.887   1.542   2.091 -0.1282  0.5001 -0.7998
 5291SOL    HW227336   4.008   1.524   2.159  0.7935  0.2049 -0.9705
 5292SOL     OW27337   1.359   2.808   6.637 -0.0150 -0.1132 -0.3027
 5292SOL    HW127338   1.434   2.779   6.586 -0.1997 -0.3710 -0.4290
 5292SOL    HW227339   1.294   2.738   6.646 -0.4215  0.2619 -0.3356
 5293SOL     OW27340   0.869   2.221  14.642  0.5933 -0.3420  0.1781
 5293SOL    HW127341   0.829   2.251  14.723 -1.1017 -2.9125  0.2785
 5293SOL    HW227342   0.849   2.301  14.592  3.0662 -0.8955 -1.7038
 5294SOL     OW27343   4.500   1.542   3.912  0.1442 -0.4213 -0.5634
 5294SOL    HW127344   4.426   1.534   3.973  0.1041 -1.8421 -0.7986
 5294SOL    HW227345   4.576   1.548   3.970  0.8882 -0.9197 -1.4864
 5295SOL     OW27346   4.323   0.257   5.326  0.3798  0.2932  0.3391
 5295SOL    HW127347   4.326   0.233   5.233 -1.6911 -1.2197  0.6413
 5295SOL    HW227348   4.347   0.170   5.358  0.6366 -0.0505 -0.7909
 5296SOL     OW27349   1.567   3.016   5.372  0.3627  0.3891 -0.6990
 5296SOL    HW127350   1.595   3.101   5.404  0.5391  0.1420 -0.1843
 5296SOL    HW227351   1.616   2.955   5.428 -2.1399  0.2272  1.3055
 5297SOL     OW27352   3.302   3.358  10.091 -0.3461 -0.2266  0.3119
 5297SOL    HW127353   3.267   3.394  10.172 -1.3197 -0.8301  0.1638
 5297SOL    HW227354   3.231   3.372  10.027 -0.5580  0.8853  0.7984
 5298SOL     OW27355   0.037   2.522   3.936 -0.4399 -0.1463 -0.2292
 5298SOL    HW127356   0.109   2.472   3.975 -0.4411 -0.9918 -1.3221
 5298SOL    HW227357   0.080   2.549   3.855  0.3157  2.6714  1.1201
 5299SOL     OW27358   1.454   3.784   9.236  0.4932 -0.2358 -0.0043
 5299SOL    HW127359   1.458   3.693   9.264 -0.3019 -0.4130 -0.4965
 5299SOL    HW227360   1.525   3.790   9.172  1.5582  0.4105  1.2138
 5300SOL     OW27361   0.326   4.437  16.349  0.1885 -0.1917 -0.1171
 5300SOL    HW127362   0.287   4.388  16.277  0.3633 -0.4380 -0.0451
 5300SOL    HW227363   0.381   4.508  16.316  0.0451  0.7311  1.6432
 5301SOL     OW27364   3.230   1.012  16.002  0.0898  0.4639 -0.3242
 5301SOL    HW127365   3.158   1.051  16.051  0.7911  0.4377  0.7108
 5301SOL    HW227366   3.224   0.917  16.013 -1.0877  0.8841  2.7090
 5302SOL     OW27367   4.391   3.591   9.102 -0.2176 -0.0323 -0.0350
 5302SOL    HW127368   4.472   3.549   9.074 -1.3884 -2.7397  0.6790
 5302SOL    HW227369   4.401   3.682   9.074  0.5193  0.0890  0.6287
 5303SOL     OW27370   4.640   3.563  15.531 -0.0722 -0.2943 -0.0835
 5303SOL    HW127371   4.564   3.525  15.575  1.1789 -0.3132  2.0489
 5303SOL    HW227372   4.599   3.605  15.455  1.7004  0.6881 -0.5020
 5304SOL     OW27373   2.011   3.485  10.990  0.3751  0.3770 -0.3644
 5304SOL    HW127374   1.995   3.432  10.912  1.4307 -0.4705 -0.0072
 5304SOL    HW227375   1.931   3.537  10.994 -0.9714 -1.7656  0.4767
 5305SOL     OW27376   3.400   1.046   9.940 -0.1586  0.5090 -0.6416
 5305SOL    HW127377   3.415   0.996  10.021  0.7580  1.7629 -0.0292
 5305SOL    HW227378   3.454   1.124   9.954  1.4003 -0.9533  1.4410
 5306SOL     OW27379   1.596   0.439   6.633  0.2287  0.3335  0.0733
 5306SOL    HW127380   1.506   0.438   6.665 -0.4062 -1.3498 -1.7256
 5306SOL    HW227381   1.615   0.531   6.651 -0.8548  0.3815  0.9572
 5307SOL     OW27382   1.228   4.601   6.671  0.0641  0.1595  0.1181
 5307SOL    HW127383   1.261   4.681   6.629 -1.5263  0.5086 -0.4514
 5307SOL    HW227384   1.311   4.568   6.706 -0.3445  0.6050  1.5079
 5308SOL     OW27385   0.545   4.088   4.141 -0.0256 -0.7105  0.3938
 5308SOL    HW127386   0.500   4.046   4.214 -1.7039  0.5229  0.0473
 5308SOL    HW227387   0.488   4.066   4.068  0.4961 -0.0312 -0.2197
 5309SOL     OW27388   2.534   1.369  11.629 -0.0801 -0.3084  0.1444
 5309SOL    HW127389   2.596   1.353  11.558 -0.8475  2.1957 -1.0531
 5309SOL    HW227390   2.583   1.391  11.708  0.4935 -1.0837  0.0099
 5310SOL     OW27391   0.577   3.234   8.737  0.6327 -0.0433 -0.3173
 5310SOL    HW127392   0.561   3.309   8.795  0.6158 -1.2197  1.1984
 5310SOL    HW227393   0.535   3.159   8.779  1.9911 -0.0312  1.1129
 5311SOL     OW27394   1.687   4.663   4.069 -0.0008  0.6381 -0.3987
 5311SOL    HW127395   1.626   4.589   4.072  0.3786  0.2919 -1.0725
 5311SOL    HW227396   1.685   4.691   3.977  0.6270  3.9188  0.6076
 5312SOL     OW27397   0.040   3.646   0.893  0.3538 -0.1506  0.1134
 5312SOL    HW127398   0.012   3.679   0.979  1.6089 -0.4722  0.6464
 5312SOL    HW227399   4.674   3.625   0.864  0.6150 -1.4549  0.2679
 5313SOL     OW27400   2.323   3.903   8.800  0.5087 -0.5062  0.0144
 5313SOL    HW127401   2.347   3.963   8.870  1.3073  0.1100 -0.7846
 5313SOL    HW227402   2.227   3.905   8.796  0.4491  0.2791  1.5857
 5314SOL     OW27403   2.020   0.114   7.174 -0.1156  0.3661 -0.2287
 5314SOL    HW127404   2.046   0.060   7.099  1.2372  2.3354 -1.1689
 5314SOL    HW227405   1.926   0.119   7.160 -0.5171 -0.3231  2.0857
 5315SOL     OW27406   3.530   2.340   7.262  0.1600  0.3093 -0.5222
 5315SOL    HW127407   3.509   2.285   7.338 -1.0292  1.4394 -0.0234
 5315SOL    HW227408   3.581   2.411   7.301  2.2055  0.7934 -4.1691
 5316SOL     OW27409   0.897   4.367   0.684  0.1355 -0.5180  0.1444
 5316SOL    HW127410   0.941   4.313   0.750 -1.0767 -1.1018  0.4774
 5316SOL    HW227411   0.921   4.452   0.720 -0.6496 -0.2682  0.0840
 5317SOL     OW27412   0.864   1.226  12.578 -0.7063 -0.5782 -0.1477
 5317SOL    HW127413   0.833   1.315  12.559  1.0980 -0.0822 -0.7709
 5317SOL    HW227414   0.787   1.183  12.615  0.6785 -2.1526  0.9179
 5318SOL     OW27415   3.702   1.243   8.263  0.4179  0.0847 -0.7075
 5318SOL    HW127416   3.700   1.325   8.313  0.7517  0.1302 -0.7693
 5318SOL    HW227417   3.622   1.244   8.211  1.3302  0.4491 -2.1102
 5319SOL     OW27418   0.231   3.170   6.520  0.0439  0.0624 -0.2683
 5319SOL    HW127419   0.243   3.212   6.605  2.1550  0.0019 -0.5354
 5319SOL    HW227420   0.192   3.239   6.466  0.5708  0.2687 -0.3894
 5320SOL     OW27421   1.653   4.398   1.111 -0.4075  0.7140  0.4867
 5320SOL    HW127422   1.613   4.451   1.043  1.8537 -0.4138 -1.7178
 5320SOL    HW227423   1.734   4.357   1.081  1.0313  1.8312  2.7811
 5321SOL     OW27424   2.895   4.616   8.461 -0.1541  0.2796  0.1879
 5321SOL    HW127425   2.866   4.648   8.375 -2.4123 -1.3226  0.3616
 5321SOL    HW227426   2.944   4.695   8.483  1.0555 -0.2586 -0.5204
 5322SOL     OW27427   0.469   1.436  14.011 -0.4688 -0.4594  0.1161
 5322SOL    HW127428   0.387   1.462  13.968  0.6081  0.6533 -1.2441
 5322SOL    HW227429   0.442   1.345  14.012  2.1184 -1.2318 -1.0812
 5323SOL     OW27430   2.852   4.308  14.297  0.1799 -0.3615 -0.3935
 5323SOL    HW127431   2.830   4.301  14.390  1.6971  1.6192  0.1090
 5323SOL    HW227432   2.938   4.349  14.305  0.1892 -0.5271  0.3107
 5324SOL     OW27433   2.946   0.281   7.002 -0.1270 -0.0673 -0.4010
 5324SOL    HW127434   2.997   0.343   6.950 -1.1111  0.8428 -0.2870
 5324SOL    HW227435   2.979   0.298   7.090  0.9389 -1.8437 -0.4578
 5325SOL     OW27436   1.163   0.034   5.470 -0.4438  0.8486 -0.1683
 5325SOL    HW127437   1.107   0.111   5.473 -1.6207 -0.0315  0.8466
 5325SOL    HW227438   1.166   0.022   5.565  0.1064 -2.6879 -0.6154
 5326SOL     OW27439   2.694   4.435   2.720 -0.0684  0.4371 -0.4919
 5326SOL    HW127440   2.738   4.452   2.803  0.1513 -2.5558  0.0220
 5326SOL    HW227441   2.642   4.362   2.755  0.2486  0.2874 -0.3300
 5327SOL     OW27442   3.727   0.657   5.481 -0.7411 -0.8164  0.1541
 5327SOL    HW127443   3.672   0.735   5.481  0.1717 -0.1985  2.9866
 5327SOL    HW227444   3.685   0.604   5.413  0.4304 -3.5689  1.5949
 5328SOL     OW27445   3.318   4.170   7.684 -0.2768  0.5337  0.3460
 5328SOL    HW127446   3.300   4.076   7.691  1.6405  0.0366 -1.2724
 5328SOL    HW227447   3.306   4.195   7.775  1.6567  1.5413  0.3249
 5329SOL     OW27448   2.573   4.143   1.961 -0.4984  0.1039  0.1006
 5329SOL    HW127449   2.639   4.196   1.916 -1.0355 -0.1540 -0.9990
 5329SOL    HW227450   2.630   4.068   1.978  0.6449  1.2249  1.2831
 5330SOL     OW27451   0.940   3.071   7.991 -0.1776 -0.1148  0.2361
 5330SOL    HW127452   0.910   3.067   8.082 -3.6187  1.0953 -0.8461
 5330SOL    HW227453   0.880   3.014   7.943 -0.5486  0.0156  0.5406
 5331SOL     OW27454   4.590   3.913   2.960 -0.2014  0.0623 -0.1297
 5331SOL    HW127455   4.650   3.985   2.942  1.9116 -1.2906  1.5047
 5331SOL    HW227456   4.654   3.843   2.976 -1.3527 -0.8420  0.5064
 5332SOL     OW27457   0.453   4.012   4.393  0.2098 -0.4069 -0.6275
 5332SOL    HW127458   0.390   4.073   4.431 -0.6078 -0.8352 -1.2750
 5332SOL    HW227459   0.530   4.027   4.448 -1.1413  0.2828  1.0731
 5333SOL     OW27460   1.220   1.636   6.389  0.2477  0.2083  0.9264
 5333SOL    HW127461   1.137   1.684   6.379  2.6441  3.5796 -2.4391
 5333SOL    HW227462   1.245   1.673   6.474 -0.6223  1.7828  0.4930
 5334SOL     OW27463   1.313   0.217   7.534  0.1177  0.9317  0.5759
 5334SOL    HW127464   1.265   0.264   7.466  0.3549  0.2050 -0.1057
 5334SOL    HW227465   1.249   0.186   7.597 -1.5078 -0.6546 -1.8271
 5335SOL     OW27466   0.229   3.460   0.951 -0.7040 -0.1561 -0.1664
 5335SOL    HW127467   0.168   3.532   0.937  0.0065  0.6557  0.9020
 5335SOL    HW227468   0.225   3.410   0.870 -1.3750 -2.3441  1.2083
 5336SOL     OW27469   1.359   1.739   6.923  0.1234  0.0566 -0.6621
 5336SOL    HW127470   1.412   1.818   6.937 -1.1793  0.6717  0.8171
 5336SOL    HW227471   1.315   1.730   7.008 -0.4815 -2.6998 -1.2885
 5337SOL     OW27472   1.884   0.356   4.340 -0.0073 -0.2207 -0.1349
 5337SOL    HW127473   1.890   0.329   4.249 -1.0442 -1.2579  0.1021
 5337SOL    HW227474   1.835   0.282   4.377 -0.3451  0.1272  0.1208
 5338SOL     OW27475   3.344   3.292   6.102  0.1815 -0.6323  0.2638
 5338SOL    HW127476   3.377   3.350   6.170  0.7851  0.6385 -1.1123
 5338SOL    HW227477   3.289   3.348   6.047 -0.6727 -1.7652 -0.0306
 5339SOL     OW27478   1.295   2.522   4.525  0.1407  0.2001 -0.2536
 5339SOL    HW127479   1.214   2.568   4.549  0.8788  1.0438  0.6235
 5339SOL    HW227480   1.276   2.431   4.548  0.9265 -0.3337 -1.7424
 5340SOL     OW27481   1.465   2.474  13.451 -0.1958 -0.4515  0.4956
 5340SOL    HW127482   1.459   2.566  13.428  0.1439 -0.5726 -0.0812
 5340SOL    HW227483   1.561   2.470  13.446 -0.2570 -0.2419 -0.8408
 5341SOL     OW27484   3.471   3.837   5.260 -0.5372 -0.2700  0.8435
 5341SOL    HW127485   3.464   3.746   5.289 -0.4216 -0.5689 -0.0626
 5341SOL    HW227486   3.553   3.865   5.301  0.2874 -0.2362 -0.8309
 5342SOL     OW27487   3.329   2.095   3.790  0.4711 -0.2843 -0.5640
 5342SOL    HW127488   3.393   2.050   3.735 -0.6983 -1.1601 -1.2123
 5342SOL    HW227489   3.389   2.132   3.854 -1.1019 -0.7605  1.1725
 5343SOL     OW27490   4.439   2.445  13.135  0.0542  0.0873  0.0232
 5343SOL    HW127491   4.456   2.490  13.218  0.0386 -0.7150  0.4704
 5343SOL    HW227492   4.411   2.513  13.074  1.6116  1.1565  0.5096
 5344SOL     OW27493   4.041   4.388   7.806  0.0208  0.0771  0.1844
 5344SOL    HW127494   3.989   4.356   7.879 -1.0334  0.3666 -0.4398
 5344SOL    HW227495   3.979   4.360   7.740  3.1162 -1.8616 -1.8811
 5345SOL     OW27496   3.505   2.230  12.357 -0.1282  0.1457 -0.0477
 5345SOL    HW127497   3.565   2.304  12.344 -0.2024 -0.1432 -1.9799
 5345SOL    HW227498   3.472   2.241  12.447 -0.5767  0.1866 -0.2192
 5346SOL     OW27499   2.684   4.415  13.442  0.3897 -0.0041 -0.5440
 5346SOL    HW127500   2.648   4.381  13.524  0.3153 -1.7472 -1.3030
 5346SOL    HW227501   2.610   4.455  13.398 -0.7223 -0.2828  1.0776
 5347SOL     OW27502   2.747   2.855   0.146  0.5888 -0.1684  0.3076
 5347SOL    HW127503   2.694   2.895   0.078 -0.5821  1.3303  2.1188
 5347SOL    HW227504   2.745   2.761   0.128 -0.7040 -0.0258 -0.2726
 5348SOL     OW27505   0.281   1.886   6.695  0.2833  0.3626  0.2374
 5348SOL    HW127506   0.278   1.796   6.727 -1.6353  0.1080 -0.6560
 5348SOL    HW227507   0.245   1.874   6.607 -3.2274  1.2184  1.5555
 5349SOL     OW27508   0.662   0.777   5.641 -0.3250 -0.0521 -0.1995
 5349SOL    HW127509   0.587   0.786   5.582 -0.4468  0.5889  0.0541
 5349SOL    HW227510   0.706   0.717   5.580 -1.2909  0.5604 -1.4936
 5350SOL     OW27511   4.442   2.524  11.330 -0.4870 -0.1461  0.6453
 5350SOL    HW127512   4.452   2.563  11.417 -0.8839 -0.2234  0.7254
 5350SOL    HW227513   4.431   2.605  11.281 -1.8328 -0.0275  1.1317
 5351SOL     OW27514   2.419   1.835  16.499 -0.3120  0.1207 -0.4004
 5351SOL    HW127515   2.339   1.851  16.449 -0.9479  1.3085  1.0221
 5351SOL    HW227516   2.388   1.764  16.555 -1.2605  0.2451 -0.7777
 5352SOL     OW27517   2.989   2.334  17.560 -0.0919 -0.2157  0.5233
 5352SOL    HW127518   2.918   2.382  17.519 -0.8161  0.4310  2.5123
 5352SOL    HW227519   3.041   2.407  17.593 -1.9516  2.6080 -2.7913
 5353SOL     OW27520   2.453   2.867   3.283  0.2904  0.0488  0.1304
 5353SOL    HW127521   2.486   2.796   3.339 -1.7312 -0.2792  0.9301
 5353SOL    HW227522   2.393   2.909   3.344  0.3601 -0.5666  0.6195
 5354SOL     OW27523   4.248   3.810   4.254 -0.2129 -0.0660 -0.1741
 5354SOL    HW127524   4.314   3.787   4.319  0.3109  1.5893 -0.1138
 5354SOL    HW227525   4.281   3.774   4.172 -0.6792 -1.8383  0.4116
 5355SOL     OW27526   4.540   4.062   2.263  0.0972  0.2518 -0.2761
 5355SOL    HW127527   4.469   4.110   2.305  0.1733  1.4857 -1.5728
 5355SOL    HW227528   4.585   4.031   2.342  1.6145  0.4743 -1.0576
 5356SOL     OW27529   1.541   4.440  13.078  0.8870 -0.2446 -0.0998
 5356SOL    HW127530   1.533   4.535  13.070  0.8691 -0.3450 -1.4128
 5356SOL    HW227531   1.456   4.414  13.113 -0.0253 -0.1008 -2.1839
 5357SOL     OW27532   3.572   1.430   7.793  0.3547  0.3191  0.4808
 5357SOL    HW127533   3.659   1.418   7.756  0.1526  3.6295 -1.0807
 5357SOL    HW227534   3.572   1.523   7.772  2.6620  0.6208  1.7634
 5358SOL     OW27535   2.213   1.232   8.514 -0.2152 -0.4532  0.2930
 5358SOL    HW127536   2.194   1.292   8.442 -0.9148  0.0968  0.9384
 5358SOL    HW227537   2.271   1.171   8.468  0.0624 -1.1229  1.5295
 5359SOL     OW27538   3.092   0.298   9.290 -0.1068  0.1939  0.0905
 5359SOL    HW127539   3.165   0.335   9.340 -2.2638  1.1344  2.5246
 5359SOL    HW227540   3.044   0.255   9.361 -1.4775  0.3397 -0.7354
 5360SOL     OW27541   1.127   0.604   8.431 -0.3879 -0.0427 -0.3112
 5360SOL    HW127542   1.176   0.685   8.440  2.2097 -1.7317  0.8839
 5360SOL    HW227543   1.200   0.544   8.414  1.1303  1.2676  1.6195
 5361SOL     OW27544   4.552   2.111   2.351  0.1150 -0.1273 -0.0844
 5361SOL    HW127545   4.504   2.174   2.298 -0.4685 -0.7694 -0.3106
 5361SOL    HW227546   4.493   2.036   2.351 -0.3949  0.2797 -0.7870
 5362SOL     OW27547   0.724   1.526   7.793  0.3000  0.0126 -0.1402
 5362SOL    HW127548   0.683   1.460   7.738 -0.9504 -0.0286  0.8340
 5362SOL    HW227549   0.651   1.583   7.818  0.2431  0.4501 -1.2876
 5363SOL     OW27550   1.159   1.233  11.189  0.0610 -0.3046  0.2259
 5363SOL    HW127551   1.216   1.158  11.204 -0.9292 -1.0931  0.0169
 5363SOL    HW227552   1.151   1.232  11.094  1.3688  4.5694  0.0731
 5364SOL     OW27553   2.154   3.674   5.626 -0.6003 -0.4473  0.2933
 5364SOL    HW127554   2.090   3.663   5.555 -0.1626 -1.6090  0.0782
 5364SOL    HW227555   2.189   3.585   5.628  3.7400  1.2367 -0.7018
 5365SOL     OW27556   2.034   3.768   5.863 -0.8867 -0.2128  0.1424
 5365SOL    HW127557   1.969   3.711   5.904  0.5127 -0.8287  1.5321
 5365SOL    HW227558   2.058   3.717   5.786 -1.6321  0.4653 -0.5409
 5366SOL     OW27559   1.735   2.472   8.289  0.3369 -0.5713 -0.2311
 5366SOL    HW127560   1.722   2.444   8.198  3.2710  0.9922 -1.1246
 5366SOL    HW227561   1.825   2.449   8.311  0.9393  1.8871 -0.0705
 5367SOL     OW27562   1.603   2.772   7.627 -0.3595 -0.3412 -0.0311
 5367SOL    HW127563   1.589   2.844   7.688  1.7161 -0.7490  0.9335
 5367SOL    HW227564   1.695   2.777   7.603 -0.3814 -1.0694 -0.2768
 5368SOL     OW27565   4.648   3.974   2.511  0.0490 -0.1412 -0.3415
 5368SOL    HW127566   4.631   4.027   2.589 -1.5521 -0.2632 -0.6214
 5368SOL    HW227567   0.015   3.941   2.514 -0.0418 -0.2835  0.9899
 5369SOL     OW27568   1.352   0.322   0.892  0.5753  0.3495  0.3516
 5369SOL    HW127569   1.308   0.271   0.960 -0.8372 -0.1784 -0.9453
 5369SOL    HW227570   1.442   0.318   0.923  1.0271  0.7221 -0.9028
 5370SOL     OW27571   1.594   0.817   3.806  0.2779  0.2609 -0.3033
 5370SOL    HW127572   1.521   0.856   3.758 -0.3942  2.2229  2.2871
 5370SOL    HW227573   1.552   0.767   3.876 -0.0338  0.0442 -0.6484
 5371SOL     OW27574   3.478   3.111  11.237  0.4479  0.1756 -0.7750
 5371SOL    HW127575   3.572   3.114  11.221 -0.0700 -0.5640 -3.9142
 5371SOL    HW227576   3.452   3.198  11.207  0.1871  1.0952  2.0803
 5372SOL     OW27577   1.062   3.615   2.921  0.1319  0.0224  0.1257
 5372SOL    HW127578   1.033   3.684   2.861 -1.9802 -0.7601  0.2298
 5372SOL    HW227579   1.054   3.531   2.875  1.9068 -0.0935  0.0159
 5373SOL     OW27580   2.968   1.398   7.350 -0.5719  0.0907 -0.3155
 5373SOL    HW127581   3.037   1.464   7.340  0.2680 -0.5783  1.0483
 5373SOL    HW227582   2.959   1.364   7.261 -1.1896  1.1899 -0.6681
 5374SOL     OW27583   1.170   1.008  12.820  1.0033  0.0802  0.3103
 5374SOL    HW127584   1.091   0.965  12.787 -0.4023  2.4872  0.4894
 5374SOL    HW227585   1.150   1.101  12.808  0.8903 -0.0377 -0.3888
 5375SOL     OW27586   2.221   3.569  12.427  0.9812 -0.0920 -0.1646
 5375SOL    HW127587   2.130   3.597  12.441  0.8919 -0.8251  0.7308
 5375SOL    HW227588   2.237   3.591  12.335  0.0182 -0.9974 -0.5495
 5376SOL     OW27589   4.504   2.853   4.466  0.6331 -0.1786 -0.3804
 5376SOL    HW127590   4.502   2.779   4.526 -2.7397  1.0797  1.0520
 5376SOL    HW227591   4.495   2.926   4.528  0.1237 -0.5073 -0.0662
 5377SOL     OW27592   3.252   2.193   9.436  0.1925 -0.4302  0.5769
 5377SOL    HW127593   3.157   2.183   9.438  0.3640 -2.1272 -0.1430
 5377SOL    HW227594   3.280   2.107   9.404 -0.5196  0.1319 -1.5442
 5378SOL     OW27595   1.525   4.352   7.367 -0.4139  0.0835  0.5006
 5378SOL    HW127596   1.614   4.321   7.353  0.4444  1.7574  2.2896
 5378SOL    HW227597   1.508   4.362   7.461 -0.0464  2.1627  0.3621
 5379SOL     OW27598   1.744   4.241   0.861 -0.4130  0.4832  0.1598
 5379SOL    HW127599   1.833   4.261   0.832 -0.2295  1.3987  1.3482
 5379SOL    HW227600   1.756   4.152   0.895 -2.0426 -0.0191 -0.5656
 5380SOL     OW27601   2.990   0.601   2.929  0.7230 -0.2393 -0.0104
 5380SOL    HW127602   2.911   0.546   2.933  0.1519  0.8910  3.4687
 5380SOL    HW227603   2.952   0.689   2.932  0.5349 -0.1966 -2.7705
 5381SOL     OW27604   2.841   1.615   5.556 -0.3007 -0.2027  0.5015
 5381SOL    HW127605   2.781   1.654   5.619  0.8808  2.1163  0.1858
 5381SOL    HW227606   2.898   1.687   5.527 -0.3006  0.1349  1.3350
 5382SOL     OW27607   2.881   2.264   5.785  0.0651 -0.3457  0.1125
 5382SOL    HW127608   2.914   2.218   5.862  1.2310  1.3613  0.6440
 5382SOL    HW227609   2.821   2.192   5.765  0.5722  0.0249 -2.8046
 5383SOL     OW27610   2.480   2.284   2.167  0.1286  0.3998  0.0807
 5383SOL    HW127611   2.540   2.343   2.212  1.2447 -0.8531  0.2583
 5383SOL    HW227612   2.512   2.200   2.201  0.5321  0.2945 -0.5615
 5384SOL     OW27613   3.886   2.031   5.293 -0.6839  0.1622  0.5619
 5384SOL    HW127614   3.899   1.950   5.244 -1.5241  0.9237 -0.9328
 5384SOL    HW227615   3.932   2.012   5.375 -1.0248  0.3781  0.8045
 5385SOL     OW27616   0.678   0.126  13.130 -0.7290  0.4622 -0.0246
 5385SOL    HW127617   0.681   0.115  13.035  1.0526 -1.0286  0.2073
 5385SOL    HW227618   0.650   0.217  13.136 -0.9739  0.3636  0.3379
 5386SOL     OW27619   4.150   3.357  16.120 -0.2292  0.9770  0.4865
 5386SOL    HW127620   4.232   3.309  16.132 -0.5335  0.7098  1.4746
 5386SOL    HW227621   4.124   3.364  16.212 -2.3996 -0.4758 -0.0301
 5387SOL     OW27622   4.185   1.005   2.579  0.0084 -0.3342 -0.4255
 5387SOL    HW127623   4.247   1.039   2.643 -1.2521  1.4036 -0.1364
 5387SOL    HW227624   4.203   1.060   2.503 -1.7519  0.7908 -0.0038
 5388SOL     OW27625   4.039   2.977  17.656  0.8588 -0.2209 -0.2103
 5388SOL    HW127626   4.004   3.006  17.572  0.7930 -0.9685 -0.4339
 5388SOL    HW227627   4.108   3.044  17.663  0.4531  0.0806  0.8541
 5389SOL     OW27628   2.718   4.701   0.455  0.3112  0.1593  0.7122
 5389SOL    HW127629   2.732   4.717   0.548 -1.8901  0.6241  0.9751
 5389SOL    HW227630   2.623   4.688   0.446  0.2197  2.1710 -1.2395
 5390SOL     OW27631   1.983   1.099   7.971  0.1444 -0.7392  0.0944
 5390SOL    HW127632   1.974   1.019   7.919 -2.0456 -1.3625  1.4128
 5390SOL    HW227633   2.034   1.066   8.044 -2.4303 -3.7783  0.5525
 5391SOL     OW27634   3.639   4.636   7.831 -0.0685  0.2172  0.0236
 5391SOL    HW127635   3.652   4.603   7.920 -0.0315 -0.5259 -0.2610
 5391SOL    HW227636   3.721   4.684   7.818 -0.7936  1.7887  1.2963
 5392SOL     OW27637   3.957   0.302   5.759 -0.6239 -0.0016 -0.4073
 5392SOL    HW127638   3.902   0.375   5.730 -1.1254 -0.5978 -0.9636
 5392SOL    HW227639   4.027   0.322   5.697 -0.4380 -1.4883 -0.6650
 5393SOL     OW27640   0.307   0.560  10.293 -0.0193 -0.0907  0.1305
 5393SOL    HW127641   0.214   0.582  10.292  0.1775  0.7042 -0.2447
 5393SOL    HW227642   0.342   0.611  10.221  0.8746  1.3156  1.5694
 5394SOL     OW27643   1.181   3.641  17.470  0.2246 -0.0913  0.4620
 5394SOL    HW127644   1.188   3.683  17.384  1.7668 -1.4171 -0.0550
 5394SOL    HW227645   1.093   3.603  17.468 -1.0806  2.8399  1.5481
 5395SOL     OW27646   1.197   2.846   7.413 -0.0098  0.2878 -0.3472
 5395SOL    HW127647   1.132   2.805   7.356  0.0730 -1.0904  0.5762
 5395SOL    HW227648   1.276   2.793   7.407 -1.7571 -2.2865 -0.3018
 5396SOL     OW27649   1.878   2.028  13.146  0.2929  0.5921 -0.3275
 5396SOL    HW127650   1.948   2.063  13.091  1.5195  1.7822  2.0164
 5396SOL    HW227651   1.855   2.107  13.195  1.6635  0.5405  0.3636
 5397SOL     OW27652   2.798   0.837   0.918 -0.3794  0.3749  0.5799
 5397SOL    HW127653   2.774   0.745   0.931 -0.0737  0.4893  2.0003
 5397SOL    HW227654   2.859   0.823   0.846  1.1058 -1.2642  2.1512
 5398SOL     OW27655   2.938   1.174   8.286  0.2243  0.4864  0.3139
 5398SOL    HW127656   2.891   1.191   8.205 -1.1251 -1.2152  0.7244
 5398SOL    HW227657   3.028   1.146   8.267 -0.1560 -2.3165  2.5276
 5399SOL     OW27658   2.684   2.120   4.608 -0.1255 -0.3778  1.0167
 5399SOL    HW127659   2.751   2.187   4.598 -0.0158 -0.1879  2.9817
 5399SOL    HW227660   2.701   2.078   4.524 -0.9049  0.1573  0.5881
 5400SOL     OW27661   2.703   4.395   2.997 -0.3136  0.2990  0.2126
 5400SOL    HW127662   2.789   4.406   3.039 -0.9619  2.3757  1.0186
 5400SOL    HW227663   2.655   4.341   3.060  1.8323 -1.1221  0.6140
 5401SOL     OW27664   2.294   3.209   3.276  0.2394 -0.0920 -0.0147
 5401SOL    HW127665   2.281   3.302   3.257 -0.9597 -0.2615 -0.0442
 5401SOL    HW227666   2.292   3.173   3.187 -1.5360 -1.6694  0.6755
 5402SOL     OW27667   1.912   4.585  14.781  0.8771 -0.4570 -0.1497
 5402SOL    HW127668   1.869   4.519  14.726 -0.3087 -0.9455  1.3814
 5402SOL    HW227669   1.895   4.663  14.728 -0.8943 -0.2756  0.6896
 5403SOL     OW27670   3.571   1.813   2.179  0.2278  0.0444  0.5085
 5403SOL    HW127671   3.594   1.855   2.097 -0.1100  0.4525  0.6278
 5403SOL    HW227672   3.621   1.731   2.168 -1.1607 -1.0660  2.3897
 5404SOL     OW27673   1.005   2.918   9.902  0.9901 -0.6358 -0.1740
 5404SOL    HW127674   1.033   2.929   9.993  0.6775 -1.9961  0.0931
 5404SOL    HW227675   1.038   2.997   9.860 -0.3499  1.0613  1.9569
 5405SOL     OW27676   2.009   1.012   6.435 -0.3039  0.2349 -0.3227
 5405SOL    HW127677   1.984   0.926   6.470 -1.1334  1.7231  2.6754
 5405SOL    HW227678   1.965   1.058   6.506 -1.2252 -0.3642 -0.4974
 5406SOL     OW27679   0.375   2.351   6.365 -0.5595  0.7692 -0.2625
 5406SOL    HW127680   0.312   2.359   6.437  0.2051 -0.2709  0.5282
 5406SOL    HW227681   0.369   2.437   6.323  1.6144  2.1386  2.1966
 5407SOL     OW27682   1.285   4.554   9.270  0.4298 -0.4793 -0.0977
 5407SOL    HW127683   1.196   4.540   9.302  1.2491 -1.7377  1.5893
 5407SOL    HW227684   1.294   4.494   9.196 -2.6200 -0.0833 -0.7979
 5408SOL     OW27685   3.948   1.797   1.890  0.1438 -0.6415 -0.1855
 5408SOL    HW127686   3.968   1.706   1.915  0.9466 -0.3395  0.2590
 5408SOL    HW227687   4.030   1.843   1.907 -0.5643  0.2908  0.6943
 5409SOL     OW27688   3.704   0.669   3.594 -0.3105  0.6871 -0.3241
 5409SOL    HW127689   3.753   0.716   3.662  1.4473  0.9762 -1.8275
 5409SOL    HW227690   3.745   0.711   3.519  1.4819  0.1595  0.3718
 5410SOL     OW27691   1.102   3.241   3.967  0.6435  0.1075 -0.1038
 5410SOL    HW127692   1.092   3.332   3.937 -1.3147 -0.4983 -1.2571
 5410SOL    HW227693   1.198   3.241   3.973  0.6010 -0.8726  0.5063
 5411SOL     OW27694   0.633   1.130   1.670  0.0335  0.4052 -0.3004
 5411SOL    HW127695   0.627   1.219   1.637 -0.5472  0.2377 -0.6364
 5411SOL    HW227696   0.717   1.127   1.717  0.5988  0.2479 -1.3047
 5412SOL     OW27697   0.307   0.497   5.521  0.6665 -0.7546  0.4180
 5412SOL    HW127698   0.223   0.540   5.509  0.5446 -0.7611  1.2749
 5412SOL    HW227699   0.279   0.406   5.531 -2.1606 -0.0003 -0.6143
 5413SOL     OW27700   3.974   2.237   5.598  0.2435  0.3384  0.5933
 5413SOL    HW127701   3.988   2.146   5.571  0.6438  0.8126 -0.7732
 5413SOL    HW227702   3.994   2.215   5.689 -1.9032  1.2096  1.2976
 5414SOL     OW27703   2.812   2.999   3.713 -0.2315  0.6209 -0.3550
 5414SOL    HW127704   2.729   3.046   3.723 -1.5936 -1.4643 -1.9549
 5414SOL    HW227705   2.874   3.071   3.719 -1.0631  1.3071  0.0736
 5415SOL     OW27706   3.686   4.504   4.104 -0.1203  0.3110 -0.0408
 5415SOL    HW127707   3.596   4.512   4.072 -0.8084 -0.3894  1.7107
 5415SOL    HW227708   3.690   4.419   4.059 -3.3842  0.1068  0.0550
 5416SOL     OW27709   0.169   2.023  16.977  0.4255  0.0683 -0.1548
 5416SOL    HW127710   0.240   1.991  16.921  3.0121 -1.4646  3.9953
 5416SOL    HW227711   0.095   1.965  16.957  0.3975 -0.4229  1.3119
 5417SOL     OW27712   2.853   4.313   2.225 -0.2840  0.0830 -0.5861
 5417SOL    HW127713   2.867   4.330   2.318 -1.7667  0.5430 -0.4461
 5417SOL    HW227714   2.935   4.347   2.188  0.0533 -2.6890 -2.4297
 5418SOL     OW27715   4.108   2.761   7.895 -0.1816  0.4428  0.0439
 5418SOL    HW127716   4.145   2.804   7.818  1.4846  1.9014  1.6676
 5418SOL    HW227717   4.173   2.691   7.902  0.3402  0.7170 -2.1507
 5419SOL     OW27718   4.224   2.963   7.385 -0.4666  0.2907 -0.3998
 5419SOL    HW127719   4.188   2.988   7.300 -1.4767  0.6293  0.1277
 5419SOL    HW227720   4.245   2.870   7.373 -2.5886 -0.0708 -1.4526
 5420SOL     OW27721   0.281   4.064  12.191  0.2070 -0.0931  0.1207
 5420SOL    HW127722   0.364   4.061  12.143  0.3559  0.7042  0.3255
 5420SOL    HW227723   0.277   4.153  12.226  0.6316  0.1528 -0.4539
 5421SOL     OW27724   0.742   3.010   3.365 -0.4570 -0.0074 -0.6102
 5421SOL    HW127725   0.759   2.917   3.353  1.0198  0.2663 -0.5881
 5421SOL    HW227726   0.811   3.039   3.425 -1.0522 -0.1162  0.1232
 5422SOL     OW27727   3.834   4.091   6.509  0.0377 -0.8190  0.4783
 5422SOL    HW127728   3.889   4.122   6.437 -0.9278  0.8288  0.4499
 5422SOL    HW227729   3.880   4.008   6.523  0.7840 -0.6994 -1.2319
 5423SOL     OW27730   0.763   3.367   9.113  0.0015  0.1263  0.1715
 5423SOL    HW127731   0.845   3.333   9.148  0.3324 -0.7037 -1.3887
 5423SOL    HW227732   0.715   3.381   9.195 -1.7632  3.6119 -1.4351
 5424SOL     OW27733   3.554   1.129   6.933 -0.3055 -0.1841 -0.0565
 5424SOL    HW127734   3.605   1.083   6.867  0.4952  0.8889 -0.1913
 5424SOL    HW227735   3.495   1.069   6.978 -0.6896 -0.5379 -1.0526
 5425SOL     OW27736   3.861   1.191   5.412  0.0629  0.0324  0.0442
 5425SOL    HW127737   3.790   1.143   5.370  1.3989 -2.0180  0.1127
 5425SOL    HW227738   3.812   1.236   5.481  0.1529  2.8403 -1.7251
 5426SOL     OW27739   1.951   3.001  16.510  0.1561  0.1515  0.7588
 5426SOL    HW127740   1.857   3.011  16.526 -0.0728 -1.4391  0.4138
 5426SOL    HW227741   1.989   2.975  16.594  0.1882 -0.7578  0.4667
 5427SOL     OW27742   4.706   1.354   7.848 -0.0556 -0.4695 -0.1390
 5427SOL    HW127743   0.057   1.392   7.800  0.0036  1.5443  1.5605
 5427SOL    HW227744   0.037   1.290   7.895  0.6923 -0.9008 -1.5616
 5428SOL     OW27745   3.192   3.175   6.538  0.0630  0.7813 -0.2393
 5428SOL    HW127746   3.218   3.083   6.532  1.4544  0.9212  3.6007
 5428SOL    HW227747   3.145   3.184   6.455  0.4589  0.6291 -0.4802
 5429SOL     OW27748   0.934   0.451   6.127  0.5879 -0.1310  0.2919
 5429SOL    HW127749   0.847   0.453   6.166  0.2073 -1.9072 -0.4559
 5429SOL    HW227750   0.991   0.480   6.198  0.8518  3.0299 -1.1710
 5430SOL     OW27751   3.778   4.674  14.872 -0.3582 -0.5004 -0.2394
 5430SOL    HW127752   3.722   4.601  14.900 -0.5986 -0.7570 -1.3810
 5430SOL    HW227753   3.735   0.028  14.908  2.0805  0.2902  0.9638
 5431SOL     OW27754   4.578   0.201   2.520  0.0488  0.0409 -0.1903
 5431SOL    HW127755   4.499   0.223   2.569  1.4073  0.5345  1.7879
 5431SOL    HW227756   4.651   0.212   2.580  0.6340 -0.3575 -0.8219
 5432SOL     OW27757   2.186   1.251  13.010  0.0809  0.5740  0.0276
 5432SOL    HW127758   2.146   1.325  12.964  1.5161  0.5255 -1.2823
 5432SOL    HW227759   2.130   1.177  12.988 -0.2825 -0.0236  2.9419
 5433SOL     OW27760   3.351   4.669   4.937 -0.4368  0.2873  0.2403
 5433SOL    HW127761   3.438   4.707   4.950 -0.3466  0.1444  0.0573
 5433SOL    HW227762   3.347   4.610   5.013 -0.5417  0.0618  0.0600
 5434SOL     OW27763   1.245   4.089  12.423  0.1972 -0.6977 -0.2016
 5434SOL    HW127764   1.331   4.124  12.401  1.4406 -1.8787  2.8415
 5434SOL    HW227765   1.213   4.069  12.335 -1.4754  3.0073 -0.4403
 5435SOL     OW27766   3.562   2.213   8.208  0.2622 -0.7280 -0.6672
 5435SOL    HW127767   3.487   2.231   8.151  0.1709 -0.4144 -0.4467
 5435SOL    HW227768   3.608   2.297   8.214 -0.7800 -0.1826 -0.1914
 5436SOL     OW27769   3.292   3.275   5.476  0.1660  0.5539  0.5462
 5436SOL    HW127770   3.361   3.215   5.445 -0.0944  1.3927 -1.6213
 5436SOL    HW227771   3.253   3.218   5.542 -1.4261 -1.6787 -2.3220
 5437SOL     OW27772   2.065   2.273   3.390 -0.6222 -0.3056 -0.0049
 5437SOL    HW127773   2.097   2.200   3.337  0.0791  0.8769 -1.2065
 5437SOL    HW227774   2.049   2.221   3.468 -0.3095 -0.6728 -0.1841
 5438SOL     OW27775   3.657   1.771   3.081  0.7748  0.7577  0.6862
 5438SOL    HW127776   3.573   1.816   3.076 -0.2208 -1.0673  0.7707
 5438SOL    HW227777   3.644   1.703   3.015  0.3517  1.5820 -0.0800
 5439SOL     OW27778   0.183   1.056   8.621  0.1646  0.1653  0.1243
 5439SOL    HW127779   0.156   0.983   8.677  2.2024 -0.4141  0.3428
 5439SOL    HW227780   0.105   1.068   8.566  0.0171 -0.7289  0.1319
 5440SOL     OW27781   3.263   3.179   4.276 -0.5724  0.1900  0.5018
 5440SOL    HW127782   3.232   3.214   4.192  0.2581  1.9571  0.9276
 5440SOL    HW227783   3.173   3.182   4.310 -1.1060 -0.9327 -0.8073
 5441SOL     OW27784   3.277   2.097   2.840  0.1208  0.2772 -0.0365
 5441SOL    HW127785   3.264   2.132   2.752 -3.5062  0.3910  0.5393
 5441SOL    HW227786   3.189   2.094   2.877  0.1098  0.4617 -0.0498
 5442SOL     OW27787   0.612   1.225   9.589  0.1551 -0.6337 -0.2940
 5442SOL    HW127788   0.692   1.252   9.634  1.7641 -0.4029 -3.2657
 5442SOL    HW227789   0.572   1.311   9.592  1.0266 -0.2437  0.0240
 5443SOL     OW27790   1.063   1.326  13.075 -0.0839  0.2147 -0.7455
 5443SOL    HW127791   1.007   1.402  13.092  0.5193  0.6539 -0.7362
 5443SOL    HW227792   1.115   1.361  13.002  1.4815 -1.5080 -0.4492
 5444SOL     OW27793   0.702   3.088   5.357  0.4936 -0.1025 -0.4010
 5444SOL    HW127794   0.743   3.023   5.300  1.9837 -0.5361  1.1757
 5444SOL    HW227795   0.778   3.111   5.411 -1.8263  0.3206  2.6818
 5445SOL     OW27796   3.518   4.455   2.306 -0.4045 -0.9642 -0.5298
 5445SOL    HW127797   3.517   4.361   2.325 -1.5009 -0.1622  3.3916
 5445SOL    HW227798   3.568   4.488   2.380  2.9912 -4.5511 -1.2028
 5446SOL     OW27799   3.278   1.902   4.244  0.1363  0.6231  0.2358
 5446SOL    HW127800   3.194   1.885   4.286 -0.7691 -0.4403 -1.9994
 5446SOL    HW227801   3.320   1.961   4.306  0.6445 -1.3551  1.7589
 5447SOL     OW27802   1.901   0.043   3.411 -0.0651  0.0509 -0.3451
 5447SOL    HW127803   1.908   0.001   3.497  1.0542  1.0278  0.0347
 5447SOL    HW227804   1.979   0.008   3.368  1.7922 -0.3228  3.2801
 5448SOL     OW27805   4.450   4.540  16.050 -0.0357 -0.1912  0.0372
 5448SOL    HW127806   4.465   4.495  16.133  1.6121 -0.4974 -0.4237
 5448SOL    HW227807   4.392   4.611  16.077  0.4223  0.7037 -1.3363
 5449SOL     OW27808   0.484   0.608   8.613  0.1032  0.3765  0.9466
 5449SOL    HW127809   0.461   0.700   8.608 -2.4084 -0.3948 -1.6361
 5449SOL    HW227810   0.567   0.616   8.660  1.4238  2.2608 -1.7401
 5450SOL     OW27811   4.090   2.382  11.030 -0.0725  0.0959  0.4605
 5450SOL    HW127812   4.037   2.429  11.093 -1.1747 -2.5838  1.4966
 5450SOL    HW227813   4.134   2.318  11.086 -0.6163 -1.8124 -1.2712
 5451SOL     OW27814   1.855   0.685   8.503 -0.0025  0.3937  0.6767
 5451SOL    HW127815   1.824   0.766   8.543 -1.4974  0.1763 -0.0284
 5451SOL    HW227816   1.844   0.709   8.411 -0.4610 -0.3815  0.5315
 5452SOL     OW27817   4.600   4.533  11.344 -0.0791  0.5041 -0.1641
 5452SOL    HW127818   4.571   4.587  11.270 -1.4619 -0.3078 -0.2094
 5452SOL    HW227819   4.522   4.540  11.399 -0.0745  0.4586 -0.1520
 5453SOL     OW27820   3.896   2.486   0.274  0.1432 -0.3148  0.1145
 5453SOL    HW127821   3.965   2.440   0.226 -0.4463  0.9357 -1.9573
 5453SOL    HW227822   3.942   2.539   0.339 -1.6102  0.0383  1.0752
 5454SOL     OW27823   1.803   0.157   2.710  0.2522  0.4697 -0.0316
 5454SOL    HW127824   1.849   0.148   2.626 -0.8184 -0.3498 -0.5309
 5454SOL    HW227825   1.875   0.163   2.773 -1.3939 -1.6183  2.0560
 5455SOL     OW27826   2.542   1.221   5.525 -0.2518  0.0028  0.2220
 5455SOL    HW127827   2.476   1.157   5.499  2.1445 -2.5405  0.3517
 5455SOL    HW227828   2.581   1.241   5.440 -1.7882 -1.4723 -0.8411
 5456SOL     OW27829   1.111   0.975   6.887 -0.2407  0.0212  0.2095
 5456SOL    HW127830   1.135   1.067   6.882  1.4026 -0.3155  1.9479
 5456SOL    HW227831   1.071   0.971   6.974 -0.3427  1.1783  0.2238
 5457SOL     OW27832   0.259   2.742   5.482  0.1349  0.3050 -0.1093
 5457SOL    HW127833   0.340   2.791   5.495 -0.6419  2.3596 -3.0039
 5457SOL    HW227834   0.297   2.654   5.481  1.0273  0.6908 -0.6244
 5458SOL     OW27835   1.517   1.761   5.839 -0.2704 -0.0074  0.1929
 5458SOL    HW127836   1.503   1.764   5.744 -3.3889 -1.4223  0.5984
 5458SOL    HW227837   1.584   1.693   5.845  0.4284  0.7807  1.4754
 5459SOL     OW27838   4.249   3.681  10.930 -0.0715 -0.1836  0.5782
 5459SOL    HW127839   4.230   3.588  10.927  2.8175 -0.7870  0.9736
 5459SOL    HW227840   4.174   3.703  10.985 -0.8124  2.5306 -1.5285
 5460SOL     OW27841   2.311   2.040   5.042  0.2933 -0.4296 -0.6972
 5460SOL    HW127842   2.313   2.053   4.947  1.0605 -0.7274 -0.7154
 5460SOL    HW227843   2.389   1.986   5.054 -0.1364 -1.3517 -2.0621
 5461SOL     OW27844   3.112   0.081   5.488 -0.2406 -0.0083  0.2999
 5461SOL    HW127845   3.065   0.022   5.546 -2.0344  1.4350  0.3306
 5461SOL    HW227846   3.203   0.069   5.513 -0.5737 -1.9869  0.5067
 5462SOL     OW27847   3.317   1.969   9.060 -0.3292  0.0249  0.5522
 5462SOL    HW127848   3.270   1.951   9.141  1.6011 -0.6627  1.5218
 5462SOL    HW227849   3.411   1.974   9.079 -0.0060 -0.0972 -1.0215
 5463SOL     OW27850   1.701   4.594   3.059 -0.1782  0.0999  0.4776
 5463SOL    HW127851   1.606   4.604   3.055 -0.3572 -1.0482  1.7733
 5463SOL    HW227852   1.724   4.657   3.128 -0.5554  2.1132 -1.2572
 5464SOL     OW27853   0.438   0.191   3.816  0.2661 -0.0881 -0.3268
 5464SOL    HW127854   0.349   0.161   3.797 -0.2909  0.8633  0.7093
 5464SOL    HW227855   0.481   0.118   3.774  2.7244  1.2547 -0.1590
 5465SOL     OW27856   1.432   2.423  10.683  0.2595 -0.3231  0.4208
 5465SOL    HW127857   1.401   2.373  10.608  2.1148 -0.4082 -0.2839
 5465SOL    HW227858   1.360   2.399  10.742 -1.0769  1.1806 -0.5827
 5466SOL     OW27859   4.201   0.924   7.804 -0.4474 -0.7325 -0.2130
 5466SOL    HW127860   4.245   0.969   7.732 -0.8242 -0.4465 -0.2648
 5466SOL    HW227861   4.151   0.992   7.848 -1.7343 -1.7315 -0.1394
 5467SOL     OW27862   1.994   3.141  16.276  0.5321 -0.2013  0.2355
 5467SOL    HW127863   1.967   3.095  16.355  2.3847  3.0730  2.7704
 5467SOL    HW227864   2.089   3.136  16.284  0.5923 -0.3289 -0.5919
 5468SOL     OW27865   1.007   0.595   5.600 -0.3064  0.0589 -0.3030
 5468SOL    HW127866   0.996   0.634   5.687 -1.6482 -2.0889  0.5103
 5468SOL    HW227867   0.919   0.572   5.569  0.0518 -0.4429 -0.9240
 5469SOL     OW27868   3.150   1.780   9.579  0.0402 -0.3728  0.1866
 5469SOL    HW127869   3.064   1.739   9.584 -0.0314 -0.2712 -0.2164
 5469SOL    HW227870   3.135   1.867   9.616  0.0214 -0.1744 -0.2864
 5470SOL     OW27871   2.371   3.828   5.572  0.4997  0.1951  0.3282
 5470SOL    HW127872   2.430   3.831   5.647 -1.0958  3.1594  1.4766
 5470SOL    HW227873   2.292   3.787   5.609  0.6587 -0.6275 -0.2399
 5471SOL     OW27874   4.464   4.278   4.889 -0.0808 -0.0798 -0.3659
 5471SOL    HW127875   4.516   4.207   4.850  1.3408 -0.0748  1.5697
 5471SOL    HW227876   4.381   4.254   4.846 -0.4557  2.0185 -0.7910
 5472SOL     OW27877   2.388   4.013   5.906  0.7550  0.5521  0.6041
 5472SOL    HW127878   2.460   4.077   5.907  0.3329  1.0747 -1.1553
 5472SOL    HW227879   2.319   4.052   5.853  0.7420  0.1936  0.3570
 5473SOL     OW27880   3.757   3.024  10.129 -0.1738 -0.0182  0.3907
 5473SOL    HW127881   3.727   2.974  10.052  0.9756 -1.0755  0.6193
 5473SOL    HW227882   3.678   3.075  10.149 -0.6914 -0.1092 -1.3570
 5474SOL     OW27883   2.252   1.527   9.782  0.8093 -0.5409  0.0369
 5474SOL    HW127884   2.192   1.583   9.830  1.2679  0.0876 -0.1228
 5474SOL    HW227885   2.307   1.504   9.857  1.7875 -1.9543 -1.1060
 5475SOL     OW27886   4.397   2.818   2.144  0.1984 -0.0557 -0.2408
 5475SOL    HW127887   4.412   2.762   2.220  0.0016 -0.7811 -0.7412
 5475SOL    HW227888   4.483   2.810   2.104 -0.4589 -0.0987 -1.6359
 5476SOL     OW27889   1.523   3.254   0.271  0.2929 -0.0655 -0.7250
 5476SOL    HW127890   1.452   3.317   0.258 -0.3368 -0.4172  1.0522
 5476SOL    HW227891   1.479   3.174   0.242 -0.2074 -0.8225  2.1589
 5477SOL     OW27892   3.811   4.260   2.380 -0.1330 -0.2894 -0.4990
 5477SOL    HW127893   3.776   4.193   2.321 -0.3464  0.0814 -0.7983
 5477SOL    HW227894   3.890   4.294   2.337 -0.4486  0.2398 -0.6627
 5478SOL     OW27895   0.401   0.673   9.110 -0.0585  0.0821 -0.1067
 5478SOL    HW127896   0.381   0.765   9.094 -0.6380  0.0902  0.6540
 5478SOL    HW227897   0.493   0.682   9.138 -0.1487 -1.7512  0.8159
 5479SOL     OW27898   2.096   0.594  14.517 -0.3507 -0.1787  0.0283
 5479SOL    HW127899   2.066   0.608  14.428  0.5066  1.8810  0.0704
 5479SOL    HW227900   2.035   0.524  14.540 -0.3207  0.0700  0.8983
 5480SOL     OW27901   3.446   1.523   7.249 -0.2867 -0.0655  0.0867
 5480SOL    HW127902   3.440   1.452   7.185  0.4313 -1.3506  1.4432
 5480SOL    HW227903   3.358   1.560   7.260 -0.2511  0.2950 -0.8958
 5481SOL     OW27904   0.703   1.672   4.544 -0.2647  0.0307  0.0522
 5481SOL    HW127905   0.693   1.607   4.613 -0.6977 -0.8613 -0.8623
 5481SOL    HW227906   0.771   1.629   4.493  0.4079  0.4199  0.6190
 5482SOL     OW27907   2.229   4.563   9.188 -0.7140 -0.2523 -0.0622
 5482SOL    HW127908   2.209   4.535   9.099 -2.2514  2.5402 -0.5809
 5482SOL    HW227909   2.294   4.497   9.214 -2.0445 -1.2256  0.7423
 5483SOL     OW27910   3.259   1.367   5.677  0.4617 -0.6305 -0.1809
 5483SOL    HW127911   3.237   1.274   5.674  0.9624 -0.7484 -0.1946
 5483SOL    HW227912   3.179   1.405   5.639  0.4570  0.3788  0.8509
 5484SOL     OW27913   0.757   3.982  14.610 -0.2146 -0.2085 -0.8125
 5484SOL    HW127914   0.800   3.955  14.691 -0.2449 -0.1890 -0.7896
 5484SOL    HW227915   0.805   3.933  14.544 -3.4522 -1.5714 -2.1803
 5485SOL     OW27916   4.643   3.963   8.867 -0.2725 -0.3353  0.2780
 5485SOL    HW127917   4.663   4.052   8.839 -2.5943  0.4489  1.0625
 5485SOL    HW227918   0.002   3.938   8.911 -2.1114 -4.9556  1.1083
 5486SOL     OW27919   0.206   4.567   7.993  0.1656 -0.3293  0.0024
 5486SOL    HW127920   0.164   4.649   8.021 -1.0930 -0.1632 -2.4663
 5486SOL    HW227921   0.283   4.597   7.944  0.1954  1.4549  1.1014
 5487SOL     OW27922   3.568   3.108   4.978  0.0203  0.6779 -0.1490
 5487SOL    HW127923   3.535   3.047   5.045 -1.9446  0.8834 -0.9393
 5487SOL    HW227924   3.652   3.122   5.023  0.7476  1.7615 -1.8317
 5488SOL     OW27925   3.894   1.770   7.373 -0.7201 -0.3352  0.2730
 5488SOL    HW127926   3.844   1.735   7.300  0.5262  0.8287 -1.1615
 5488SOL    HW227927   3.854   1.854   7.396  0.6650  0.3946  0.0459
 5489SOL     OW27928   4.211   4.451   2.449  0.0410 -0.1661  1.0574
 5489SOL    HW127929   4.150   4.415   2.386  0.7051  1.7310 -0.6803
 5489SOL    HW227930   4.282   4.471   2.388 -0.1827  0.7947  1.1107
 5490SOL     OW27931   3.271   4.098  10.234  1.0205 -0.3416  0.7382
 5490SOL    HW127932   3.249   4.145  10.314  0.2958  0.4746  0.0591
 5490SOL    HW227933   3.262   4.005  10.257  1.0947 -0.7050 -0.7200
 5491SOL     OW27934   0.601   2.125   2.137 -0.5056 -0.4148  0.0030
 5491SOL    HW127935   0.604   2.092   2.047 -0.4579  2.6812 -1.1544
 5491SOL    HW227936   0.513   2.099   2.162 -1.4199  2.7717  0.1588
 5492SOL     OW27937   0.070   1.942  15.774 -0.8438 -0.2151  0.1617
 5492SOL    HW127938   4.716   1.992  15.746 -0.9687 -0.2375  0.4574
 5492SOL    HW227939   0.031   1.860  15.805 -1.3412 -1.3268 -3.4253
 5493SOL     OW27940   3.081   2.397  17.189 -0.2351 -0.2188  0.2742
 5493SOL    HW127941   3.016   2.442  17.242  2.1732 -1.8878  4.5906
 5493SOL    HW227942   3.107   2.475  17.141 -2.6694  0.2203 -0.3457
 5494SOL     OW27943   2.055   0.366   3.528  0.2143  0.2351 -0.3833
 5494SOL    HW127944   2.124   0.404   3.473  0.5796  1.6141  1.0491
 5494SOL    HW227945   2.035   0.285   3.482 -1.5204 -0.5019  1.6968
 5495SOL     OW27946   1.310   2.233   7.048 -0.1569  1.0167 -0.3230
 5495SOL    HW127947   1.376   2.164   7.046 -0.7616  0.4676 -1.4695
 5495SOL    HW227948   1.356   2.301   7.097  0.5716 -0.9874  1.7675
 5496SOL     OW27949   0.327   3.453   5.868  0.0467 -0.0838  0.4797
 5496SOL    HW127950   0.353   3.509   5.940  0.2830  1.6640 -0.9652
 5496SOL    HW227951   0.404   3.456   5.810  0.5708  0.6006  1.2126
 5497SOL     OW27952   2.094   2.313   7.608 -0.2143 -0.2322  0.6659
 5497SOL    HW127953   2.039   2.375   7.560  0.1149 -1.6962 -1.6031
 5497SOL    HW227954   2.178   2.324   7.564 -0.1823 -3.5428 -0.1348
 5498SOL     OW27955   0.653   0.391   2.466  0.6219  0.6984 -0.4675
 5498SOL    HW127956   0.591   0.357   2.531  1.6160 -0.4052 -0.1013
 5498SOL    HW227957   0.621   0.481   2.461 -2.2255 -0.2386  0.4073
 5499SOL     OW27958   1.806   0.672   3.080  0.0680 -0.0603 -0.3906
 5499SOL    HW127959   1.857   0.638   3.006  0.8748  0.2457  0.0190
 5499SOL    HW227960   1.724   0.627   3.063  0.2888 -0.2796 -0.8554
 5500SOL     OW27961   0.673   0.578   6.185  0.1222 -0.2209  0.3181
 5500SOL    HW127962   0.602   0.642   6.177 -0.0823 -0.4059  0.6300
 5500SOL    HW227963   0.672   0.562   6.280  3.2896  0.8265  0.5273
 5501SOL     OW27964   3.114   2.278   7.948 -0.3795 -0.5368 -0.0876
 5501SOL    HW127965   3.086   2.196   7.989  0.6882 -0.3086  1.0817
 5501SOL    HW227966   3.079   2.264   7.860 -1.1872 -0.7685  0.2690
 5502SOL     OW27967   3.680   4.066  12.285 -0.0450  0.2158  0.3606
 5502SOL    HW127968   3.648   4.156  12.276 -1.5947 -0.5861 -2.0997
 5502SOL    HW227969   3.743   4.059  12.213 -0.7497  0.1420 -0.2510
 5503SOL     OW27970   2.000   1.333   7.471 -0.1564  0.0879 -0.2549
 5503SOL    HW127971   1.966   1.274   7.403 -0.4934  1.5983 -1.3968
 5503SOL    HW227972   1.922   1.380   7.499 -0.4014 -0.9104  0.7402
 5504SOL     OW27973   0.781   1.036   9.436 -0.3191  0.4718 -0.1787
 5504SOL    HW127974   0.834   1.056   9.359 -1.2143  0.8016 -0.7115
 5504SOL    HW227975   0.727   1.113   9.456 -1.2023 -0.0424 -0.5590
 5505SOL     OW27976   0.443   2.376   3.132 -0.2142 -0.3508 -0.1567
 5505SOL    HW127977   0.423   2.469   3.117 -0.5279 -0.3707  0.1557
 5505SOL    HW227978   0.401   2.337   3.055  1.6887 -1.5366 -0.5961
 5506SOL     OW27979   3.214   3.577   3.247  0.2041 -0.2748 -0.2994
 5506SOL    HW127980   3.208   3.484   3.225 -1.0283 -0.4879  0.9422
 5506SOL    HW227981   3.273   3.602   3.175 -0.8027  1.9692 -0.3492
 5507SOL     OW27982   1.392   0.341  16.853 -0.4341 -0.3612  0.1903
 5507SOL    HW127983   1.400   0.400  16.928 -0.2015  1.7192 -1.4563
 5507SOL    HW227984   1.379   0.265  16.910 -2.5346 -1.3426 -1.5947
 5508SOL     OW27985   0.375   1.849   9.546 -0.1320  0.1277 -0.2543
 5508SOL    HW127986   0.352   1.899   9.468 -1.4294 -0.6204 -0.3483
 5508SOL    HW227987   0.427   1.779   9.506 -1.0264 -0.5539 -0.2329
 5509SOL     OW27988   4.362   3.371   4.330  0.1450 -0.0102  0.2988
 5509SOL    HW127989   4.267   3.369   4.343 -0.1191  2.1363 -1.2201
 5509SOL    HW227990   4.384   3.278   4.330  0.8837  0.1637  0.9102
 5510SOL     OW27991   4.142   1.315   2.761 -0.1937 -0.2444 -0.0488
 5510SOL    HW127992   4.229   1.280   2.738  0.0748  0.3486  0.0743
 5510SOL    HW227993   4.153   1.403   2.727  2.4615 -1.3048 -1.9730
 5511SOL     OW27994   0.414   3.592   7.597 -0.3051 -0.0429  0.3506
 5511SOL    HW127995   0.500   3.619   7.564 -0.3027  0.5409  0.8428
 5511SOL    HW227996   0.429   3.527   7.666 -0.0100 -1.5852 -1.1646
 5512SOL     OW27997   3.322   3.227   0.312 -0.1280 -0.3004  0.7117
 5512SOL    HW127998   3.241   3.279   0.312 -1.0353 -1.7166  1.4297
 5512SOL    HW227999   3.301   3.176   0.390 -0.0409 -1.8006 -0.2496
 5513SOL     OW28000   2.072   0.868   3.683 -0.6876  0.0748  0.0631
 5513SOL    HW128001   2.020   0.865   3.763  1.2150  0.2255  1.3081
 5513SOL    HW228002   2.138   0.805   3.712 -0.7695 -1.6427 -3.5277
 5514SOL     OW28003   1.834   3.537  16.424 -0.0437  0.1064 -0.3450
 5514SOL    HW128004   1.850   3.607  16.361 -1.0528  0.8537  0.2165
 5514SOL    HW228005   1.813   3.462  16.368 -0.3601 -1.8022  2.2877
 5515SOL     OW28006   1.605   0.872   5.902  0.2086  0.2138  0.2693
 5515SOL    HW128007   1.626   0.834   5.817 -2.4242  1.0311 -0.7381
 5515SOL    HW228008   1.639   0.961   5.898  0.0113  0.3730  1.9139
 5516SOL     OW28009   4.491   3.384   4.073 -0.0264  0.3508  0.2323
 5516SOL    HW128010   4.442   3.362   4.152 -1.1099 -0.0256 -0.5355
 5516SOL    HW228011   4.486   3.301   4.024 -0.9533  0.2097  0.5546
 5517SOL     OW28012   1.202   3.921   1.156 -0.4009 -0.2852  0.1081
 5517SOL    HW128013   1.247   3.849   1.200  0.7621  0.3470 -0.0605
 5517SOL    HW228014   1.169   3.960   1.237 -2.2200  3.3641 -2.3505
 5518SOL     OW28015   3.496   2.206   3.971 -0.0013  0.8455 -0.0369
 5518SOL    HW128016   3.554   2.269   3.928  1.3903 -1.7380 -1.9572
 5518SOL    HW228017   3.454   2.259   4.038 -0.6386 -0.4161  0.5610
 5519SOL     OW28018   1.418   1.460   9.057 -0.2183  0.2337 -0.2889
 5519SOL    HW128019   1.393   1.381   9.009 -2.1268  1.1272 -0.7547
 5519SOL    HW228020   1.510   1.438   9.073 -0.2794  0.4414  0.3483
 5520SOL     OW28021   3.107   3.542  13.118 -0.6150 -0.2344  0.8199
 5520SOL    HW128022   3.052   3.479  13.164 -2.0619 -1.3543 -2.4929
 5520SOL    HW228023   3.186   3.487  13.110 -0.0407  0.6313  0.4947
 5521SOL     OW28024   2.459   4.699   1.957 -0.0053 -0.1184  0.2831
 5521SOL    HW128025   2.553   4.713   1.963  0.1202 -1.2270  0.7383
 5521SOL    HW228026   2.440   4.636   2.026 -0.3713  0.7863  0.9944
 5522SOL     OW28027   4.512   0.008   7.664  0.1588 -0.3713 -0.2361
 5522SOL    HW128028   4.497   0.005   7.759  1.0959  0.1611 -0.0745
 5522SOL    HW228029   4.441   0.060   7.627 -1.8095 -1.9398  1.3311
 5523SOL     OW28030   3.313   3.982   2.477 -0.3888  0.3126  0.1417
 5523SOL    HW128031   3.220   3.982   2.454 -0.4762  1.4339  0.5033
 5523SOL    HW228032   3.325   3.894   2.441  0.1715  0.8451 -0.9567
 5524SOL     OW28033   4.674   1.755  15.928 -0.4124  0.2597  0.2911
 5524SOL    HW128034   0.027   1.726  15.979  1.4490  3.0546 -0.8584
 5524SOL    HW228035   4.621   1.770  16.006 -1.5346  1.7706 -0.7846
 5525SOL     OW28036   3.774   2.327   8.586  0.1221  0.4977  0.2516
 5525SOL    HW128037   3.716   2.264   8.542  1.3096  1.0128 -2.0495
 5525SOL    HW228038   3.840   2.361   8.526 -0.0873  1.3308  0.5007
 5526SOL     OW28039   0.155   1.535   8.003 -0.0376 -0.2743 -0.0141
 5526SOL    HW128040   0.208   1.546   8.082 -0.5562  1.1362  0.1326
 5526SOL    HW228041   0.076   1.580   8.033  0.6895  0.7928  0.2777
 5527SOL     OW28042   2.739   2.106  15.573 -0.1220  0.0819  0.5584
 5527SOL    HW128043   2.744   2.026  15.625 -4.3883 -0.5400 -0.0516
 5527SOL    HW228044   2.826   2.114  15.533 -1.2707  1.9178 -1.5481
 5528SOL     OW28045   0.760   4.007  14.132  0.6679 -0.4505  0.3359
 5528SOL    HW128046   0.733   3.917  14.151 -0.2204 -0.0128  1.1746
 5528SOL    HW228047   0.689   4.028  14.072 -1.1125  0.9366  2.9083
 5529SOL     OW28048   4.547   2.282  11.350 -0.0276  0.0042 -0.6408
 5529SOL    HW128049   4.631   2.326  11.332 -0.5092  1.1442 -0.1584
 5529SOL    HW228050   4.504   2.359  11.388 -1.0597 -1.3306  0.9068
 5530SOL     OW28051   1.663   3.798   6.020  0.0501  0.0719  0.5245
 5530SOL    HW128052   1.678   3.884   5.980 -3.8620  0.6622  0.3647
 5530SOL    HW228053   1.723   3.741   5.973 -1.8454 -1.1050 -0.4702
 5531SOL     OW28054   1.476   0.701  13.149  0.3901 -0.0443  0.6170
 5531SOL    HW128055   1.479   0.777  13.090 -0.5744  0.9742  1.8944
 5531SOL    HW228056   1.550   0.721  13.205 -0.1449  1.6541  0.7123
 5532SOL     OW28057   2.022   0.927   4.030  0.2011 -0.0008 -0.5182
 5532SOL    HW128058   1.987   0.981   4.101  0.3297 -0.2241 -0.2847
 5532SOL    HW228059   2.020   0.842   4.074 -2.4947  0.4444  0.2129
 5533SOL     OW28060   0.044   4.683  12.396 -0.1106  0.0278  0.0815
 5533SOL    HW128061   0.130   0.000  12.379  0.1482 -1.4693 -2.1853
 5533SOL    HW228062   0.015   4.669  12.306 -1.1878  0.5065  0.3626
 5534SOL     OW28063   0.477   3.899  14.812 -0.3479  0.0843  0.5823
 5534SOL    HW128064   0.436   3.963  14.871 -0.8047 -0.8601  1.3044
 5534SOL    HW228065   0.490   3.960  14.740  1.5887 -0.8508  0.1589
 5535SOL     OW28066   4.555   1.798   3.412  0.2474 -0.1960 -0.0772
 5535SOL    HW128067   4.541   1.704   3.407  0.4617 -0.1497 -1.4618
 5535SOL    HW228068   4.466   1.832   3.418  0.7928  1.0329  1.2428
 5536SOL     OW28069   0.997   1.594  15.074 -0.0387  0.1068 -0.5258
 5536SOL    HW128070   1.068   1.539  15.108  0.3492 -0.0119 -1.5433
 5536SOL    HW228071   0.933   1.529  15.044 -1.8847  2.0994 -0.8842
 5537SOL     OW28072   0.506   4.599   7.137  0.3782 -0.0346  0.1150
 5537SOL    HW128073   0.576   4.623   7.198  1.0210  1.5803 -1.2716
 5537SOL    HW228074   0.495   4.684   7.095  1.5134  0.6490  1.2165
 5538SOL     OW28075   1.197   4.438   9.777 -0.2425  0.0669 -0.2621
 5538SOL    HW128076   1.196   4.342   9.781 -0.9169  0.0964  0.3323
 5538SOL    HW228077   1.116   4.458   9.823 -0.1893  0.6201 -0.4130
 5539SOL     OW28078   0.008   2.329   5.999  0.4612  0.1576  0.3893
 5539SOL    HW128079   0.036   2.421   5.993 -0.3519  0.3259 -0.7760
 5539SOL    HW228080   4.687   2.316   6.083 -1.0193  0.0445 -0.4048
 5540SOL     OW28081   2.569   3.694  13.457  0.0305  0.6543  0.4489
 5540SOL    HW128082   2.643   3.695  13.398 -0.6259  0.0505 -0.3894
 5540SOL    HW228083   2.539   3.783  13.477 -1.3657  1.0251 -3.3638
 5541SOL     OW28084   2.697   3.351  11.693 -0.3077 -0.3434 -0.2735
 5541SOL    HW128085   2.745   3.287  11.641  0.6733 -0.2697  0.5382
 5541SOL    HW228086   2.646   3.291  11.748  0.3919 -0.5513  0.1501
 5542SOL     OW28087   2.863   2.604   0.034  0.2606  0.0297  0.4354
 5542SOL    HW128088   2.846   2.645  17.643 -0.1452  1.7203  1.3310
 5542SOL    HW228089   2.956   2.621   0.047  0.7312 -2.0336 -0.2436
 5543SOL     OW28090   1.342   4.367   1.206  0.5302 -0.1885  0.2569
 5543SOL    HW128091   1.339   4.272   1.205  0.2569 -0.1869  0.6033
 5543SOL    HW228092   1.297   4.375   1.290 -0.1024 -0.3573 -0.0652
 5544SOL     OW28093   0.020   3.287   1.377 -0.2397 -0.3345  0.1249
 5544SOL    HW128094   4.710   3.200   1.401 -0.9422 -0.4118 -1.1019
 5544SOL    HW228095   0.042   3.316   1.466 -1.4397 -1.3431  0.7605
 5545SOL     OW28096   2.269   4.257   2.172 -0.2536 -0.0297  0.6561
 5545SOL    HW128097   2.273   4.205   2.252 -0.8224 -0.2383  0.5492
 5545SOL    HW228098   2.272   4.193   2.100 -1.1349  0.8623 -0.1818
 5546SOL     OW28099   4.557   1.862  13.071 -0.1698 -0.1559  0.1958
 5546SOL    HW128100   4.537   1.945  13.114  3.5803  1.4017 -0.9977
 5546SOL    HW228101   4.645   1.878  13.035 -0.7012  0.5189 -0.7959
 5547SOL     OW28102   0.303   1.518  12.974 -0.0824 -0.0416  0.3139
 5547SOL    HW128103   0.318   1.598  13.025 -0.7719  1.5280 -1.9080
 5547SOL    HW228104   0.209   1.510  12.961 -0.2398  1.7340  0.3042
 5548SOL     OW28105   1.738   4.254  13.141  0.2778 -0.3558  0.4106
 5548SOL    HW128106   1.730   4.168  13.101  1.3700 -0.3878  0.2475
 5548SOL    HW228107   1.680   4.317  13.099 -0.3430 -0.2992  1.3533
 5549SOL     OW28108   1.900   3.977   9.714  0.3337 -0.3270 -0.1256
 5549SOL    HW128109   1.843   3.944   9.645 -0.5265  1.6338 -0.3367
 5549SOL    HW228110   1.980   3.927   9.699 -1.1605 -1.9541 -2.7074
 5550SOL     OW28111   0.153   1.582   5.198  0.3062 -0.1070  0.3069
 5550SOL    HW128112   0.196   1.635   5.130 -0.5644  0.7721  0.4444
 5550SOL    HW228113   0.222   1.516   5.202 -1.3765 -1.9183 -0.7582
 5551SOL     OW28114   0.964   2.284   0.457 -0.9153  0.1878 -0.1743
 5551SOL    HW128115   0.897   2.220   0.482  0.4500 -2.2853 -2.7606
 5551SOL    HW228116   0.953   2.338   0.535 -2.1461 -0.5263  0.1416
 5552SOL     OW28117   2.931   3.610  12.846  0.0347 -0.3100 -0.3484
 5552SOL    HW128118   2.905   3.518  12.850  1.3206 -0.6751 -0.4904
 5552SOL    HW228119   2.898   3.634  12.933  0.4456 -2.4509  0.3972
 5553SOL     OW28120   0.084   1.370   0.505  0.2741 -0.9572  0.1904
 5553SOL    HW128121   0.164   1.321   0.523  0.0972 -1.5631 -0.7034
 5553SOL    HW228122   0.012   1.326   0.551  0.1007 -3.0676 -2.1154
 5554SOL     OW28123   3.434   1.112  16.154  0.3875 -0.5854  0.4611
 5554SOL    HW128124   3.390   1.079  16.075 -0.2694  1.4181 -0.0077
 5554SOL    HW228125   3.445   1.031  16.203  1.4218  0.8437  2.5578
 5555SOL     OW28126   0.375   4.311  14.727 -0.1370 -0.2746  0.4074
 5555SOL    HW128127   0.430   4.245  14.684  1.2949  0.7734  0.6250
 5555SOL    HW228128   0.372   4.274  14.815  0.8455 -0.1897  0.4773
 5556SOL     OW28129   4.220   1.292   2.352  0.5070  0.4912 -0.0937
 5556SOL    HW128130   4.133   1.323   2.377  0.6314  1.3068 -0.6923
 5556SOL    HW228131   4.226   1.335   2.267 -1.6543 -0.7193 -0.8675
 5557SOL     OW28132   4.169   2.238   8.707 -0.3222 -0.5193  0.1841
 5557SOL    HW128133   4.081   2.251   8.743  0.3707 -1.9241  2.3671
 5557SOL    HW228134   4.201   2.322   8.674  0.9276 -0.9648  0.2700
 5558SOL     OW28135   2.485   0.798   1.625  0.1232  0.9256 -0.2398
 5558SOL    HW128136   2.438   0.722   1.591  3.3512 -1.1665 -0.0233
 5558SOL    HW228137   2.521   0.770   1.709 -1.6806 -2.1921 -0.5188
 5559SOL     OW28138   2.268   4.068   3.564  0.0331 -0.1311  0.2425
 5559SOL    HW128139   2.324   4.052   3.640 -0.5649 -0.7385  0.5487
 5559SOL    HW228140   2.222   3.985   3.563 -1.3528  0.6193  1.4489
 5560SOL     OW28141   2.532   2.272   4.897 -0.3011 -0.6058  0.4707
 5560SOL    HW128142   2.609   2.326   4.878 -0.0891 -0.9781  0.2778
 5560SOL    HW228143   2.481   2.339   4.942  0.1951  0.8941 -1.1814
 5561SOL     OW28144   0.546   3.415   5.419  0.4217 -0.2361 -0.2128
 5561SOL    HW128145   0.529   3.504   5.387 -0.2417 -0.8263 -1.4918
 5561SOL    HW228146   0.479   3.366   5.370  0.2057  0.7850 -0.9460
 5562SOL     OW28147   0.748   1.743  12.478  0.2455  0.4345  0.1783
 5562SOL    HW128148   0.741   1.790  12.562  0.5041 -0.0066  0.4473
 5562SOL    HW228149   0.751   1.825  12.428 -0.9640  0.4159  0.0721
 5563SOL     OW28150   4.555   0.103   4.804  0.3752  0.3314  0.0767
 5563SOL    HW128151   4.496   0.042   4.848  0.8902 -0.5686 -0.4783
 5563SOL    HW228152   4.497   0.153   4.747  1.8743  1.8828 -0.1066
 5564SOL     OW28153   2.477   3.431  14.071  0.1893 -0.1635  0.5809
 5564SOL    HW128154   2.470   3.498  14.139  2.8344  0.0131  0.6728
 5564SOL    HW228155   2.449   3.489  14.000 -1.4670 -3.0975 -1.1954
 5565SOL     OW28156   0.532   4.009  10.225 -0.6486 -0.1172  0.1376
 5565SOL    HW128157   0.491   3.949  10.163 -0.2422 -1.7643  1.4877
 5565SOL    HW228158   0.453   4.060  10.247 -2.0467 -2.9458  1.7104
 5566SOL     OW28159   2.829   4.323   6.915 -0.1584 -0.3193 -0.1987
 5566SOL    HW128160   2.803   4.403   6.961 -0.6414  0.4308 -1.7930
 5566SOL    HW228161   2.925   4.316   6.916 -0.1380  0.0161  0.1683
 5567SOL     OW28162   1.063   2.186   6.400  0.1318  0.1631 -1.1188
 5567SOL    HW128163   1.007   2.250   6.444  1.6564  0.5754  0.2587
 5567SOL    HW228164   1.014   2.191   6.318 -0.2295  1.3183 -0.8229
 5568SOL     OW28165   4.694   3.893  13.450 -0.6411 -0.4489 -0.3577
 5568SOL    HW128166   0.030   3.819  13.439 -0.9967 -0.6107 -1.1788
 5568SOL    HW228167   4.711   3.941  13.369 -0.0875 -0.8396 -0.4705
 5569SOL     OW28168   0.782   0.995   8.955  0.8644 -0.2524  0.1248
 5569SOL    HW128169   0.802   0.902   8.965  0.2282 -0.2196  1.7433
 5569SOL    HW228170   0.843   1.012   8.883  0.8004 -0.8538 -0.0705
 5570SOL     OW28171   3.442   1.596   0.217  0.4081 -0.6673 -0.1064
 5570SOL    HW128172   3.531   1.589   0.180  0.0183  0.5999 -1.2636
 5570SOL    HW228173   3.442   1.691   0.222  1.1418 -0.6701 -0.0397
 5571SOL     OW28174   1.115   0.239   1.060 -0.5724 -0.2923 -0.1016
 5571SOL    HW128175   1.165   0.175   1.112 -0.0351  2.0268  2.2042
 5571SOL    HW228176   1.121   0.204   0.971 -0.4170  0.6180 -0.4465
 5572SOL     OW28177   2.914   2.503   7.916  0.0388 -0.1373 -0.3163
 5572SOL    HW128178   2.837   2.482   7.969 -0.2480  1.9407  0.0986
 5572SOL    HW228179   2.950   2.415   7.904 -0.3103 -0.4751  1.0509
 5573SOL     OW28180   0.142   0.837  14.942 -0.7375  0.5480 -0.0436
 5573SOL    HW128181   0.142   0.806  14.851 -1.4720  1.4325 -0.3446
 5573SOL    HW228182   0.196   0.915  14.927  2.1720 -1.1213  1.7504
 5574SOL     OW28183   4.281   2.328   4.011 -0.0829 -0.1254 -0.1986
 5574SOL    HW128184   4.293   2.250   4.065  0.4023  0.8267  1.0676
 5574SOL    HW228185   4.312   2.401   4.064  0.8105 -0.6939  0.0642
 5575SOL     OW28186   3.822   4.453   3.660  0.5338  0.3648 -0.6179
 5575SOL    HW128187   3.832   4.544   3.690 -1.5168 -0.4467  2.5069
 5575SOL    HW228188   3.824   4.474   3.566 -0.4381  0.4628 -0.6225
 5576SOL     OW28189   3.376   4.460   8.011 -0.5574 -0.3359  0.1114
 5576SOL    HW128190   3.444   4.493   8.070 -1.3356  1.3126  0.0585
 5576SOL    HW228191   3.416   4.461   7.923  0.1439 -1.0453  0.4158
 5577SOL     OW28192   2.852   3.293  10.600  0.1739 -0.0545  0.1828
 5577SOL    HW128193   2.859   3.336  10.515 -1.0754 -0.8264 -0.3166
 5577SOL    HW228194   2.757   3.301  10.615 -0.3320 -2.2010 -1.7657
 5578SOL     OW28195   3.041   0.115  14.947  0.6154  0.3436  0.1154
 5578SOL    HW128196   3.101   0.143  14.878  0.6506 -2.2990 -0.9271
 5578SOL    HW228197   2.984   0.189  14.967  0.5212  0.1154  0.6878
 5579SOL     OW28198   1.349   0.182   3.063  0.5235  0.0855  0.4694
 5579SOL    HW128199   1.370   0.271   3.035 -0.5890  0.2827  0.2592
 5579SOL    HW228200   1.335   0.187   3.158 -2.0433 -0.1385  0.1130
 5580SOL     OW28201   3.033   1.608   2.675 -0.6014 -0.0210  0.1079
 5580SOL    HW128202   2.945   1.644   2.673 -0.7392 -0.5183 -1.9043
 5580SOL    HW228203   3.021   1.522   2.715 -0.3227 -0.1987 -0.1859
 5581SOL     OW28204   0.970   3.673   4.554  0.6322  0.6024  0.2345
 5581SOL    HW128205   1.043   3.638   4.605  0.1395  0.7272  1.0176
 5581SOL    HW228206   0.909   3.601   4.568  1.4332 -0.0618  0.3025
 5582SOL     OW28207   1.866   3.338  12.288 -0.2078 -0.3412 -0.4379
 5582SOL    HW128208   1.889   3.338  12.195 -0.0064 -1.1922 -0.3819
 5582SOL    HW228209   1.853   3.433  12.294  1.1292 -0.1478 -0.5834
 5583SOL     OW28210   2.678   1.338   3.636 -0.1881  0.2248 -0.0861
 5583SOL    HW128211   2.597   1.351   3.687  0.1064 -1.1915  0.7409
 5583SOL    HW228212   2.686   1.243   3.649 -1.7363  0.2395  0.9842
 5584SOL     OW28213   3.721   1.939   1.991  0.2815  0.9087  0.3269
 5584SOL    HW128214   3.773   2.014   2.021 -0.9531  2.1589 -0.6260
 5584SOL    HW228215   3.789   1.907   1.931 -1.4171 -1.5408 -0.3027
 5585SOL     OW28216   2.675   3.204   3.423  0.3223  0.2088 -0.9116
 5585SOL    HW128217   2.763   3.217   3.458  0.3649  0.1565 -0.9988
 5585SOL    HW228218   2.645   3.294   3.410 -0.0889  0.7968  3.8530
 5586SOL     OW28219   1.395   0.893   6.172  0.3870 -0.7710  0.5076
 5586SOL    HW128220   1.379   0.971   6.119  1.3093 -0.3281  0.8813
 5586SOL    HW228221   1.482   0.918   6.201  1.3953 -3.9611  0.2349
 5587SOL     OW28222   4.539   0.814   8.507  0.7698  0.0380  0.1522
 5587SOL    HW128223   4.472   0.828   8.441 -0.8994  0.4649  1.9479
 5587SOL    HW228224   4.615   0.850   8.461 -0.7362 -1.6095 -3.6044
 5588SOL     OW28225   3.115   0.473   6.864 -0.6875 -0.6431  0.1249
 5588SOL    HW128226   3.148   0.536   6.928 -0.4669  1.0639 -1.6604
 5588SOL    HW228227   3.072   0.533   6.803 -0.5027 -1.9377 -1.2912
 5589SOL     OW28228   3.843   3.315   2.327 -0.2538  0.9165  0.6415
 5589SOL    HW128229   3.775   3.270   2.377 -0.5687  0.8382  0.1421
 5589SOL    HW228230   3.798   3.342   2.247  1.0727 -0.4880 -0.5890
 5590SOL     OW28231   2.797   0.684   3.227  0.2427  0.2092  0.6769
 5590SOL    HW128232   2.765   0.618   3.166 -1.5938  1.5476  0.1904
 5590SOL    HW228233   2.776   0.768   3.186  3.3526  0.1036 -1.1524
 5591SOL     OW28234   1.760   3.222   8.424 -0.0061 -0.2893 -0.0537
 5591SOL    HW128235   1.743   3.148   8.482 -1.8052  0.2380  0.0875
 5591SOL    HW228236   1.673   3.253   8.398  1.0712  1.4863 -1.5382
 5592SOL     OW28237   1.188   0.973   7.960  0.0620  0.3086  0.1736
 5592SOL    HW128238   1.131   0.901   7.931  1.7572  0.4043 -3.4384
 5592SOL    HW228239   1.240   0.937   8.032  1.5787 -2.1397 -2.1087
 5593SOL     OW28240   1.667   0.750   0.396  0.0736 -0.3765  0.5523
 5593SOL    HW128241   1.680   0.817   0.329 -1.1998  0.0007  0.6753
 5593SOL    HW228242   1.675   0.668   0.348  0.4275  0.2605 -0.4736
 5594SOL     OW28243   3.600   3.035   3.042 -0.0265  0.2808 -0.2032
 5594SOL    HW128244   3.659   2.980   2.990  0.8731  0.8774  0.1906
 5594SOL    HW228245   3.554   2.956   3.071  1.4387  0.3241  2.2056
 5595SOL     OW28246   1.870   0.409  14.579  0.3070  0.0990  0.7699
 5595SOL    HW128247   1.930   0.336  14.564  0.4028  0.8861 -2.5612
 5595SOL    HW228248   1.855   0.395  14.673  0.8066  1.0159  0.9890
 5596SOL     OW28249   1.080   3.554   8.093 -0.8653  0.9851 -0.2338
 5596SOL    HW128250   1.005   3.529   8.148 -1.5591  1.0188 -1.1499
 5596SOL    HW228251   1.077   3.649   8.106 -1.1164  1.1903 -1.8167
 5597SOL     OW28252   0.817   3.742  17.319 -0.0835  0.1656  0.6951
 5597SOL    HW128253   0.745   3.796  17.352  0.9258  1.2640  1.0977
 5597SOL    HW228254   0.819   3.670  17.382  2.5908 -0.8200 -0.5237
 5598SOL     OW28255   2.841   2.312   0.400 -0.2839 -0.8122 -0.3417
 5598SOL    HW128256   2.934   2.316   0.424 -0.2552 -0.4117 -0.5281
 5598SOL    HW228257   2.815   2.230   0.443 -2.1308  0.7794  1.5160
 5599SOL     OW28258   1.881   2.701   2.474  0.1212  0.0786  0.2606
 5599SOL    HW128259   1.802   2.656   2.505  0.2840 -1.3317 -1.3508
 5599SOL    HW228260   1.952   2.670   2.531  1.9981 -2.5417 -3.4700
 5600SOL     OW28261   4.035   2.274   4.321 -0.2675  0.6300 -0.2900
 5600SOL    HW128262   3.956   2.256   4.270  1.0049 -2.7991 -1.0971
 5600SOL    HW228263   3.991   2.308   4.398 -0.6159  0.5710 -0.4644
 5601SOL     OW28264   4.138   3.752   9.073  0.3246 -0.6408 -0.2057
 5601SOL    HW128265   4.103   3.663   9.076  2.1931 -1.3507  0.8818
 5601SOL    HW228266   4.186   3.741   8.991 -1.3329  0.2039 -1.2638
 5602SOL     OW28267   3.934   2.547   8.555 -0.2472 -0.3994 -0.1338
 5602SOL    HW128268   3.994   2.573   8.625  1.6554 -1.4874 -1.3591
 5602SOL    HW228269   3.988   2.569   8.479 -0.2982 -1.2104 -0.4106
 5603SOL     OW28270   2.031   4.092  10.900  0.0614 -0.0978  0.3159
 5603SOL    HW128271   2.089   4.164  10.928  0.2664 -0.3174  0.4540
 5603SOL    HW228272   2.039   4.032  10.974  1.9452 -0.7438 -0.4012
 5604SOL     OW28273   0.380   3.911   6.059 -0.1581  0.0977  0.4187
 5604SOL    HW128274   0.369   3.905   5.964 -0.3640 -2.3685  0.5912
 5604SOL    HW228275   0.317   3.979   6.082 -0.3898  0.2767 -0.7723
 5605SOL     OW28276   3.723   2.650   0.110 -0.3991 -0.3365 -0.1255
 5605SOL    HW128277   3.771   2.576   0.147  0.5846  1.1653  1.6107
 5605SOL    HW228278   3.802   2.702   0.095  0.8285 -1.8468  1.1158
 5606SOL     OW28279   0.029   2.960   5.290 -0.2189  0.5075  0.1025
 5606SOL    HW128280   0.016   2.882   5.344 -2.4525 -0.7213 -2.1807
 5606SOL    HW228281   0.063   3.024   5.352 -1.5785 -0.3630  1.7362
 5607SOL     OW28282   2.292   3.862  15.089  0.3151  0.3529  0.0558
 5607SOL    HW128283   2.313   3.855  14.996  0.7959  3.1076 -0.0529
 5607SOL    HW228284   2.294   3.773  15.126 -2.2878  0.1603 -0.2637
 5608SOL     OW28285   0.696   3.836  17.067 -0.8955 -0.2870 -0.8798
 5608SOL    HW128286   0.618   3.782  17.080 -0.7230 -0.2404  0.3557
 5608SOL    HW228287   0.759   3.787  17.121 -1.2265  0.5790  0.2768
 5609SOL     OW28288   2.780   0.062   1.991 -0.1662  0.0240 -0.2246
 5609SOL    HW128289   2.768   0.157   1.981  1.6451  0.3294  0.5180
 5609SOL    HW228290   2.869   0.043   1.961 -0.1176 -0.8839  0.5396
 5610SOL     OW28291   0.183   3.037   5.502  0.2166  0.2618 -0.7440
 5610SOL    HW128292   0.271   3.009   5.477  0.4771 -0.1344  0.6183
 5610SOL    HW228293   0.168   3.032   5.596 -0.6781 -2.5486 -1.0408
 5611SOL     OW28294   1.368   2.239  11.477 -0.3157  0.2283 -0.4046
 5611SOL    HW128295   1.423   2.306  11.519  0.4841 -2.6074  3.1119
 5611SOL    HW228296   1.377   2.266  11.386  0.2018  0.2096 -0.3646
 5612SOL     OW28297   0.691   2.158   8.366 -0.5623 -0.0942  0.2973
 5612SOL    HW128298   0.682   2.253   8.379  0.1840  0.3150 -2.2631
 5612SOL    HW228299   0.627   2.143   8.297 -0.2592 -0.6403  0.1342
 5613SOL     OW28300   0.085   4.528  11.526  0.0690  0.5366  0.4446
 5613SOL    HW128301   0.053   4.589  11.593  3.6863  2.2927  0.5873
 5613SOL    HW228302   0.007   4.524  11.472  1.2947  0.2663 -1.2942
 5614SOL     OW28303   0.346   0.920   6.641  0.4430 -0.4812 -0.2720
 5614SOL    HW128304   0.402   0.844   6.626 -0.0261 -0.9760  0.4859
 5614SOL    HW228305   0.274   0.875   6.684  0.6905 -0.1297  0.5178
 5615SOL     OW28306   0.199   0.850   4.570 -0.0719 -0.5659  0.4434
 5615SOL    HW128307   0.284   0.878   4.537 -2.0423  2.3480 -2.0674
 5615SOL    HW228308   0.172   0.926   4.622  3.0050  2.3441 -2.2504
 5616SOL     OW28309   1.833   1.855   6.396  0.1676 -0.0567 -0.2394
 5616SOL    HW128310   1.756   1.799   6.406 -0.5452  0.5875 -2.0463
 5616SOL    HW228311   1.841   1.897   6.482  1.0173  3.2176 -1.9098
 5617SOL     OW28312   4.410   3.017  14.624  0.0852 -0.0682  0.1810
 5617SOL    HW128313   4.369   2.966  14.694 -0.8230  1.1060  0.5144
 5617SOL    HW228314   4.395   3.101  14.668  2.2022  0.5932 -0.3721
 5618SOL     OW28315   1.015   2.114  14.833 -0.3983 -0.4359  0.7713
 5618SOL    HW128316   1.044   2.203  14.854  2.6102 -1.2654  0.0007
 5618SOL    HW228317   1.003   2.122  14.738 -1.0692 -1.7328  0.7536
 5619SOL     OW28318   2.606   2.431   0.820 -0.3521 -0.2309 -0.1754
 5619SOL    HW128319   2.583   2.379   0.897  0.7210 -1.8118 -0.9346
 5619SOL    HW228320   2.530   2.486   0.802 -0.7725  0.0010  2.2212
 5620SOL     OW28321   0.473   0.184   7.970 -0.2008 -0.6150 -0.1638
 5620SOL    HW128322   0.415   0.159   8.042  0.9078 -0.3071  0.8462
 5620SOL    HW228323   0.557   0.160   8.010  0.9421  1.4713 -1.3496
 5621SOL     OW28324   2.548   4.416   7.206  0.5145 -0.2595 -0.3262
 5621SOL    HW128325   2.527   4.412   7.113 -0.9094  0.3822 -0.0336
 5621SOL    HW228326   2.569   4.508   7.222  2.1689 -0.2389 -2.6332
 5622SOL     OW28327   3.908   4.408  12.502  0.7863  0.3950  0.4046
 5622SOL    HW128328   3.938   4.377  12.588  0.7643  2.6843  1.2326
 5622SOL    HW228329   3.987   4.448  12.467 -0.3459  0.5522 -2.0036
 5623SOL     OW28330   1.877   2.925   8.898  0.3526  0.1371  0.2737
 5623SOL    HW128331   1.951   2.974   8.934 -1.5140  2.2349  1.2024
 5623SOL    HW228332   1.871   2.978   8.818 -2.0208  2.7427  2.1956
 5624SOL     OW28333   4.486   1.116   1.972  0.3150 -0.3312 -0.9081
 5624SOL    HW128334   4.511   1.060   1.898  3.4737  0.5850 -0.5392
 5624SOL    HW228335   4.421   1.064   2.021  0.0831  0.3227 -0.5229
 5625SOL     OW28336   1.921   3.299   3.125  0.3601  0.1064 -0.1689
 5625SOL    HW128337   1.827   3.307   3.143  0.4140  0.5945 -0.1136
 5625SOL    HW228338   1.940   3.224   3.181  0.7627  0.5090  0.2322
 5626SOL     OW28339   3.312   3.702   2.378 -0.1917  0.1727 -0.1513
 5626SOL    HW128340   3.383   3.742   2.328  1.8812 -0.6077  2.1683
 5626SOL    HW228341   3.324   3.611   2.352  0.2980  0.0695  0.4416
 5627SOL     OW28342   2.897   1.985   2.204 -0.6612  0.1104  0.0124
 5627SOL    HW128343   2.887   1.907   2.259 -1.5273 -1.3321 -2.1544
 5627SOL    HW228344   2.964   1.952   2.143 -1.5674  0.1447 -1.0205
 5628SOL     OW28345   1.991   4.419   8.486  0.4504 -0.3409 -0.0970
 5628SOL    HW128346   1.984   4.356   8.558 -0.1653  0.3446  0.4454
 5628SOL    HW228347   1.961   4.497   8.533  0.1946  0.1294 -1.0381
 5629SOL     OW28348   2.991   1.493  10.529 -0.5506 -0.6667 -0.0900
 5629SOL    HW128349   3.006   1.586  10.513  0.0020 -0.5326  1.1961
 5629SOL    HW228350   3.078   1.454  10.523 -1.0335 -1.8622  0.5362
 5630SOL     OW28351   2.974   0.333   9.647 -0.0074  0.2589 -0.1032
 5630SOL    HW128352   2.936   0.290   9.570  1.8802 -1.8577  0.1348
 5630SOL    HW228353   3.060   0.352   9.608  0.7837  0.4441  1.7690
 5631SOL     OW28354   1.645   2.688  11.364  0.2633  0.2389  0.2388
 5631SOL    HW128355   1.554   2.704  11.338 -0.2710 -0.3776  1.7549
 5631SOL    HW228356   1.639   2.717  11.455 -0.0589  0.2210  0.2238
 5632SOL     OW28357   4.193   1.193   9.575 -0.0187  0.5657  0.4539
 5632SOL    HW128358   4.234   1.240   9.647  2.9694 -0.1712 -0.7464
 5632SOL    HW228359   4.218   1.250   9.502 -0.3881 -1.8327 -1.5461
 5633SOL     OW28360   2.830   2.031   3.850 -0.3054 -0.1444 -0.4614
 5633SOL    HW128361   2.921   2.049   3.873 -0.7840  0.2807  1.0665
 5633SOL    HW228362   2.818   1.940   3.875  2.5717 -0.5911 -0.6177
 5634SOL     OW28363   1.035   3.010  15.524  0.1335  0.3960  0.0472
 5634SOL    HW128364   0.983   3.021  15.603 -0.9662  1.8560 -0.8976
 5634SOL    HW228365   0.968   3.009  15.456  1.1432 -0.2944 -0.9364
 5635SOL     OW28366   0.069   0.252   4.857 -0.4269 -0.6379 -0.1833
 5635SOL    HW128367   0.078   0.295   4.773 -1.5780  1.5897  0.8375
 5635SOL    HW228368   4.710   0.206   4.839  0.1807 -1.2322 -1.3920
 5636SOL     OW28369   3.618   1.691  10.489 -0.1084 -0.2924  0.1967
 5636SOL    HW128370   3.559   1.619  10.508  2.3612 -2.2153  0.5149
 5636SOL    HW228371   3.688   1.635  10.455  0.0278  1.0935 -1.8332
 5637SOL     OW28372   4.106   3.206   9.733 -0.0895 -0.4337 -0.6891
 5637SOL    HW128373   4.171   3.159   9.785  0.6622  1.4605  0.0692
 5637SOL    HW228374   4.031   3.150   9.754  0.4040 -0.0995  1.9514
 5638SOL     OW28375   0.668   0.568   4.263  0.1133  0.1024  0.3610
 5638SOL    HW128376   0.679   0.482   4.304  1.9673  0.8696  1.4848
 5638SOL    HW228377   0.664   0.622   4.342  2.5776  0.7713  0.0220
 5639SOL     OW28378   4.171   3.736  15.287  0.2302  0.3338 -0.2799
 5639SOL    HW128379   4.122   3.759  15.208 -2.0064  2.1663  1.6489
 5639SOL    HW228380   4.096   3.733  15.347 -0.4721 -0.4478 -1.1899
 5640SOL     OW28381   3.258   0.450   5.980  0.1303 -0.3712  0.0106
 5640SOL    HW128382   3.206   0.381   6.022 -1.8351  2.5051  2.3223
 5640SOL    HW228383   3.338   0.405   5.956 -1.0192 -1.6254 -1.4252
 5641SOL     OW28384   1.928   4.416  10.873 -0.1513  0.0366 -0.3795
 5641SOL    HW128385   2.004   4.447  10.921 -0.9051 -0.0196  0.8477
 5641SOL    HW228386   1.870   4.397  10.947  0.7890  0.7499  0.5291
 5642SOL     OW28387   1.183   1.051  14.316  0.0742  0.9585 -0.6345
 5642SOL    HW128388   1.183   1.140  14.280 -0.4342  1.1358 -0.1989
 5642SOL    HW228389   1.119   1.076  14.383 -1.1923 -1.1990 -1.0417
 5643SOL     OW28390   3.804   4.479   5.214 -0.1582 -0.1324 -0.4330
 5643SOL    HW128391   3.828   4.447   5.127  0.7153 -0.1679 -0.1795
 5643SOL    HW228392   3.728   4.423   5.229  1.0106 -1.5124  0.3035
 5644SOL     OW28393   2.017   0.006   5.335  0.0701  0.3193  0.5649
 5644SOL    HW128394   1.961   4.672   5.282  0.9907  1.2212 -1.3779
 5644SOL    HW228395   2.054   0.072   5.276 -0.9723  0.6938  0.3435
 5645SOL     OW28396   3.880   1.727   2.564 -0.8389  0.1677 -0.1306
 5645SOL    HW128397   3.899   1.743   2.656  0.1197  1.0696 -0.4892
 5645SOL    HW228398   3.789   1.755   2.572 -0.5084  1.7048 -1.6399
 5646SOL     OW28399   3.120   1.518  10.284  0.2777 -0.2548  0.2490
 5646SOL    HW128400   3.175   1.466  10.343 -0.0230  0.6143  1.3094
 5646SOL    HW228401   3.039   1.529  10.334  0.8523  0.6634  0.9888
 5647SOL     OW28402   3.095   3.144  17.523  0.0056 -0.1238 -0.1596
 5647SOL    HW128403   3.129   3.065  17.482 -0.4745 -0.1908 -0.4176
 5647SOL    HW228404   3.062   3.112  17.607 -1.7224  0.3576 -0.6672
 5648SOL     OW28405   0.294   2.119   8.191  0.3373  0.2366  0.7302
 5648SOL    HW128406   0.259   2.030   8.186  1.5530 -0.2533  0.9614
 5648SOL    HW228407   0.386   2.096   8.197  0.0783 -0.8285  0.5270
 5649SOL     OW28408   1.990   4.657   3.848 -0.6156  0.3994  0.0058
 5649SOL    HW128409   1.897   4.681   3.841 -1.0076  0.5035  5.1577
 5649SOL    HW228410   2.011   0.012   3.901  1.3861 -1.2911  1.6745
 5650SOL     OW28411   0.581   3.333   3.981  0.0355 -0.9182  0.2061
 5650SOL    HW128412   0.620   3.253   3.946 -1.0961 -1.4645  0.1777
 5650SOL    HW228413   0.631   3.390   3.923  0.6445 -2.5618 -0.9006
 5651SOL     OW28414   3.435   1.760  13.487 -0.1430 -0.1541  0.0954
 5651SOL    HW128415   3.478   1.683  13.525  0.8514  0.5186  0.3457
 5651SOL    HW228416   3.494   1.827  13.521 -0.7022 -0.5533  1.8397
 5652SOL     OW28417   3.142   0.839  11.627 -0.1724 -0.4013  1.0228
 5652SOL    HW128418   3.117   0.898  11.699  1.1121 -0.4321  1.4939
 5652SOL    HW228419   3.074   0.772  11.628 -1.6042  1.0385 -1.7555
 5653SOL     OW28420   4.629   1.102   8.480 -0.7243  0.6840  0.5066
 5653SOL    HW128421   4.616   1.102   8.574 -0.1197  0.1483  0.5943
 5653SOL    HW228422   4.553   1.052   8.452  0.6025 -2.8038  3.1201
 5654SOL     OW28423   3.436   0.601   7.050 -0.2842 -0.2873  0.3325
 5654SOL    HW128424   3.411   0.515   7.085  0.3713  0.0684  1.6605
 5654SOL    HW228425   3.360   0.655   7.071 -1.2428 -0.6707 -2.1711
 5655SOL     OW28426   3.803   2.696  13.354 -0.1720  0.7357  0.0615
 5655SOL    HW128427   3.838   2.613  13.386 -0.4636  0.8434  0.6710
 5655SOL    HW228428   3.870   2.759  13.382  0.4099 -0.4571  1.3809
 5656SOL     OW28429   1.689   0.717   9.796 -0.4938 -0.0342 -0.1533
 5656SOL    HW128430   1.631   0.642   9.813  0.8082 -0.3473  2.8821
 5656SOL    HW228431   1.632   0.759   9.731  0.4410 -0.3499 -1.1785
 5657SOL     OW28432   2.966   2.547   1.074  1.2907 -0.0529 -0.0723
 5657SOL    HW128433   2.980   2.532   1.167  1.0426 -0.8875 -0.1745
 5657SOL    HW228434   2.918   2.630   1.086 -0.4519 -1.2997  1.5564
 5658SOL     OW28435   3.499   2.821   1.308  0.1603 -1.1703  0.1628
 5658SOL    HW128436   3.429   2.883   1.284 -0.8758 -2.7547 -0.9464
 5658SOL    HW228437   3.456   2.736   1.301  0.5502 -1.4335  1.0455
 5659SOL     OW28438   3.861   0.943  13.437 -0.2210 -0.6415  0.3509
 5659SOL    HW128439   3.875   0.867  13.493 -2.2614 -0.7350  0.7319
 5659SOL    HW228440   3.937   0.934  13.379 -0.1818 -1.8628  0.6068
 5660SOL     OW28441   2.955   0.431   5.040 -0.1486 -0.1356 -0.2501
 5660SOL    HW128442   3.030   0.372   5.028  0.7379  1.4088 -2.2913
 5660SOL    HW228443   2.931   0.465   4.954 -0.7275 -1.0852 -0.4613
 5661SOL     OW28444   3.196   3.658   3.705 -0.2377 -0.0511 -0.0687
 5661SOL    HW128445   3.265   3.654   3.639 -2.1532 -0.9202 -2.0272
 5661SOL    HW228446   3.219   3.738   3.752 -0.7964  0.3285 -0.4347
 5662SOL     OW28447   2.832   1.453   5.076 -0.2479 -0.1689 -0.1064
 5662SOL    HW128448   2.749   1.495   5.098 -0.6306 -1.2235  0.4828
 5662SOL    HW228449   2.797   1.376   5.032  0.6193 -0.4132 -0.3670
 5663SOL     OW28450   0.970   3.798   8.069  0.1816  0.2267 -0.1439
 5663SOL    HW128451   0.921   3.760   7.996 -1.5054 -0.6610  1.4462
 5663SOL    HW228452   1.039   3.848   8.025 -0.2763  1.8053  0.9106
 5664SOL     OW28453   1.445   4.207   8.656  0.4623 -0.1858  0.4912
 5664SOL    HW128454   1.456   4.116   8.684 -3.2258 -0.1109  2.2260
 5664SOL    HW228455   1.509   4.246   8.716  0.5363 -1.9756  1.5596
 5665SOL     OW28456   3.384   3.735   2.747 -0.2090 -0.1668 -0.3794
 5665SOL    HW128457   3.441   3.811   2.761  0.6552 -0.3874 -2.6039
 5665SOL    HW228458   3.432   3.697   2.673 -2.3390 -1.1683 -1.2581
 5666SOL     OW28459   1.860   0.280   2.140  0.0871  0.0612 -0.2992
 5666SOL    HW128460   1.928   0.295   2.074 -0.1098  0.8454 -0.3251
 5666SOL    HW228461   1.865   0.185   2.132  0.7683  0.1803 -1.3955
 5667SOL     OW28462   1.328   1.877   1.876 -0.5146 -0.1045 -0.3104
 5667SOL    HW128463   1.294   1.906   1.792 -0.2000  3.1159  0.6561
 5667SOL    HW228464   1.244   1.851   1.913  1.3647 -1.7041  2.8467
 5668SOL     OW28465   3.323   4.365   3.131  0.1845 -0.3045  0.0588
 5668SOL    HW128466   3.312   4.431   3.199 -0.1216 -0.3193  0.0235
 5668SOL    HW228467   3.382   4.412   3.072  0.1520  0.5925  0.7590
 5669SOL     OW28468   3.560   2.472   2.275  0.3099  0.0767 -0.2895
 5669SOL    HW128469   3.489   2.518   2.320  1.7086  3.1102 -1.2380
 5669SOL    HW228470   3.543   2.495   2.184  1.3028  0.0982 -0.4617
 5670SOL     OW28471   3.439   3.797   4.701  0.7007  0.1357 -0.1030
 5670SOL    HW128472   3.435   3.798   4.796  1.4148 -0.2950 -0.0630
 5670SOL    HW228473   3.517   3.742   4.693 -0.1514 -0.7690 -2.5797
 5671SOL     OW28474   2.491   2.811  16.355 -0.1162 -0.0456  0.2587
 5671SOL    HW128475   2.579   2.822  16.392  0.0820  0.3105 -0.3241
 5671SOL    HW228476   2.472   2.724  16.391  2.1026 -0.3967  0.6147
 5672SOL     OW28477   1.542   2.347   7.193  0.3622 -0.3236  0.6463
 5672SOL    HW128478   1.598   2.286   7.241 -0.7411 -1.5257  0.4077
 5672SOL    HW228479   1.610   2.405   7.158 -1.0374  0.9073 -0.0403
 5673SOL     OW28480   3.312   1.709   7.948 -0.0081 -0.7374  0.3548
 5673SOL    HW128481   3.337   1.671   8.032 -1.5500 -2.0803  0.2180
 5673SOL    HW228482   3.395   1.714   7.901  0.3483  1.2359  1.2350
 5674SOL     OW28483   0.136   0.069   7.763 -0.7060  0.8535  0.4049
 5674SOL    HW128484   0.228   0.046   7.761 -0.6144  1.3441 -0.9153
 5674SOL    HW228485   0.139   0.109   7.850  1.6737 -0.3311  0.8529
 5675SOL     OW28486   2.467   0.764   4.762 -0.7599 -0.4383  0.0231
 5675SOL    HW128487   2.408   0.697   4.795 -1.8079  0.2043 -0.5491
 5675SOL    HW228488   2.409   0.834   4.732  1.3795  1.7197  0.9314
 5676SOL     OW28489   2.280   0.866   3.958  0.0337 -0.1159 -0.1827
 5676SOL    HW128490   2.188   0.875   3.981 -0.0920 -2.4800  0.2336
 5676SOL    HW228491   2.305   0.936   3.898  0.4213  0.3044  0.4693
 5677SOL     OW28492   1.920   1.551   6.405  0.1714  0.5280  0.0766
 5677SOL    HW128493   1.827   1.527   6.410  0.2937 -0.2980 -1.4125
 5677SOL    HW228494   1.922   1.598   6.488  0.6329 -1.2820  1.0944
 5678SOL     OW28495   3.639   1.082   5.286  0.2802  0.1181 -0.0836
 5678SOL    HW128496   3.573   1.140   5.248 -0.1311 -1.5295 -1.8694
 5678SOL    HW228497   3.667   1.034   5.209 -0.6377 -1.8576  0.8215
 5679SOL     OW28498   3.419   3.357  11.976 -0.4314 -0.3023 -0.0476
 5679SOL    HW128499   3.494   3.301  11.961  0.2603  0.7683 -0.6020
 5679SOL    HW228500   3.405   3.349  12.070  0.3653 -0.8912  0.0166
 5680SOL     OW28501   4.161   3.428   1.642  0.2462  0.2806  0.2870
 5680SOL    HW128502   4.188   3.387   1.724 -0.9275 -0.1789  0.4308
 5680SOL    HW228503   4.075   3.386   1.634 -0.1867  1.6817 -2.2853
 5681SOL     OW28504   0.340   0.489   4.039 -0.1672 -0.0976  0.4492
 5681SOL    HW128505   0.411   0.545   4.068 -0.5342  0.4173  0.3612
 5681SOL    HW228506   0.383   0.458   3.959  0.8323  1.7277  0.2793
 5682SOL     OW28507   0.817   2.458   4.744  0.3438 -0.2390  0.0435
 5682SOL    HW128508   0.912   2.451   4.732  0.5755  0.9892  1.0810
 5682SOL    HW228509   0.801   2.552   4.740  0.8805 -0.1677 -0.4608
 5683SOL     OW28510   4.238   3.406  11.896 -0.0441  0.2830  0.4888
 5683SOL    HW128511   4.248   3.311  11.884  2.1122  0.3263  1.8713
 5683SOL    HW228512   4.252   3.445  11.810 -1.0405  0.6217  0.4836
 5684SOL     OW28513   2.574   1.646   2.429  0.4241  0.1287 -0.0110
 5684SOL    HW128514   2.484   1.665   2.455  0.2246 -0.4413 -0.2818
 5684SOL    HW228515   2.567   1.582   2.358 -0.1178 -0.4869  0.5945
 5685SOL     OW28516   2.184   1.462   7.930  0.1327 -0.1417  0.3907
 5685SOL    HW128517   2.253   1.396   7.929 -0.6921 -0.9664 -1.7595
 5685SOL    HW228518   2.210   1.533   7.988 -2.5010  0.6674  0.6028
 5686SOL     OW28519   4.563   0.936   7.513  0.5480 -0.4696  0.0678
 5686SOL    HW128520   4.528   0.906   7.597  0.6215  0.1394  0.3173
 5686SOL    HW228521   4.595   0.860   7.463  1.3946 -0.0317 -0.0581
 5687SOL     OW28522   1.084   3.802   0.194 -0.2648 -0.2667 -0.0268
 5687SOL    HW128523   1.052   3.829   0.280 -0.1361  1.5395 -0.5300
 5687SOL    HW228524   1.082   3.879   0.136 -1.5187  0.0424  0.4068
 5688SOL     OW28525   2.009   3.125   4.502 -0.2783  0.2561 -0.0908
 5688SOL    HW128526   1.996   3.212   4.465 -1.1091  0.1831  0.0223
 5688SOL    HW228527   2.011   3.072   4.422 -2.3948  0.7745 -0.4879
 5689SOL     OW28528   0.461   2.541   5.748 -0.3821 -0.0850 -0.0451
 5689SOL    HW128529   0.553   2.551   5.724 -0.3475 -0.3072 -0.0024
 5689SOL    HW228530   0.459   2.451   5.781  0.7966  0.1898  0.7603
 5690SOL     OW28531   1.415   1.779  13.106  0.0134  0.2295 -0.2137
 5690SOL    HW128532   1.340   1.838  13.107 -1.0231 -1.0829 -0.4637
 5690SOL    HW228533   1.411   1.741  13.194  0.2432  0.7447  0.0183
 5691SOL     OW28534   2.038   4.256   8.704 -0.1711  0.1219  0.1160
 5691SOL    HW128535   2.094   4.194   8.658  0.6160  0.4442  0.6427
 5691SOL    HW228536   2.048   4.222   8.793  0.2242  0.8911  0.3709
 5692SOL     OW28537   3.594   3.310   0.691  0.6443  0.0499 -0.1413
 5692SOL    HW128538   3.515   3.262   0.718  0.6434  0.9456  1.3961
 5692SOL    HW228539   3.566   3.319   0.599  1.7085  0.1928 -0.4494
 5693SOL     OW28540   1.121   0.770  15.525  0.6948  0.2632 -0.0119
 5693SOL    HW128541   1.050   0.795  15.465  1.1094 -0.9984 -1.0376
 5693SOL    HW228542   1.180   0.729  15.461 -2.2299  0.0579 -2.6173
 5694SOL     OW28543   2.641   0.140   8.451 -0.2792  0.3439  0.3721
 5694SOL    HW128544   2.624   0.187   8.369 -1.6650 -1.3677 -0.3181
 5694SOL    HW228545   2.730   0.175   8.455 -0.5740  1.0303  0.8897
 5695SOL     OW28546   2.598   1.356  10.363 -0.5619 -0.9726  0.7027
 5695SOL    HW128547   2.539   1.306  10.419  0.8324 -1.2841  1.9139
 5695SOL    HW228548   2.542   1.425  10.327  1.4001  0.8699  1.1892
 5696SOL     OW28549   2.528   0.357   3.847 -0.1109 -0.0158  0.3141
 5696SOL    HW128550   2.487   0.295   3.907 -0.1645  0.5846  0.8973
 5696SOL    HW228551   2.480   0.356   3.764  0.5598  0.5075 -0.0822
 5697SOL     OW28552   4.128   0.917   7.053 -0.5029 -0.4768  0.0775
 5697SOL    HW128553   4.113   0.975   6.978 -0.9017 -0.8790 -0.1614
 5697SOL    HW228554   4.199   0.866   7.016  0.5328  0.5646  0.6477
 5698SOL     OW28555   2.357   0.057   1.721 -0.3790 -0.5236 -0.3375
 5698SOL    HW128556   2.398   0.032   1.804 -2.1690  1.5226  1.1542
 5698SOL    HW228557   2.414   0.008   1.661 -0.3679 -1.3459  0.3462
 5699SOL     OW28558   1.282   4.176   3.459 -0.5408  0.4601 -0.1542
 5699SOL    HW128559   1.326   4.260   3.451  1.8521 -0.9926 -2.3150
 5699SOL    HW228560   1.350   4.112   3.482  0.1567  1.4933  0.6314
 5700SOL     OW28561   0.647   1.036   3.449  0.3228  0.1152 -0.1933
 5700SOL    HW128562   0.623   1.094   3.376  1.4305 -1.0837 -1.5120
 5700SOL    HW228563   0.583   1.048   3.519 -0.0365  1.7390 -0.8028
 5701SOL     OW28564   1.251   2.725   6.058 -0.1551  0.0555 -0.2297
 5701SOL    HW128565   1.213   2.637   6.060  0.0115 -0.0232 -0.6048
 5701SOL    HW228566   1.252   2.750   6.151  0.7616 -0.1053 -0.1994
 5702SOL     OW28567   1.753   0.873  17.482  0.1222 -0.3022 -0.0068
 5702SOL    HW128568   1.668   0.829  17.488 -0.5597  0.7541 -1.6952
 5702SOL    HW228569   1.726   0.920  17.403 -2.3877 -2.2155 -0.2840
 5703SOL     OW28570   2.391   3.639  10.814 -0.4166 -0.3410  0.0155
 5703SOL    HW128571   2.419   3.578  10.746 -1.1085  0.2861 -0.8410
 5703SOL    HW228572   2.473   3.686  10.829  1.4303 -3.7447  0.5249
 5704SOL     OW28573   0.821   3.575   5.778  0.1693 -0.3793 -0.2733
 5704SOL    HW128574   0.876   3.499   5.761  0.7750  0.0688 -0.3109
 5704SOL    HW228575   0.734   3.553   5.742 -0.6312  2.3126  0.0351
 5705SOL     OW28576   2.859   4.457   5.982 -0.6385  0.0938  0.4591
 5705SOL    HW128577   2.889   4.378   5.937  2.0460  0.8642  0.9114
 5705SOL    HW228578   2.842   4.436   6.074 -0.0108 -1.0381  0.3134
 5706SOL     OW28579   1.989   2.213  17.226 -0.3792 -0.3912 -0.0147
 5706SOL    HW128580   1.978   2.124  17.261 -0.3932 -0.2686  0.2954
 5706SOL    HW228581   1.909   2.250  17.265 -0.0075 -0.4945  0.8598
 5707SOL     OW28582   0.760   1.534   6.718  0.3757 -0.5151  0.2651
 5707SOL    HW128583   0.774   1.502   6.808 -0.2541 -0.9859  0.1869
 5707SOL    HW228584   0.736   1.462   6.661 -0.1508  0.4267 -0.6901
 5708SOL     OW28585   1.716   0.537   6.926  0.0460 -0.3862  0.0660
 5708SOL    HW128586   1.706   0.490   7.009  0.2405  0.0946  0.3578
 5708SOL    HW228587   1.763   0.481   6.864  0.9478 -0.7183  1.0496
 5709SOL     OW28588   0.144   3.293  11.236 -0.0592  0.2169 -0.2188
 5709SOL    HW128589   0.151   3.215  11.180  1.2350 -1.4698  2.3108
 5709SOL    HW228590   0.077   3.263  11.298 -1.5830  0.1729 -1.8813
 5710SOL     OW28591   3.301   0.704   5.907 -0.6326  0.4094  1.0581
 5710SOL    HW128592   3.362   0.695   5.833 -0.3610  1.9975  1.0851
 5710SOL    HW228593   3.295   0.611   5.931 -0.7954  0.1857  0.1452
 5711SOL     OW28594   1.712   3.470   6.973  0.0384  0.1399  0.1183
 5711SOL    HW128595   1.736   3.539   6.911  1.5761 -0.7435 -0.2715
 5711SOL    HW228596   1.773   3.399   6.954  0.7325  0.3083  1.7674
 5712SOL     OW28597   3.505   2.012  12.180  0.4194 -0.1493  0.1987
 5712SOL    HW128598   3.527   1.951  12.250 -2.2213 -0.4303  0.8004
 5712SOL    HW228599   3.512   2.098  12.220  0.4987  0.9656 -2.2665
 5713SOL     OW28600   0.032   0.160  12.137 -0.0680  0.5143 -0.3858
 5713SOL    HW128601   4.672   0.157  12.089 -0.9314 -0.0528  1.0969
 5713SOL    HW228602   0.082   0.103  12.080 -0.8125 -0.3838 -0.1479
 5714SOL     OW28603   1.235   1.814   0.715 -0.4661 -0.1187  0.1159
 5714SOL    HW128604   1.232   1.899   0.758  3.9272  0.2555 -0.2649
 5714SOL    HW228605   1.264   1.762   0.791  0.0544  0.3339  0.2296
 5715SOL     OW28606   0.796   4.429   1.313  0.4083 -0.6271 -0.6342
 5715SOL    HW128607   0.830   4.497   1.372 -2.4941 -1.8222  2.3962
 5715SOL    HW228608   0.747   4.376   1.375  1.8162 -0.7744  0.3410
 5716SOL     OW28609   3.345   1.840  14.231 -0.7893 -0.1834  0.0196
 5716SOL    HW128610   3.415   1.874  14.286 -0.8846 -0.3907  0.2709
 5716SOL    HW228611   3.394   1.772  14.184 -0.2804 -0.5632  1.1048
 5717SOL     OW28612   2.389   3.956  14.352  0.1878  0.1218  0.2073
 5717SOL    HW128613   2.343   4.029  14.311  1.7624  0.5208 -0.8686
 5717SOL    HW228614   2.332   3.884  14.325 -0.1759  0.1301  0.9599
 5718SOL     OW28615   2.869   0.349   7.963  0.6027 -0.3935  0.0231
 5718SOL    HW128616   2.935   0.339   8.031  1.8077  0.7223 -1.0077
 5718SOL    HW228617   2.852   0.258   7.939 -0.2713 -0.6764  1.6605
 5719SOL     OW28618   0.227   0.167  16.859 -0.1713 -0.1204  0.2008
 5719SOL    HW128619   0.308   0.152  16.810 -1.7655  0.7251 -2.6899
 5719SOL    HW228620   0.248   0.124  16.942  0.4350 -0.2199  0.0028
 5720SOL     OW28621   3.364   2.061   0.751  0.4934 -0.2506 -0.1437
 5720SOL    HW128622   3.355   2.151   0.720  1.6632 -0.6573 -1.6631
 5720SOL    HW228623   3.297   2.061   0.819 -0.1446  1.7114 -0.7925
 5721SOL     OW28624   0.756   1.009  15.829  0.3136  0.3651  0.3580
 5721SOL    HW128625   0.845   1.024  15.799  1.3549 -2.1808  2.1085
 5721SOL    HW228626   0.769   0.959  15.910  0.4626 -2.3348 -1.3200
 5722SOL     OW28627   4.135   1.607   7.043 -0.0512 -0.0778  0.3145
 5722SOL    HW128628   4.134   1.699   7.069 -0.8762  0.1778 -0.5969
 5722SOL    HW228629   4.194   1.570   7.108  0.2453  0.4581  0.3451
 5723SOL     OW28630   3.233   2.056   4.686 -0.2594 -0.0090  0.7194
 5723SOL    HW128631   3.285   2.056   4.606 -0.4937 -1.4773  0.5763
 5723SOL    HW228632   3.296   2.078   4.754  0.7224  0.4180 -0.3218
 5724SOL     OW28633   0.567   2.879  11.852  0.2303 -0.0708  0.4863
 5724SOL    HW128634   0.508   2.809  11.879  0.3124  0.3087  1.6945
 5724SOL    HW228635   0.559   2.931  11.933 -0.9887  0.4883  0.0143
 5725SOL     OW28636   4.174   4.322   1.840 -0.0245 -0.4243  0.5626
 5725SOL    HW128637   4.159   4.287   1.928  1.5032 -1.6210  0.3427
 5725SOL    HW228638   4.170   4.416   1.859  1.8399 -0.2427  0.0312
 5726SOL     OW28639   3.494   0.375  12.630 -0.2287  0.3809 -0.1643
 5726SOL    HW128640   3.417   0.431  12.637 -0.3355 -0.1996  3.2719
 5726SOL    HW228641   3.561   0.442  12.623 -1.0407  1.4156  1.9807
 5727SOL     OW28642   0.920   2.162   3.761 -0.1977  0.2277 -0.4550
 5727SOL    HW128643   0.833   2.163   3.721  0.2807  0.7653 -1.5113
 5727SOL    HW228644   0.979   2.149   3.686 -0.5853  0.5173 -0.8137
 5728SOL     OW28645   1.070   0.750   9.001 -0.1689  0.0533 -0.5959
 5728SOL    HW128646   1.111   0.744   8.914  2.3239  0.7196  0.5546
 5728SOL    HW228647   1.146   0.770   9.056 -0.6486  0.1577  0.0184
 5729SOL     OW28648   3.856   4.525  15.225  0.6680 -0.5657 -0.3188
 5729SOL    HW128649   3.879   4.435  15.245 -0.6607 -0.4456  1.6675
 5729SOL    HW228650   3.811   4.544  15.307 -0.1488 -0.6081 -0.7518
 5730SOL     OW28651   3.795   3.623   7.266 -0.3456 -0.0522  0.2060
 5730SOL    HW128652   3.762   3.542   7.228 -0.3229 -0.1598  0.4161
 5730SOL    HW228653   3.773   3.603   7.357 -2.4893  1.2039 -0.0326
 5731SOL     OW28654   2.195   1.538   1.391 -0.5099  0.7315  0.0821
 5731SOL    HW128655   2.217   1.454   1.350 -0.8358  0.5928  0.1858
 5731SOL    HW228656   2.156   1.583   1.316  1.0931  0.5527 -0.8461
 5732SOL     OW28657   4.035   1.144   5.099 -0.3306 -0.0413  0.5926
 5732SOL    HW128658   3.979   1.147   5.176 -0.9144 -0.0869  0.1697
 5732SOL    HW228659   3.989   1.186   5.026  0.7140  0.2438  0.0906
 5733SOL     OW28660   1.045   1.728  16.667  0.2251 -0.3659 -0.3908
 5733SOL    HW128661   1.137   1.726  16.693 -0.2700  2.4878  1.6960
 5733SOL    HW228662   1.049   1.704  16.575  1.9986  0.5866 -0.5489
 5734SOL     OW28663   1.040   0.933  13.419  0.6780 -0.4656 -0.3285
 5734SOL    HW128664   1.019   0.879  13.343  0.8726 -1.0307  0.0196
 5734SOL    HW228665   1.136   0.929  13.416  0.6882 -0.5960  0.1442
 5735SOL     OW28666   3.829   3.936  17.437 -0.3184  0.3397 -0.1710
 5735SOL    HW128667   3.908   3.884  17.427 -0.0636  0.6785  0.0888
 5735SOL    HW228668   3.775   3.929  17.358  0.0082  1.0185 -0.4473
 5736SOL     OW28669   0.757   0.175   8.078  0.3321 -1.1091 -0.5460
 5736SOL    HW128670   0.799   0.093   8.052  0.9130 -1.2934  0.9705
 5736SOL    HW228671   0.727   0.147   8.165  2.7706  1.2345  1.0479
 5737SOL     OW28672   1.782   2.932   6.369  0.6745 -0.6259 -0.8016
 5737SOL    HW128673   1.798   3.026   6.356  0.9731 -0.5118  0.4256
 5737SOL    HW228674   1.874   2.922   6.393  0.8707  1.0211 -0.8406
 5738SOL     OW28675   2.476   1.583  13.799 -0.1807 -0.4433  0.0051
 5738SOL    HW128676   2.462   1.668  13.757  1.2373  0.7861  2.0219
 5738SOL    HW228677   2.410   1.575  13.868 -1.0551 -0.1026 -0.7909
 5739SOL     OW28678   4.064   3.022  16.301 -0.1150 -0.3397 -0.1869
 5739SOL    HW128679   4.078   2.951  16.364  0.0669 -0.4623 -0.3659
 5739SOL    HW228680   4.156   3.033  16.278 -0.8269  2.0839 -1.8930
 5740SOL     OW28681   0.726   3.283  13.123  0.3696 -0.0589  0.3329
 5740SOL    HW128682   0.667   3.354  13.099  0.0243 -0.4765 -0.0602
 5740SOL    HW228683   0.808   3.331  13.133 -0.6276  1.5533  0.7290
 5741SOL     OW28684   1.351   4.188   9.298  0.7043  0.7630 -0.2448
 5741SOL    HW128685   1.425   4.249   9.298  1.3151  0.0072  2.3457
 5741SOL    HW228686   1.301   4.233   9.366  2.3433  2.7618 -0.3760
 5742SOL     OW28687   4.092   0.950   4.936 -0.2502 -0.0199  0.0239
 5742SOL    HW128688   4.066   1.013   5.003 -2.8103  0.2109 -1.1937
 5742SOL    HW228689   4.182   0.938   4.967 -0.4060  1.4694  1.0781
 5743SOL     OW28690   4.148   0.532   6.488  0.5623  0.4155  0.1192
 5743SOL    HW128691   4.130   0.624   6.468  1.4779  0.4363 -0.6298
 5743SOL    HW228692   4.241   0.544   6.508 -0.3751  3.3319  2.8312
 5744SOL     OW28693   1.377   0.665   5.149 -0.3568  0.0031 -0.3232
 5744SOL    HW128694   1.421   0.595   5.102  0.5215 -0.3101  0.9899
 5744SOL    HW228695   1.313   0.682   5.079 -1.0465 -3.1012 -0.4286
 5745SOL     OW28696   0.472   3.497  11.858 -0.2112  0.5000 -0.2539
 5745SOL    HW128697   0.517   3.466  11.780  1.7293  0.5386  0.8614
 5745SOL    HW228698   0.544   3.489  11.921  0.2569  1.0023 -0.7340
 5746SOL     OW28699   2.997   4.599  14.097  0.3849 -0.1418 -0.4885
 5746SOL    HW128700   2.928   4.534  14.083  0.7488 -0.5161 -0.5590
 5746SOL    HW228701   3.034   4.577  14.183  1.0831  0.5585 -0.6057
 5747SOL     OW28702   3.832   0.483   6.332 -0.2300  0.5913 -0.5064
 5747SOL    HW128703   3.865   0.510   6.417 -1.9974 -2.5287  1.1654
 5747SOL    HW228704   3.911   0.455   6.284 -0.2106 -0.6926  0.2716
 5748SOL     OW28705   0.510   4.431   2.263 -0.4325  0.5014 -0.1206
 5748SOL    HW128706   0.448   4.493   2.225 -0.5234 -0.7235 -1.9546
 5748SOL    HW228707   0.521   4.374   2.187  2.2393  0.6012  0.1759
 5749SOL     OW28708   1.131   3.765   0.932 -0.4253  0.1852 -0.1818
 5749SOL    HW128709   1.214   3.788   0.891 -0.4283  0.3187 -0.1129
 5749SOL    HW228710   1.133   3.827   1.005  0.0274  0.2531 -0.2552
 5750SOL     OW28711   3.260   4.641   8.932 -0.2497  0.1544 -0.6169
 5750SOL    HW128712   3.234   4.720   8.979  0.0205 -0.2006  0.1281
 5750SOL    HW228713   3.302   4.591   9.002 -3.6833 -0.1053  1.2264
 5751SOL     OW28714   4.338   4.651  11.415 -0.6039  0.3986 -0.4211
 5751SOL    HW128715   4.397   4.718  11.450 -1.4418 -0.4774  2.6231
 5751SOL    HW228716   4.278   4.709  11.369 -1.7476  0.7390  1.5195
 5752SOL     OW28717   4.204   1.730  16.880  0.4486  0.7162 -0.0887
 5752SOL    HW128718   4.127   1.686  16.843  0.6661  0.0951  0.1932
 5752SOL    HW228719   4.205   1.809  16.826  3.1073  0.1807 -0.8431
 5753SOL     OW28720   2.912   0.955   8.584  0.4239  0.5301 -0.7055
 5753SOL    HW128721   2.964   0.922   8.657  0.7920  0.5710 -0.9506
 5753SOL    HW228722   2.981   0.959   8.518  0.0683 -0.8371 -1.1751
 5754SOL     OW28723   4.544   1.410   6.294 -0.1911  0.1325 -0.0069
 5754SOL    HW128724   4.550   1.499   6.329 -2.3584  0.5640 -0.7516
 5754SOL    HW228725   4.571   1.364   6.373  1.1772  0.3862 -0.3170
 5755SOL     OW28726   2.345   1.564   5.786  0.5960 -0.1038  0.4107
 5755SOL    HW128727   2.436   1.594   5.783 -0.1015  1.9074 -0.5849
 5755SOL    HW228728   2.339   1.564   5.690  1.8527 -0.5836  0.3362
 5756SOL     OW28729   3.299   2.523   0.486  0.5662  0.0161  0.1987
 5756SOL    HW128730   3.363   2.593   0.472  0.9477 -0.7339 -1.7106
 5756SOL    HW228731   3.237   2.539   0.416  0.2979  0.6597  0.5847
 5757SOL     OW28732   3.417   2.436  11.840 -0.3406 -0.0400 -0.4154
 5757SOL    HW128733   3.368   2.439  11.922 -0.4846  2.3095 -0.6051
 5757SOL    HW228734   3.441   2.524  11.811  0.9268 -0.3872 -0.4193
 5758SOL     OW28735   3.933   4.486  16.958  0.4441 -0.3416 -0.2019
 5758SOL    HW128736   3.862   4.516  16.901 -0.7292 -0.3961  1.2598
 5758SOL    HW228737   3.998   4.553  16.936 -0.6770  1.1401  1.0787
 5759SOL     OW28738   3.211   2.196   0.019  0.2052  1.0675 -0.5226
 5759SOL    HW128739   3.137   2.230  17.662 -0.6717 -0.1043 -0.0288
 5759SOL    HW228740   3.169   2.182   0.105 -1.4272  3.6378 -0.8766
 5760SOL     OW28741   0.344   0.559   4.816 -0.0653  0.1022  0.4200
 5760SOL    HW128742   0.425   0.610   4.811  1.4600 -2.3529 -0.1913
 5760SOL    HW228743   0.379   0.477   4.781 -0.4769  0.4105 -0.7163
 5761SOL     OW28744   1.174   3.393   2.195 -0.5289 -0.0788 -0.1183
 5761SOL    HW128745   1.239   3.453   2.231  0.6884 -1.0420 -0.7451
 5761SOL    HW228746   1.187   3.397   2.101 -1.8322 -1.6406 -0.3718
 5762SOL     OW28747   1.923   0.834   7.859 -0.3332 -0.8753 -0.2150
 5762SOL    HW128748   1.907   0.740   7.851 -0.0265 -0.7721 -1.9336
 5762SOL    HW228749   1.940   0.846   7.766 -0.3068 -2.2160 -0.3878
 5763SOL     OW28750   4.473   2.107  13.121 -0.9268  0.1852  0.0585
 5763SOL    HW128751   4.412   2.136  13.190  0.0712  0.8855  0.6501
 5763SOL    HW228752   4.419   2.104  13.042 -1.9282  0.4272  0.7304
 5764SOL     OW28753   3.434   4.503   5.147  0.2304  0.0839  0.1301
 5764SOL    HW128754   3.374   4.486   5.220  1.7535 -0.1093  1.3356
 5764SOL    HW228755   3.492   4.573   5.178  0.8895 -0.0143 -0.8912
 5765SOL     OW28756   0.082   2.344  15.767 -0.0278  0.2427  0.0858
 5765SOL    HW128757   0.163   2.372  15.725 -0.7112 -0.3889 -1.6540
 5765SOL    HW228758   0.064   2.422  15.820 -2.6035 -1.7465  2.1175
 5766SOL     OW28759   3.246   0.828   7.183  0.1421 -0.3445 -0.0688
 5766SOL    HW128760   3.198   0.893   7.235 -3.0870 -1.5361 -1.5457
 5766SOL    HW228761   3.172   0.769   7.171  0.1119  0.1031 -2.1425
 5767SOL     OW28762   3.874   0.542  13.248  0.2250  0.2828 -0.3100
 5767SOL    HW128763   3.817   0.484  13.199 -0.9128  0.8643  0.3076
 5767SOL    HW228764   3.892   0.489  13.326 -3.2041 -0.9758 -0.3581
 5768SOL     OW28765   0.838   2.590  13.860  0.3161 -0.3734  0.0544
 5768SOL    HW128766   0.920   2.635  13.841 -0.6648  1.2571 -0.3117
 5768SOL    HW228767   0.803   2.608  13.773  0.5556  1.0873  0.2653
 5769SOL     OW28768   2.295   1.119   2.407  0.1096 -0.2158 -1.0040
 5769SOL    HW128769   2.343   1.201   2.414 -1.1188  0.4390 -0.2549
 5769SOL    HW228770   2.212   1.160   2.381  0.8655 -0.3145 -3.6206
 5770SOL     OW28771   1.330   0.716   9.152 -0.0746  0.1675  0.2782
 5770SOL    HW128772   1.386   0.644   9.123 -0.2848  0.0428  0.1881
 5770SOL    HW228773   1.272   0.670   9.213 -0.9266  0.4169 -0.3502
 5771SOL     OW28774   3.779   3.226   6.847  0.2077 -0.3143 -0.6641
 5771SOL    HW128775   3.825   3.168   6.787 -0.4773 -0.8059 -0.7104
 5771SOL    HW228776   3.693   3.215   6.808 -1.1573  2.2381  1.6066
 5772SOL     OW28777   4.030   1.977   5.537 -0.8088 -0.1275  0.7127
 5772SOL    HW128778   4.111   1.941   5.575 -1.1138  0.7718  2.2137
 5772SOL    HW228779   3.966   1.914   5.570 -0.7835 -0.7298 -0.3923
 5773SOL     OW28780   1.062   3.185   4.226 -0.2677  0.0317 -0.1340
 5773SOL    HW128781   1.114   3.111   4.256  1.6996  0.8638 -1.5501
 5773SOL    HW228782   1.075   3.188   4.131 -0.6806 -2.0898 -0.2716
 5774SOL     OW28783   2.973   4.187   1.645 -0.5222  0.0539 -0.1198
 5774SOL    HW128784   2.909   4.199   1.716 -0.9850 -1.8371 -0.2099
 5774SOL    HW228785   2.967   4.276   1.610 -0.7382  0.1985  0.2842
 5775SOL     OW28786   2.304   2.653   6.120  0.2776  0.2559  0.3107
 5775SOL    HW128787   2.350   2.733   6.097  0.6060  0.2848  1.0903
 5775SOL    HW228788   2.325   2.606   6.039 -1.4548 -1.5044  0.8848
 5776SOL     OW28789   1.103   3.285   0.060 -0.4837  0.1390 -0.0535
 5776SOL    HW128790   1.068   3.289   0.149  0.6985  1.7568  0.3460
 5776SOL    HW228791   1.112   3.379   0.041  1.0565 -0.0237 -0.2021
 5777SOL     OW28792   1.434   3.102  10.445 -0.2098  0.4486  0.2371
 5777SOL    HW128793   1.420   3.040  10.374 -0.4863  2.2217 -1.2523
 5777SOL    HW228794   1.453   3.045  10.519  0.8961  0.9798  0.3654
 5778SOL     OW28795   0.151   4.172   8.514 -0.1268  0.1209 -0.4574
 5778SOL    HW128796   0.243   4.145   8.521  0.0680  0.4314 -1.7426
 5778SOL    HW228797   0.158   4.259   8.474 -1.6124 -0.5361 -2.1175
 5779SOL     OW28798   4.213   0.104   7.520 -0.3627  0.8395 -0.3935
 5779SOL    HW128799   4.126   0.071   7.497 -0.0433  0.5703 -1.2123
 5779SOL    HW228800   4.265   0.050   7.461 -0.4912  1.1519 -0.7943
 5780SOL     OW28801   1.564   2.192   7.862  0.2948 -0.4736 -0.5924
 5780SOL    HW128802   1.524   2.128   7.921 -1.2801  1.1680  0.1422
 5780SOL    HW228803   1.604   2.129   7.803  0.3100 -0.3273 -0.7382
 5781SOL     OW28804   2.579   2.710  11.069  0.4510  0.5882 -0.0607
 5781SOL    HW128805   2.548   2.742  11.154  0.9704  0.5331  0.1456
 5781SOL    HW228806   2.496   2.674  11.038  0.5997  0.2672 -0.0861
 5782SOL     OW28807   0.844   4.035  16.965 -0.0055  0.8800 -0.2479
 5782SOL    HW128808   0.786   3.973  17.009  0.0723 -0.1633 -1.6403
 5782SOL    HW228809   0.853   3.990  16.881 -2.3051 -0.9524  0.5215
 5783SOL     OW28810   0.745   4.260   6.182 -0.0200  0.3735  0.2079
 5783SOL    HW128811   0.824   4.211   6.205 -0.1942  0.7511  1.6592
 5783SOL    HW228812   0.745   4.334   6.244 -0.1292  0.8604 -0.3766
 5784SOL     OW28813   3.832   4.386   6.694 -0.0251  0.6704  0.0290
 5784SOL    HW128814   3.775   4.452   6.733  0.1590  0.1232  1.2201
 5784SOL    HW228815   3.810   4.384   6.601  2.4793 -0.5848 -0.5331
 5785SOL     OW28816   2.508   4.535   9.548 -0.0658  0.1852  0.0102
 5785SOL    HW128817   2.507   4.471   9.619  1.7052 -0.6409 -0.7018
 5785SOL    HW228818   2.425   4.582   9.559  0.3755  0.8578  0.3949
 5786SOL     OW28819   0.010   2.862   4.093  0.2271  0.0430  0.2068
 5786SOL    HW128820   4.646   2.837   4.124 -0.5406  0.6972 -1.4471
 5786SOL    HW228821   0.060   2.796   4.143 -0.8988 -1.7739 -1.0797
 5787SOL     OW28822   0.827   2.477   3.395 -0.4580  0.8565 -0.1487
 5787SOL    HW128823   0.889   2.405   3.395 -1.7821 -0.2778  1.0722
 5787SOL    HW228824   0.745   2.429   3.407  0.5986 -0.6329  1.0297
 5788SOL     OW28825   0.032   0.159   8.263 -0.2080 -0.2700 -0.0165
 5788SOL    HW128826   0.101   0.188   8.324 -0.7892 -1.0901  1.0315
 5788SOL    HW228827   0.019   0.241   8.216  2.0005 -0.0194 -0.1826
 5789SOL     OW28828   0.944   1.673   6.334 -0.0486 -0.7585  0.0690
 5789SOL    HW128829   0.922   1.585   6.365  2.1371 -1.4995 -0.5611
 5789SOL    HW228830   0.904   1.727   6.403  3.2511  0.9597  0.6490
 5790SOL     OW28831   3.420   2.940   8.273 -0.2013 -0.1957  0.4779
 5790SOL    HW128832   3.327   2.940   8.251  0.0417  1.1706 -0.5086
 5790SOL    HW228833   3.444   3.032   8.260 -1.7363 -0.2759 -2.7370
 5791SOL     OW28834   1.921   4.296   2.787  0.0611 -0.1155 -0.0659
 5791SOL    HW128835   2.012   4.318   2.769  0.7857 -0.1030  3.6448
 5791SOL    HW228836   1.883   4.383   2.798  0.3566 -0.1898  1.4978
 5792SOL     OW28837   0.488   3.065   4.477 -0.2614  0.3269 -0.0666
 5792SOL    HW128838   0.530   3.047   4.561  0.1853  1.1960 -0.1130
 5792SOL    HW228839   0.429   2.990   4.469  0.3747  0.1116 -2.6607
 5793SOL     OW28840   1.395   3.520   1.284  0.1054  0.5003 -0.4046
 5793SOL    HW128841   1.325   3.518   1.219  0.6729  3.5900 -1.1046
 5793SOL    HW228842   1.365   3.467   1.358  1.9230  1.3815  0.9752
 5794SOL     OW28843   3.045   4.078   4.682 -0.0142 -0.5374  0.0032
 5794SOL    HW128844   3.013   4.063   4.770  0.1986  0.6355  0.2846
 5794SOL    HW228845   3.137   4.050   4.691 -0.1946 -0.6678  1.4335
 5795SOL     OW28846   0.163   3.740   9.914 -0.2228 -0.2609 -0.3670
 5795SOL    HW128847   0.221   3.675   9.956 -0.2687 -0.1855 -0.1854
 5795SOL    HW228848   0.167   3.724   9.820  0.2548 -0.3127 -0.3368
 5796SOL     OW28849   1.365   1.650   0.521 -0.0808 -0.3193  0.3824
 5796SOL    HW128850   1.313   1.675   0.444  0.1124 -1.6190 -0.1818
 5796SOL    HW228851   1.323   1.691   0.597  0.7749 -0.0683  0.7163
 5797SOL     OW28852   4.372   1.231   7.250  0.3047 -0.1212  0.3896
 5797SOL    HW128853   4.308   1.192   7.310 -2.2805 -1.5738 -3.2831
 5797SOL    HW228854   4.431   1.281   7.306  0.9539  0.6653 -0.9833
 5798SOL     OW28855   3.634   4.508   4.739 -0.4399 -0.0874 -0.0034
 5798SOL    HW128856   3.588   4.449   4.679 -0.8033 -0.1987  0.3857
 5798SOL    HW228857   3.634   4.456   4.819  0.4145 -0.6481 -0.3685
 5799SOL     OW28858   0.053   1.313   8.897  0.5254 -0.4301  0.8145
 5799SOL    HW128859   0.140   1.289   8.863 -0.1048 -0.1411 -0.9843
 5799SOL    HW228860   0.072   1.343   8.986  0.6529  2.6863 -0.2705
 5800SOL     OW28861   0.192   0.686   6.679  0.3125 -0.3752  0.3093
 5800SOL    HW128862   0.124   0.685   6.747 -0.1195 -1.4087 -0.1428
 5800SOL    HW228863   0.130   0.699   6.607 -1.0321 -1.8218  1.2078
 5801SOL     OW28864   0.625   3.047   2.118  0.4844 -0.1055 -0.3033
 5801SOL    HW128865   0.664   3.018   2.200  0.4390  0.4217 -0.0949
 5801SOL    HW228866   0.617   2.962   2.075 -0.3198 -0.0686 -0.2312
 5802SOL     OW28867   4.175   3.346   2.072 -0.5826  0.4737  0.0654
 5802SOL    HW128868   4.094   3.300   2.052 -0.2138  0.4709 -1.4832
 5802SOL    HW228869   4.219   3.325   1.990 -0.3385 -1.5424  0.7308
 5803SOL     OW28870   1.334   2.853   2.975 -0.1902 -0.0422  0.1811
 5803SOL    HW128871   1.264   2.797   2.942 -0.6264  0.0262  0.9717
 5803SOL    HW228872   1.292   2.869   3.060  0.2872  1.4309  0.1220
 5804SOL     OW28873   4.431   0.133   1.642 -0.6164  0.6001 -0.0603
 5804SOL    HW128874   4.477   0.085   1.573  2.1999  0.4663  1.9265
 5804SOL    HW228875   4.443   0.220   1.604  1.7278 -0.2054 -1.1466
 5805SOL     OW28876   3.470   1.054   7.207 -0.6204 -0.0229  0.1136
 5805SOL    HW128877   3.394   0.999   7.227 -0.4230 -0.2361  0.2670
 5805SOL    HW228878   3.534   0.989   7.179 -0.6990 -0.7835  1.7003
 5806SOL     OW28879   4.041   4.648  15.064 -0.0971 -0.1148 -0.6318
 5806SOL    HW128880   4.108   4.588  15.031  2.1557  0.9876  1.9284
 5806SOL    HW228881   3.990   4.587  15.117  1.0054 -1.6415 -1.3384
 5807SOL     OW28882   4.455   2.866  13.452 -0.2473  0.2181 -0.1718
 5807SOL    HW128883   4.488   2.903  13.534 -0.3789 -0.8948  0.3804
 5807SOL    HW228884   4.397   2.939  13.430 -0.3746 -0.1240 -0.9500
 5808SOL     OW28885   0.761   4.371   6.969  0.2012 -0.0254 -0.6553
 5808SOL    HW128886   0.758   4.325   6.885  4.0216  0.2174 -0.9358
 5808SOL    HW228887   0.681   4.337   7.008  0.1836 -0.4096 -1.0219
 5809SOL     OW28888   1.894   4.372   0.615  0.1249  0.0582  0.0861
 5809SOL    HW128889   1.838   4.434   0.568  1.1395  1.5128  0.8235
 5809SOL    HW228890   1.904   4.298   0.555 -0.9381 -1.3329  1.6140
 5810SOL     OW28891   3.457   1.615   5.663 -0.0935  0.3820 -0.4910
 5810SOL    HW128892   3.443   1.694   5.610 -0.8759  0.5271 -0.0717
 5810SOL    HW228893   3.388   1.557   5.630 -0.8618  0.4820  0.9681
 5811SOL     OW28894   1.019   2.572   7.476  0.3384 -0.0809  0.7208
 5811SOL    HW128895   1.042   2.519   7.551 -0.4750 -2.5076 -0.7605
 5811SOL    HW228896   0.963   2.634   7.522  0.3832 -0.4683  1.2859
 5812SOL     OW28897   2.871   0.040   6.424 -0.0735  0.2621  0.2964
 5812SOL    HW128898   2.879   0.123   6.471  1.7666  0.9274 -1.1944
 5812SOL    HW228899   2.874   0.078   6.336 -0.2154 -0.2151  0.0858
 5813SOL     OW28900   2.527   1.523   6.724  0.2046 -0.2503  0.3902
 5813SOL    HW128901   2.603   1.494   6.773  0.2069 -0.2703  0.3751
 5813SOL    HW228902   2.518   1.460   6.652 -1.2679  0.1375  0.2370
 5814SOL     OW28903   4.227   1.165   6.385  0.2295  0.4286 -0.1826
 5814SOL    HW128904   4.148   1.123   6.349  1.5169 -1.9986 -0.1336
 5814SOL    HW228905   4.222   1.243   6.330 -0.9570 -0.1217 -0.8578
 5815SOL     OW28906   4.215   0.971   3.551  0.9241  0.1164 -0.0804
 5815SOL    HW128907   4.123   0.992   3.541  1.4074  1.7961 -1.0441
 5815SOL    HW228908   4.252   1.059   3.545 -0.0332  0.5234  0.0836
 5816SOL     OW28909   0.236   4.593   5.008  0.2769 -0.0993  0.4261
 5816SOL    HW128910   0.158   4.564   4.961 -0.7204  1.6019  1.0049
 5816SOL    HW228911   0.241   4.540   5.088 -1.7367  2.5893  2.3421
 5817SOL     OW28912   0.836   3.190   8.481 -0.5079  0.1871 -0.1048
 5817SOL    HW128913   0.867   3.277   8.505  1.1594 -0.8447  1.5462
 5817SOL    HW228914   0.740   3.192   8.485 -0.6184 -2.0909 -1.4553
 5818SOL     OW28915   1.933   1.375   3.986 -0.2349  0.8715 -0.1019
 5818SOL    HW128916   2.028   1.384   3.991 -0.0393 -0.6193 -1.2759
 5818SOL    HW228917   1.909   1.410   3.900  2.1829  2.8734  0.0282
 5819SOL     OW28918   2.540   4.471   6.216  0.0126 -0.0284 -0.1318
 5819SOL    HW128919   2.476   4.484   6.287  1.3096 -0.3286  1.0852
 5819SOL    HW228920   2.488   4.450   6.139  0.8420 -1.5487 -0.2599
 5820SOL     OW28921   3.198   2.930   2.850 -0.1912 -0.1240  0.3133
 5820SOL    HW128922   3.194   3.021   2.880 -1.4183  0.4422 -1.5963
 5820SOL    HW228923   3.279   2.906   2.897 -0.6259 -1.2124  0.5125
 5821SOL     OW28924   3.878   0.889   3.417  0.3317  0.3002  0.0942
 5821SOL    HW128925   3.890   0.979   3.387  0.3134 -0.1561 -1.2661
 5821SOL    HW228926   3.953   0.849   3.374 -0.8741  0.4740 -2.1566
 5822SOL     OW28927   1.533   1.411   8.185  0.1225  0.2593 -0.3913
 5822SOL    HW128928   1.533   1.506   8.178  0.0052  0.2298 -0.7556
 5822SOL    HW228929   1.480   1.382   8.111 -2.3794 -0.4729  1.6861
 5823SOL     OW28930   2.854   4.558  15.754  0.5018 -0.4020  0.4506
 5823SOL    HW128931   2.938   4.547  15.800  0.1064 -0.6239  1.1112
 5823SOL    HW228932   2.882   4.572  15.664 -0.7657 -1.2636 -0.0670
 5824SOL     OW28933   0.622   1.717  12.878 -0.3796 -0.3913  0.7117
 5824SOL    HW128934   0.596   1.740  12.788  1.3358 -0.7641  0.1166
 5824SOL    HW228935   0.694   1.780  12.886  0.2881 -1.1904  0.9148
 5825SOL     OW28936   1.762   3.483   1.735  0.4381 -0.3680  0.2126
 5825SOL    HW128937   1.751   3.509   1.643  0.4003  1.9853  0.8837
 5825SOL    HW228938   1.670   3.477   1.761  0.4997  2.7808  1.1349
 5826SOL     OW28939   0.915   2.313   9.113 -0.2350 -0.0274 -0.3851
 5826SOL    HW128940   0.986   2.366   9.077  1.1771 -0.1841  2.1429
 5826SOL    HW228941   0.969   2.255   9.167 -0.7484 -2.4571 -2.5187
 5827SOL     OW28942   3.030   0.943  15.388 -0.6442  0.2820  0.0435
 5827SOL    HW128943   2.937   0.960  15.400 -0.7543 -1.0690  1.0831
 5827SOL    HW228944   3.051   0.940  15.482  0.0297 -2.8716 -0.2161
 5828SOL     OW28945   1.999   2.481   6.147 -0.1216 -0.6300 -0.4921
 5828SOL    HW128946   2.024   2.571   6.166 -1.2473 -0.4446  0.0672
 5828SOL    HW228947   2.078   2.444   6.106  0.1850  0.0961 -0.5559
 5829SOL     OW28948   0.984   4.560   3.367 -0.5002 -0.2854 -0.2959
 5829SOL    HW128949   1.033   4.596   3.293 -1.3429 -1.2525 -1.3187
 5829SOL    HW228950   0.917   4.507   3.324 -1.0477 -0.2826  0.5370
 5830SOL     OW28951   3.355   2.516  16.634  0.3241  0.3118  0.1928
 5830SOL    HW128952   3.331   2.540  16.724  0.7302  0.5393  0.2382
 5830SOL    HW228953   3.272   2.532  16.588  0.3787  1.4281  0.4932
 5831SOL     OW28954   2.598   3.187   5.584  0.2952 -0.0533 -0.1644
 5831SOL    HW128955   2.535   3.181   5.656  0.5330  0.1538  0.0597
 5831SOL    HW228956   2.667   3.228   5.635  0.2671  0.5703 -0.6272
 5832SOL     OW28957   0.826   2.840  16.211 -0.4892 -0.3249  0.0491
 5832SOL    HW128958   0.788   2.772  16.267 -0.3993 -0.4950 -0.0986
 5832SOL    HW228959   0.898   2.792  16.173 -0.6917 -1.0052  0.5264
 5833SOL     OW28960   1.835   3.700   3.147  0.5616  0.0051 -0.2229
 5833SOL    HW128961   1.746   3.691   3.112 -0.2614  2.0494  1.3381
 5833SOL    HW228962   1.818   3.747   3.229  4.0410 -0.6494  0.8754
 5834SOL     OW28963   1.651   4.000   8.456 -0.0625 -0.1480 -0.1081
 5834SOL    HW128964   1.680   4.085   8.423 -1.4986  0.4857  0.2332
 5834SOL    HW228965   1.612   4.023   8.540  1.7419  2.3890  0.0156
 5835SOL     OW28966   3.628   3.948   8.031  0.1867 -0.3345  0.5938
 5835SOL    HW128967   3.609   4.041   8.030  2.9232  0.2109  0.4770
 5835SOL    HW228968   3.559   3.915   8.088  0.2903  0.0712  0.9473
 5836SOL     OW28969   2.441   4.136  13.388 -0.2619 -0.4566  0.0282
 5836SOL    HW128970   2.503   4.125  13.316  1.3461 -0.3758  1.4176
 5836SOL    HW228971   2.476   4.080  13.457  2.3521 -1.1290 -1.8410
 5837SOL     OW28972   1.320   1.994   8.772  0.8064 -0.1813 -0.2178
 5837SOL    HW128973   1.306   2.007   8.678 -1.1257 -1.2769 -0.0896
 5837SOL    HW228974   1.272   1.911   8.782 -1.1492  0.4555 -4.5934
 5838SOL     OW28975   4.375   3.866   0.114 -0.2265 -0.3236  0.3849
 5838SOL    HW128976   4.399   3.958   0.101 -1.4060 -0.1725 -0.7468
 5838SOL    HW228977   4.308   3.857   0.046 -0.6974 -0.9082  0.9310
 5839SOL     OW28978   0.426   3.775   4.217 -0.3696 -0.2639  0.1881
 5839SOL    HW128979   0.461   3.693   4.250  0.4762  0.2583  0.5735
 5839SOL    HW228980   0.439   3.840   4.286  0.5949 -0.8126  0.5153
 5840SOL     OW28981   1.749   3.530   4.811  0.0496  0.0230  0.0337
 5840SOL    HW128982   1.667   3.546   4.858 -1.0286  0.4482 -2.0269
 5840SOL    HW228983   1.719   3.542   4.721 -0.9321 -2.1811  0.0641
 5841SOL     OW28984   3.792   0.692  13.561  0.1637 -0.1067  0.0390
 5841SOL    HW128985   3.720   0.639  13.525  0.5479  0.3123 -1.3147
 5841SOL    HW228986   3.739   0.741  13.624  0.7878 -0.5409  0.9118
 5842SOL     OW28987   0.311   3.559   0.461  0.0639  0.2809  0.1003
 5842SOL    HW128988   0.248   3.576   0.391  0.8758  0.9199 -0.4827
 5842SOL    HW228989   0.263   3.583   0.540 -2.1064  2.1475 -1.7733
 5843SOL     OW28990   4.197   3.803   2.045 -0.5785  0.3707  0.0398
 5843SOL    HW128991   4.188   3.890   2.005  0.0464  0.0831 -0.7242
 5843SOL    HW228992   4.176   3.827   2.135 -1.7169  0.9098 -0.3772
 5844SOL     OW28993   2.807   3.949   1.934 -0.0881  0.7158 -0.2175
 5844SOL    HW128994   2.883   3.893   1.950  0.5832  1.8698  0.6263
 5844SOL    HW228995   2.740   3.881   1.939  0.8802 -0.4129 -2.5822
 5845SOL     OW28996   1.664   0.970   8.100  0.8896  0.4808  0.3547
 5845SOL    HW128997   1.676   1.058   8.137 -0.0888  0.6108  0.3839
 5845SOL    HW228998   1.685   0.984   8.008 -0.2599 -0.7974 -0.1002
 5846SOL     OW28999   2.066   1.580  17.364 -0.0639  0.1699  0.2252
 5846SOL    HW129000   2.158   1.560  17.382 -0.8444 -2.7378  0.9136
 5846SOL    HW229001   2.033   1.608  17.450 -0.2979  0.5895 -0.0003
 5847SOL     OW29002   4.184   4.083   7.212  0.2984 -0.4749 -0.3139
 5847SOL    HW129003   4.208   3.993   7.189  0.8707 -0.2122 -0.7454
 5847SOL    HW229004   4.262   4.119   7.255 -0.0122  1.3451 -1.2834
 5848SOL     OW29005   2.394   4.652   5.282  0.0364 -0.3705  0.8674
 5848SOL    HW129006   2.320   4.599   5.312 -0.5830  0.4440  0.7641
 5848SOL    HW229007   2.375   4.654   5.188  0.0242 -1.8491  0.8378
 5849SOL     OW29008   2.677   1.969   7.984  0.1624 -0.1370  0.7815
 5849SOL    HW129009   2.592   1.990   7.944  1.5294  1.3608 -1.3055
 5849SOL    HW229010   2.667   2.016   8.067 -1.7780  1.6188 -0.4505
 5850SOL     OW29011   3.352   3.705   3.463  0.1270  0.2569 -0.1005
 5850SOL    HW129012   3.446   3.690   3.464  0.0739  0.0047  0.4169
 5850SOL    HW229013   3.316   3.637   3.406  0.5794 -0.6720  0.7419
 5851SOL     OW29014   0.211   0.671   7.474  0.7758 -0.0227  0.0425
 5851SOL    HW129015   0.261   0.601   7.515  0.1409 -1.4743 -1.6447
 5851SOL    HW229016   0.192   0.727   7.549  1.3911 -1.1057  1.0020
 5852SOL     OW29017   0.926   3.931   1.819  0.4472  0.2434  0.3574
 5852SOL    HW129018   0.854   3.987   1.788  0.4268 -0.0008 -0.0392
 5852SOL    HW229019   0.878   3.861   1.864  0.2435  0.5261  0.5808
 5853SOL     OW29020   1.350   1.081   1.573  0.1225 -0.4720 -0.4138
 5853SOL    HW129021   1.423   1.104   1.515 -1.8056  1.4500 -2.1050
 5853SOL    HW229022   1.294   1.036   1.510 -1.1683 -0.2586  0.5818
 5854SOL     OW29023   0.001   3.271   7.318  0.2218  0.2053  0.2063
 5854SOL    HW129024   0.022   3.356   7.356 -2.4039  1.3056 -0.8362
 5854SOL    HW229025   0.068   3.279   7.249 -1.8048  0.3823 -1.7504
 5855SOL     OW29026   3.247   0.019  14.010  0.0409  0.1267 -0.6374
 5855SOL    HW129027   3.282   0.099  14.050 -0.2890  0.5949 -1.2966
 5855SOL    HW229028   3.280   4.675  14.070 -0.7487  0.7662  0.4926
 5856SOL     OW29029   2.837   4.108   2.536 -0.4809 -0.5054 -0.1555
 5856SOL    HW129030   2.775   4.150   2.477 -0.3636  0.4728  0.4250
 5856SOL    HW229031   2.778   4.073   2.603 -0.7126 -0.7257 -0.4733
 5857SOL     OW29032   0.108   3.820   7.836 -0.5273 -0.0886  0.4171
 5857SOL    HW129033   0.198   3.800   7.862 -0.8829 -0.2663  1.4649
 5857SOL    HW229034   0.056   3.740   7.839 -1.3376  0.4489  0.6182
 5858SOL     OW29035   1.612   2.851   6.940  0.6058 -0.3999  0.2279
 5858SOL    HW129036   1.706   2.840   6.920  0.1461 -1.1178 -1.5407
 5858SOL    HW229037   1.564   2.818   6.865 -0.8923 -2.4921  2.0941
 5859SOL     OW29038   2.752   1.669   4.106  0.1690  0.7100  0.3233
 5859SOL    HW129039   2.769   1.698   4.017 -2.0410 -0.1765 -0.3951
 5859SOL    HW229040   2.690   1.597   4.089 -1.6132  1.7853  2.1910
 5860SOL     OW29041   4.510   0.485   8.225 -0.5005  0.0694 -0.0443
 5860SOL    HW129042   4.436   0.540   8.198  0.6804  1.3231 -0.7000
 5860SOL    HW229043   4.571   0.553   8.255 -1.0677  0.5264  0.0854
 5861SOL     OW29044   0.253   2.949   3.923  0.0117  0.1967  0.4061
 5861SOL    HW129045   0.193   2.931   3.995  0.0361  2.7258  1.0377
 5861SOL    HW229046   0.339   2.963   3.962 -0.3638  1.7282  0.6867
 5862SOL     OW29047   2.357   2.595  16.070 -0.0348  0.3704  0.3754
 5862SOL    HW129048   2.292   2.605  16.000 -1.7983 -1.7381  1.7345
 5862SOL    HW229049   2.392   2.513  16.034  1.2595  0.8772  0.4765
 5863SOL     OW29050   2.594   3.783   8.035 -0.0856 -0.6206 -0.0464
 5863SOL    HW129051   2.520   3.815   7.984  1.1082  2.7647  0.3606
 5863SOL    HW229052   2.614   3.697   7.998  0.7433 -0.1795 -0.6351
 5864SOL     OW29053   2.141   3.896   4.659  0.4329 -0.0017 -0.7321
 5864SOL    HW129054   2.110   3.855   4.739  0.5619 -1.8399 -1.6144
 5864SOL    HW229055   2.056   3.918   4.622 -0.7193 -0.1642  1.8157
 5865SOL     OW29056   0.599   2.006  11.600  0.3082 -0.4094  0.7633
 5865SOL    HW129057   0.550   1.950  11.661 -0.5222 -0.6931 -0.1541
 5865SOL    HW229058   0.667   2.047  11.653 -2.1607  1.1986  2.7134
 5866SOL     OW29059   1.491   2.104   5.805 -0.2282  0.4188  0.2088
 5866SOL    HW129060   1.409   2.100   5.853 -0.6892  0.7861 -0.5477
 5866SOL    HW229061   1.497   2.200   5.799 -0.2488  0.5025  1.4950
 5867SOL     OW29062   1.859   1.938   2.184 -0.2613  0.1794 -0.4313
 5867SOL    HW129063   1.866   1.952   2.278 -0.7367 -1.8740 -0.0789
 5867SOL    HW229064   1.944   1.974   2.159  0.6500 -0.8778  1.1619
 5868SOL     OW29065   3.948   3.276  16.304 -0.0892 -0.2680 -0.1537
 5868SOL    HW129066   3.912   3.281  16.215  0.6560  1.1005 -0.3744
 5868SOL    HW229067   3.986   3.190  16.287 -1.7521 -1.3006  1.3465
 5869SOL     OW29068   1.163   4.115   4.488 -0.9903 -0.0924 -0.3251
 5869SOL    HW129069   1.185   4.118   4.395  1.1884  0.8328  0.2115
 5869SOL    HW229070   1.082   4.165   4.480 -1.0857 -0.2216 -0.1748
 5870SOL     OW29071   0.827   4.495  12.716 -0.6857  0.2895  0.7923
 5870SOL    HW129072   0.914   4.475  12.750 -0.3509  0.1767 -0.1379
 5870SOL    HW229073   0.785   4.410  12.726  2.0106 -1.6421 -4.7339
 5871SOL     OW29074   2.389   1.513   1.823 -0.2957 -0.3301  0.7985
 5871SOL    HW129075   2.390   1.509   1.728 -0.7769  0.0108  0.7739
 5871SOL    HW229076   2.445   1.439   1.846 -1.1444 -1.7102 -1.5704
 5872SOL     OW29077   1.890   4.709   8.550 -0.2564  0.2301  0.0806
 5872SOL    HW129078   1.813   4.674   8.595  0.0952 -0.4550  0.1301
 5872SOL    HW229079   1.839   0.035   8.485  0.9830  1.8655  0.3211
 5873SOL     OW29080   4.006   1.650  11.441 -0.0755  0.4164  0.0742
 5873SOL    HW129081   4.036   1.634  11.352  0.7211  0.0042  0.4107
 5873SOL    HW229082   4.088   1.633  11.487  0.5475  2.4983 -0.2815
 5874SOL     OW29083   1.249   3.025  12.362  0.0873 -0.3136  0.4194
 5874SOL    HW129084   1.210   3.112  12.365  0.8805  0.0699 -0.5406
 5874SOL    HW229085   1.237   3.003  12.455  0.2541  0.0835  0.5373
 5875SOL     OW29086   1.443   0.371   0.252 -0.0765  0.2377 -0.3634
 5875SOL    HW129087   1.479   0.455   0.222 -0.9308 -0.2031 -2.5899
 5875SOL    HW229088   1.489   0.308   0.196 -1.3296  0.3492 -1.5033
 5876SOL     OW29089   0.603   3.940   0.045 -0.4089  0.3102 -0.4859
 5876SOL    HW129090   0.587   4.023   0.091  0.0343 -0.0623  0.3278
 5876SOL    HW229091   0.521   3.931  17.690 -0.2317 -2.2755 -0.2934
 5877SOL     OW29092   4.076   0.906   6.038 -0.2777 -0.3141  0.0662
 5877SOL    HW129093   4.159   0.930   5.996 -0.3420  1.2024  0.8191
 5877SOL    HW229094   4.020   0.946   5.971 -0.8335 -2.0493 -0.5097
 5878SOL     OW29095   2.361   0.304   2.039  0.4997  0.5419 -0.2389
 5878SOL    HW129096   2.383   0.397   2.038 -0.6492  0.8370  1.9461
 5878SOL    HW229097   2.446   0.261   2.027 -1.3681 -2.9816 -1.2250
 5879SOL     OW29098   3.435   1.755   1.527 -0.2559  0.2375 -0.1608
 5879SOL    HW129099   3.368   1.772   1.593  1.4335  0.1702  1.5724
 5879SOL    HW229100   3.482   1.839   1.524 -0.0207  0.0817 -0.7112
 5880SOL     OW29101   1.353   3.861  11.716 -0.2036 -0.2046  0.1977
 5880SOL    HW129102   1.378   3.953  11.714 -0.0895 -0.2333  0.3007
 5880SOL    HW229103   1.389   3.836  11.801 -2.0495  1.9667  1.6237
 5881SOL     OW29104   4.049   0.208   2.863 -0.4097  0.8010  0.0242
 5881SOL    HW129105   4.116   0.208   2.931 -0.1607  0.9846 -0.2158
 5881SOL    HW229106   4.064   0.299   2.836  1.2614  0.8125  1.0050
 5882SOL     OW29107   0.459   1.324   7.116 -0.2989 -0.0771 -0.8751
 5882SOL    HW129108   0.396   1.255   7.096  1.5601 -1.7638 -0.7719
 5882SOL    HW229109   0.407   1.403   7.099  1.3453  1.6090  1.9909
 5883SOL     OW29110   3.388   2.498   7.109 -0.1985  0.1084  0.0063
 5883SOL    HW129111   3.341   2.416   7.098  1.5683 -1.1236  1.7058
 5883SOL    HW229112   3.452   2.465   7.172  1.5181  0.6892 -1.4295
 5884SOL     OW29113   4.691   1.704   9.379 -0.6533 -0.5400  0.5242
 5884SOL    HW129114   0.054   1.666   9.397 -1.8325 -2.8247  1.3221
 5884SOL    HW229115   4.696   1.786   9.428 -0.3951  0.4936 -1.2213
 5885SOL     OW29116   3.398   4.665   7.663 -0.2735  0.4208 -0.0434
 5885SOL    HW129117   3.472   4.645   7.719  1.6375 -1.1648 -3.0893
 5885SOL    HW229118   3.430   4.619   7.585 -0.1349 -1.0247  0.8596
 5886SOL     OW29119   2.341   2.541   2.287  0.8714  0.2754  0.2800
 5886SOL    HW129120   2.358   2.448   2.271 -1.9971 -0.2920  0.4625
 5886SOL    HW229121   2.370   2.574   2.201  0.1017 -3.2020 -1.3151
 5887SOL     OW29122   4.007   2.036   1.634  0.0387 -0.3303  0.2012
 5887SOL    HW129123   4.065   2.020   1.708  1.9561 -0.4268 -1.3342
 5887SOL    HW229124   3.962   1.954   1.616 -0.9769  0.7229 -2.1522
 5888SOL     OW29125   1.098   3.217  14.384 -0.3247 -0.7621  0.1525
 5888SOL    HW129126   1.037   3.216  14.458 -0.5390 -2.2867 -0.0454
 5888SOL    HW229127   1.179   3.185  14.423  0.0000  1.2463  1.1024
 5889SOL     OW29128   0.096   2.008   3.815  0.6437 -0.0643  0.6595
 5889SOL    HW129129   0.049   1.950   3.756  2.5268  0.2968 -1.1956
 5889SOL    HW229130   0.150   2.058   3.754 -0.1665 -1.2435 -1.0136
 5890SOL     OW29131   0.843   4.450   5.422 -0.0277  0.4414 -0.3784
 5890SOL    HW129132   0.753   4.436   5.393  0.3186  1.4819 -1.9434
 5890SOL    HW229133   0.852   4.377   5.484 -0.7015  0.7749  0.1085
 5891SOL     OW29134   0.864   1.190   6.193  0.1860 -0.0415  0.2337
 5891SOL    HW129135   0.888   1.128   6.124 -1.1302 -0.3938  0.0890
 5891SOL    HW229136   0.867   1.133   6.269 -0.0727  0.2524  0.4639
 5892SOL     OW29137   4.318   2.605   6.792 -0.0041  0.5060 -0.0963
 5892SOL    HW129138   4.357   2.631   6.709  1.5743  0.7626  0.7319
 5892SOL    HW229139   4.392   2.576   6.845 -0.8423  1.9191  1.8506
 5893SOL     OW29140   1.212   4.483   0.933  0.1772  0.7725  0.3362
 5893SOL    HW129141   1.120   4.470   0.956  0.6553  1.3236  2.5697
 5893SOL    HW229142   1.234   4.527   1.016 -0.1612  0.0757  0.7917
 5894SOL     OW29143   2.604   1.187   1.776 -0.0437  0.0424 -0.9539
 5894SOL    HW129144   2.658   1.200   1.697  1.9540  1.3182  0.6073
 5894SOL    HW229145   2.538   1.133   1.734 -1.1347  0.8002 -0.2138
 5895SOL     OW29146   2.775   1.596   7.051 -0.3215 -0.0627 -0.2506
 5895SOL    HW129147   2.785   1.605   7.145  2.7249 -1.1336 -0.4786
 5895SOL    HW229148   2.829   1.671   7.025  0.6317 -0.3758  0.8525
 5896SOL     OW29149   0.338   0.852  14.548  0.0404  0.0365  0.0883
 5896SOL    HW129150   0.284   0.871  14.472 -0.8018 -0.5715  0.5410
 5896SOL    HW229151   0.417   0.820  14.504  0.1154 -0.4450  0.5725
 5897SOL     OW29152   4.717   4.188   8.762 -0.3088  0.3193  0.0239
 5897SOL    HW129153   4.716   4.196   8.666 -0.3106 -1.4071 -0.1190
 5897SOL    HW229154   0.084   4.220   8.772 -0.5687  0.7327  0.9671
 5898SOL     OW29155   1.171   2.402   3.705  0.0480 -0.2350  0.9351
 5898SOL    HW129156   1.263   2.392   3.729  0.3000  0.5205  0.3056
 5898SOL    HW229157   1.164   2.326   3.647 -0.7778 -0.3972  1.2444
 5899SOL     OW29158   4.428   3.464   5.301  0.1604 -0.0225  0.0913
 5899SOL    HW129159   4.458   3.388   5.250 -0.4483  0.4685 -0.9982
 5899SOL    HW229160   4.511   3.512   5.298 -0.8857  1.7648  0.0087
 5900SOL     OW29161   4.399   0.293  15.628  0.0539  0.0932  0.3465
 5900SOL    HW129162   4.343   0.216  15.630 -3.0370  2.2993 -1.8536
 5900SOL    HW229163   4.481   0.253  15.656  0.5555 -0.4701 -1.8675
 5901SOL     OW29164   2.858   0.619  13.468  0.3694  0.1738  0.0085
 5901SOL    HW129165   2.844   0.702  13.423 -2.9099 -0.6492 -0.4962
 5901SOL    HW229166   2.900   0.566  13.400  1.9713  3.7027 -1.7138
 5902SOL     OW29167   2.643   3.087  12.379 -0.2170  0.1397  0.4661
 5902SOL    HW129168   2.553   3.120  12.388 -0.1064 -0.4277  3.7462
 5902SOL    HW229169   2.688   3.161  12.420  0.3972 -0.5921  1.1025
 5903SOL     OW29170   0.254   0.031  17.110  0.0071 -0.3890 -0.7486
 5903SOL    HW129171   0.218   0.064  17.192 -0.0099 -1.2654 -0.4054
 5903SOL    HW229172   0.349   0.026  17.121 -0.2741 -1.2958  1.1729
 5904SOL     OW29173   1.895   1.160   9.508 -0.6113 -0.3439 -0.2925
 5904SOL    HW129174   1.863   1.251   9.508 -0.5005 -0.3109 -1.9923
 5904SOL    HW229175   1.936   1.159   9.595  1.2736 -0.5309 -1.1930
 5905SOL     OW29176   2.361   0.998   3.733  0.7989 -0.6803  0.3608
 5905SOL    HW129177   2.383   1.001   3.640  0.2660 -2.8051  0.1602
 5905SOL    HW229178   2.425   0.931   3.759  0.4785 -1.5727 -1.1669
 5906SOL     OW29179   2.939   3.336   6.540 -0.4464 -0.1353 -0.0708
 5906SOL    HW129180   2.986   3.411   6.505  1.1765 -1.1057  0.0397
 5906SOL    HW229181   2.898   3.304   6.459  0.7639 -0.0036 -0.7334
 5907SOL     OW29182   4.246   3.147  11.825 -0.1457  0.1429  0.2465
 5907SOL    HW129183   4.218   3.105  11.744 -1.9317  1.6413  0.0752
 5907SOL    HW229184   4.183   3.120  11.893  2.1309  0.9152  2.6466
 5908SOL     OW29185   1.914   0.457   5.884 -0.3863  0.0635  0.3757
 5908SOL    HW129186   1.860   0.389   5.843 -0.0549  0.4269 -0.6636
 5908SOL    HW229187   1.953   0.406   5.955 -1.5138  1.0546  1.7025
 5909SOL     OW29188   2.986   2.956   7.853  0.4153  0.5476  0.1148
 5909SOL    HW129189   3.027   2.870   7.843 -0.1720  0.0318  2.2565
 5909SOL    HW229190   2.911   2.921   7.900  1.5239 -0.9775  0.7522
 5910SOL     OW29191   0.513   2.994  14.991 -0.2303  0.0985  0.5228
 5910SOL    HW129192   0.435   3.005  14.938 -1.0730  2.2466  2.2110
 5910SOL    HW229193   0.561   3.076  14.983  2.2445 -1.4842 -0.9326
 5911SOL     OW29194   0.209   2.913  12.002  0.4150 -0.1413  0.0129
 5911SOL    HW129195   0.278   2.846  11.998  0.3575 -0.1983 -0.0125
 5911SOL    HW229196   0.138   2.849  12.004 -0.1466  0.4535 -1.1040
 5912SOL     OW29197   1.671   0.252   8.405  0.1368 -0.0942  0.4462
 5912SOL    HW129198   1.726   0.301   8.466  0.4381  0.8264 -0.5852
 5912SOL    HW229199   1.730   0.210   8.342  0.0226 -0.7291  0.7634
 5913SOL     OW29200   3.241   0.802   2.517  0.6725  0.2987 -0.6378
 5913SOL    HW129201   3.215   0.840   2.433 -1.5039  0.9149  0.3236
 5913SOL    HW229202   3.243   0.880   2.573  2.6452 -0.0950 -0.1534
 5914SOL     OW29203   1.983   0.611   8.729  0.0996  0.0004 -0.1059
 5914SOL    HW129204   2.021   0.688   8.771  0.3681 -0.7902  1.0913
 5914SOL    HW229205   1.932   0.638   8.652  0.3774  1.0971  0.0908
 5915SOL     OW29206   1.869   3.199   6.059 -0.1741  0.3286  0.5221
 5915SOL    HW129207   1.834   3.113   6.037  1.6567 -0.5911  1.2112
 5915SOL    HW229208   1.841   3.204   6.150 -0.2329 -0.0969  0.5280
 5916SOL     OW29209   4.015   3.991  11.890  0.2973  0.2998  0.2425
 5916SOL    HW129210   3.964   4.036  11.822  1.8633 -1.0200 -1.7992
 5916SOL    HW229211   3.954   3.996  11.964 -0.7381  1.3373 -0.6806
 5917SOL     OW29212   4.171   0.952  12.226 -0.6710  0.0195 -0.2826
 5917SOL    HW129213   4.102   0.944  12.160 -1.3500 -0.9474  0.5503
 5917SOL    HW229214   4.144   1.021  12.287  1.7406 -0.5600  1.4725
 5918SOL     OW29215   1.084   4.289  11.676  0.1750  0.6748  0.1358
 5918SOL    HW129216   1.018   4.236  11.721  0.7457 -2.3230 -2.5623
 5918SOL    HW229217   1.035   4.307  11.596  2.8432 -0.1010 -1.6855
 5919SOL     OW29218   2.181   1.294   6.433  0.0853 -0.0397  0.8286
 5919SOL    HW129219   2.123   1.235   6.386  0.5641  2.3912 -2.8810
 5919SOL    HW229220   2.117   1.301   6.503 -1.4849 -3.3005 -0.2886
 5920SOL     OW29221   3.161   4.167   5.163  1.0007 -0.2157  0.0314
 5920SOL    HW129222   3.173   4.172   5.258  1.9006 -0.6117 -0.0654
 5920SOL    HW229223   3.223   4.099   5.137 -0.4574 -1.2092 -0.8773
 5921SOL     OW29224   1.201   3.691   4.107 -0.0639  0.3514 -0.0521
 5921SOL    HW129225   1.119   3.687   4.156  0.5325  0.9612  0.9964
 5921SOL    HW229226   1.217   3.785   4.113 -0.4499  0.3709  0.6314
 5922SOL     OW29227   4.517   0.865   7.789 -0.2540 -0.1401  0.2050
 5922SOL    HW129228   4.436   0.831   7.828 -0.6793 -0.7155 -1.1696
 5922SOL    HW229229   4.500   0.959   7.792 -0.5753 -0.1559 -0.9547
 5923SOL     OW29230   3.307   3.191   8.915  0.5171 -0.2405 -0.8555
 5923SOL    HW129231   3.216   3.161   8.916  0.5235 -0.2192  0.9021
 5923SOL    HW229232   3.363   3.123   8.952  1.2223  0.9729  0.3182
 5924SOL     OW29233   4.164   2.308   0.180 -0.0847  0.2320 -0.0534
 5924SOL    HW129234   4.236   2.339   0.124 -2.7654  2.7627 -2.0742
 5924SOL    HW229235   4.140   2.233   0.127 -1.3212 -0.3407  1.3264
 5925SOL     OW29236   0.562   0.719   9.409  0.0769  0.2261  0.1511
 5925SOL    HW129237   0.639   0.706   9.354  0.1163 -1.5021  0.6108
 5925SOL    HW229238   0.603   0.739   9.494 -0.3092 -1.7210  0.7896
 5926SOL     OW29239   1.127   3.812  14.853  0.2682  0.4777 -0.3774
 5926SOL    HW129240   1.128   3.861  14.770  0.0427  0.1655 -0.5636
 5926SOL    HW229241   1.175   3.866  14.915 -0.9120 -0.1062  1.0378
 5927SOL     OW29242   3.368   2.164   6.632 -0.5540 -0.4115  0.3124
 5927SOL    HW129243   3.345   2.094   6.693  1.0210 -1.0266  0.2144
 5927SOL    HW229244   3.426   2.130   6.564 -2.7065 -0.7544 -1.3512
 5928SOL     OW29245   4.403   0.050   7.937  0.2955 -0.1875 -0.2705
 5928SOL    HW129246   4.360   0.067   8.020 -0.9226 -1.7140 -0.6003
 5928SOL    HW229247   4.337   4.720   7.893 -0.6457  0.8202 -0.0660
 5929SOL     OW29248   2.868   0.975   4.879 -0.5131 -0.1420 -0.5032
 5929SOL    HW129249   2.775   0.954   4.888  0.3675 -2.0077  4.7686
 5929SOL    HW229250   2.893   0.919   4.953  0.5827 -1.3412 -1.7811
 5930SOL     OW29251   2.734   0.411   0.277 -0.0077 -0.3149 -0.0017
 5930SOL    HW129252   2.652   0.365   0.296  0.3581 -0.5820  0.9378
 5930SOL    HW229253   2.706   0.502   0.270  0.5116 -0.0249  1.6410
 5931SOL     OW29254   3.851   2.128   4.905 -0.7138 -0.1895  0.1595
 5931SOL    HW129255   3.840   2.187   4.979 -1.2029 -0.4958  0.3329
 5931SOL    HW229256   3.901   2.179   4.841  1.2755 -0.0521  1.8394
 5932SOL     OW29257   0.068   2.411   8.714  0.5263 -0.6254  0.2083
 5932SOL    HW129258   0.082   2.502   8.689 -1.2476 -0.1516  0.9248
 5932SOL    HW229259   0.116   2.406   8.797  0.8942 -1.7750 -0.0729
 5933SOL     OW29260   3.135   4.477   2.806  0.1486 -0.3895 -0.0833
 5933SOL    HW129261   3.108   4.393   2.768 -1.5533  0.4550 -0.7455
 5933SOL    HW229262   3.048   4.512   2.825  1.4727  2.1011  1.3378
 5934SOL     OW29263   3.182   0.278   8.420  0.7090 -0.5092  0.2108
 5934SOL    HW129264   3.148   0.360   8.456 -1.3312 -1.0725 -0.4833
 5934SOL    HW229265   3.247   0.313   8.359  1.6112 -0.3844  1.2375
 5935SOL     OW29266   1.563   0.866  13.544 -0.1437  0.0703  0.2543
 5935SOL    HW129267   1.511   0.804  13.595  0.7885 -0.7964  0.1514
 5935SOL    HW229268   1.571   0.947  13.593  0.3161  0.8145 -1.0390
 5936SOL     OW29269   2.285   0.121   5.849 -0.6870  0.1428  0.2078
 5936SOL    HW129270   2.250   0.118   5.760 -0.9520  2.0793  0.2583
 5936SOL    HW229271   2.356   0.185   5.847 -1.3835  0.8535 -1.0802
 5937SOL     OW29272   3.855   3.291   3.631  0.4519  0.2861  0.2138
 5937SOL    HW129273   3.923   3.255   3.689  0.7147  1.2270  0.4939
 5937SOL    HW229274   3.847   3.225   3.562  4.6899  0.5869 -0.5686
 5938SOL     OW29275   1.685   4.444   5.616 -0.0713  0.1936  0.3770
 5938SOL    HW129276   1.707   4.357   5.584 -1.4949 -0.1101  0.2313
 5938SOL    HW229277   1.685   4.491   5.532 -0.7517  0.7920  0.7134
 5939SOL     OW29278   1.928   3.927  13.597 -0.0812  0.1858  0.1062
 5939SOL    HW129279   1.838   3.896  13.610 -0.5260  2.8053  3.2224
 5939SOL    HW229280   1.969   3.937  13.683 -1.6082  2.3925  0.5777
 5940SOL     OW29281   2.491   1.155   4.282  0.0252 -0.1531  0.5672
 5940SOL    HW129282   2.491   1.104   4.363 -0.3984 -0.1516  0.5670
 5940SOL    HW229283   2.509   1.086   4.217  1.2268 -0.2834  1.0383
 5941SOL     OW29284   4.426   4.308   9.395  0.0925 -1.1031 -0.3687
 5941SOL    HW129285   4.420   4.404   9.401  2.3369 -0.8993 -1.2675
 5941SOL    HW229286   4.335   4.294   9.421  0.1824  2.1816  1.6713
 5942SOL     OW29287   1.793   2.617  16.154 -0.1171 -0.5977  0.2704
 5942SOL    HW129288   1.788   2.670  16.234 -0.2858 -0.0216 -0.1251
 5942SOL    HW229289   1.753   2.678  16.092 -2.3658 -1.8616  0.4838
 5943SOL     OW29290   0.207   2.164   3.585 -0.2076 -0.2324  0.4475
 5943SOL    HW129291   0.226   2.111   3.508 -0.9002 -0.8714  0.7122
 5943SOL    HW229292   0.155   2.238   3.553  0.1802 -0.6443 -1.0930
 5944SOL     OW29293   0.875   0.937   3.584 -0.4104  0.4522  0.3973
 5944SOL    HW129294   0.874   1.011   3.644 -1.8200  2.3479 -1.9402
 5944SOL    HW229295   0.809   0.966   3.521  1.7541  0.3789 -1.9362
 5945SOL     OW29296   2.743   0.746  16.475 -0.2303  0.5007  0.8257
 5945SOL    HW129297   2.729   0.827  16.425 -4.4050 -0.4817  0.3891
 5945SOL    HW229298   2.666   0.691  16.459  0.2594 -0.4899  1.8446
 5946SOL     OW29299   0.840   0.734  11.522  0.0181 -0.6399 -0.5437
 5946SOL    HW129300   0.787   0.659  11.495 -0.5176  0.3640 -2.3424
 5946SOL    HW229301   0.792   0.806  11.481  0.7902 -0.2047 -0.6799
 5947SOL     OW29302   1.964   3.438   5.678  0.0151  0.5588  0.3869
 5947SOL    HW129303   1.945   3.493   5.754  1.1836  1.3015  0.1375
 5947SOL    HW229304   1.929   3.481   5.600 -0.7205 -0.7867 -0.0257
 5948SOL     OW29305   3.742   1.596   3.477 -0.3423 -0.4119 -0.5253
 5948SOL    HW129306   3.794   1.516   3.479  0.7697  0.2763 -1.7270
 5948SOL    HW229307   3.688   1.574   3.553  0.0326 -1.7616 -0.6563
 5949SOL     OW29308   0.610   2.243  12.238  0.6730 -0.0274 -0.1081
 5949SOL    HW129309   0.563   2.326  12.227  0.8894  0.2625  1.0710
 5949SOL    HW229310   0.697   2.280  12.253  0.0632  1.6726 -0.8171
 5950SOL     OW29311   3.705   2.701   8.922  0.4629  0.3015  0.2153
 5950SOL    HW129312   3.697   2.624   8.866 -0.6095  0.2301  0.4601
 5950SOL    HW229313   3.652   2.762   8.871 -2.3024 -1.1098  1.4008
 5951SOL     OW29314   1.954   1.621   4.238 -0.2494  0.0122  0.0188
 5951SOL    HW129315   2.012   1.663   4.302  1.1827 -1.0588 -0.5486
 5951SOL    HW229316   1.984   1.674   4.164  0.7023 -0.8239 -0.2115
 5952SOL     OW29317   2.217   2.576   2.970 -0.6017 -0.3755 -0.1722
 5952SOL    HW129318   2.307   2.607   2.964 -0.6814 -0.1081  0.0243
 5952SOL    HW229319   2.214   2.533   2.885  1.0972 -1.4201  0.2894
 5953SOL     OW29320   4.423   3.302   9.196 -0.0366  0.0165 -0.3295
 5953SOL    HW129321   4.510   3.319   9.233 -0.2639  2.8712 -1.1099
 5953SOL    HW229322   4.384   3.382   9.229  0.9242  0.4658 -0.2842
 5954SOL     OW29323   1.698   1.605   5.449  0.2738 -0.5712 -0.2450
 5954SOL    HW129324   1.731   1.681   5.497  3.4867 -1.5483 -0.9291
 5954SOL    HW229325   1.716   1.637   5.360  1.2597  0.5417  0.3636
 5955SOL     OW29326   2.250   2.934  11.140  0.2515  0.4281  0.0358
 5955SOL    HW129327   2.211   2.847  11.146  0.2013  0.4821  0.4545
 5955SOL    HW229328   2.253   2.959  11.232 -2.4432  1.4808 -0.1341
 5956SOL     OW29329   2.288   0.972   4.684 -0.1735  0.2264  0.6502
 5956SOL    HW129330   2.236   0.982   4.604  0.2886 -0.6848  0.2343
 5956SOL    HW229331   2.226   0.937   4.748  1.9137 -0.5583  2.2373
 5957SOL     OW29332   1.457   3.365  10.372 -0.2969  0.4306 -0.0657
 5957SOL    HW129333   1.434   3.273  10.388 -3.0737  0.6902 -2.7162
 5957SOL    HW229334   1.494   3.369  10.283  2.1257  2.3015  1.0185
 5958SOL     OW29335   3.549   1.225   3.303 -0.1708 -0.2123  0.0218
 5958SOL    HW129336   3.501   1.307   3.303 -1.4960 -0.9762  1.6444
 5958SOL    HW229337   3.603   1.219   3.224  1.0958 -1.8788  0.9906
 5959SOL     OW29338   2.824   2.408   5.200  0.5719  0.0408  0.8010
 5959SOL    HW129339   2.746   2.454   5.169 -0.4136  0.0540  3.3122
 5959SOL    HW229340   2.861   2.376   5.117 -0.0837  4.5994 -1.2310
 5960SOL     OW29341   2.510   4.655   8.562 -0.3059 -0.0755 -1.1182
 5960SOL    HW129342   2.567   0.006   8.540  1.2789 -0.0946  2.8760
 5960SOL    HW229343   2.437   4.703   8.601 -1.0662 -1.6791 -0.5382
 5961SOL     OW29344   4.129   0.357   5.546  0.2875 -0.4455 -0.0820
 5961SOL    HW129345   4.148   0.310   5.464  1.7407 -0.0250  0.0172
 5961SOL    HW229346   4.136   0.448   5.514 -0.6751 -0.8520 -1.4252
 5962SOL     OW29347   4.046   1.684   6.610  0.3986  0.0304  0.3730
 5962SOL    HW129348   4.082   1.773   6.612 -3.0615  1.4990 -2.9674
 5962SOL    HW229349   4.031   1.681   6.515 -0.2404 -1.8907  0.5366
 5963SOL     OW29350   2.987   3.349   0.885 -0.2311  0.0615 -0.3072
 5963SOL    HW129351   3.053   3.333   0.953 -0.1938 -2.8339 -1.0310
 5963SOL    HW229352   2.933   3.271   0.896 -1.0246  0.3601 -2.0439
 5964SOL     OW29353   0.281   3.748  15.203 -0.2080 -0.7677 -0.4080
 5964SOL    HW129354   0.209   3.795  15.244 -0.1342 -0.0550 -1.0960
 5964SOL    HW229355   0.347   3.744  15.272 -0.3517  0.5938 -0.2004
 5965SOL     OW29356   1.001   0.388   7.971 -0.2134  0.0014  0.3696
 5965SOL    HW129357   1.015   0.435   8.053  0.2903  0.8972 -0.2234
 5965SOL    HW229358   1.059   0.313   7.983  0.7839  0.3899 -2.0015
 5966SOL     OW29359   1.118   1.793   1.675  0.3878 -0.0671  0.1852
 5966SOL    HW129360   1.108   1.727   1.608 -1.6680  1.4123 -0.9564
 5966SOL    HW229361   1.133   1.872   1.623 -0.1783 -0.2539 -0.2473
 5967SOL     OW29362   1.181   1.083   3.570 -0.3569  0.2980  0.3457
 5967SOL    HW129363   1.089   1.096   3.591  0.0400  0.9748  1.6938
 5967SOL    HW229364   1.197   1.161   3.518  0.4901 -0.0358  0.0978
 5968SOL     OW29365   2.700   0.973  16.334  0.7346 -0.5344 -0.0262
 5968SOL    HW129366   2.615   1.005  16.305 -0.7243 -2.3432  2.3423
 5968SOL    HW229367   2.756   1.006  16.263 -0.4827  1.0809 -0.2431
 5969SOL     OW29368   1.180   1.606   3.367  0.1032  0.0208 -0.2191
 5969SOL    HW129369   1.104   1.581   3.421  1.0143  1.1800  1.6121
 5969SOL    HW229370   1.187   1.697   3.397 -0.2228  0.5511 -1.7669
 5970SOL     OW29371   0.383   1.911   0.730 -0.6559 -0.3610 -0.1043
 5970SOL    HW129372   0.349   1.936   0.644 -0.9508  1.6147  0.5715
 5970SOL    HW229373   0.424   1.828   0.708 -0.7313 -0.9200  1.9446
 5971SOL     OW29374   4.076   3.414   5.511 -0.2819  1.2214 -0.5655
 5971SOL    HW129375   4.152   3.471   5.502  1.1689 -0.7556 -0.8097
 5971SOL    HW229376   4.011   3.467   5.558 -0.8082 -0.9595  1.1283
 5972SOL     OW29377   0.027   1.272  11.039  0.2772 -0.4666 -0.5431
 5972SOL    HW129378   0.083   1.345  11.014 -2.6077  1.7632 -0.4203
 5972SOL    HW229379   4.676   1.309  11.088  0.2866  1.8873 -2.3361
 5973SOL     OW29380   2.817   2.306   2.527 -0.0295  0.4144 -0.2969
 5973SOL    HW129381   2.814   2.223   2.574  0.1209  0.0124 -1.0094
 5973SOL    HW229382   2.871   2.279   2.452 -1.8914 -0.7625 -1.1958
 5974SOL     OW29383   4.609   2.894  15.210 -0.4051  0.1469 -0.0553
 5974SOL    HW129384   4.576   2.854  15.291  0.3551  0.9291  0.6388
 5974SOL    HW229385   4.638   2.982  15.235 -0.2436 -0.6745  2.6878
 5975SOL     OW29386   4.466   2.504  15.522 -0.2666 -0.2225 -0.1652
 5975SOL    HW129387   4.463   2.432  15.459 -0.5518  0.9407 -1.4686
 5975SOL    HW229388   4.371   2.507  15.530 -0.2530  2.4537 -1.1150
 5976SOL     OW29389   3.434   3.974   4.026  0.2032 -0.8551  0.2396
 5976SOL    HW129390   3.374   3.935   3.963  0.2926 -3.7466  1.9173
 5976SOL    HW229391   3.426   4.068   4.010  2.8138 -1.0001 -1.9102
 5977SOL     OW29392   0.794   1.549   5.267 -0.0919 -0.1071 -0.5899
 5977SOL    HW129393   0.727   1.571   5.331  1.4890  0.1603  0.9518
 5977SOL    HW229394   0.859   1.508   5.324 -0.1221 -1.3910 -1.4843
 5978SOL     OW29395   1.730   2.537  13.454  0.1308  0.5243 -0.3786
 5978SOL    HW129396   1.771   2.619  13.481 -0.1086  0.0193  1.5268
 5978SOL    HW229397   1.804   2.494  13.410 -0.9384 -1.9509  0.2423
 5979SOL     OW29398   0.954   2.037   0.598  0.1452  0.4828 -0.3487
 5979SOL    HW129399   0.892   2.040   0.671  0.4585 -0.9199 -0.0241
 5979SOL    HW229400   1.041   2.052   0.636 -0.2551  0.3643  0.6149
 5980SOL     OW29401   2.276   2.772   0.939 -0.2390  0.3919  0.0903
 5980SOL    HW129402   2.183   2.759   0.957 -0.1772  0.7250  0.6500
 5980SOL    HW229403   2.295   2.836   1.008 -0.7103  2.2574 -1.5156
 5981SOL     OW29404   0.414   1.428   0.593  0.4585 -0.1409  0.3348
 5981SOL    HW129405   0.504   1.396   0.583 -0.3610 -2.5315  0.5966
 5981SOL    HW229406   0.376   1.402   0.508  0.8399 -0.8868  0.3911
 5982SOL     OW29407   1.058   0.939   7.137 -0.0173 -0.3437  0.2123
 5982SOL    HW129408   1.112   0.902   7.207  1.3979  1.2489 -0.0258
 5982SOL    HW229409   1.018   1.015   7.180  1.0502  0.4978 -0.2641
 5983SOL     OW29410   0.923   4.241   8.851  0.0519 -0.1574 -0.1389
 5983SOL    HW129411   0.890   4.203   8.770  0.6311 -1.7329  0.3794
 5983SOL    HW229412   0.983   4.176   8.887  1.5505  2.5742  2.3256
 5984SOL     OW29413   3.274   0.300   1.880 -0.0574  0.3047 -0.0634
 5984SOL    HW129414   3.184   0.283   1.907  1.1185 -2.1150  2.3185
 5984SOL    HW229415   3.306   0.314   1.969  0.1531  0.8825 -0.2306
 5985SOL     OW29416   1.678   1.750   1.862  0.2509  0.2215 -0.5720
 5985SOL    HW129417   1.654   1.670   1.817  0.6463 -1.2690  1.8786
 5985SOL    HW229418   1.638   1.731   1.947  1.4934  1.4624  0.2914
 5986SOL     OW29419   2.755   4.583   7.010 -0.1008 -0.3688  0.1896
 5986SOL    HW129420   2.695   4.646   6.967 -2.1590 -1.9644  0.7278
 5986SOL    HW229421   2.774   4.623   7.095  1.0672 -0.9773  0.2130
 5987SOL     OW29422   0.430   4.266   8.677  0.2763 -0.2524  0.3493
 5987SOL    HW129423   0.429   4.188   8.732  2.5934 -0.8884 -0.5243
 5987SOL    HW229424   0.506   4.312   8.713  1.0471 -0.3021 -1.2146
 5988SOL     OW29425   3.927   4.663   0.557  0.4939 -0.1294 -0.0469
 5988SOL    HW129426   3.899   0.031   0.548  0.4353 -0.2099 -0.6899
 5988SOL    HW229427   3.893   4.646   0.645  1.6427  0.4677  0.5092
 5989SOL     OW29428   0.185   1.563   6.100 -0.5341 -0.6386 -0.0306
 5989SOL    HW129429   0.155   1.627   6.164 -0.5043 -0.3596 -0.2950
 5989SOL    HW229430   0.130   1.585   6.024 -0.6899  1.3261  0.6586
 5990SOL     OW29431   1.264   1.961   3.765  0.0381 -0.6290  0.2107
 5990SOL    HW129432   1.352   1.947   3.801  0.1464 -2.9700 -0.9698
 5990SOL    HW229433   1.212   1.998   3.837  0.8163  0.3468  0.2809
 5991SOL     OW29434   1.930   0.044  14.533 -0.2408  0.0637  0.1640
 5991SOL    HW129435   1.978   0.124  14.555  0.2351 -1.3390  4.2486
 5991SOL    HW229436   1.940   0.040  14.438 -0.9487  0.0264  0.0878
 5992SOL     OW29437   2.647   1.196   3.157 -0.3360  0.3644  0.0099
 5992SOL    HW129438   2.668   1.111   3.195 -1.2123 -1.0237 -2.6543
 5992SOL    HW229439   2.643   1.241   3.241 -0.4171 -0.0864  0.2478
 5993SOL     OW29440   1.919   1.683   2.618 -0.0309  0.0507  0.0215
 5993SOL    HW129441   1.947   1.736   2.543 -0.5807 -0.8320 -0.8052
 5993SOL    HW229442   1.993   1.623   2.632 -0.2921 -0.5927 -1.3898
 5994SOL     OW29443   3.660   1.810   6.353 -0.0027  0.4789 -0.2873
 5994SOL    HW129444   3.697   1.756   6.284 -1.0472 -0.3983 -0.1648
 5994SOL    HW229445   3.716   1.814   6.430  2.1556  2.4094 -1.9690
 5995SOL     OW29446   3.508   0.982  15.041 -0.2083 -0.0956 -0.5099
 5995SOL    HW129447   3.415   0.996  15.028  0.0797  2.0047 -0.4039
 5995SOL    HW229448   3.532   0.906  14.989  1.7594 -1.8683  2.9454
 5996SOL     OW29449   2.250   0.547   3.710  0.1556 -0.0428  0.3126
 5996SOL    HW129450   2.284   0.460   3.687 -0.9244 -0.4529  0.2716
 5996SOL    HW229451   2.190   0.559   3.637  0.4970  1.9406  0.3620
 5997SOL     OW29452   2.425   4.015   9.100  0.1047  0.4756  0.1659
 5997SOL    HW129453   2.430   4.089   9.039  0.4084  0.5688  0.3062
 5997SOL    HW229454   2.408   4.059   9.183  1.5265  0.2357  0.5846
 5998SOL     OW29455   0.350   3.596  16.233  0.2227 -0.0132  0.1885
 5998SOL    HW129456   0.371   3.662  16.298 -0.5314  0.8216 -0.4227
 5998SOL    HW229457   0.427   3.619  16.180  0.2385  0.3603  0.3771
 5999SOL     OW29458   4.595   1.744   5.718 -0.3033  0.3290 -0.4661
 5999SOL    HW129459   4.655   1.807   5.677 -1.2363  1.8923  0.5739
 5999SOL    HW229460   4.523   1.744   5.655 -1.0690  0.0561  0.4126
 6000SOL     OW29461   0.618   1.685   8.434  0.6634 -0.1509 -0.6201
 6000SOL    HW129462   0.572   1.685   8.517  1.1646  0.2500 -0.3395
 6000SOL    HW229463   0.709   1.707   8.455  0.6659  0.5091 -1.3019
 6001SOL     OW29464   2.311   1.958  14.268 -0.5786 -0.6180  0.1016
 6001SOL    HW129465   2.254   2.024  14.308  2.0156  0.6454  1.7359
 6001SOL    HW229466   2.315   1.988  14.177  1.3985 -1.1998 -0.0095
 6002SOL     OW29467   3.073   4.467   5.644 -0.2627 -0.0352 -0.1428
 6002SOL    HW129468   3.156   4.511   5.623  0.7752 -0.3962  3.2465
 6002SOL    HW229469   3.010   4.535   5.667  0.1847  0.7030 -1.1078
 6003SOL     OW29470   3.610   4.364   7.799  0.0949 -0.2996 -0.4515
 6003SOL    HW129471   3.685   4.309   7.775 -0.3334 -0.5349 -1.2415
 6003SOL    HW229472   3.657   4.447   7.808  1.3449 -1.0612  0.0459
 6004SOL     OW29473   3.457   1.079   8.283  0.0374  0.3661 -0.5368
 6004SOL    HW129474   3.426   1.139   8.351  0.8512  1.1894 -0.8965
 6004SOL    HW229475   3.448   1.125   8.200  1.4817 -1.0163 -1.4414
 6005SOL     OW29476   0.135   0.024  12.858  0.2605  0.5296 -0.3168
 6005SOL    HW129477   0.143   4.660  12.898  1.5209  0.7480 -0.0966
 6005SOL    HW229478   0.156   0.081  12.931 -0.3611 -2.2141  2.0256
 6006SOL     OW29479   0.486   2.012  14.422 -0.1898  0.0949 -0.3625
 6006SOL    HW129480   0.538   2.081  14.380  1.6839 -0.6538  0.7488
 6006SOL    HW229481   0.426   2.070  14.468 -1.5232  0.0411 -2.0230
 6007SOL     OW29482   4.135   4.113  14.318 -0.2145 -0.1087 -0.1057
 6007SOL    HW129483   4.094   4.074  14.241 -0.7020  0.9388 -0.3910
 6007SOL    HW229484   4.095   4.199  14.303  0.6073  0.4601  0.9368
 6008SOL     OW29485   2.175   0.659   6.441 -0.0139 -0.3825  1.0471
 6008SOL    HW129486   2.173   0.734   6.501 -0.8257  0.8697 -0.5604
 6008SOL    HW229487   2.101   0.673   6.382  0.2250  1.2077  1.1261
 6009SOL     OW29488   1.839   0.799   6.556 -0.3108 -0.0120  0.5868
 6009SOL    HW129489   1.856   0.725   6.499  0.4356  0.2820  0.4399
 6009SOL    HW229490   1.744   0.810   6.551 -0.2420  0.2664 -0.1057
 6010SOL     OW29491   1.833   2.197   1.415 -0.3654 -0.2298 -0.2392
 6010SOL    HW129492   1.801   2.114   1.452 -2.8953  0.4727 -0.8435
 6010SOL    HW229493   1.913   2.210   1.466 -0.9738  2.7793 -0.0778
 6011SOL     OW29494   0.173   3.947   8.983  0.0036 -0.0793  0.3085
 6011SOL    HW129495   0.168   3.880   9.051  0.8737 -0.9583 -0.5149
 6011SOL    HW229496   0.198   3.902   8.903 -0.4595 -0.4170  0.3518
 6012SOL     OW29497   3.185   0.261   4.112  0.3912  0.0513  0.1379
 6012SOL    HW129498   3.146   0.174   4.122 -0.4682  0.5766  1.3022
 6012SOL    HW229499   3.266   0.242   4.064  0.6738 -0.3072  0.7448
 6013SOL     OW29500   2.430   4.572   3.071 -0.5430  0.0519  0.0405
 6013SOL    HW129501   2.377   4.523   3.134 -2.7976 -1.2097 -2.8480
 6013SOL    HW229502   2.473   4.491   3.043 -1.6269 -0.3938 -0.3296
 6014SOL     OW29503   1.009   3.402   7.359  0.3024 -0.1733  0.6746
 6014SOL    HW129504   1.027   3.398   7.453 -0.5680 -0.0843  0.8456
 6014SOL    HW229505   0.976   3.313   7.350 -2.3694  0.8483  0.1382
 6015SOL     OW29506   1.461   2.874   4.975  0.2209 -0.1178 -0.3012
 6015SOL    HW129507   1.521   2.898   5.044  0.9147 -2.5832 -0.0561
 6015SOL    HW229508   1.503   2.929   4.908  0.2687 -0.3136 -0.4315
 6016SOL     OW29509   4.516   3.247   5.165  0.3054 -0.2951  0.1465
 6016SOL    HW129510   4.498   3.242   5.071  0.8721  0.1525  0.0135
 6016SOL    HW229511   4.611   3.250   5.165  0.2167  2.8434 -2.1528
 6017SOL     OW29512   0.747   1.819   2.558  0.2086  0.8983  0.1898
 6017SOL    HW129513   0.755   1.831   2.653 -0.2989  0.8975  0.2287
 6017SOL    HW229514   0.816   1.872   2.518 -1.9184  2.4984 -1.3154
 6018SOL     OW29515   0.943   3.141   5.530  0.5797 -0.0008  0.1129
 6018SOL    HW129516   0.911   3.059   5.567 -0.9341  0.7982  0.5776
 6018SOL    HW229517   1.032   3.113   5.512  0.4041  0.8328 -2.0645
 6019SOL     OW29518   0.801   2.496   8.321 -0.2379 -0.0691 -0.1450
 6019SOL    HW129519   0.823   2.442   8.245 -1.3139 -0.7432  0.0284
 6019SOL    HW229520   0.708   2.511   8.306  0.1041  2.7794  0.5836
 6020SOL     OW29521   0.768   1.758   2.841  0.1062 -0.5907 -0.7786
 6020SOL    HW129522   0.701   1.822   2.860 -1.1465 -2.1657  0.1158
 6020SOL    HW229523   0.727   1.689   2.893 -1.7718  1.5168  0.4880
 6021SOL     OW29524   1.560   0.315   2.569  0.1210 -0.5203 -0.0552
 6021SOL    HW129525   1.547   0.222   2.586 -2.2752 -0.6969 -2.8429
 6021SOL    HW229526   1.579   0.311   2.476  1.2587  0.2381  0.1553
 6022SOL     OW29527   4.321   0.510   1.717  0.2950 -0.2260  0.1814
 6022SOL    HW129528   4.290   0.499   1.628 -2.0159 -0.6359  1.0281
 6022SOL    HW229529   4.317   0.420   1.749  1.5308 -0.8287 -1.4212
 6023SOL     OW29530   3.936   3.731   4.929 -0.0617 -0.2183 -0.0839
 6023SOL    HW129531   3.948   3.707   5.021 -1.9030 -2.5396 -0.4495
 6023SOL    HW229532   3.890   3.654   4.895 -2.0505  0.6056  0.7831
 6024SOL     OW29533   0.223   0.527  14.612 -0.5488 -0.6847  0.3796
 6024SOL    HW129534   0.315   0.530  14.585 -0.9571  0.0226 -0.9117
 6024SOL    HW229535   0.226   0.509  14.706 -1.4199  1.0462  0.7306
 6025SOL     OW29536   0.955   0.719   4.540 -0.5489  0.1235  0.1114
 6025SOL    HW129537   0.941   0.686   4.452 -1.6261 -0.4852  0.5058
 6025SOL    HW229538   1.042   0.758   4.531  0.2385 -1.1303  2.3777
 6026SOL     OW29539   0.820   1.987   9.730  0.4745 -0.5321 -0.5189
 6026SOL    HW129540   0.859   1.976   9.816  0.2396  2.0119 -0.0953
 6026SOL    HW229541   0.725   1.989   9.738  0.5654  0.6041  0.2458
 6027SOL     OW29542   1.798   2.297   5.723 -0.3294  0.0980  0.2602
 6027SOL    HW129543   1.768   2.308   5.813 -2.5288  1.0009 -0.5862
 6027SOL    HW229544   1.863   2.233   5.751  0.3493  0.9357  0.5866
 6028SOL     OW29545   0.922   3.740   9.255 -0.2367  0.5837  0.5505
 6028SOL    HW129546   0.894   3.669   9.313  0.2606  0.7424  0.9842
 6028SOL    HW229547   0.963   3.815   9.298  1.2592  0.4046 -0.5672
 6029SOL     OW29548   4.146   2.604   3.063 -0.0693 -0.0724  0.0806
 6029SOL    HW129549   4.139   2.620   2.969 -1.2000 -0.4710  0.0982
 6029SOL    HW229550   4.056   2.597   3.092 -0.7668 -0.8849 -2.3288
 6030SOL     OW29551   1.431   1.392  13.375 -0.1945 -0.2320  0.3635
 6030SOL    HW129552   1.381   1.463  13.417  0.0939  0.0303  0.2661
 6030SOL    HW229553   1.481   1.368  13.453  2.4806  2.0750 -0.6525
 6031SOL     OW29554   3.166   2.971   0.347 -0.4384  0.2457 -0.3260
 6031SOL    HW129555   3.133   3.061   0.348 -1.5426 -0.1096 -4.2070
 6031SOL    HW229556   3.126   2.942   0.429 -1.9183  0.7400 -0.8827
 6032SOL     OW29557   0.585   2.335   4.613 -0.4091  0.0004  0.1402
 6032SOL    HW129558   0.655   2.382   4.659 -2.4165  1.3124  1.8643
 6032SOL    HW229559   0.583   2.389   4.534  0.1518  1.4356  1.0984
 6033SOL     OW29560   0.277   4.250   2.822 -0.0955  0.3224 -0.1911
 6033SOL    HW129561   0.241   4.308   2.756  0.4901  1.5856  0.6002
 6033SOL    HW229562   0.345   4.201   2.776  0.0933 -1.9446  2.4927
 6034SOL     OW29563   0.909   0.085   5.829  0.0195 -0.4394 -0.8719
 6034SOL    HW129564   0.834   0.032   5.803 -0.0884 -0.6646 -0.0909
 6034SOL    HW229565   0.884   0.159   5.774  0.5719  0.4039  0.0237
 6035SOL     OW29566   0.156   1.848   7.488 -0.6971  0.4662 -0.0231
 6035SOL    HW129567   0.179   1.783   7.422 -0.2751  0.2223  0.3704
 6035SOL    HW229568   0.141   1.793   7.564  2.2472  1.1015  1.0208
 6036SOL     OW29569   1.872   4.052   1.271  0.1352 -0.3970  0.1837
 6036SOL    HW129570   1.800   4.103   1.309  1.4447  0.9131  0.9140
 6036SOL    HW229571   1.843   4.057   1.180 -0.3865  1.5095  0.4645
 6037SOL     OW29572   2.321   4.099   4.607  0.7454 -0.4970  0.9947
 6037SOL    HW129573   2.260   4.028   4.628  1.1408 -0.7629  1.2465
 6037SOL    HW229574   2.376   4.042   4.554 -0.5439 -0.1762 -0.7035
 6038SOL     OW29575   0.763   1.393   1.722  0.0477 -0.6010  0.0181
 6038SOL    HW129576   0.801   1.375   1.636 -0.7294  2.1860 -0.9034
 6038SOL    HW229577   0.682   1.436   1.696 -1.0188 -3.4602 -1.4375
 6039SOL     OW29578   1.537   3.250   3.653 -0.0823  0.1499  0.0523
 6039SOL    HW129579   1.485   3.328   3.672 -0.0946 -0.3810  2.2011
 6039SOL    HW229580   1.496   3.187   3.712 -1.5605 -0.1580 -1.3225
 6040SOL     OW29581   3.789   3.958  16.416  0.2730  0.0424 -0.6249
 6040SOL    HW129582   3.852   3.886  16.424 -1.4589 -1.2694  1.3059
 6040SOL    HW229583   3.841   4.028  16.377 -0.9648  0.3359 -1.7579
 6041SOL     OW29584   4.192   0.765  13.924 -0.5567  0.3939 -0.0968
 6041SOL    HW129585   4.148   0.772  13.839 -0.1214 -1.0278 -0.4332
 6041SOL    HW229586   4.274   0.717  13.912 -0.7858 -0.0377  0.0603
 6042SOL     OW29587   4.166   0.757   2.187 -0.5008  0.1355  0.1072
 6042SOL    HW129588   4.110   0.722   2.257 -0.7246  2.4406  1.0847
 6042SOL    HW229589   4.154   0.695   2.116  1.3898 -0.8037  0.6100
 6043SOL     OW29590   3.988   2.871  16.541 -0.3507  0.6425  0.7472
 6043SOL    HW129591   3.966   2.792  16.591 -2.0312  0.3308 -0.4853
 6043SOL    HW229592   4.058   2.899  16.600  1.6229 -1.1055 -0.7272
 6044SOL     OW29593   2.691   2.968   2.929 -0.2735  0.5972  0.4473
 6044SOL    HW129594   2.596   2.959   2.942 -0.2564 -1.5121 -0.9876
 6044SOL    HW229595   2.697   2.978   2.834  0.2825  1.3713  0.5634
 6045SOL     OW29596   4.180   0.297  14.057  0.2477 -0.0843 -0.4664
 6045SOL    HW129597   4.152   0.381  14.091  0.9883  0.5830 -1.5111
 6045SOL    HW229598   4.189   0.247  14.139 -1.1138  1.5368  0.6642
 6046SOL     OW29599   2.034   2.749   6.235 -0.4899  0.6568 -0.0598
 6046SOL    HW129600   2.069   2.815   6.175 -0.5760  0.0633 -0.7613
 6046SOL    HW229601   2.045   2.792   6.320  2.6894  3.0453 -1.6572
 6047SOL     OW29602   4.034   2.931   2.461  0.3087 -0.1523 -0.6624
 6047SOL    HW129603   4.031   2.999   2.394 -1.5329 -0.2251 -0.6548
 6047SOL    HW229604   4.077   2.868   2.403  1.3026 -0.6825  0.6631
 6048SOL     OW29605   2.891   3.445   4.573  0.3153 -0.0786 -0.1319
 6048SOL    HW129606   2.940   3.525   4.592  0.9529 -0.4250 -0.3005
 6048SOL    HW229607   2.917   3.390   4.648  0.9777  1.3911  0.7289
 6049SOL     OW29608   3.228   0.155   9.063  0.6974 -0.7395 -0.8653
 6049SOL    HW129609   3.208   0.201   9.144 -1.2721  1.0480 -2.3290
 6049SOL    HW229610   3.288   0.219   9.026  3.1973 -1.6968  1.5973
 6050SOL     OW29611   4.351   0.596   2.845  0.3214  0.1486 -0.3796
 6050SOL    HW129612   4.399   0.555   2.773 -0.6313 -0.7016 -0.5306
 6050SOL    HW229613   4.378   0.558   2.928 -0.9658  0.1012  0.0216
 6051SOL     OW29614   1.947   1.315   8.220 -0.3461  0.0119  0.6762
 6051SOL    HW129615   1.984   1.235   8.182 -0.6459  1.3784 -2.4224
 6051SOL    HW229616   2.032   1.352   8.244 -1.3056  1.9314  1.0801
 6052SOL     OW29617   0.553   4.546   8.176 -0.3103 -0.1109  0.1012
 6052SOL    HW129618   0.504   4.625   8.153  0.1785  0.0594 -0.3571
 6052SOL    HW229619   0.530   4.532   8.268 -0.4681  0.9293  0.2229
 6053SOL     OW29620   0.984   3.530   2.469  0.1409 -0.1033  0.0682
 6053SOL    HW129621   0.913   3.482   2.426 -0.0173  0.0689  0.1344
 6053SOL    HW229622   0.983   3.612   2.419 -1.1013  0.0459  0.3343
 6054SOL     OW29623   4.096   0.247   6.447 -0.4758  0.0118  0.1756
 6054SOL    HW129624   4.154   0.318   6.419 -0.8204 -0.5473 -1.9681
 6054SOL    HW229625   4.013   0.293   6.458  0.6657  2.5376 -1.8697
 6055SOL     OW29626   3.386   2.570   8.036  0.4717 -0.3870  0.2686
 6055SOL    HW129627   3.340   2.506   8.091  1.0471 -1.6852 -0.7566
 6055SOL    HW229628   3.462   2.586   8.093 -0.9658  1.1350  1.7466
 6056SOL     OW29629   1.504   0.587  12.369  0.1979  0.2243  0.0348
 6056SOL    HW129630   1.526   0.507  12.418  0.3693  1.9520  2.8078
 6056SOL    HW229631   1.468   0.638  12.442 -0.8344  0.4587 -0.6488
 6057SOL     OW29632   2.676   1.235   9.356  0.2295 -0.4438  0.5489
 6057SOL    HW129633   2.722   1.269   9.433  0.0944  0.0842  0.3986
 6057SOL    HW229634   2.700   1.142   9.363 -1.6101 -0.8510  1.4036
 6058SOL     OW29635   1.484   1.980   8.015 -0.0769 -0.2608  1.0804
 6058SOL    HW129636   1.428   1.902   8.005  0.6443 -0.3494 -2.1939
 6058SOL    HW229637   1.568   1.948   8.046 -0.4419 -1.8707  0.4011
 6059SOL     OW29638   1.437   2.703   8.425  0.3285  0.1027 -0.0445
 6059SOL    HW129639   1.411   2.641   8.356  0.5534  0.8327 -0.7966
 6059SOL    HW229640   1.408   2.650   8.499  1.9835 -1.7302 -0.7199
 6060SOL     OW29641   2.907   1.750  16.755  0.0402 -0.5856  1.0642
 6060SOL    HW129642   2.820   1.785  16.736  1.2208  0.1481 -3.0289
 6060SOL    HW229643   2.878   1.659  16.750  1.2818 -0.9369  0.1022
 6061SOL     OW29644   3.593   3.567   3.437 -0.1414 -0.2648  0.3800
 6061SOL    HW129645   3.678   3.610   3.450 -0.5875  1.2531 -1.8981
 6061SOL    HW229646   3.582   3.541   3.346 -0.3944  0.9259  0.0718
 6062SOL     OW29647   1.848   1.584   0.952 -0.1471 -0.1365 -0.4920
 6062SOL    HW129648   1.915   1.608   0.888 -0.4614  2.7707  0.2595
 6062SOL    HW229649   1.900   1.560   1.028 -0.5604  0.6993  0.0522
 6063SOL     OW29650   4.570   3.329   8.787  0.2978  0.5734 -0.7592
 6063SOL    HW129651   4.513   3.288   8.721  0.7187  0.5839 -1.1316
 6063SOL    HW229652   4.601   3.412   8.751 -0.1506  1.0428 -0.0562
 6064SOL     OW29653   3.475   2.552   5.945 -0.4220  0.0621 -0.2407
 6064SOL    HW129654   3.398   2.567   5.891 -0.8979  1.7320  0.8891
 6064SOL    HW229655   3.470   2.619   6.013 -0.3167 -0.3924  0.2157
 6065SOL     OW29656   0.038   1.222   5.839 -0.0810 -0.8320 -0.0434
 6065SOL    HW129657   0.003   1.184   5.919 -0.7251 -1.9537 -0.8657
 6065SOL    HW229658   4.677   1.222   5.792 -1.2506  1.0031  2.0744
 6066SOL     OW29659   2.873   0.237  10.797  0.1994  0.3268  0.7303
 6066SOL    HW129660   2.918   0.294  10.858  3.0617 -2.2240  1.0194
 6066SOL    HW229661   2.816   0.299  10.753 -0.7764  0.0127  1.5441
 6067SOL     OW29662   1.281   0.003   9.765  0.4296 -0.5441 -0.4074
 6067SOL    HW129663   1.312   4.641   9.736  0.9619 -0.4408 -0.1461
 6067SOL    HW229664   1.312   4.707   9.854 -0.8228  1.1240  0.3830
 6068SOL     OW29665   4.257   3.740   0.962  0.0391 -0.2783  0.0413
 6068SOL    HW129666   4.187   3.779   1.014 -0.8250 -2.1389  0.2692
 6068SOL    HW229667   4.281   3.817   0.910 -0.1147  0.5228  1.1364
 6069SOL     OW29668   2.198   2.417  11.892  0.2703  0.2586 -0.0027
 6069SOL    HW129669   2.115   2.391  11.851  0.4333  0.3869 -0.4048
 6069SOL    HW229670   2.263   2.373  11.838  0.6448  0.6730  0.1186
 6070SOL     OW29671   0.116   1.605   4.418 -0.1089 -0.1013 -0.0043
 6070SOL    HW129672   0.133   1.539   4.351 -1.6925 -0.3405 -0.1699
 6070SOL    HW229673   0.170   1.676   4.384 -0.9691  1.8099  2.5382
 6071SOL     OW29674   2.408   4.607   2.320  0.0187 -0.5011  0.0079
 6071SOL    HW129675   2.392   4.577   2.410 -0.5745  1.6420  0.6182
 6071SOL    HW229676   2.345   4.562   2.264 -0.2902 -1.8727  1.4410
 6072SOL     OW29677   2.487   0.167   0.289  0.0311 -0.1180 -0.3074
 6072SOL    HW129678   2.408   0.126   0.252  2.0245 -0.7882 -3.8205
 6072SOL    HW229679   2.525   0.094   0.336 -0.0093  0.5572  0.7557
 6073SOL     OW29680   0.525   1.247  11.183 -0.1713 -0.0466 -0.0839
 6073SOL    HW129681   0.549   1.227  11.274 -0.2634 -0.8245 -0.2266
 6073SOL    HW229682   0.435   1.273  11.200 -1.0499 -2.3293 -1.2470
 6074SOL     OW29683   1.211   2.439   5.748  0.5106 -0.5688  0.4564
 6074SOL    HW129684   1.193   2.513   5.691 -0.0662 -1.1631 -0.1325
 6074SOL    HW229685   1.302   2.418   5.727  0.5324 -0.4140  0.4002
 6075SOL     OW29686   2.609   2.991   4.959  0.0408  0.8078  0.1574
 6075SOL    HW129687   2.572   3.072   4.995 -0.7258  0.1550  0.8364
 6075SOL    HW229688   2.579   2.923   5.019  0.6540  0.2082 -0.2160
 6076SOL     OW29689   0.046   2.993   8.575 -0.8211 -0.1982  0.1349
 6076SOL    HW129690   4.719   3.017   8.653  0.9849 -0.0543  1.2561
 6076SOL    HW229691   0.098   2.917   8.603 -1.6292 -1.0852 -0.7407
 6077SOL     OW29692   0.627   1.070  12.363  0.2304 -0.1955  0.3145
 6077SOL    HW129693   0.543   1.042  12.398  0.3797 -0.7097  0.2537
 6077SOL    HW229694   0.668   0.988  12.387 -1.8262 -0.9647  1.1794
 6078SOL     OW29695   2.016   2.478  12.131  0.1442  0.1427 -0.4983
 6078SOL    HW129696   2.094   2.458  12.079 -0.4809 -2.0232 -0.6127
 6078SOL    HW229697   1.945   2.430  12.088  1.0175 -0.1349 -1.6405
 6079SOL     OW29698   2.191   1.708  10.291 -0.2460 -0.4719 -0.0684
 6079SOL    HW129699   2.185   1.628  10.342 -0.0338  0.8142  1.9639
 6079SOL    HW229700   2.285   1.726  10.289 -0.2515 -0.3252  1.6865
 6080SOL     OW29701   4.132   4.649   5.005  0.9736 -0.3774  0.3809
 6080SOL    HW129702   4.096   4.604   4.928  3.0026 -0.9051 -0.2467
 6080SOL    HW229703   4.055   4.676   5.056  1.3510 -0.0362  0.7637
 6081SOL     OW29704   0.330   3.449   3.666 -0.1994  0.1873 -0.2623
 6081SOL    HW129705   0.405   3.403   3.703  0.9836  0.5074 -2.2753
 6081SOL    HW229706   0.278   3.470   3.743  0.0733 -3.1059  0.8333
 6082SOL     OW29707   2.507   4.177  11.251 -0.3734 -0.2113  0.7773
 6082SOL    HW129708   2.462   4.249  11.204 -2.5449 -1.8547  0.3224
 6082SOL    HW229709   2.595   4.187  11.216 -0.3051 -0.7281  0.8173
 6083SOL     OW29710   0.987   1.688  14.801 -0.1108 -0.3349 -0.1307
 6083SOL    HW129711   1.039   1.620  14.757 -0.0517  0.1736 -0.8341
 6083SOL    HW229712   1.023   1.666  14.887  1.3678  0.5487 -0.5314
 6084SOL     OW29713   1.190   3.717  12.910 -0.3244 -0.3844  0.1736
 6084SOL    HW129714   1.259   3.738  12.974 -1.2415  1.9512  0.3759
 6084SOL    HW229715   1.239   3.732  12.829  1.4777 -0.9146  1.1566
 6085SOL     OW29716   0.503   4.081  14.613  0.0117 -0.2093  0.2490
 6085SOL    HW129717   0.598   4.069  14.619  0.0992  0.6268  0.6072
 6085SOL    HW229718   0.484   4.053  14.524 -1.9376 -0.2098  0.6769
 6086SOL     OW29719   4.000   0.016   6.152  0.2595  0.5372  0.2062
 6086SOL    HW129720   4.000   0.110   6.138  2.3521  0.4196 -0.5996
 6086SOL    HW229721   4.086   0.003   6.193  0.7196 -1.7163 -1.4862
 6087SOL     OW29722   3.622   0.058   3.486 -0.1634  0.1496  0.4095
 6087SOL    HW129723   3.651   0.099   3.404  0.8526 -0.0370  0.6720
 6087SOL    HW229724   3.530   0.049   3.461 -0.2781 -0.3202  0.9861
 6088SOL     OW29725   4.306   3.126   7.782  0.2744 -0.1283 -0.3008
 6088SOL    HW129726   4.232   3.084   7.739 -0.2838  1.7688 -1.1405
 6088SOL    HW229727   4.331   3.057   7.845  1.1485  0.4968  0.0453
 6089SOL     OW29728   1.247   0.614   9.686  0.4486  0.4691 -0.1253
 6089SOL    HW129729   1.298   0.558   9.627 -1.5396  1.2869 -2.5987
 6089SOL    HW229730   1.160   0.587   9.655  1.9218 -3.9903 -0.4470
 6090SOL     OW29731   3.035   1.324   7.099 -0.1216  0.1255 -0.4030
 6090SOL    HW129732   3.114   1.290   7.140 -0.1597  1.2453  0.5979
 6090SOL    HW229733   2.989   1.244   7.071 -0.2154  0.3055 -0.7675
 6091SOL     OW29734   0.843   3.064   8.239 -0.3762  0.3459 -0.3750
 6091SOL    HW129735   0.844   3.094   8.330 -1.0098  0.3657 -0.3745
 6091SOL    HW229736   0.799   2.980   8.251 -0.3344  0.3389 -0.2711
 6092SOL     OW29737   1.170   3.494   6.881 -0.0351 -0.5007 -0.3355
 6092SOL    HW129738   1.144   3.449   6.800  1.3530 -0.6183 -0.7094
 6092SOL    HW229739   1.265   3.488   6.882 -0.1358 -0.9410  3.8473
 6093SOL     OW29740   3.755   2.248   1.850 -0.2135 -0.4178  0.3804
 6093SOL    HW129741   3.726   2.319   1.908  0.5560  1.7522 -1.8891
 6093SOL    HW229742   3.836   2.221   1.894 -0.0187 -2.0776 -0.9755
 6094SOL     OW29743   2.720   2.463   8.095  0.3794  0.1747 -0.7664
 6094SOL    HW129744   2.645   2.407   8.116  0.1760  0.7540  0.0220
 6094SOL    HW229745   2.769   2.428   8.169 -1.1737 -1.6024 -0.5787
 6095SOL     OW29746   4.191   2.512   7.661  0.3148  0.5019  0.4190
 6095SOL    HW129747   4.160   2.563   7.585 -2.4263 -1.2688  0.3359
 6095SOL    HW229748   4.277   2.484   7.630  1.0545  0.1285  2.8864
 6096SOL     OW29749   1.647   3.192   2.532 -0.2208 -0.3531 -0.8784
 6096SOL    HW129750   1.716   3.205   2.467  1.1614 -1.2007  0.4230
 6096SOL    HW229751   1.636   3.285   2.554 -0.4091 -0.2505 -1.3938
 6097SOL     OW29752   0.300   4.295  17.458  0.5121 -0.0346  0.4958
 6097SOL    HW129753   0.357   4.219  17.446 -2.1947 -1.7163 -1.7745
 6097SOL    HW229754   0.358   4.360  17.420  0.0472  1.0135  1.5859
 6098SOL     OW29755   2.724   2.660   6.000 -0.0218 -0.0830 -0.4387
 6098SOL    HW129756   2.670   2.739   5.996 -0.9396 -0.7029 -0.2723
 6098SOL    HW229757   2.761   2.670   6.088  0.9550  0.8879 -0.9662
 6099SOL     OW29758   3.401   0.929   9.709 -0.1894  0.2932  0.4514
 6099SOL    HW129759   3.482   0.977   9.694 -0.8381  1.2914  0.1725
 6099SOL    HW229760   3.387   0.946   9.802 -3.5270  1.3783 -0.2427
 6100SOL     OW29761   1.242   1.644   4.927 -0.1755  0.4788  0.0096
 6100SOL    HW129762   1.216   1.676   4.841 -0.3388  1.0832  0.2854
 6100SOL    HW229763   1.213   1.553   4.930  0.5050  0.2006 -1.7417
 6101SOL     OW29764   2.454   0.635   7.516 -0.5147 -0.1341  0.3638
 6101SOL    HW129765   2.425   0.678   7.436 -3.4891 -1.4695  0.7224
 6101SOL    HW229766   2.446   0.541   7.500 -0.4637 -0.2864  1.2135
 6102SOL     OW29767   3.782   0.179  15.986  0.0826  0.1195 -0.2585
 6102SOL    HW129768   3.716   0.114  15.965  0.7137 -0.0115 -1.8902
 6102SOL    HW229769   3.846   0.171  15.915  0.2523  0.8791 -0.1972
 6103SOL     OW29770   3.087   3.379   5.252 -1.0359 -0.0587  0.2672
 6103SOL    HW129771   2.993   3.382   5.232 -1.1547  1.7897  1.0565
 6103SOL    HW229772   3.080   3.339   5.338  2.2122  1.5568  1.2798
 6104SOL     OW29773   3.896   4.578   2.985 -0.2808  0.4999 -0.0512
 6104SOL    HW129774   3.864   4.669   2.985 -0.4609  0.4275  1.1314
 6104SOL    HW229775   3.972   4.592   2.928 -0.6580 -0.5936 -0.8013
 6105SOL     OW29776   0.573   0.666  13.131 -0.3022 -0.7466 -0.1795
 6105SOL    HW129777   0.533   0.654  13.045 -1.2323  2.3637 -0.1903
 6105SOL    HW229778   0.598   0.756  13.113  1.0847 -0.6470  2.2219
 6106SOL     OW29779   1.051   4.589   7.274  0.0178  0.1464  0.3559
 6106SOL    HW129780   1.123   4.607   7.213  1.2869 -0.4724  1.6798
 6106SOL    HW229781   0.994   4.526   7.230 -0.0768  0.3414  0.1958
 6107SOL     OW29782   4.542   4.234   7.885  0.4575 -0.3001  0.3933
 6107SOL    HW129783   4.611   4.173   7.860  0.7348  0.3661 -0.4552
 6107SOL    HW229784   4.592   4.315   7.890  0.6533 -0.4994  1.6996
 6108SOL     OW29785   2.043   0.897   9.460 -0.4716 -0.2554  0.0373
 6108SOL    HW129786   2.128   0.930   9.492 -0.7759 -1.5081  2.1699
 6108SOL    HW229787   2.006   0.985   9.463  1.2923  0.5308 -1.4188
 6109SOL     OW29788   4.627   1.669   8.063  0.0982 -0.3923 -0.2180
 6109SOL    HW129789   4.608   1.719   8.143 -0.2451  4.4796 -3.3479
 6109SOL    HW229790   4.566   1.710   8.002 -0.1761 -1.0220 -0.3570
 6110SOL     OW29791   4.020   1.089   6.240  0.3577  0.0052 -0.5381
 6110SOL    HW129792   4.050   1.026   6.173 -1.3750 -0.3174 -0.9996
 6110SOL    HW229793   3.934   1.055   6.265  0.5958 -0.6544 -0.6171
 6111SOL     OW29794   1.714   0.948   8.564  0.0782 -0.4471  0.4559
 6111SOL    HW129795   1.800   0.983   8.586  0.0622 -1.1790  1.7007
 6111SOL    HW229796   1.679   0.933   8.652  0.4033 -1.2157  0.4456
 6112SOL     OW29797   3.279   1.896   7.183 -0.6011 -0.4319 -0.0014
 6112SOL    HW129798   3.370   1.919   7.205 -0.0261 -1.1521 -1.6140
 6112SOL    HW229799   3.241   1.938   7.260  1.2794 -1.2284  1.3769
 6113SOL     OW29800   4.164   0.614  14.845 -0.4628  0.1385 -0.1479
 6113SOL    HW129801   4.163   0.554  14.920  0.7881 -0.4625 -0.6195
 6113SOL    HW229802   4.158   0.548  14.776 -0.0874  0.9520 -0.9566
 6114SOL     OW29803   2.913   1.368   4.740 -0.8070  0.3524 -0.1592
 6114SOL    HW129804   2.875   1.300   4.685  1.8810 -2.2936  1.2804
 6114SOL    HW229805   2.840   1.421   4.772 -0.6896 -0.3471  1.2618
 6115SOL     OW29806   1.326   3.508   4.235  0.5294 -0.1803 -0.3634
 6115SOL    HW129807   1.238   3.488   4.268  1.0010 -0.3461  0.7808
 6115SOL    HW229808   1.295   3.586   4.188 -0.2452 -0.8562 -0.9734
 6116SOL     OW29809   0.558   2.707   6.099  0.2919  0.3961  0.0678
 6116SOL    HW129810   0.527   2.616   6.095  0.4468  0.4308 -2.0313
 6116SOL    HW229811   0.484   2.751   6.141  0.8826  1.7771 -0.3384
 6117SOL     OW29812   1.883   0.403   1.133  0.3323  0.2108  0.5200
 6117SOL    HW129813   1.925   0.489   1.130 -1.6601  1.2916  2.7588
 6117SOL    HW229814   1.905   0.389   1.226  0.4308  0.8775  0.5993
 6118SOL     OW29815   2.480   0.757   6.601  0.0141  0.3555 -0.3162
 6118SOL    HW129816   2.425   0.807   6.662  1.0747  1.4697 -0.2817
 6118SOL    HW229817   2.428   0.681   6.575 -1.0663  2.0385 -3.0395
 6119SOL     OW29818   4.477   0.415   7.420 -0.2250 -0.3155 -0.3852
 6119SOL    HW129819   4.562   0.419   7.464  0.3070  1.2947 -1.5774
 6119SOL    HW229820   4.482   0.322   7.395 -1.1216  0.0222 -1.8046
 6120SOL     OW29821   0.526   2.476   1.026  0.0306  0.2950 -0.1146
 6120SOL    HW129822   0.511   2.427   1.107  0.5212  0.4232  0.0569
 6120SOL    HW229823   0.439   2.495   0.993 -0.6560  1.0067  2.1311
 6121SOL     OW29824   2.547   3.727   3.238 -0.4473  0.3167  0.0634
 6121SOL    HW129825   2.608   3.784   3.192  0.6471 -1.0232 -0.1415
 6121SOL    HW229826   2.603   3.719   3.316  0.3282  1.6290 -0.3734
 6122SOL     OW29827   3.226   4.476   4.225 -0.1628  0.3423 -0.1168
 6122SOL    HW129828   3.162   4.465   4.296 -0.2137  1.4336  0.0026
 6122SOL    HW229829   3.305   4.512   4.264 -0.9083  1.3210  0.4930
 6123SOL     OW29830   3.193   4.719   8.396 -0.2189 -0.4150  0.2170
 6123SOL    HW129831   3.237   4.709   8.481 -2.5934 -0.7713  1.3930
 6123SOL    HW229832   3.189   0.091   8.380 -2.2582 -1.0659 -3.0583
 6124SOL     OW29833   1.147   0.453   4.377 -0.1912  0.1441  0.3264
 6124SOL    HW129834   1.177   0.471   4.288  0.4726  1.0156  0.7344
 6124SOL    HW229835   1.150   0.358   4.375 -2.7110  0.0377  1.1513
 6125SOL     OW29836   2.070   2.219   1.538  0.4675  0.1604 -0.0958
 6125SOL    HW129837   2.123   2.140   1.550  0.3017  0.1373  0.4839
 6125SOL    HW229838   2.047   2.235   1.630 -0.7259  2.3549 -0.7827
 6126SOL     OW29839   0.582   4.451   2.739 -0.8254 -0.7304  0.6827
 6126SOL    HW129840   0.521   4.405   2.796 -0.5856 -0.7203  0.9437
 6126SOL    HW229841   0.528   4.469   2.662  0.4805  2.1581  0.4301
 6127SOL     OW29842   3.480   2.124   3.392 -0.7044 -0.0457 -0.1195
 6127SOL    HW129843   3.487   2.107   3.299 -1.0155 -1.7943  0.1862
 6127SOL    HW229844   3.458   2.218   3.398 -0.6137 -0.0100 -0.3527
 6128SOL     OW29845   0.125   1.230   6.964 -0.4262  0.1758 -0.9450
 6128SOL    HW129846   0.111   1.177   6.886 -1.2868 -1.6681  0.4459
 6128SOL    HW229847   0.178   1.167   7.013  0.2337  0.4276 -1.3345
 6129SOL     OW29848   1.124   3.129   3.369  0.0440 -0.4033  0.4012
 6129SOL    HW129849   1.139   3.103   3.460  0.5446 -0.9573  0.1662
 6129SOL    HW229850   1.042   3.177   3.377 -1.3143 -2.4884 -1.0192
 6130SOL     OW29851   1.142   1.276   6.356  0.2708  0.2011  0.5611
 6130SOL    HW129852   1.142   1.209   6.288  0.7645 -0.1131  0.8741
 6130SOL    HW229853   1.232   1.258   6.383  0.8289  2.8014  0.5158
 6131SOL     OW29854   1.961   1.388   5.518  0.4514  0.4294  0.0006
 6131SOL    HW129855   2.034   1.328   5.506 -0.3118 -0.6282  0.6965
 6131SOL    HW229856   1.886   1.329   5.514 -0.3321  1.2639  2.1361
 6132SOL     OW29857   2.054   1.557  14.833 -0.1549 -0.7079 -0.1748
 6132SOL    HW129858   2.091   1.590  14.751 -1.7642  0.0711 -0.5877
 6132SOL    HW229859   2.128   1.513  14.875  1.1315 -0.7723 -2.4987
 6133SOL     OW29860   4.316   3.074   3.951  0.4622 -0.0847 -0.2889
 6133SOL    HW129861   4.405   3.094   3.924 -0.0363  2.1081 -0.2605
 6133SOL    HW229862   4.318   3.071   4.046  3.3443  1.8556 -0.2979
 6134SOL     OW29863   0.417   1.460   4.293  0.3037  0.4174 -0.0570
 6134SOL    HW129864   0.418   1.384   4.351 -0.3492  1.9517  1.9944
 6134SOL    HW229865   0.342   1.440   4.238  0.8813 -1.6725 -0.0690
 6135SOL     OW29866   3.605   1.038  17.653  0.6223  0.3417  0.2882
 6135SOL    HW129867   3.527   0.982  17.651  0.4238  0.6551 -0.5668
 6135SOL    HW229868   3.674   0.972  17.651 -0.3803 -0.7290  0.7552
 6136SOL     OW29869   0.460   0.008   9.889 -0.3724 -0.0562 -0.1509
 6136SOL    HW129870   0.499   0.076   9.834  1.4013 -1.2449 -0.3909
 6136SOL    HW229871   0.386   0.048   9.933 -0.0509 -0.0139  0.3531
 6137SOL     OW29872   0.494   2.837  17.401 -0.1050  0.0042 -0.4997
 6137SOL    HW129873   0.536   2.921  17.422  0.7632 -0.3677 -0.7469
 6137SOL    HW229874   0.564   2.796  17.349  2.3957  0.5721  2.3792
 6138SOL     OW29875   0.509   1.418   8.390  0.5381 -0.2607  0.4015
 6138SOL    HW129876   0.547   1.506   8.394  2.8063 -1.2794  1.1808
 6138SOL    HW229877   0.569   1.366   8.443  0.8682  0.7540  1.0358
 6139SOL     OW29878   3.048   3.869   2.793 -0.2575  0.2649 -0.1796
 6139SOL    HW129879   3.122   3.906   2.745  1.8159  0.7801  3.4249
 6139SOL    HW229880   3.043   3.778   2.762  0.8435  0.3622 -0.6462
 6140SOL     OW29881   1.859   3.564   7.714  0.0816  0.0170  0.0280
 6140SOL    HW129882   1.910   3.537   7.638 -0.0174  0.3714 -0.1668
 6140SOL    HW229883   1.811   3.483   7.732  2.0773 -2.0197 -3.8537
 6141SOL     OW29884   3.921   2.790   5.771  0.2764  0.4753  0.6134
 6141SOL    HW129885   3.946   2.806   5.680 -1.6200  0.2902  0.0597
 6141SOL    HW229886   3.962   2.864   5.817  1.9862  0.0628 -0.2376
 6142SOL     OW29887   0.371   1.429  16.497  0.4572  1.2011  0.4551
 6142SOL    HW129888   0.457   1.470  16.507  0.5531  0.7937  1.3221
 6142SOL    HW229889   0.346   1.442  16.406  0.9457 -3.6250 -0.3773
 6143SOL     OW29890   0.560   0.318   5.525 -0.1275  0.3330  0.0255
 6143SOL    HW129891   0.471   0.349   5.540  0.0660 -0.2872  2.4492
 6143SOL    HW229892   0.555   0.246   5.462 -1.0801  1.6484 -1.3860
 6144SOL     OW29893   1.331   2.829   7.740  1.2382 -0.4078 -0.4023
 6144SOL    HW129894   1.341   2.815   7.646  0.8067  0.3983 -0.5612
 6144SOL    HW229895   1.241   2.861   7.741  2.3421  2.7680 -2.1369
 6145SOL     OW29896   2.894   3.532   2.837 -0.4141 -0.1855 -0.1098
 6145SOL    HW129897   2.818   3.480   2.861 -2.0507  2.4935  0.5711
 6145SOL    HW229898   2.879   3.567   2.749 -0.8405 -0.5350 -0.1751
 6146SOL     OW29899   2.697   1.980   2.541  0.1378  0.2489  0.1747
 6146SOL    HW129900   2.733   1.940   2.620  0.4011  1.6346  0.7564
 6146SOL    HW229901   2.616   2.020   2.573  1.4065  3.2181 -0.2836
 6147SOL     OW29902   0.010   2.883   9.143  0.2991  0.0516 -0.4080
 6147SOL    HW129903   0.052   2.961   9.178  0.6490 -0.6194  0.6713
 6147SOL    HW229904   4.645   2.894   9.179 -0.2345 -1.9803 -1.0871
 6148SOL     OW29905   2.581   3.396   3.861  0.1096 -0.7242  0.1607
 6148SOL    HW129906   2.500   3.367   3.905  0.7899 -2.2869  0.3893
 6148SOL    HW229907   2.582   3.486   3.893 -0.7522 -0.3924 -0.7230
 6149SOL     OW29908   3.214   4.301   1.394  0.2275 -0.4844  0.2042
 6149SOL    HW129909   3.201   4.238   1.323  0.2512 -1.4320  1.0457
 6149SOL    HW229910   3.232   4.236   1.461  0.2475 -2.1723 -1.4508
 6150SOL     OW29911   1.492   1.273   9.951  0.0178  0.3585 -0.0922
 6150SOL    HW129912   1.469   1.262  10.043  0.1120  1.2780  0.0347
 6150SOL    HW229913   1.547   1.199   9.925 -0.2877 -0.4647  1.5732
 6151SOL     OW29914   1.685   0.234   0.575  0.6119 -0.2256  0.5464
 6151SOL    HW129915   1.596   0.246   0.542  0.3077  3.1443  2.6235
 6151SOL    HW229916   1.725   0.184   0.504  0.9282 -0.8786  1.1851
 6152SOL     OW29917   3.492   1.355  13.176 -0.0677  0.3176 -0.2553
 6152SOL    HW129918   3.547   1.287  13.138 -0.7013  0.4617 -1.4326
 6152SOL    HW229919   3.555   1.418  13.211 -0.3578  0.3658  0.1664
 6153SOL     OW29920   3.701   1.796  10.200 -0.1009  0.3457 -0.0216
 6153SOL    HW129921   3.701   1.835  10.112  0.0374  1.5542  0.5158
 6153SOL    HW229922   3.667   1.713  10.168  0.3067  0.8051 -1.6812
 6154SOL     OW29923   4.190   0.299  16.877  0.6757  0.5173 -0.8455
 6154SOL    HW129924   4.260   0.258  16.827  1.6590  0.4388  0.6055
 6154SOL    HW229925   4.178   0.371  16.814 -0.9324  0.7906 -0.2197
 6155SOL     OW29926   2.398   4.263   8.532 -0.5270 -0.2182  0.4568
 6155SOL    HW129927   2.391   4.347   8.487 -0.5226  1.1453  2.9576
 6155SOL    HW229928   2.481   4.271   8.580 -0.1661  1.0497 -0.3580
 6156SOL     OW29929   2.177   3.061   6.069 -0.0464  0.5320 -0.7884
 6156SOL    HW129930   2.249   3.122   6.086  0.7949 -0.4700 -0.7605
 6156SOL    HW229931   2.115   3.115   6.021  0.8430  3.5812  1.4739
 6157SOL     OW29932   2.094   0.138   8.693  0.3166 -0.2590  0.2991
 6157SOL    HW129933   2.072   0.224   8.659 -2.1224 -0.8719  0.3115
 6157SOL    HW229934   2.028   0.079   8.658 -0.1746  0.5998 -0.1917
 6158SOL     OW29935   0.011   4.579  16.044 -0.1549 -0.3751 -0.8539
 6158SOL    HW129936   0.042   4.614  16.128 -0.2250 -0.7905 -0.6578
 6158SOL    HW229937   4.645   4.545  16.054 -0.2297 -0.0014 -0.1897
 6159SOL     OW29938   2.826   0.317   5.681 -0.7960 -0.3600  0.6124
 6159SOL    HW129939   2.803   0.367   5.759 -1.5384 -0.6042  0.5505
 6159SOL    HW229940   2.916   0.288   5.695 -0.5783  0.1322  0.2516
 6160SOL     OW29941   2.496   1.661  14.792 -0.6821 -0.0450  0.4277
 6160SOL    HW129942   2.448   1.578  14.799  0.4110 -0.8619 -1.8409
 6160SOL    HW229943   2.533   1.663  14.880  0.0381 -1.2286  0.1508
 6161SOL     OW29944   3.533   3.426   5.879  0.0213  0.2917  0.5599
 6161SOL    HW129945   3.529   3.352   5.818  1.2112  0.3412  0.4211
 6161SOL    HW229946   3.441   3.446   5.898 -0.0162  1.1785 -0.6224
 6162SOL     OW29947   2.004   2.107   4.928 -0.1180  0.1893  0.3078
 6162SOL    HW129948   1.944   2.158   4.982  0.9748  0.4790  1.2342
 6162SOL    HW229949   2.077   2.167   4.909 -1.9748  1.4958 -2.7566
 6163SOL     OW29950   3.776   3.161   7.190  0.4135 -0.3137 -0.4516
 6163SOL    HW129951   3.758   3.108   7.268 -0.2421  0.1561 -0.2879
 6163SOL    HW229952   3.797   3.245   7.231 -0.6710 -0.2471 -0.0368
 6164SOL     OW29953   1.083   4.559   2.835 -0.1709  0.0515 -0.1438
 6164SOL    HW129954   1.073   4.589   2.745  2.6795 -0.9464 -0.7911
 6164SOL    HW229955   1.016   4.491   2.831  0.8548 -0.9116 -0.7088
 6165SOL     OW29956   2.874   2.083   7.417 -0.4019  0.3220 -0.1801
 6165SOL    HW129957   2.931   2.147   7.374  1.8007 -0.6629  1.2837
 6165SOL    HW229958   2.911   2.006   7.374  0.1452 -0.5788  1.8894
 6166SOL     OW29959   1.040   1.214  15.527 -0.3089 -0.0427 -0.2376
 6166SOL    HW129960   1.045   1.121  15.504  2.0373 -0.7579  3.1959
 6166SOL    HW229961   1.130   1.235  15.554  0.2040  0.0460 -2.0195
 6167SOL     OW29962   2.428   2.701   6.756  0.2547  0.0454 -0.2575
 6167SOL    HW129963   2.457   2.612   6.735  3.5219  1.0839 -0.1461
 6167SOL    HW229964   2.467   2.758   6.690 -0.4440  0.5858 -0.1887
 6168SOL     OW29965   3.039   0.704  17.307 -0.2085 -0.0626 -0.3098
 6168SOL    HW129966   3.003   0.616  17.292  3.1911 -1.4216 -0.5839
 6168SOL    HW229967   3.018   0.724  17.398 -1.6761  1.4108 -0.9704
 6169SOL     OW29968   3.483   1.261   5.159  0.2551 -0.3086  0.0172
 6169SOL    HW129969   3.399   1.250   5.114  0.6985  1.3092 -1.2085
 6169SOL    HW229970   3.497   1.355   5.149  1.4625 -0.6501 -1.4578
 6170SOL     OW29971   2.700   0.208   5.467  0.2707 -0.0451 -0.0144
 6170SOL    HW129972   2.753   0.231   5.391  0.5884  1.1846  0.5836
 6170SOL    HW229973   2.741   0.256   5.539  1.3338 -0.0958 -0.5945
 6171SOL     OW29974   1.416   3.550   4.517  0.2312 -0.0480 -0.4697
 6171SOL    HW129975   1.404   3.470   4.568  0.2206  1.7724  2.4064
 6171SOL    HW229976   1.355   3.531   4.445 -0.2563 -0.9644  0.1941
 6172SOL     OW29977   0.053   4.170   5.457 -0.1476 -0.6629 -0.2406
 6172SOL    HW129978   0.007   4.169   5.374  3.1395 -0.4116 -2.0624
 6172SOL    HW229979   0.073   4.080   5.483 -1.4804 -0.6408  0.8665
 6173SOL     OW29980   2.295   2.674  10.422  0.0885 -0.1132  0.3268
 6173SOL    HW129981   2.235   2.691  10.350  0.1371 -1.0154  0.0710
 6173SOL    HW229982   2.362   2.622  10.378  0.7872  1.5594 -0.5901
 6174SOL     OW29983   2.398   2.059   6.178  0.5814  0.4010  0.2884
 6174SOL    HW129984   2.320   2.097   6.217 -0.6049  0.8933 -2.6069
 6174SOL    HW229985   2.462   2.071   6.248 -0.0130  1.2061  0.6873
 6175SOL     OW29986   1.818   4.369   7.348 -0.0928 -0.4769 -0.5754
 6175SOL    HW129987   1.852   4.283   7.323 -0.2783  0.0719 -2.7838
 6175SOL    HW229988   1.854   4.381   7.435  2.2577  0.3104 -1.6505
 6176SOL     OW29989   1.283   0.135   6.917 -0.1074  0.3635  0.0890
 6176SOL    HW129990   1.205   0.105   6.868 -0.0148  2.8555 -1.5641
 6176SOL    HW229991   1.254   0.223   6.941 -1.4256  0.2983 -1.2218
 6177SOL     OW29992   4.219   0.235   4.293 -0.0267  0.1692  0.0348
 6177SOL    HW129993   4.205   0.322   4.256  1.5621  1.1163  1.6913
 6177SOL    HW229994   4.314   0.233   4.297 -0.0904 -0.7684  1.1899
 6178SOL     OW29995   3.366   3.732   7.041 -0.2462  0.1259 -0.2828
 6178SOL    HW129996   3.373   3.668   6.969  1.8498  0.8810 -0.7449
 6178SOL    HW229997   3.428   3.798   7.008 -0.8895 -0.1774 -2.1121
 6179SOL     OW29998   3.866   1.976   8.387  0.0175 -0.1568 -0.2778
 6179SOL    HW129999   3.838   1.894   8.347 -1.0587  0.3380 -0.5339
 6179SOL    HW230000   3.961   1.966   8.392  0.0126 -1.4968 -3.1740
 6180SOL     OW30001   3.079   3.975  12.882 -0.4530 -0.1038 -0.2454
 6180SOL    HW130002   3.169   3.956  12.857 -0.3475  0.4989 -0.3223
 6180SOL    HW230003   3.084   4.070  12.880 -1.1123 -0.0732 -0.3142
 6181SOL     OW30004   0.475   4.478   4.161 -0.6699 -0.5127  0.1735
 6181SOL    HW130005   0.408   4.411   4.177 -0.3702 -1.4255 -2.2859
 6181SOL    HW230006   0.423   4.558   4.150 -1.0914 -0.8474 -0.2670
 6182SOL     OW30007   4.367   4.604   5.741  0.0013 -0.4727  0.1723
 6182SOL    HW130008   4.388   4.695   5.716 -1.9735  0.1678  0.8923
 6182SOL    HW230009   4.278   4.622   5.770  0.0995  1.8900 -0.9748
 6183SOL     OW30010   4.675   0.511  12.957  0.2811 -0.0334  0.1758
 6183SOL    HW130011   4.655   0.437  13.016 -0.3869 -0.1934 -0.2555
 6183SOL    HW230012   0.047   0.496  12.960  0.1870 -0.7171 -0.2773
 6184SOL     OW30013   3.891   1.471  16.758  0.3875 -0.2953 -0.6533
 6184SOL    HW130014   3.882   1.375  16.756  1.2664 -0.4256  2.6713
 6184SOL    HW230015   3.895   1.484  16.852  1.0448  1.2164 -0.8986
 6185SOL     OW30016   1.280   1.938   3.007  0.6406  0.0682 -0.1041
 6185SOL    HW130017   1.214   1.984   2.955  2.1671  1.2886 -0.9691
 6185SOL    HW230018   1.329   1.907   2.930  0.3821  0.7151 -0.5338
 6186SOL     OW30019   1.162   2.784  17.269  0.3511 -0.0810  0.1130
 6186SOL    HW130020   1.107   2.840  17.323 -0.0735  0.4014 -0.8223
 6186SOL    HW230021   1.201   2.833  17.196  0.6340 -3.2411 -1.8820
 6187SOL     OW30022   4.007   1.995   3.272  0.4375 -0.2461 -0.2891
 6187SOL    HW130023   3.916   1.989   3.244 -0.0889  0.2076  1.3598
 6187SOL    HW230024   3.995   1.991   3.366  2.3867 -0.3551 -0.0507
 6188SOL     OW30025   3.310   2.821  11.033  0.0516 -0.9052 -0.1718
 6188SOL    HW130026   3.235   2.859  11.080 -0.3591 -1.5320 -0.3178
 6188SOL    HW230027   3.284   2.846  10.944  0.8360  0.1452 -0.1045
 6189SOL     OW30028   2.002   3.052   4.861  0.2273 -0.2310 -0.0231
 6189SOL    HW130029   1.921   3.036   4.910 -1.0688  1.4903 -1.6351
 6189SOL    HW230030   1.991   3.133   4.813  0.4054  0.4930  1.1561
 6190SOL     OW30031   3.940   1.506  11.766  0.0086  0.1923 -0.0586
 6190SOL    HW130032   3.956   1.486  11.858  1.1709  0.1306 -0.2757
 6190SOL    HW230033   3.907   1.420  11.740 -0.4324  0.2519  0.3043
 6191SOL     OW30034   2.362   2.293   7.532 -0.1040  0.0454 -0.0997
 6191SOL    HW130035   2.336   2.208   7.495  0.7676 -0.6747  0.9495
 6191SOL    HW230036   2.381   2.328   7.445  3.2676  1.4649  1.2267
 6192SOL     OW30037   2.922   2.233   2.815 -0.2759 -0.2903 -1.0447
 6192SOL    HW130038   2.965   2.232   2.730  0.2782  3.1235 -0.7897
 6192SOL    HW230039   2.897   2.324   2.828 -0.2419 -1.0056  4.0509
 6193SOL     OW30040   3.859   2.876  11.737  0.2453  0.0923  0.6196
 6193SOL    HW130041   3.806   2.956  11.734  0.6363  0.3757  1.2748
 6193SOL    HW230042   3.852   2.849  11.646  4.5276 -0.8670  0.5996
 6194SOL     OW30043   3.824   1.513   1.342 -0.0491 -0.4635  0.6989
 6194SOL    HW130044   3.833   1.595   1.293  0.3998 -1.1337 -0.3574
 6194SOL    HW230045   3.761   1.537   1.409  0.8041 -0.5432  1.5259
 6195SOL     OW30046   4.371   2.438   9.152  0.7764  0.0810  0.5343
 6195SOL    HW130047   4.461   2.417   9.126  0.7784  1.8125 -0.8777
 6195SOL    HW230048   4.392   2.457   9.243 -1.8251 -1.6758  1.4899
 6196SOL     OW30049   2.212   0.988   1.884  0.6447  0.5098 -0.5318
 6196SOL    HW130050   2.194   1.073   1.844 -0.7264  0.5249  0.1226
 6196SOL    HW230051   2.144   0.983   1.951 -0.5110  1.2412 -1.6301
 6197SOL     OW30052   2.959   4.426   1.505 -0.3284  0.1579 -0.5515
 6197SOL    HW130053   2.974   4.520   1.503 -2.7931  0.5599 -0.0596
 6197SOL    HW230054   3.031   4.394   1.450  0.4905  2.8000 -1.0029
 6198SOL     OW30055   2.679   2.696   4.268  0.3625 -0.3277  0.1962
 6198SOL    HW130056   2.650   2.715   4.179  1.1400 -0.9528 -0.1836
 6198SOL    HW230057   2.593   2.665   4.298  0.1161 -0.8915 -1.0633
 6199SOL     OW30058   1.494   0.751   9.610  0.1591 -0.7416 -0.0298
 6199SOL    HW130059   1.402   0.726   9.622 -0.3100  0.9191 -0.1230
 6199SOL    HW230060   1.528   0.680   9.556 -0.7947 -1.1474 -0.0952
 6200SOL     OW30061   4.718   3.494   4.184 -0.1627 -0.0587  0.2674
 6200SOL    HW130062   4.631   3.500   4.145 -0.2977  0.2039  0.6119
 6200SOL    HW230063   0.038   3.414   4.153 -0.4927 -0.1138 -0.0410
 6201SOL     OW30064   2.585   2.725   3.996  0.2481 -0.3927 -0.0749
 6201SOL    HW130065   2.503   2.766   3.970  0.4009  0.7883  1.3275
 6201SOL    HW230066   2.617   2.677   3.919 -1.1001  0.8967 -1.4334
 6202SOL     OW30067   0.988   3.101  15.202 -0.2655  0.2520 -0.1735
 6202SOL    HW130068   0.944   3.034  15.256  1.2485 -0.9422 -0.4214
 6202SOL    HW230069   1.008   3.171  15.264  2.3724  0.4995 -1.3491
 6203SOL     OW30070   1.231   2.277   4.601  0.3670 -0.6124  0.2294
 6203SOL    HW130071   1.194   2.189   4.606  0.3650 -0.6166  0.1303
 6203SOL    HW230072   1.257   2.293   4.692 -1.4757  0.9971  0.4877
 6204SOL     OW30073   3.704   2.743   4.534  0.0130  0.1534 -0.0017
 6204SOL    HW130074   3.637   2.810   4.522  1.1176  1.0262 -1.3061
 6204SOL    HW230075   3.655   2.668   4.501  1.2756 -0.8270  0.3634
 6205SOL     OW30076   0.715   3.592   4.945 -0.1710 -0.2760  0.4021
 6205SOL    HW130077   0.631   3.638   4.951  1.5472  2.9488 -0.0030
 6205SOL    HW230078   0.775   3.652   4.989 -2.0557  1.2827  0.8358
 6206SOL     OW30079   4.644   2.282   2.665 -0.5521 -0.4994 -0.1939
 6206SOL    HW130080   4.561   2.242   2.690 -0.4199 -0.1010  0.8818
 6206SOL    HW230081   4.682   2.207   2.619  0.8098  0.4123 -0.5407
 6207SOL     OW30082   3.962   0.439   4.219 -0.9052  0.1973 -0.3634
 6207SOL    HW130083   3.926   0.368   4.273 -1.7698  0.7392 -0.2186
 6207SOL    HW230084   3.950   0.404   4.130 -0.0797  1.8321 -1.1045
 6208SOL     OW30085   3.848   3.687   3.436 -0.1302  0.1235 -0.6089
 6208SOL    HW130086   3.810   3.749   3.498 -0.4297  0.1672 -0.8365
 6208SOL    HW230087   3.906   3.745   3.387 -0.2403  0.2925 -0.5368
 6209SOL     OW30088   1.092   2.654   5.634  0.0135  0.2821  0.1044
 6209SOL    HW130089   1.170   2.699   5.664 -0.1500  1.3006 -0.9978
 6209SOL    HW230090   1.065   2.722   5.572 -3.2078 -2.5601 -1.6168
 6210SOL     OW30091   2.455   4.201  10.842 -0.3178  0.0406 -0.1075
 6210SOL    HW130092   2.408   4.264  10.897 -0.7139  1.1221 -1.6720
 6210SOL    HW230093   2.399   4.126  10.862 -0.3723  0.4426  1.2471
 6211SOL     OW30094   1.400   2.241   6.452  0.5178 -0.0798  0.0910
 6211SOL    HW130095   1.418   2.314   6.393 -0.8308  0.4190  0.3022
 6211SOL    HW230096   1.343   2.287   6.514 -1.1526  1.3330 -2.4936
 6212SOL     OW30097   4.069   2.634  17.331  0.5273  0.0485 -0.6046
 6212SOL    HW130098   4.152   2.680  17.338  1.7022 -2.1821  0.3761
 6212SOL    HW230099   4.085   2.574  17.258 -2.2639 -1.2032 -0.2038
 6213SOL     OW30100   1.312   0.442  17.628  0.1595 -0.3569 -0.4838
 6213SOL    HW130101   1.389   0.483  17.589  2.4445 -0.9226  3.4348
 6213SOL    HW230102   1.311   0.356  17.587 -1.6255 -0.6724  0.2211
 6214SOL     OW30103   0.239   3.299  14.817 -0.8911  0.2887 -0.3706
 6214SOL    HW130104   0.295   3.354  14.762  2.0923 -2.4630 -0.1194
 6214SOL    HW230105   0.177   3.369  14.835  1.5060  2.0453  1.0545
 6215SOL     OW30106   4.031   2.361   7.073  0.0617  0.1940  0.5922
 6215SOL    HW130107   3.948   2.408   7.065 -0.3132 -0.2782  1.7284
 6215SOL    HW230108   4.040   2.341   7.166  1.0296  0.9824  0.6850
 6216SOL     OW30109   4.558   3.896   3.593 -0.3074  0.5780 -0.0374
 6216SOL    HW130110   4.522   3.807   3.590 -3.3523  1.7958  0.0210
 6216SOL    HW230111   4.651   3.875   3.588 -0.2610  0.2179  2.2129
 6217SOL     OW30112   4.577   3.127  12.306  0.2091 -0.5371  0.5092
 6217SOL    HW130113   4.544   3.128  12.216 -0.2698 -0.8384  0.6820
 6217SOL    HW230114   4.663   3.089  12.288 -0.6057 -2.5238  0.8090
 6218SOL     OW30115   4.182   4.292  11.334  0.0270 -0.3771  0.3279
 6218SOL    HW130116   4.154   4.320  11.247 -1.1347  1.9202  1.4167
 6218SOL    HW230117   4.112   4.227  11.328 -1.4741  1.2652  0.1053
 6219SOL     OW30118   1.840   0.674   9.376 -0.0028  0.5215  0.1803
 6219SOL    HW130119   1.869   0.761   9.348 -0.7065  1.1200  1.3480
 6219SOL    HW230120   1.847   0.632   9.290 -0.2940 -0.9759  0.8923
 6220SOL     OW30121   3.176   4.249   0.732  0.2536  0.4760  0.5476
 6220SOL    HW130122   3.152   4.318   0.670 -1.9052 -1.0366 -0.2702
 6220SOL    HW230123   3.203   4.316   0.795 -1.1889  1.9509 -0.4023
 6221SOL     OW30124   1.752   1.924   8.074  0.3215  0.4421  0.2938
 6221SOL    HW130125   1.795   2.002   8.110  0.3753  0.6556 -0.2339
 6221SOL    HW230126   1.827   1.883   8.032  1.1436  0.2859  1.8918
 6222SOL     OW30127   3.379   1.040   2.133  0.1211  0.6351 -0.3254
 6222SOL    HW130128   3.365   0.960   2.184 -0.2835  0.1964 -1.1193
 6222SOL    HW230129   3.374   1.005   2.044  2.5057 -3.5266  1.1404
 6223SOL     OW30130   4.198   1.399   6.236  0.3372  0.4232  0.0437
 6223SOL    HW130131   4.259   1.473   6.230  0.7827  0.0667  0.1364
 6223SOL    HW230132   4.187   1.387   6.142  2.0141  2.1065 -0.3952
 6224SOL     OW30133   4.583   4.028   1.013  0.2965 -0.0919 -0.3400
 6224SOL    HW130134   4.611   4.036   0.921  2.5487 -0.3259  0.3361
 6224SOL    HW230135   4.635   3.950   1.033 -0.9968 -0.3966  1.7681
 6225SOL     OW30136   1.265   4.445   7.463  0.4869 -0.1830 -0.8148
 6225SOL    HW130137   1.169   4.442   7.460  0.4133  0.0861  1.5446
 6225SOL    HW230138   1.283   4.351   7.462  3.1190  0.3135 -0.2641
 6226SOL     OW30139   0.059   1.129   6.728 -0.1182  0.0321 -0.3984
 6226SOL    HW130140   4.695   1.166   6.712 -0.1272  0.3795  0.4595
 6226SOL    HW230141   0.036   1.038   6.747 -3.4564  0.6925 -1.4062
 6227SOL     OW30142   3.267   3.378   9.461  0.3419  0.3138 -0.4477
 6227SOL    HW130143   3.324   3.454   9.458  0.8432 -0.0796 -0.9688
 6227SOL    HW230144   3.275   3.346   9.371  0.1569  0.0502 -0.3713
 6228SOL     OW30145   0.980   1.194  14.452  0.2999  0.4546  0.9160
 6228SOL    HW130146   0.898   1.187  14.500 -0.5626 -0.9156 -0.7534
 6228SOL    HW230147   1.003   1.286  14.459  1.1666  0.3444 -0.4699
 6229SOL     OW30148   4.523   1.031  17.669 -0.3557 -0.0528 -0.2266
 6229SOL    HW130149   4.462   1.019   0.048 -0.5601  0.0450 -0.3839
 6229SOL    HW230150   4.583   1.097   0.012 -0.9684 -1.6236  3.6385
 6230SOL     OW30151   0.551   1.762   2.159 -0.8334  0.0041 -0.3075
 6230SOL    HW130152   0.589   1.757   2.071 -2.5377  2.2006 -1.1376
 6230SOL    HW230153   0.623   1.748   2.222 -3.6265 -2.7536  2.2931
 6231SOL     OW30154   0.964   1.006   7.475 -0.7886  0.2090 -0.3461
 6231SOL    HW130155   0.952   1.076   7.538 -1.0592 -1.2063  1.1867
 6231SOL    HW230156   0.976   1.051   7.392 -1.5306 -1.2783 -1.2677
 6232SOL     OW30157   0.824   3.664   3.591 -0.4450 -0.0502 -0.2114
 6232SOL    HW130158   0.780   3.608   3.527 -2.6022  1.5413 -0.0742
 6232SOL    HW230159   0.888   3.708   3.535  1.4574  1.7964  3.4092
 6233SOL     OW30160   3.966   4.586   7.483 -0.3595  0.1799  0.4692
 6233SOL    HW130161   3.886   4.544   7.451  0.5495 -0.9518 -0.3286
 6233SOL    HW230162   4.035   4.542   7.434 -0.3610  1.5626 -0.7814
 6234SOL     OW30163   2.591   4.517   5.482 -0.1529  0.3059 -0.5408
 6234SOL    HW130164   2.571   4.546   5.393 -0.3260  0.7626 -0.3508
 6234SOL    HW230165   2.513   4.523   5.537  0.6814  0.5761  0.6147
 6235SOL     OW30166   3.421   3.860  16.818 -0.2365 -0.3133 -0.4601
 6235SOL    HW130167   3.514   3.884  16.814 -0.4189  0.7147  1.5850
 6235SOL    HW230168   3.376   3.917  16.757 -0.9136 -0.5073 -0.1458
 6236SOL     OW30169   0.305   0.794   3.117  0.1262  0.3262 -0.4636
 6236SOL    HW130170   0.254   0.873   3.134  0.5747  0.9336 -1.9221
 6236SOL    HW230171   0.322   0.810   3.024 -0.9648  0.3946 -0.6577
 6237SOL     OW30172   4.577   4.018  11.727  0.1868 -0.0354 -0.3947
 6237SOL    HW130173   4.560   4.072  11.650  2.8691 -0.0575 -1.0070
 6237SOL    HW230174   4.539   4.065  11.801  0.9762 -1.2745  0.7960
 6238SOL     OW30175   1.610   0.782   6.944  0.0737 -0.1302  0.8361
 6238SOL    HW130176   1.649   0.695   6.944  0.8608  0.2430 -1.7798
 6238SOL    HW230177   1.685   0.840   6.963  0.8127 -0.6938 -0.3587
 6239SOL     OW30178   3.923   0.022  16.137 -0.5294 -0.0266  0.0631
 6239SOL    HW130179   3.923   0.069  16.220  1.5711  0.2204 -0.0676
 6239SOL    HW230180   3.869   0.082  16.086  0.1179  0.0246 -0.5651
 6240SOL     OW30181   1.802   1.733   6.903  0.1434 -0.0564 -0.0877
 6240SOL    HW130182   1.816   1.695   6.990 -1.6146  2.1809  1.1585
 6240SOL    HW230183   1.785   1.825   6.924  1.1978  0.4136 -1.3434
 6241SOL     OW30184   2.881   3.626   4.240 -0.1861  0.3998 -0.0258
 6241SOL    HW130185   2.928   3.685   4.182  0.7535  0.2143  0.5534
 6241SOL    HW230186   2.952   3.581   4.285 -0.8796  0.1763  0.8343
 6242SOL     OW30187   0.425   1.460   3.508  0.2207 -0.1995  0.0726
 6242SOL    HW130188   0.415   1.554   3.522 -1.8310 -0.3509 -0.3306
 6242SOL    HW230189   0.478   1.424   3.579  1.7579 -0.6129 -1.2585
 6243SOL     OW30190   4.282   3.247   1.847 -0.5446  0.3811 -0.4504
 6243SOL    HW130191   4.333   3.172   1.875 -2.0009 -0.1626  0.7414
 6243SOL    HW230192   4.219   3.194   1.798  0.5313 -1.0257 -0.3119
 6244SOL     OW30193   3.312   3.033   1.784  0.4218  0.7547  0.0490
 6244SOL    HW130194   3.283   2.950   1.746 -0.6736  0.2462  2.0068
 6244SOL    HW230195   3.388   3.056   1.731  0.8058 -2.1562 -0.7016
 6245SOL     OW30196   1.273   0.180   2.547 -0.0314  0.7345 -0.3683
 6245SOL    HW130197   1.326   0.164   2.626  1.7350 -0.5476 -1.8015
 6245SOL    HW230198   1.193   0.210   2.589 -1.6523 -2.8683 -0.8231
 6246SOL     OW30199   1.677   3.525   4.522 -0.0653 -0.1605 -0.0132
 6246SOL    HW130200   1.684   3.484   4.436  3.8045  1.9765 -0.7219
 6246SOL    HW230201   1.581   3.527   4.526  0.0885 -1.6821  4.8808
 6247SOL     OW30202   3.821   0.695   2.574  0.0011 -0.0828 -0.3946
 6247SOL    HW130203   3.900   0.736   2.610 -1.2054 -1.6878  4.0375
 6247SOL    HW230204   3.767   0.771   2.552  2.2154  1.8242  0.8309
 6248SOL     OW30205   2.745   1.953   6.271 -0.3151  0.2664 -0.0727
 6248SOL    HW130206   2.674   1.973   6.333 -0.9946 -0.7038 -0.5402
 6248SOL    HW230207   2.741   2.033   6.218  1.4716  2.2340  2.7596
 6249SOL     OW30208   3.006   3.560   7.371 -0.3225 -0.1522 -0.2165
 6249SOL    HW130209   3.050   3.629   7.322 -0.1375 -0.4173 -0.4261
 6249SOL    HW230210   2.969   3.604   7.448 -2.3312 -1.1639 -0.5897
 6250SOL     OW30211   1.130   3.005   6.779  0.2172  0.2230 -0.0640
 6250SOL    HW130212   1.173   2.984   6.696 -0.8187  0.4001 -0.6443
 6250SOL    HW230213   1.202   3.055   6.815  1.1353 -1.3321  0.2567
 6251SOL     OW30214   3.818   2.996   4.258 -0.0912 -0.1711 -0.0622
 6251SOL    HW130215   3.777   3.039   4.332  0.1087  0.4407 -0.3085
 6251SOL    HW230216   3.861   3.073   4.221 -0.4517  0.4549  0.8360
 6252SOL     OW30217   1.788   0.206   4.131 -0.0691 -0.3640  0.2128
 6252SOL    HW130218   1.859   0.193   4.068 -0.6728  0.5218 -0.6559
 6252SOL    HW230219   1.737   0.126   4.115  3.3179 -1.8217 -3.3040
 6253SOL     OW30220   1.583   2.744   2.445  0.3090 -0.3004 -0.1770
 6253SOL    HW130221   1.569   2.800   2.368 -1.8830 -0.0303  0.4193
 6253SOL    HW230222   1.619   2.807   2.507  0.8108 -1.0816  0.3141
 6254SOL     OW30223   0.102   2.658   5.089 -0.2837  0.0618  0.8571
 6254SOL    HW130224   0.152   2.735   5.118  1.3832 -0.9916  0.7088
 6254SOL    HW230225   0.141   2.594   5.148  0.8999 -1.6837 -1.8077
 6255SOL     OW30226   0.404   3.964   9.755  0.4068 -0.1795  0.3046
 6255SOL    HW130227   0.451   4.035   9.799  1.0783 -0.0009 -0.6840
 6255SOL    HW230228   0.319   4.003   9.735 -0.3373 -0.7528  2.4003
 6256SOL     OW30229   1.537   2.020   5.537 -0.9482 -0.2407 -0.4263
 6256SOL    HW130230   1.510   1.929   5.527  2.4586 -1.3763  0.8289
 6256SOL    HW230231   1.548   2.024   5.632  0.2195 -0.8281 -0.5371
 6257SOL     OW30232   3.113   0.840   3.351 -0.5047  0.4871 -0.1009
 6257SOL    HW130233   3.051   0.913   3.346 -3.9084 -2.5100 -1.3699
 6257SOL    HW230234   3.125   0.837   3.256  0.5838  2.0677 -0.0235
 6258SOL     OW30235   2.096   1.368   3.177  0.0977  0.1002  0.3126
 6258SOL    HW130236   2.052   1.442   3.219  0.7087 -1.0574  2.9711
 6258SOL    HW230237   2.161   1.345   3.243  0.2900  1.3946  0.5814
 6259SOL     OW30238   4.306   2.657   3.765  0.2856  0.4425  0.9300
 6259SOL    HW130239   4.347   2.627   3.846  1.3433 -1.7453 -0.4373
 6259SOL    HW230240   4.375   2.632   3.703  1.6482 -0.2305  2.7136
 6260SOL     OW30241   3.339   4.654  10.043  0.3859 -0.8897 -0.6627
 6260SOL    HW130242   3.357   4.623   9.954 -2.1593 -0.9306 -1.1458
 6260SOL    HW230243   3.419   4.707  10.049  0.5064 -1.1656  0.1353
 6261SOL     OW30244   0.443   0.542  12.908 -0.0454  0.4649  0.2265
 6261SOL    HW130245   0.387   0.482  12.858 -0.3372 -0.4089  1.6025
 6261SOL    HW230246   0.375   0.607  12.926  0.5232  1.4576 -1.2377
 6262SOL     OW30247   1.943   3.916   4.033 -0.2714 -0.0682 -0.1248
 6262SOL    HW130248   2.019   3.965   4.064 -0.7905  0.6760 -0.0501
 6262SOL    HW230249   1.898   3.921   4.117  0.4649 -0.9514  0.3227
 6263SOL     OW30250   2.516   0.815   3.169 -0.0211 -0.3894  0.0221
 6263SOL    HW130251   2.501   0.772   3.254  0.5789 -0.2518  0.1968
 6263SOL    HW230252   2.602   0.856   3.172  0.3518 -1.1521 -0.0513
 6264SOL     OW30253   4.638   3.093   7.131  0.1917 -0.4025 -0.4310
 6264SOL    HW130254   4.543   3.093   7.119 -0.0636 -1.7622  1.5316
 6264SOL    HW230255   4.645   3.153   7.205  2.2087  0.2188 -1.1286
 6265SOL     OW30256   1.934   3.866   8.520  0.0787  0.4345  0.4394
 6265SOL    HW130257   1.927   3.789   8.464 -0.9523  0.9144 -0.0923
 6265SOL    HW230258   1.854   3.912   8.496  0.2971  1.8360  2.4724
 6266SOL     OW30259   3.761   3.882   3.608  0.9629  0.3899 -0.2352
 6266SOL    HW130260   3.720   3.966   3.589 -2.1880 -1.0698  0.1053
 6266SOL    HW230261   3.795   3.887   3.697  1.9739  1.7413 -0.7025
 6267SOL     OW30262   1.480   2.314  13.675  0.3412 -0.0489 -0.6170
 6267SOL    HW130263   1.388   2.292  13.687  0.7090 -1.0600  0.4283
 6267SOL    HW230264   1.465   2.390  13.619 -2.2517  0.1333  0.3077
 6268SOL     OW30265   4.631   3.835  17.591 -0.2673  0.4916  0.4124
 6268SOL    HW130266   4.563   3.855  17.527 -0.2897  0.7822  0.5306
 6268SOL    HW230267   4.603   3.752  17.631 -0.0516  1.5843  2.8327
 6269SOL     OW30268   2.633   3.928   8.754 -0.4571 -0.9065  0.0115
 6269SOL    HW130269   2.633   4.017   8.718 -0.0698 -0.1047  2.0086
 6269SOL    HW230270   2.713   3.935   8.806 -0.7505 -1.3066  0.5142
 6270SOL     OW30271   2.758   0.840   6.696 -0.3435  0.0865  0.2974
 6270SOL    HW130272   2.699   0.826   6.622  0.8693 -0.3138 -0.5931
 6270SOL    HW230273   2.713   0.778   6.754 -1.8778  0.1809 -0.7751
 6271SOL     OW30274   4.652   4.056   6.536  0.1630  0.3664 -0.2246
 6271SOL    HW130275   4.618   4.107   6.462 -0.7787 -0.9125 -0.6646
 6271SOL    HW230276   4.567   4.040   6.577  1.3762  0.3605  2.2849
 6272SOL     OW30277   1.380   0.340   4.999 -0.0480  0.7366  0.3716
 6272SOL    HW130278   1.404   0.322   5.090  1.2711  2.0868  0.2865
 6272SOL    HW230279   1.444   0.403   4.967 -0.0788  0.8299  0.4943
 6273SOL     OW30280   0.784   0.253   2.716 -0.2521 -0.2842 -0.0921
 6273SOL    HW130281   0.790   0.327   2.776  1.5272  1.2962 -2.1804
 6273SOL    HW230282   0.690   0.243   2.704 -0.0322  0.1423 -2.2759
 6274SOL     OW30283   1.218   3.935   3.236 -0.1336 -0.0689  0.0887
 6274SOL    HW130284   1.229   3.907   3.145  0.6696 -1.0488  0.4950
 6274SOL    HW230285   1.168   4.015   3.218 -0.7746 -0.4836  0.0081
 6275SOL     OW30286   2.994   2.013   7.972 -0.2187  0.0769 -0.0636
 6275SOL    HW130287   2.904   1.991   7.946 -0.3551  2.1904 -1.3260
 6275SOL    HW230288   3.012   1.934   8.024 -3.7295 -2.3288 -2.4960
 6276SOL     OW30289   4.120   2.061   8.478  0.2995  0.3940  0.1873
 6276SOL    HW130290   4.174   2.100   8.409 -0.4711 -0.1605 -0.7209
 6276SOL    HW230291   4.147   2.113   8.553  1.1502 -1.2293  0.9905
 6277SOL     OW30292   1.957   2.675   2.811 -0.4855  0.2015 -0.0083
 6277SOL    HW130293   1.934   2.649   2.900 -2.3371 -1.0609 -0.8667
 6277SOL    HW230294   1.954   2.771   2.819  1.0395  0.2266  0.3301
 6278SOL     OW30295   1.675   4.237   6.069 -0.0519  0.0621 -0.8208
 6278SOL    HW130296   1.658   4.245   6.163 -0.7674  1.0498 -1.0370
 6278SOL    HW230297   1.720   4.317   6.043 -0.6953  0.5940 -0.3036
 6279SOL     OW30298   0.094   2.478   7.000 -0.3452 -0.9894  0.1818
 6279SOL    HW130299   0.142   2.397   7.019 -0.8733 -1.0425  1.3245
 6279SOL    HW230300   0.136   2.508   6.920 -0.7641 -1.3891 -0.1919
 6280SOL     OW30301   3.613   0.500   5.282  0.2805  0.5264 -0.0761
 6280SOL    HW130302   3.624   0.410   5.312 -3.4027  0.0588 -0.1994
 6280SOL    HW230303   3.634   0.487   5.189 -0.3132  0.6814 -0.2334
 6281SOL     OW30304   2.144   3.260   7.611 -0.3676  0.5324 -0.0902
 6281SOL    HW130305   2.205   3.216   7.671  0.3563 -2.4638 -3.0299
 6281SOL    HW230306   2.156   3.209   7.531 -0.7183 -0.2217  0.3274
 6282SOL     OW30307   1.340   0.991   2.611 -0.5309  0.1503 -0.2569
 6282SOL    HW130308   1.326   0.936   2.534 -0.7118  0.5211 -0.4877
 6282SOL    HW230309   1.300   1.073   2.583  0.4312  0.5312 -0.4956
 6283SOL     OW30310   2.457   3.579   5.813  0.3417 -0.1675 -0.7490
 6283SOL    HW130311   2.415   3.646   5.867  1.1396 -2.2870  2.5240
 6283SOL    HW230312   2.380   3.522   5.806 -1.3327  1.8744  0.8191
 6284SOL     OW30313   2.509   3.950  11.947  0.3998  0.1315  0.1136
 6284SOL    HW130314   2.551   4.013  12.004 -1.2418  0.1063  1.3342
 6284SOL    HW230315   2.566   3.874  11.962 -0.9601 -0.2203  3.3517
 6285SOL     OW30316   3.423   3.554   7.511 -0.2326 -0.3348  0.4267
 6285SOL    HW130317   3.407   3.646   7.532  1.3454  0.0519 -0.0731
 6285SOL    HW230318   3.352   3.522   7.566 -1.8567 -0.8106 -1.9717
 6286SOL     OW30319   4.566   1.478   8.768 -0.3935  0.3940 -0.1074
 6286SOL    HW130320   4.610   1.394   8.753  0.2850  0.4717  1.5153
 6286SOL    HW230321   4.642   1.534   8.784  1.6179 -1.3087 -3.6820
 6287SOL     OW30322   0.198   0.560   4.309 -0.4666  0.0033 -0.7116
 6287SOL    HW130323   0.231   0.495   4.247  2.4994 -0.5184  1.4079
 6287SOL    HW230324   0.239   0.530   4.390 -1.8981 -0.8258 -0.3050
 6288SOL     OW30325   0.826   1.950  14.587  0.1093 -0.4523  0.1553
 6288SOL    HW130326   0.782   1.922  14.507 -1.7803 -2.3033  1.7985
 6288SOL    HW230327   0.846   2.041  14.567 -2.3426  0.1392  0.4135
 6289SOL     OW30328   1.052   0.889   5.514  0.6157 -0.4496 -0.0693
 6289SOL    HW130329   1.121   0.873   5.578  1.3290  0.1051 -0.7065
 6289SOL    HW230330   1.075   0.825   5.447  0.5720 -0.0330 -0.4820
 6290SOL     OW30331   1.533   0.797  16.692 -0.7461 -0.1014 -0.7848
 6290SOL    HW130332   1.536   0.750  16.609  1.1144 -2.5965  0.7031
 6290SOL    HW230333   1.461   0.749  16.732 -0.2660  0.5369  0.8347
 6291SOL     OW30334   2.345   3.996  11.721 -0.7103 -0.3033 -0.8249
 6291SOL    HW130335   2.422   4.013  11.667 -1.0628  1.2916 -0.8424
 6291SOL    HW230336   2.387   3.992  11.807 -2.9661 -0.3852  0.2837
 6292SOL     OW30337   4.480   3.721   7.350 -0.0266  0.2808  0.1437
 6292SOL    HW130338   4.453   3.736   7.441 -2.3383  1.2337 -0.7017
 6292SOL    HW230339   4.538   3.798   7.348  0.5152 -0.1737 -1.4551
 6293SOL     OW30340   1.382   1.713   2.452 -0.1813  0.4420 -0.2485
 6293SOL    HW130341   1.361   1.801   2.419 -1.1278 -0.2928 -1.6077
 6293SOL    HW230342   1.327   1.659   2.396 -2.1709  1.1934  0.9601
 6294SOL     OW30343   2.894   1.737   6.226 -0.0768  0.7453 -0.1088
 6294SOL    HW130344   2.819   1.796   6.226  0.7779  1.8220  1.5200
 6294SOL    HW230345   2.870   1.690   6.306  1.9140 -0.0979  0.0023
 6295SOL     OW30346   4.685   1.022   7.218  0.1173 -0.1932 -0.6569
 6295SOL    HW130347   4.623   1.030   7.290 -1.6321 -0.7981 -2.0969
 6295SOL    HW230348   4.690   0.928   7.201  1.4603  0.0246 -1.4411
 6296SOL     OW30349   4.565   4.593  12.801 -0.5328 -0.1902  0.1701
 6296SOL    HW130350   4.654   4.560  12.789 -1.2747 -1.5524 -1.5523
 6296SOL    HW230351   4.562   4.661  12.734 -1.0074  1.5953  1.9819
 6297SOL     OW30352   3.464   4.404  12.860  0.3375 -0.7274  0.3214
 6297SOL    HW130353   3.484   4.466  12.790 -0.6981  1.2405  1.8055
 6297SOL    HW230354   3.443   4.461  12.933 -0.4572 -0.3474 -0.2013
 6298SOL     OW30355   3.627   2.013   6.794 -0.7600  0.0727  0.2992
 6298SOL    HW130356   3.645   2.094   6.843  1.6699 -0.5610  0.4281
 6298SOL    HW230357   3.671   1.949   6.849 -0.7742 -1.1293 -1.0876
 6299SOL     OW30358   1.381   2.735   3.442  0.1022 -0.0026 -0.0412
 6299SOL    HW130359   1.423   2.821   3.437 -0.1854  0.1457  0.0889
 6299SOL    HW230360   1.448   2.668   3.429  0.2464 -0.1312  1.3569
 6300SOL     OW30361   0.907   3.366   5.141  0.3195 -0.4108 -0.3743
 6300SOL    HW130362   0.862   3.326   5.216  0.8144 -1.1166 -0.4530
 6300SOL    HW230363   0.998   3.345   5.164  0.2155 -1.2218 -0.7039
 6301SOL     OW30364   3.506   0.072   1.832 -0.7153 -0.1342  0.3356
 6301SOL    HW130365   3.453   0.127   1.774  0.6192 -0.1280 -0.8665
 6301SOL    HW230366   3.477   0.099   1.919  0.8694 -0.0511  0.8417
 6302SOL     OW30367   1.405   0.112   2.795  0.3572  0.7237 -0.1733
 6302SOL    HW130368   1.436   0.027   2.826  0.2251  0.7920  0.1416
 6302SOL    HW230369   1.389   0.155   2.879 -2.0607  0.1085 -0.3205
 6303SOL     OW30370   1.484   3.440   2.471  0.4579 -0.1834  0.2858
 6303SOL    HW130371   1.485   3.363   2.415 -0.1372  0.3589 -0.4708
 6303SOL    HW230372   1.391   3.443   2.496  1.1391 -2.5158  3.0468
 6304SOL     OW30373   0.264   0.731  13.249 -0.2842  0.0312 -0.1495
 6304SOL    HW130374   0.312   0.660  13.291 -1.0259 -0.3941 -0.0320
 6304SOL    HW230375   0.178   0.694  13.231 -1.2309  2.0162  0.2638
 6305SOL     OW30376   3.461   0.900  11.191  0.1421  0.2432  0.1113
 6305SOL    HW130377   3.379   0.882  11.144 -0.0298  0.3113  0.3867
 6305SOL    HW230378   3.434   0.891  11.283 -0.9079 -2.5598 -0.4687
 6306SOL     OW30379   0.054   0.902   3.855 -0.3292 -0.3909 -0.1212
 6306SOL    HW130380   0.057   0.988   3.897  0.1825 -1.3063  1.7222
 6306SOL    HW230381   4.706   0.860   3.904 -0.4136  0.0569  0.1382
 6307SOL     OW30382   3.690   1.654   8.017 -0.6777  0.1960 -0.3157
 6307SOL    HW130383   3.647   1.722   7.966  0.1145 -0.1043 -1.3864
 6307SOL    HW230384   3.690   1.579   7.957 -0.6748  0.6777 -0.9250
 6308SOL     OW30385   0.180   4.299   8.219  0.4939 -0.6452 -0.6542
 6308SOL    HW130386   0.165   4.379   8.268 -0.8142  0.0460 -2.1999
 6308SOL    HW230387   0.266   4.310   8.180 -0.9164  3.2404 -2.6336
 6309SOL     OW30388   0.618   2.476   9.531 -0.1003 -0.0924  0.1553
 6309SOL    HW130389   0.546   2.454   9.473  0.3806 -0.9224 -0.1243
 6309SOL    HW230390   0.662   2.391   9.528 -0.0059 -0.0920  1.3475
 6310SOL     OW30391   0.725   2.230   9.492 -0.2324 -0.6403  0.0151
 6310SOL    HW130392   0.696   2.151   9.539  1.3491 -0.1020  1.8681
 6310SOL    HW230393   0.819   2.215   9.491 -0.1842 -0.3173 -0.1545
 6311SOL     OW30394   4.038   3.204   6.351 -0.1323  0.0958  0.0118
 6311SOL    HW130395   3.976   3.274   6.327 -1.0374 -0.3972  0.8864
 6311SOL    HW230396   3.985   3.134   6.314  1.7627 -1.4720  0.3163
 6312SOL     OW30397   4.440   3.965   5.289 -0.2883 -0.1080  1.0149
 6312SOL    HW130398   4.385   4.014   5.228 -3.1255 -1.1957  2.6942
 6312SOL    HW230399   4.511   3.942   5.229 -1.5740 -0.4688 -0.3822
 6313SOL     OW30400   3.357   0.174   7.810 -0.0718 -0.0280 -0.0207
 6313SOL    HW130401   3.364   0.235   7.736 -1.8965 -0.8375 -0.8448
 6313SOL    HW230402   3.373   0.098   7.755  0.9129  0.6792 -0.7171
 6314SOL     OW30403   3.714   2.807  10.836  0.0798 -0.8776 -0.0070
 6314SOL    HW130404   3.680   2.842  10.919  0.8418 -0.4198  0.1138
 6314SOL    HW230405   3.647   2.843  10.778  2.0180 -0.3333 -1.8927
 6315SOL     OW30406   0.363   4.476   1.847  0.0262  0.3488  0.2649
 6315SOL    HW130407   0.294   4.419   1.880  0.0140 -0.2471 -0.7631
 6315SOL    HW230408   0.322   4.508   1.766 -1.5083 -0.5860  0.6802
 6316SOL     OW30409   4.074   3.947   4.969 -0.2929  0.4628 -0.1340
 6316SOL    HW130410   4.013   3.957   5.042  0.4442  3.9484 -0.0144
 6316SOL    HW230411   4.046   3.861   4.938  0.7402 -0.0565  0.3847
 6317SOL     OW30412   2.348   2.960  16.088  0.2825 -0.2180 -0.0260
 6317SOL    HW130413   2.333   3.023  16.018 -0.3188 -0.3971 -0.0654
 6317SOL    HW230414   2.285   2.981  16.158  1.5047  1.2321  0.6238
 6318SOL     OW30415   3.450   4.709   0.407  0.9752  0.1000  0.0298
 6318SOL    HW130416   3.513   0.019   0.343 -1.9934  1.6786 -2.1079
 6318SOL    HW230417   3.493   0.030   0.481  1.0400  1.4454 -0.7950
 6319SOL     OW30418   2.624   2.810  12.545 -0.0235 -0.0322 -0.1849
 6319SOL    HW130419   2.680   2.855  12.608 -0.2321 -0.0383  0.0054
 6319SOL    HW230420   2.665   2.825  12.460 -1.4057 -1.3693 -1.0863
 6320SOL     OW30421   1.555   4.008   9.914 -0.4943  0.0345  0.1318
 6320SOL    HW130422   1.502   4.073   9.960  2.0762  2.4781 -0.3564
 6320SOL    HW230423   1.495   3.999   9.840 -0.5894  1.6629  0.0143
 6321SOL     OW30424   1.522   0.518  16.109  0.5590  0.3408 -0.6268
 6321SOL    HW130425   1.533   0.475  16.194 -0.0748  0.1466 -0.6384
 6321SOL    HW230426   1.491   0.449  16.050  1.2547 -0.1885 -0.3759
 6322SOL     OW30427   3.108   1.836  16.571  0.5187  0.5972 -0.1741
 6322SOL    HW130428   3.028   1.814  16.620  1.6304  0.8456  1.7459
 6322SOL    HW230429   3.105   1.927  16.602  0.0546  0.9880 -1.3545
 6323SOL     OW30430   0.389   3.757  15.649 -0.4128  0.1593 -0.3377
 6323SOL    HW130431   0.445   3.689  15.686 -1.2064  1.0317  2.4556
 6323SOL    HW230432   0.382   3.716  15.563  0.2732  0.8231 -0.7211
 6324SOL     OW30433   4.687   1.912  13.835 -0.1693 -0.2095  0.0069
 6324SOL    HW130434   4.660   1.965  13.910  1.9085  1.3157 -0.3341
 6324SOL    HW230435   4.671   1.828  13.878  0.4252 -0.4479 -0.2376
 6325SOL     OW30436   0.926   0.825   6.721 -0.8525 -0.2196 -0.1607
 6325SOL    HW130437   0.872   0.900   6.745  2.8691  1.6840  2.3377
 6325SOL    HW230438   1.012   0.844   6.760 -0.3725 -1.6315 -0.5268
 6326SOL     OW30439   2.021   3.614  14.410  0.0571  0.1476  0.1270
 6326SOL    HW130440   1.930   3.640  14.396  0.5963  2.5149  0.9108
 6326SOL    HW230441   2.014   3.646  14.500 -1.1588 -1.4871  0.6096
 6327SOL     OW30442   3.360   0.801  15.206  0.1161  0.1671  0.0179
 6327SOL    HW130443   3.428   0.868  15.215 -0.1745  0.2856  1.3040
 6327SOL    HW230444   3.414   0.725  15.182  1.3434  1.8095 -2.4081
 6328SOL     OW30445   2.977   1.652  16.389 -0.1471 -0.3713  0.1044
 6328SOL    HW130446   3.059   1.702  16.389  0.0300 -0.6642  0.0631
 6328SOL    HW230447   2.971   1.615  16.301  2.1359 -1.2249  0.3256
 6329SOL     OW30448   0.172   0.847   0.772  0.1173 -0.0973 -0.0067
 6329SOL    HW130449   0.201   0.775   0.715  3.6858  2.0181 -0.9111
 6329SOL    HW230450   0.247   0.904   0.754 -0.0156 -0.2913 -1.1822
 6330SOL     OW30451   3.602   3.407   3.684  0.5034 -0.6457  0.3503
 6330SOL    HW130452   3.640   3.454   3.610  0.2703  1.4242  1.5216
 6330SOL    HW230453   3.683   3.358   3.698 -0.1937 -1.7171  0.6033
 6331SOL     OW30454   0.653   1.065  12.676 -0.1534 -0.4851 -0.0922
 6331SOL    HW130455   0.564   1.036  12.697 -1.8372  3.7751 -1.3659
 6331SOL    HW230456   0.668   0.994  12.614 -2.5196 -0.9166 -0.1801
 6332SOL     OW30457   2.001   0.972   4.554  0.0434 -0.6127 -0.2268
 6332SOL    HW130458   1.919   0.930   4.579  0.4772 -0.5276  1.3028
 6332SOL    HW230459   2.031   0.919   4.480  0.6311  0.1293 -0.5205
 6333SOL     OW30460   4.654   1.293  12.459 -0.3047 -0.1467  0.3265
 6333SOL    HW130461   4.589   1.303  12.390 -0.5342 -1.7792  0.3184
 6333SOL    HW230462   4.680   1.201  12.460  1.4013  0.3436  2.2774
 6334SOL     OW30463   2.783   0.461   8.827  0.7720  0.4967 -0.0602
 6334SOL    HW130464   2.837   0.432   8.900  1.5976 -0.9350 -1.2266
 6334SOL    HW230465   2.770   0.373   8.791  0.8474  0.8451 -0.9358
 6335SOL     OW30466   4.260   2.006   9.275  0.2380  0.5770 -0.0241
 6335SOL    HW130467   4.224   2.059   9.204 -0.0633  0.3337 -0.0522
 6335SOL    HW230468   4.333   1.965   9.229  1.1534 -0.0053  1.9525
 6336SOL     OW30469   3.955   3.308   8.933 -0.3230  0.3822  0.4962
 6336SOL    HW130470   4.026   3.251   8.963  0.1665  0.2616 -0.8947
 6336SOL    HW230471   3.909   3.245   8.878  0.2499  1.0641 -0.7778
 6337SOL     OW30472   1.712   1.278  14.762 -0.3504 -0.4192 -0.2164
 6337SOL    HW130473   1.751   1.257  14.676  0.2870  1.3583 -0.3512
 6337SOL    HW230474   1.724   1.192  14.803 -0.8122 -0.2017  0.3695
 6338SOL     OW30475   4.563   3.236   5.513  0.2184  0.5120  0.0709
 6338SOL    HW130476   4.534   3.292   5.441  2.2582  1.5000  0.0407
 6338SOL    HW230477   4.495   3.238   5.581 -0.3471 -0.9266 -0.4419
 6339SOL     OW30478   3.024   1.302  12.329  0.2910 -0.1060  0.5555
 6339SOL    HW130479   3.105   1.344  12.359 -0.0275  1.1309 -0.3498
 6339SOL    HW230480   2.966   1.304  12.405 -0.8318 -0.8871 -0.2864
 6340SOL     OW30481   2.060   3.725   7.103  0.3157  0.0810  0.1139
 6340SOL    HW130482   2.050   3.820   7.098 -2.0360  0.0245  3.7031
 6340SOL    HW230483   2.065   3.718   7.198  0.5752  1.7957  0.2084
 6341SOL     OW30484   0.674   0.949  13.619  1.2940 -0.5264  0.6246
 6341SOL    HW130485   0.659   0.920  13.529 -1.4983  0.8501  0.6424
 6341SOL    HW230486   0.642   1.039  13.616  0.0975 -0.9270  1.5901
 6342SOL     OW30487   0.776   1.903  12.716 -0.0205 -0.0309  0.3785
 6342SOL    HW130488   0.780   1.939  12.804 -1.9701  2.2926 -0.4761
 6342SOL    HW230489   0.862   1.921  12.677 -0.4667 -0.9027 -1.0363
 6343SOL     OW30490   2.134   0.855   4.350  0.0949 -0.1399 -0.0580
 6343SOL    HW130491   2.224   0.836   4.377 -0.4400 -2.1772  0.2948
 6343SOL    HW230492   2.148   0.944   4.318 -1.1602  0.0178 -0.1785
 6344SOL     OW30493   1.324   1.813   5.120 -0.3551  0.6882 -0.4756
 6344SOL    HW130494   1.281   1.737   5.084 -0.7473 -0.2419  1.9350
 6344SOL    HW230495   1.265   1.838   5.191  0.4174  0.0553  0.3868
 6345SOL     OW30496   1.964   3.646   8.328 -0.4684  0.4349 -0.2085
 6345SOL    HW130497   1.929   3.583   8.391 -0.0869  2.0862  1.6648
 6345SOL    HW230498   2.057   3.628   8.337 -0.3792  1.7968  1.8294
 6346SOL     OW30499   1.734   0.944   0.635  0.6833 -0.2882 -0.1188
 6346SOL    HW130500   1.818   0.923   0.674  1.4442  0.1477 -1.5189
 6346SOL    HW230501   1.748   0.924   0.542  2.0533  0.8583 -0.1476
 6347SOL     OW30502   3.137   2.287   6.519  0.5260  0.1111 -0.3832
 6347SOL    HW130503   3.210   2.229   6.541 -0.3661 -0.5606  0.7746
 6347SOL    HW230504   3.063   2.229   6.502  0.7270  0.0977 -1.2090
 6348SOL     OW30505   0.221   3.501  14.645 -0.0126  0.1783  0.1042
 6348SOL    HW130506   0.147   3.528  14.700 -0.6394  0.6839 -0.9867
 6348SOL    HW230507   0.275   3.580  14.639 -0.4704  0.2985 -2.4270
 6349SOL     OW30508   0.764   3.439  14.949  0.2669 -0.5326 -0.7851
 6349SOL    HW130509   0.845   3.462  14.904  0.1534 -0.0573 -0.7398
 6349SOL    HW230510   0.712   3.516  14.926  1.2021  0.4094  0.2677
 6350SOL     OW30511   0.677   3.714   8.711 -0.0165 -0.1220  0.4340
 6350SOL    HW130512   0.768   3.700   8.684  0.2656 -0.3537  1.4976
 6350SOL    HW230513   0.643   3.632   8.675 -2.6451  1.1020  0.1722
 6351SOL     OW30514   0.610   0.832  12.514 -0.5487  0.0037  0.2765
 6351SOL    HW130515   0.662   0.767  12.466 -1.1818 -1.2574  1.2758
 6351SOL    HW230516   0.521   0.799  12.497 -0.6252 -0.3104  1.2862
 6352SOL     OW30517   0.729   2.556   5.664  0.4524 -0.1620  0.4784
 6352SOL    HW130518   0.807   2.507   5.637 -1.0171 -1.3965 -1.4889
 6352SOL    HW230519   0.716   2.619   5.592 -2.0630 -1.1695  0.0689
 6353SOL     OW30520   2.841   2.263   4.217 -0.4280 -0.3066  0.4456
 6353SOL    HW130521   2.749   2.290   4.217 -0.2358  0.3658 -0.0232
 6353SOL    HW230522   2.826   2.174   4.187  0.8153 -0.1197 -0.7042
 6354SOL     OW30523   2.220   0.346   3.104  0.0823  0.0931 -0.7079
 6354SOL    HW130524   2.177   0.412   3.049  0.3770 -2.1936 -3.7315
 6354SOL    HW230525   2.300   0.393   3.125 -0.1614 -0.1472  0.7173
 6355SOL     OW30526   4.361   0.014   5.422  0.2749  0.3941  0.7033
 6355SOL    HW130527   4.421   0.004   5.496  0.2718 -1.3755  0.4681
 6355SOL    HW230528   4.353   4.645   5.399 -3.2733  1.5868 -2.7409
 6356SOL     OW30529   3.822   4.094   4.636 -0.0850 -0.4982  0.3189
 6356SOL    HW130530   3.784   4.165   4.584  1.9410 -0.2777 -0.8337
 6356SOL    HW230531   3.805   4.015   4.585 -0.7026 -1.6978  2.3828
 6357SOL     OW30532   2.086   4.252   4.571 -0.3760  0.1690  0.1552
 6357SOL    HW130533   2.088   4.300   4.654 -0.4177 -0.3769  0.4720
 6357SOL    HW230534   2.175   4.219   4.559 -0.2962  0.1349  0.8413
 6358SOL     OW30535   2.202   4.192  11.554  0.3234  0.8582 -0.4478
 6358SOL    HW130536   2.249   4.112  11.579 -3.1592 -0.7600  0.9115
 6358SOL    HW230537   2.126   4.194  11.612  0.9441 -1.3204  0.4544
 6359SOL     OW30538   4.513   3.614  12.710  0.4604  0.2091 -0.1519
 6359SOL    HW130539   4.428   3.638  12.673  0.3328 -0.2269 -0.1436
 6359SOL    HW230540   4.573   3.608  12.636  0.8305  0.8176  0.0948
 6360SOL     OW30541   4.447   2.622   1.673  0.1078 -0.8097 -0.0470
 6360SOL    HW130542   4.463   2.712   1.701 -0.6506  0.1428 -2.7880
 6360SOL    HW230543   4.417   2.627   1.583 -0.5551 -1.0265  0.1601
 6361SOL     OW30544   3.914   0.042   8.950 -0.4481 -0.0816  0.0800
 6361SOL    HW130545   3.835   0.053   8.896  0.6967 -3.5222 -2.3041
 6361SOL    HW230546   3.891   4.674   8.972 -0.3483 -0.0681  0.2393
 6362SOL     OW30547   3.136   2.833   2.466 -0.0050 -0.3952  0.2306
 6362SOL    HW130548   3.208   2.858   2.523  1.0802 -2.3387 -0.2690
 6362SOL    HW230549   3.147   2.872   2.380  0.3141  0.3102  0.5924
 6363SOL     OW30550   3.681   0.059   8.822  0.5856 -0.1031  0.3594
 6363SOL    HW130551   3.638   0.071   8.738  2.2470  0.9243 -0.3321
 6363SOL    HW230552   3.655   4.690   8.829 -1.8690  0.5757  0.0765
 6364SOL     OW30553   2.356   3.889   8.373 -0.3102  0.7819  0.1988
 6364SOL    HW130554   2.348   3.817   8.436 -3.1776 -0.2958 -1.4143
 6364SOL    HW230555   2.267   3.925   8.364 -0.3671  0.1628 -1.6805
 6365SOL     OW30556   2.546   3.825   1.959 -0.4105 -0.4880  0.1275
 6365SOL    HW130557   2.538   3.805   1.866  0.7543 -1.3219  0.2091
 6365SOL    HW230558   2.455   3.808   1.986 -0.5987  1.5278  0.7469
 6366SOL     OW30559   1.240   2.305   7.982 -0.1310  0.3100  0.5137
 6366SOL    HW130560   1.280   2.265   8.059 -0.3149 -0.3586  0.2643
 6366SOL    HW230561   1.282   2.390   7.991 -1.3904  1.1468 -1.4935
 6367SOL     OW30562   1.827   3.997   2.442 -0.1241 -0.2450 -0.1669
 6367SOL    HW130563   1.763   4.038   2.384 -0.4004 -1.5577 -0.7819
 6367SOL    HW230564   1.803   4.039   2.524 -2.3113 -1.7055 -0.0679
 6368SOL     OW30565   3.429   3.291   1.653  0.7120  0.3904  0.2741
 6368SOL    HW130566   3.360   3.329   1.707  0.3874 -0.1920  0.2715
 6368SOL    HW230567   3.481   3.367   1.629  0.1519  0.0191 -2.1281
 6369SOL     OW30568   1.975   2.440   8.978 -0.0897  0.1453  0.2068
 6369SOL    HW130569   1.953   2.417   8.888  1.4254  0.4601 -0.2513
 6369SOL    HW230570   1.930   2.522   8.996  0.3434  0.7070 -1.2968
 6370SOL     OW30571   0.130   4.445   4.339  0.1362 -0.1500  0.6298
 6370SOL    HW130572   0.081   4.461   4.420 -0.0766  1.2004  0.2346
 6370SOL    HW230573   0.088   4.512   4.285  0.5544  0.6925  1.3512
 6371SOL     OW30574   1.742   1.028  14.888  0.0939  0.4589 -0.2979
 6371SOL    HW130575   1.652   1.040  14.917 -0.1823 -1.6074 -0.2819
 6371SOL    HW230576   1.735   0.943  14.843  0.4945  0.5650 -0.5585
 6372SOL     OW30577   4.016   1.172  12.630 -0.0322  0.2504 -0.4187
 6372SOL    HW130578   4.100   1.179  12.674 -0.0711  2.9560 -0.7222
 6372SOL    HW230579   3.984   1.090  12.667 -1.9415  0.1334 -2.3603
 6373SOL     OW30580   2.094   1.915   1.881  0.1764 -0.3700 -1.2161
 6373SOL    HW130581   2.063   1.911   1.791  2.5136  0.4168 -2.0527
 6373SOL    HW230582   2.117   1.823   1.895 -0.9582 -0.7242 -1.6676
 6374SOL     OW30583   0.963   1.806   5.061 -0.7658 -0.2399 -0.4455
 6374SOL    HW130584   0.947   1.775   4.972 -1.0056 -0.8339 -0.1901
 6374SOL    HW230585   0.947   1.728   5.114 -1.9523 -0.8004 -1.6336
 6375SOL     OW30586   1.995   4.025   5.925  0.7910 -0.4318  0.4142
 6375SOL    HW130587   2.039   3.996   6.005 -0.0184  2.3251  1.8775
 6375SOL    HW230588   2.009   3.946   5.874 -1.0893  0.1578 -1.0262
 6376SOL     OW30589   0.632   1.891  14.227 -0.1158  0.0950 -0.0988
 6376SOL    HW130590   0.589   1.810  14.200 -0.6065  0.5820 -0.7818
 6376SOL    HW230591   0.574   1.929  14.294  0.2502 -1.2384  0.9830
 6377SOL     OW30592   2.106   1.828  17.206 -0.4108 -0.4719 -0.1782
 6377SOL    HW130593   2.101   1.762  17.276  0.6910 -1.4973 -1.0762
 6377SOL    HW230594   2.032   1.882  17.233  0.1542 -0.6604  1.7816
 6378SOL     OW30595   2.252   0.512   1.314  0.2209 -0.4220  0.5169
 6378SOL    HW130596   2.208   0.437   1.354  0.2943 -1.0311 -0.5281
 6378SOL    HW230597   2.268   0.470   1.229 -0.5499 -2.2038  1.2405
 6379SOL     OW30598   0.710   0.145   7.678 -0.7819 -0.5485 -0.1122
 6379SOL    HW130599   0.763   0.159   7.599 -3.1094 -0.2011 -1.6476
 6379SOL    HW230600   0.716   0.230   7.722  0.2605 -0.1608 -0.9991
 6380SOL     OW30601   1.763   2.263   3.535  0.2418  0.3403 -0.1375
 6380SOL    HW130602   1.766   2.341   3.479 -0.9487  0.4962  0.0203
 6380SOL    HW230603   1.815   2.194   3.494 -0.7369  0.3681 -1.4026
 6381SOL     OW30604   1.724   3.352  16.278  0.6881  0.3345 -0.2704
 6381SOL    HW130605   1.766   3.267  16.263  1.1993  0.4504  0.5030
 6381SOL    HW230606   1.638   3.327  16.311  1.2070  1.1599  1.6690
 6382SOL     OW30607   0.966   3.523  11.457 -0.2482  0.3297  0.2627
 6382SOL    HW130608   1.051   3.482  11.441  0.2516  2.0156 -1.2898
 6382SOL    HW230609   0.918   3.459  11.510  0.1401  0.7436  1.1079
 6383SOL     OW30610   0.383   0.016   8.697  0.1514 -0.9734  0.7457
 6383SOL    HW130611   0.376   0.080   8.768 -1.5281  0.8764 -1.0931
 6383SOL    HW230612   0.371   0.063   8.615  1.6650  0.9741  1.6584
 6384SOL     OW30613   1.443   3.397   6.926 -0.1639  0.2788  0.0957
 6384SOL    HW130614   1.536   3.409   6.946  0.3264 -0.4015 -1.7951
 6384SOL    HW230615   1.450   3.358   6.839  0.6920  1.8917 -0.5787
 6385SOL     OW30616   1.115   0.673   5.371 -0.0375  0.1375  0.1410
 6385SOL    HW130617   1.078   0.598   5.324 -1.4064  0.7707  0.2229
 6385SOL    HW230618   1.092   0.642   5.459  0.1296  2.7173  1.0833
 6386SOL     OW30619   2.703   0.664  16.033  0.4855 -0.3119  0.1953
 6386SOL    HW130620   2.641   0.691  16.100 -0.1657  0.0616 -0.5492
 6386SOL    HW230621   2.652   0.614  15.969  1.5428 -1.6873  0.4200
 6387SOL     OW30622   4.541   2.579  11.068  0.3850 -0.0365 -0.2817
 6387SOL    HW130623   4.569   2.670  11.076 -1.6796  0.5726 -0.0136
 6387SOL    HW230624   4.523   2.556  11.160 -2.4630  3.8345  0.1115
 6388SOL     OW30625   4.053   0.180  15.282  0.9207 -0.9149 -0.0381
 6388SOL    HW130626   4.052   0.135  15.197 -0.1139 -0.3442 -0.3253
 6388SOL    HW230627   4.009   0.262  15.262  1.8854 -0.4813 -0.3821
 6389SOL     OW30628   2.715   0.495  13.156  0.0363  0.5566 -0.6590
 6389SOL    HW130629   2.679   0.435  13.221 -0.1900  1.0997 -0.2804
 6389SOL    HW230630   2.689   0.464  13.069 -1.1892 -0.7251  0.1765
 6390SOL     OW30631   3.073   3.370   9.093 -0.2221  0.0219  0.2138
 6390SOL    HW130632   2.983   3.338   9.099 -0.2440  0.1037  0.3243
 6390SOL    HW230633   3.070   3.402   9.003 -1.7998  1.0847  0.6400
 6391SOL     OW30634   1.605   3.116   8.174 -0.1249 -0.1131 -0.6945
 6391SOL    HW130635   1.561   3.179   8.232  1.0864 -0.0780  0.1830
 6391SOL    HW230636   1.528   3.101   8.119 -0.4284  1.0123 -0.5897
 6392SOL     OW30637   0.730   0.677  12.745  0.6989  0.2119 -0.0484
 6392SOL    HW130638   0.749   0.588  12.777 -2.7000 -0.8744 -1.1245
 6392SOL    HW230639   0.635   0.684  12.745  0.8512  2.1252  0.3739
 6393SOL     OW30640   2.482   0.667   3.412 -0.0318  0.5612 -0.5231
 6393SOL    HW130641   2.481   0.720   3.491  1.3977  0.4980 -0.4659
 6393SOL    HW230642   2.561   0.617   3.434 -0.8446  0.1844  1.5191
 6394SOL     OW30643   0.565   2.829   7.224 -0.3496 -0.2368  0.0125
 6394SOL    HW130644   0.593   2.873   7.304  0.6154 -1.2897  0.2531
 6394SOL    HW230645   0.643   2.837   7.169  2.0305  1.9990  3.7026
 6395SOL     OW30646   2.816   4.152   8.541 -0.4309  0.0648 -0.4238
 6395SOL    HW130647   2.870   4.221   8.501 -0.8048 -1.4856 -3.5798
 6395SOL    HW230648   2.888   4.091   8.558 -0.0373  0.4908 -0.5440
 6396SOL     OW30649   1.149   3.485   7.835  0.9248 -0.2692 -0.0646
 6396SOL    HW130650   1.245   3.479   7.836  0.9804  0.7301  0.1455
 6396SOL    HW230651   1.138   3.516   7.925 -0.8216 -0.6833 -0.1494
 6397SOL     OW30652   3.854   2.477   1.959  1.0374 -0.1374 -0.4598
 6397SOL    HW130653   3.903   2.529   2.023 -1.7610  1.2949  0.5068
 6397SOL    HW230654   3.907   2.504   1.884  1.5824 -0.0623 -0.0494
 6398SOL     OW30655   0.535   4.533   8.984  0.2207  0.2081  0.1866
 6398SOL    HW130656   0.519   4.577   9.068 -0.1317 -0.6142  0.5520
 6398SOL    HW230657   0.615   4.483   8.998  0.5039  1.0333  1.5364
 6399SOL     OW30658   3.389   2.320   9.155 -0.0127 -0.3352  0.4647
 6399SOL    HW130659   3.315   2.380   9.154  0.1976 -0.0247  2.9848
 6399SOL    HW230660   3.416   2.319   9.247  0.7572 -0.6931  0.2333
 6400SOL     OW30661   0.396   2.186   2.510  0.3516  0.4369  0.4330
 6400SOL    HW130662   0.348   2.266   2.490  0.9817  0.9986  1.1558
 6400SOL    HW230663   0.419   2.204   2.601  0.1598 -0.2664  0.6208
 6401SOL     OW30664   0.312   2.470   5.184 -0.6372 -0.1017  0.4376
 6401SOL    HW130665   0.346   2.460   5.273  0.7286 -0.1441 -0.0923
 6401SOL    HW230666   0.337   2.561   5.173  2.6410 -0.8959  1.1199
 6402SOL     OW30667   0.675   2.997   4.697 -0.3906  0.2681  0.1088
 6402SOL    HW130668   0.739   2.988   4.626 -1.2353 -1.4240 -0.4317
 6402SOL    HW230669   0.718   3.054   4.762  0.0441 -2.8238  2.5282
 6403SOL     OW30670   2.360   2.337   3.483 -0.1271  0.0007  0.7232
 6403SOL    HW130671   2.313   2.411   3.522  2.1866  0.7080  2.2038
 6403SOL    HW230672   2.385   2.372   3.397  0.1238 -1.0014  0.3825
 6404SOL     OW30673   2.975   4.368   8.469 -0.3671 -0.3450 -0.0882
 6404SOL    HW130674   3.013   4.370   8.557  1.3965  0.9200 -0.8842
 6404SOL    HW230675   2.948   4.459   8.464 -0.9685 -0.5105  0.1658
 6405SOL     OW30676   4.596   1.435   4.310  0.7193 -0.4872 -0.4079
 6405SOL    HW130677   4.505   1.411   4.293 -0.0996  0.7475  2.1187
 6405SOL    HW230678   4.590   1.505   4.375  4.8851 -1.6278  1.2135
 6406SOL     OW30679   0.952   4.605   7.588 -0.3990 -0.0993  0.4639
 6406SOL    HW130680   0.999   4.598   7.505  2.0428  2.0270  1.6247
 6406SOL    HW230681   0.863   4.624   7.559 -1.0990 -1.2941  1.8604
 6407SOL     OW30682   1.039   4.480   9.321  0.5086  0.5567  0.1397
 6407SOL    HW130683   0.950   4.491   9.353  0.0398 -1.2767 -0.5737
 6407SOL    HW230684   1.039   4.411   9.254 -0.1576  1.0490 -0.3673
 6408SOL     OW30685   1.313   1.396   7.938  0.2597  0.2966  0.0255
 6408SOL    HW130686   1.291   1.476   7.891 -0.2489 -1.3249 -2.4870
 6408SOL    HW230687   1.240   1.336   7.923  0.8176 -0.4270  0.1586
 6409SOL     OW30688   0.679   3.300   1.134 -1.0706  0.0863 -0.7001
 6409SOL    HW130689   0.631   3.382   1.119  0.6684  1.0395 -1.0416
 6409SOL    HW230690   0.612   3.238   1.164 -1.9927  1.4466  0.0627
 6410SOL     OW30691   1.070   0.832  10.886 -0.0883 -0.3990 -0.3474
 6410SOL    HW130692   1.005   0.779  10.932  0.0270  0.1487  0.4670
 6410SOL    HW230693   1.125   0.764  10.846  2.3057  0.9036  0.6795
 6411SOL     OW30694   0.571   3.461   5.701 -0.6439  0.0571  0.4208
 6411SOL    HW130695   0.576   3.367   5.715 -1.2343  0.0314  0.4665
 6411SOL    HW230696   0.541   3.456   5.610 -0.2141 -0.2319  0.2986
 6412SOL     OW30697   3.326   0.058  13.266  0.3706  0.1457 -0.4711
 6412SOL    HW130698   3.263   4.711  13.285 -0.6078  1.3017  0.5262
 6412SOL    HW230699   3.344   0.093  13.353  0.2660  1.4198 -0.9547
 6413SOL     OW30700   2.072   3.622  11.205  0.0700 -0.0420  0.3999
 6413SOL    HW130701   2.076   3.557  11.134  1.9808 -0.8515  1.2318
 6413SOL    HW230702   2.066   3.697  11.146  0.4343 -0.9385 -0.7834
 6414SOL     OW30703   2.658   0.561  11.991  0.1534  0.0299  0.2577
 6414SOL    HW130704   2.698   0.488  12.038 -0.4064 -0.4399  0.0085
 6414SOL    HW230705   2.618   0.518  11.915 -0.3511 -2.6984  2.0488
 6415SOL     OW30706   4.167   0.698   4.714  0.0506 -0.0783 -0.4508
 6415SOL    HW130707   4.151   0.778   4.665 -0.9053 -0.8166 -1.3504
 6415SOL    HW230708   4.239   0.717   4.775 -0.1627 -0.9691  0.0831
 6416SOL     OW30709   2.335   0.226   3.359 -0.5804  0.5465  0.0952
 6416SOL    HW130710   2.355   0.133   3.367 -0.2898  0.8040  2.2814
 6416SOL    HW230711   2.313   0.238   3.266 -0.7391  0.3597  0.1096
 6417SOL     OW30712   4.691   3.774   8.584 -0.2767  0.4585  0.7342
 6417SOL    HW130713   4.608   3.814   8.612  1.3446  2.4191  2.7449
 6417SOL    HW230714   4.691   3.785   8.489  0.0443  3.8238  1.1033
 6418SOL     OW30715   1.615   4.039   5.367  0.1842  0.1842 -0.1257
 6418SOL    HW130716   1.524   4.041   5.336  0.1691 -1.7811 -0.2410
 6418SOL    HW230717   1.656   4.081   5.292  0.6730 -0.9247 -0.4762
 6419SOL     OW30718   3.272   2.903   6.450 -0.5993 -0.2336  0.4981
 6419SOL    HW130719   3.178   2.891   6.465 -0.4892 -1.9358 -0.1313
 6419SOL    HW230720   3.282   2.820   6.403 -2.9361 -1.1334  1.5960
 6420SOL     OW30721   0.913   3.542  13.671  0.3174 -0.4063 -0.1171
 6420SOL    HW130722   0.946   3.613  13.726  1.5142 -2.8621  2.3546
 6420SOL    HW230723   0.831   3.573  13.631  0.4356 -0.3629 -0.3225
 6421SOL     OW30724   0.344   2.653  14.927  0.2848 -0.3530  0.2871
 6421SOL    HW130725   0.405   2.726  14.932  1.3138 -1.1813 -0.0963
 6421SOL    HW230726   0.258   2.694  14.920 -0.2170 -1.4187  0.2462
 6422SOL     OW30727   1.722   4.004  13.050  0.3994  0.0113 -0.0634
 6422SOL    HW130728   1.654   3.950  13.009 -0.6604 -0.9516  2.9811
 6422SOL    HW230729   1.793   3.940  13.061 -0.1262 -0.7569 -1.1698
 6423SOL     OW30730   4.414   2.598   7.999  0.0832 -0.9382  0.6934
 6423SOL    HW130731   4.456   2.684   7.993  0.7100 -1.3953 -1.5534
 6423SOL    HW230732   4.486   2.543   7.969  1.2949 -0.0534  2.0318
 6424SOL     OW30733   3.407   0.956   1.853 -0.6459 -0.7763 -0.0600
 6424SOL    HW130734   3.462   0.972   1.776 -0.4982 -1.5803 -0.1214
 6424SOL    HW230735   3.327   0.915   1.819 -0.7227  1.5152 -2.6147
 6425SOL     OW30736   2.691   3.849   2.436  0.4214  0.0721  0.0413
 6425SOL    HW130737   2.689   3.761   2.474  1.3253  1.3504  3.0218
 6425SOL    HW230738   2.683   3.904   2.514  1.9560  0.7465 -0.2937
 6426SOL     OW30739   2.007   0.750  17.036  0.1448  0.0647  0.3110
 6426SOL    HW130740   2.087   0.794  17.007  1.6504 -2.0218  1.3011
 6426SOL    HW230741   2.026   0.657  17.026  0.5467  0.0668  1.0463
 6427SOL     OW30742   2.966   1.244   1.391 -0.4848 -0.3630  0.8911
 6427SOL    HW130743   3.017   1.305   1.445 -0.5642  0.0512  0.5064
 6427SOL    HW230744   3.027   1.227   1.319 -0.3262  0.4694  0.8231
 6428SOL     OW30745   2.900   2.057   2.995  0.2816 -0.2461  0.3453
 6428SOL    HW130746   2.963   2.008   2.942  0.8723  1.2317 -0.3134
 6428SOL    HW230747   2.896   2.139   2.947 -0.5673  0.1158  1.0372
 6429SOL     OW30748   3.617   4.254  14.219  0.1039 -0.2126  0.5506
 6429SOL    HW130749   3.564   4.254  14.298  1.5822  0.6375  1.5390
 6429SOL    HW230750   3.663   4.170  14.223  0.0319 -0.2577  0.4233
 6430SOL     OW30751   1.191   4.032   4.735  0.6105  0.2788 -0.4307
 6430SOL    HW130752   1.219   4.046   4.645  0.4802  0.6887 -0.4040
 6430SOL    HW230753   1.188   4.121   4.768 -2.0193 -0.4330  1.2518
 6431SOL     OW30754   1.821   3.632   5.869  0.1697 -0.4740  0.3055
 6431SOL    HW130755   1.762   3.559   5.855 -3.9574  3.2326 -1.5011
 6431SOL    HW230756   1.791   3.693   5.801  1.1009 -0.6810 -0.2942
 6432SOL     OW30757   3.004   1.569   7.633  0.6032 -0.4556  0.2497
 6432SOL    HW130758   3.049   1.654   7.632  1.9493 -1.1608  0.8603
 6432SOL    HW230759   3.077   1.510   7.649  0.2622 -0.7820  0.5915
 6433SOL     OW30760   4.460   1.160   4.066  0.1402  0.1834  0.2621
 6433SOL    HW130761   4.468   1.252   4.090 -1.0414  0.7210 -1.4235
 6433SOL    HW230762   4.443   1.166   3.972  1.8036 -1.4723 -0.1432
 6434SOL     OW30763   1.983   3.695   6.850 -0.7459  0.4578 -0.0674
 6434SOL    HW130764   1.982   3.789   6.832  0.5726 -0.2875 -3.8328
 6434SOL    HW230765   2.007   3.706   6.942  0.8597  3.1635 -0.8228
 6435SOL     OW30766   0.711   2.750   4.421 -0.3072 -0.0091 -0.7041
 6435SOL    HW130767   0.732   2.731   4.329 -1.4960 -2.1755 -0.5265
 6435SOL    HW230768   0.616   2.746   4.419 -0.3051  1.5666 -5.7243
 6436SOL     OW30769   1.892   1.853  12.059 -0.5133  0.0178  0.3444
 6436SOL    HW130770   1.840   1.834  12.137 -0.5390  3.6677  1.2198
 6436SOL    HW230771   1.925   1.764  12.047 -1.3364 -0.0527 -1.4858
 6437SOL     OW30772   4.681   4.700  10.633  0.4734  0.2704  0.3231
 6437SOL    HW130773   0.036   4.658  10.597  0.6453  2.0248 -1.3585
 6437SOL    HW230774   4.701   0.070  10.633 -1.3192  0.6488 -1.1318
 6438SOL     OW30775   4.133   0.598   1.187 -0.1391 -0.3355 -0.6719
 6438SOL    HW130776   4.210   0.642   1.223 -0.2708 -0.9138  0.3286
 6438SOL    HW230777   4.163   0.509   1.170  1.0922  0.1358 -1.0182
 6439SOL     OW30778   2.971   2.991   4.096  0.1933  0.1691 -0.1748
 6439SOL    HW130779   2.875   3.000   4.094  0.1387 -0.3398  0.4770
 6439SOL    HW230780   2.977   2.896   4.094 -4.0178 -0.1328  0.8646
 6440SOL     OW30781   1.904   2.193  13.924 -0.6878  0.2980  0.3684
 6440SOL    HW130782   1.820   2.237  13.906 -0.7653 -0.0140 -0.0304
 6440SOL    HW230783   1.875   2.128  13.987 -3.1448 -0.2373 -1.3154
 6441SOL     OW30784   0.919   3.343   4.851 -0.3293 -0.1088  0.8682
 6441SOL    HW130785   0.889   3.253   4.862 -2.2387  0.3785 -0.3137
 6441SOL    HW230786   0.896   3.378   4.937 -2.5125 -0.2640  0.3329
 6442SOL     OW30787   3.626   1.978   3.981  0.3133 -0.4116 -0.2467
 6442SOL    HW130788   3.564   2.050   3.966  0.6654 -0.0696 -0.0550
 6442SOL    HW230789   3.704   2.029   3.964 -0.9555  1.4397 -0.5431
 6443SOL     OW30790   0.455   0.762   5.463  0.2757 -0.3698 -0.1395
 6443SOL    HW130791   0.398   0.779   5.388 -0.6051  1.0040  0.8588
 6443SOL    HW230792   0.417   0.680   5.495 -2.4395  1.1527  0.5269
 6444SOL     OW30793   1.633   1.197   7.824 -0.1752  0.6810  0.3447
 6444SOL    HW130794   1.638   1.107   7.793  1.2645  0.8384  0.1334
 6444SOL    HW230795   1.716   1.226   7.785  1.5561 -2.4563  1.7116
 6445SOL     OW30796   0.862   4.606  11.489 -0.5426 -0.3775  0.0107
 6445SOL    HW130797   0.877   4.613  11.394 -0.0959 -0.8455  0.0460
 6445SOL    HW230798   0.799   4.676  11.506 -0.1995  0.6377 -2.7555
 6446SOL     OW30799   4.500   4.292   5.169  0.1801  0.3617  0.0830
 6446SOL    HW130800   4.476   4.305   5.077  2.4140  2.0850 -0.2645
 6446SOL    HW230801   4.416   4.260   5.203  0.4448 -0.5760 -0.1554
 6447SOL     OW30802   1.824   2.044  11.883 -0.0004 -0.2772  0.3807
 6447SOL    HW130803   1.836   1.971  11.944  2.1389 -1.0601 -0.9594
 6447SOL    HW230804   1.755   2.009  11.827  0.3672 -0.8276  0.2615
 6448SOL     OW30805   1.518   3.496  17.010 -0.3627  0.4070 -0.4431
 6448SOL    HW130806   1.470   3.568  17.050  1.2268 -0.1176  2.4036
 6448SOL    HW230807   1.473   3.499  16.925 -0.5432  0.4277 -0.3468
 6449SOL     OW30808   3.754   0.072   5.195  0.0522 -0.4075  0.0468
 6449SOL    HW130809   3.739   0.128   5.271 -0.7568 -0.0512 -0.3791
 6449SOL    HW230810   3.721   4.713   5.232  0.4287 -1.1316 -1.2213
 6450SOL     OW30811   4.626   1.637   0.008  0.0217  0.1732 -0.0806
 6450SOL    HW130812   4.541   1.656   0.048  1.3007  0.1351  2.5916
 6450SOL    HW230813   4.625   1.543   0.029 -0.5084  0.3838  0.8103
 6451SOL     OW30814   0.927   3.257   3.459  0.0250  0.0225 -0.0936
 6451SOL    HW130815   0.866   3.270   3.533  2.0270  2.2950  1.1499
 6451SOL    HW230816   0.929   3.349   3.434 -0.7825 -0.1681 -0.8634
 6452SOL     OW30817   4.152   2.447   5.009  0.5291 -0.6457  0.6008
 6452SOL    HW130818   4.191   2.371   4.966 -2.0379 -1.8468  0.3943
 6452SOL    HW230819   4.227   2.495   5.045  0.3423 -0.9870  1.4453
 6453SOL     OW30820   1.473   1.581   7.461 -0.4725  0.4845 -0.6497
 6453SOL    HW130821   1.512   1.579   7.373  0.1088 -0.0347 -0.3740
 6453SOL    HW230822   1.457   1.489   7.477  0.1984  0.6181  0.7225
 6454SOL     OW30823   1.652   4.211   1.339  0.6048 -0.2180  0.1659
 6454SOL    HW130824   1.561   4.240   1.339  0.1748 -1.5507 -0.9612
 6454SOL    HW230825   1.693   4.296   1.356 -0.2921  0.2770 -0.1393
 6455SOL     OW30826   1.018   1.333   8.903  0.3125  0.2515  0.0885
 6455SOL    HW130827   1.065   1.328   8.986 -0.9667 -1.6214  0.6926
 6455SOL    HW230828   1.069   1.287   8.837 -1.5179 -1.0438 -0.4132
 6456SOL     OW30829   1.364   1.846   7.558 -1.3367  0.2132 -0.3240
 6456SOL    HW130830   1.458   1.828   7.569 -1.8529 -1.9433  0.6736
 6456SOL    HW230831   1.340   1.760   7.522  1.2872  0.2885 -2.2706
 6457SOL     OW30832   2.730   2.959   3.293 -0.3457  0.3109  0.6127
 6457SOL    HW130833   2.647   2.921   3.266 -1.2012  0.2439  3.3118
 6457SOL    HW230834   2.710   3.045   3.331 -0.4347 -0.0018  1.2689
 6458SOL     OW30835   3.359   0.148   4.341 -0.5368 -0.4605  0.1766
 6458SOL    HW130836   3.300   0.220   4.361  1.0774  0.6165  1.1047
 6458SOL    HW230837   3.342   0.086   4.412  0.6595 -1.7851 -0.6811
 6459SOL     OW30838   0.817   1.441  11.085  0.0594 -0.2056 -0.4221
 6459SOL    HW130839   0.779   1.503  11.148 -0.0446  0.1097 -0.7946
 6459SOL    HW230840   0.735   1.401  11.056 -1.4797  1.5558  1.4848
 6460SOL     OW30841   1.677   4.435   2.704  0.6738  0.0599 -0.3780
 6460SOL    HW130842   1.719   4.415   2.620 -0.6995  0.0580 -1.0499
 6460SOL    HW230843   1.734   4.504   2.739 -2.0397  1.0693  2.0018
 6461SOL     OW30844   3.574   1.523   5.129 -0.0391  0.3456  0.3238
 6461SOL    HW130845   3.496   1.536   5.074  1.1676  1.3471 -1.1450
 6461SOL    HW230846   3.595   1.611   5.159 -2.6666  0.2440  2.4438
 6462SOL     OW30847   1.417   1.160   6.067  0.3595  0.6894  0.6326
 6462SOL    HW130848   1.443   1.167   5.976  0.5819 -0.2821  0.6179
 6462SOL    HW230849   1.362   1.238   6.070 -2.3858 -1.2336 -0.1523
 6463SOL     OW30850   1.203   4.175   3.845  0.1261  0.5796 -0.3698
 6463SOL    HW130851   1.248   4.133   3.771 -1.8858 -2.2995  0.0308
 6463SOL    HW230852   1.116   4.137   3.832  1.2470 -2.5353  1.3627
 6464SOL     OW30853   0.235   4.203   4.838  0.1492 -0.1152  0.0161
 6464SOL    HW130854   0.205   4.133   4.781  1.3420 -1.1147  0.6060
 6464SOL    HW230855   0.256   4.267   4.770  0.2739 -0.0115  0.1510
 6465SOL     OW30856   4.307   1.995   8.716  0.4024  0.1449  0.9988
 6465SOL    HW130857   4.292   2.089   8.705  2.5087  0.1390 -1.9786
 6465SOL    HW230858   4.273   1.971   8.802  0.0332 -0.8841  0.5615
 6466SOL     OW30859   3.647   2.601  15.840 -0.8611 -0.1326 -0.4816
 6466SOL    HW130860   3.718   2.567  15.786 -0.1818  0.3697  0.0974
 6466SOL    HW230861   3.691   2.661  15.900 -1.3495  0.6765 -0.9367
 6467SOL     OW30862   0.058   0.664   5.472  0.0090  0.0589  0.3290
 6467SOL    HW130863   0.004   0.615   5.410 -1.1970  0.1128  1.3592
 6467SOL    HW230864   0.053   0.750   5.430 -1.1569  0.3377  1.0665
 6468SOL     OW30865   3.086   2.569  10.264 -0.0759  0.0931 -0.2118
 6468SOL    HW130866   3.067   2.655  10.301  0.1895 -0.0843  0.3258
 6468SOL    HW230867   3.179   2.579  10.242 -0.4459 -0.3451 -1.9747
 6469SOL     OW30868   2.021   1.538   9.589 -0.0582 -0.0562 -0.3997
 6469SOL    HW130869   1.983   1.489   9.662 -0.1455 -1.5537 -1.4505
 6469SOL    HW230870   2.099   1.568   9.635 -1.7154 -0.1977  2.4968
 6470SOL     OW30871   2.349   3.493   3.244  0.1599  0.4367  0.6201
 6470SOL    HW130872   2.347   3.533   3.157 -0.2192  0.9320  0.8590
 6470SOL    HW230873   2.260   3.505   3.277 -0.3974 -0.0217 -0.6842
 6471SOL     OW30874   3.236   3.761  11.397 -0.3110 -0.2144 -0.0889
 6471SOL    HW130875   3.194   3.846  11.382 -0.9374 -0.2386  1.5082
 6471SOL    HW230876   3.159   3.729  11.443 -0.9959  0.8496 -0.4892
 6472SOL     OW30877   3.440   2.567   4.960  0.5650  0.1962  0.1242
 6472SOL    HW130878   3.389   2.646   4.978  0.4157 -0.3121  1.9346
 6472SOL    HW230879   3.370   2.504   4.943 -0.4844  2.0640 -2.3832
 6473SOL     OW30880   1.150   0.845  11.919 -0.0091 -0.4280 -0.4979
 6473SOL    HW130881   1.079   0.815  11.864 -0.5879 -0.6226  0.3483
 6473SOL    HW230882   1.187   0.761  11.946  0.2212 -0.3402 -0.5370
 6474SOL     OW30883   0.613   2.235  15.657 -0.1603 -0.5332  0.0317
 6474SOL    HW130884   0.623   2.140  15.653 -0.0083 -0.4501 -1.6070
 6474SOL    HW230885   0.534   2.243  15.710  0.0936  0.1939  0.3050
 6475SOL     OW30886   4.574   1.118  13.430  0.1099 -0.4782 -0.0230
 6475SOL    HW130887   4.610   1.139  13.516  0.2493 -0.1586 -0.1595
 6475SOL    HW230888   4.644   1.064  13.393 -0.3404 -0.5756 -0.7244
 6476SOL     OW30889   2.527   1.151   4.773 -0.3299 -0.0640 -0.1378
 6476SOL    HW130890   2.477   1.095   4.713  0.7167 -0.5998 -0.5370
 6476SOL    HW230891   2.482   1.234   4.764 -1.7229 -0.3131  4.5131
 6477SOL     OW30892   0.490   0.264  11.498 -0.4577  0.0514 -1.2179
 6477SOL    HW130893   0.404   0.223  11.483  0.6532 -2.0066 -1.9959
 6477SOL    HW230894   0.529   0.177  11.489 -1.2791 -0.4469  0.0744
 6478SOL     OW30895   4.050   3.728  12.802 -0.5624 -0.5324  0.4447
 6478SOL    HW130896   3.978   3.769  12.850 -0.2764  0.0278  0.3873
 6478SOL    HW230897   4.042   3.773  12.717  0.7003 -1.2644 -0.0646
 6479SOL     OW30898   2.970   3.901   0.533  0.6078  0.3304 -0.3524
 6479SOL    HW130899   2.910   3.974   0.518 -1.0051 -1.2040 -1.5054
 6479SOL    HW230900   3.036   3.931   0.594 -0.4617  2.4412 -0.2355
 6480SOL     OW30901   1.032   0.187   6.414 -0.4654 -0.0791  0.6464
 6480SOL    HW130902   0.974   0.163   6.342 -2.7025  0.6633  2.2080
 6480SOL    HW230903   1.092   0.247   6.369  0.6028 -1.0963  0.7358
 6481SOL     OW30904   0.312   2.167   6.779 -0.4781 -0.0026  0.3920
 6481SOL    HW130905   0.314   2.073   6.766  0.9467  0.2491 -1.3086
 6481SOL    HW230906   0.370   2.202   6.711  1.2098  1.2394  2.4649
 6482SOL     OW30907   1.324   3.386  15.345 -0.2229  0.0905 -0.0760
 6482SOL    HW130908   1.234   3.364  15.366  0.6712 -2.0245  1.5599
 6482SOL    HW230909   1.322   3.417  15.255  0.1729 -1.3035 -0.5759
 6483SOL     OW30910   1.163   2.469   4.111  0.1989  0.6623  0.5750
 6483SOL    HW130911   1.214   2.402   4.156 -2.0967 -2.6854 -1.7867
 6483SOL    HW230912   1.083   2.426   4.078 -0.1087  1.7805 -0.1475
 6484SOL     OW30913   2.917   3.150   7.137 -0.4820 -0.2581 -0.5534
 6484SOL    HW130914   2.998   3.173   7.182 -1.7016  1.6070  0.6778
 6484SOL    HW230915   2.858   3.211   7.181 -1.3516 -1.5597  0.1155
 6485SOL     OW30916   3.435   3.477   6.278 -0.3008  0.1505 -0.0026
 6485SOL    HW130917   3.439   3.451   6.370  1.7071 -0.3810 -0.2384
 6485SOL    HW230918   3.514   3.530   6.270  0.0575 -0.7741 -2.6924
 6486SOL     OW30919   0.472   4.523   2.517  0.0322 -0.4042 -0.2472
 6486SOL    HW130920   0.517   4.490   2.439  2.7639  1.1748  0.6644
 6486SOL    HW230921   0.493   4.616   2.516  0.9245 -0.5909  1.0331
 6487SOL     OW30922   4.255   1.423   3.943  0.6195 -0.1166  0.0350
 6487SOL    HW130923   4.193   1.487   3.907  0.3765  0.0115  0.6795
 6487SOL    HW230924   4.192   1.351   3.943  0.9046 -0.3658  0.4561
 6488SOL     OW30925   2.907   1.657   9.627  0.0984 -0.2602 -0.3510
 6488SOL    HW130926   2.900   1.598   9.702 -1.1237  1.5404  0.9510
 6488SOL    HW230927   2.838   1.722   9.641  0.0703  0.0325 -1.7680
 6489SOL     OW30928   3.545   3.430   4.975  0.4943 -0.5473  0.2317
 6489SOL    HW130929   3.461   3.388   4.953  1.2900 -1.0004 -2.0296
 6489SOL    HW230930   3.578   3.380   5.049  0.4060  2.0750  2.0227
 6490SOL     OW30931   2.030   1.853   8.624  0.0978  0.5613 -0.0378
 6490SOL    HW130932   2.085   1.796   8.678  0.3733 -1.1669 -2.1362
 6490SOL    HW230933   2.012   1.924   8.685  0.8950  0.1787  0.6476
 6491SOL     OW30934   2.141   4.704   8.911 -0.9933  0.6646  0.3536
 6491SOL    HW130935   2.212   0.027   8.955 -0.8633 -1.2962  2.1723
 6491SOL    HW230936   2.126   0.040   8.836  0.6565  0.7179  0.0716
 6492SOL     OW30937   1.579   3.576   4.117  0.2076  0.7158  0.3326
 6492SOL    HW130938   1.488   3.557   4.137  0.5012  0.9611  1.8694
 6492SOL    HW230939   1.620   3.522   4.184  0.1299  1.9052  1.3316
 6493SOL     OW30940   3.536   4.545   9.782 -0.1383  0.0659  0.1264
 6493SOL    HW130941   3.610   4.585   9.737  0.8879 -2.8487 -0.7365
 6493SOL    HW230942   3.466   4.529   9.719  1.8974 -2.4126 -1.4769
 6494SOL     OW30943   0.455   4.645   9.560  0.0701 -0.0893 -0.1151
 6494SOL    HW130944   0.521   4.713   9.571 -2.2606  2.6337 -2.9008
 6494SOL    HW230945   0.377   4.688   9.524  0.4093  0.1496 -0.5561
 6495SOL     OW30946   3.767   2.400   4.794 -0.7488 -0.0375  0.1660
 6495SOL    HW130947   3.714   2.455   4.736 -0.5526  1.7522  1.6520
 6495SOL    HW230948   3.786   2.330   4.732  2.1423 -0.3947  1.4500
 6496SOL     OW30949   0.319   0.238  12.150 -0.6030  0.1393 -0.0371
 6496SOL    HW130950   0.248   0.202  12.097  0.4536 -1.3538 -0.4698
 6496SOL    HW230951   0.332   0.170  12.216  1.5780  0.3810 -0.1966
 6497SOL     OW30952   3.413   2.859   8.545  0.1156  0.0946  0.0124
 6497SOL    HW130953   3.434   2.903   8.463  0.7012 -2.1248 -1.0254
 6497SOL    HW230954   3.463   2.778   8.542  0.2274  0.0915  1.9489
 6498SOL     OW30955   1.756   1.026   4.154  0.2404 -0.1150  0.3708
 6498SOL    HW130956   1.758   1.074   4.237  0.4754 -0.8956  0.8237
 6498SOL    HW230957   1.729   1.098   4.097  1.8199  0.3916  0.2538
 6499SOL     OW30958   2.168   1.017   8.163 -0.2582  0.0983 -0.5827
 6499SOL    HW130959   2.126   0.999   8.248  3.8209  1.7351  1.7644
 6499SOL    HW230960   2.224   0.940   8.162 -0.2777  0.0611  1.0213
 6500SOL     OW30961   4.108   4.588   5.822 -0.4677  0.1191 -0.6958
 6500SOL    HW130962   4.067   4.644   5.887  2.2603  0.3656  0.8367
 6500SOL    HW230963   4.087   4.502   5.859 -1.8258  0.1243 -1.4753
 6501SOL     OW30964   2.187   1.318  14.131 -0.1489 -0.1021 -0.1548
 6501SOL    HW130965   2.117   1.254  14.142  0.1342 -0.6833 -1.8481
 6501SOL    HW230966   2.234   1.296  14.212  0.1988  0.4025 -0.2145
 6502SOL     OW30967   0.401   3.633   6.073  0.5007  0.3133 -0.1738
 6502SOL    HW130968   0.383   3.588   6.156  0.8505  1.1341  0.3523
 6502SOL    HW230969   0.390   3.727   6.091 -0.7554  0.1665 -0.1802
 6503SOL     OW30970   0.515   3.134   3.311 -0.1209  0.6076 -0.4774
 6503SOL    HW130971   0.602   3.098   3.328  0.5317  1.1637 -2.6214
 6503SOL    HW230972   0.473   3.115   3.395  2.0307  0.5681  0.5809
 6504SOL     OW30973   1.502   3.620   0.110  0.1651  0.5225  0.3895
 6504SOL    HW130974   1.496   3.584   0.022 -2.0653  0.9316  0.3845
 6504SOL    HW230975   1.472   3.711   0.104  0.4365  0.5193 -0.9506
 6505SOL     OW30976   1.904   1.425   3.508 -0.2044  0.3793  0.3534
 6505SOL    HW130977   1.865   1.481   3.576  0.7044 -2.0210  2.8751
 6505SOL    HW230978   1.824   1.399   3.463 -1.2926 -0.7379  2.9326
 6506SOL     OW30979   0.151   4.031   4.636  0.3068 -0.1009 -0.3367
 6506SOL    HW130980   0.186   4.088   4.568  1.4838 -1.3739 -0.7970
 6506SOL    HW230981   0.113   3.968   4.575 -2.1488 -0.3262  1.3860
 6507SOL     OW30982   0.067   4.071   6.184  0.1805 -0.3596 -0.0401
 6507SOL    HW130983   0.109   4.119   6.113 -0.6156 -0.9033 -0.8903
 6507SOL    HW230984   0.132   4.082   6.252  0.7752 -0.0381 -0.6572
 6508SOL     OW30985   1.154   0.438   8.929  0.3337 -0.3774  0.2485
 6508SOL    HW130986   1.240   0.399   8.912  0.3300  0.1448 -1.0269
 6508SOL    HW230987   1.178   0.512   8.984  2.0308  0.1583 -1.2277
 6509SOL     OW30988   3.950   1.788  11.771 -0.2663 -0.1735 -0.1280
 6509SOL    HW130989   3.983   1.794  11.682  0.2572  0.2841  0.0938
 6509SOL    HW230990   3.934   1.694  11.770  2.5751 -0.6541  0.1257
 6510SOL     OW30991   2.421   2.178   7.044  0.1620 -0.2005  0.0900
 6510SOL    HW130992   2.509   2.153   7.015 -0.2206  0.3412 -1.5786
 6510SOL    HW230993   2.419   2.268   7.011 -2.2262 -0.8408 -1.5083
 6511SOL     OW30994   3.929   1.284   2.445 -0.2499 -0.4306  0.4495
 6511SOL    HW130995   3.884   1.206   2.412  1.0570 -0.9436 -0.1410
 6511SOL    HW230996   3.885   1.301   2.528 -0.7472  2.6200 -0.4470
 6512SOL     OW30997   1.299   4.079  12.684  0.5320  0.6197 -0.0625
 6512SOL    HW130998   1.286   4.097  12.590  0.4847  2.0267  0.2139
 6512SOL    HW230999   1.370   4.015  12.682 -0.9227 -0.9240 -1.9872
 6513SOL     OW31000   3.036   3.553   6.410  0.0944 -0.5350 -0.0460
 6513SOL    HW131001   2.975   3.609   6.459  1.8175  0.1380  1.3461
 6513SOL    HW231002   2.988   3.539   6.329 -3.0103  2.0877  1.3259
 6514SOL     OW31003   3.533   1.269  10.025 -0.0084 -0.2878  0.2580
 6514SOL    HW131004   3.528   1.331  10.098 -4.0335 -0.1748 -0.1576
 6514SOL    HW231005   3.628   1.269  10.010 -0.0388 -0.9465  0.0747
 6515SOL     OW31006   1.883   2.190   6.647 -0.7674 -0.2265  0.5398
 6515SOL    HW131007   1.806   2.169   6.595 -0.3722  0.8245 -0.4646
 6515SOL    HW231008   1.930   2.248   6.587 -0.1005 -0.5121  0.7842
 6516SOL     OW31009   0.243   0.471  15.872  0.0963  0.5059 -0.3042
 6516SOL    HW131010   0.259   0.550  15.821  0.8600 -0.1426 -1.0733
 6516SOL    HW231011   0.193   0.411  15.817  0.4853  1.6538 -1.9099
 6517SOL     OW31012   3.349   0.543   5.483 -0.1538 -0.3125  0.2124
 6517SOL    HW131013   3.401   0.579   5.555  1.5867 -2.6296  0.0949
 6517SOL    HW231014   3.372   0.611   5.420 -0.3103  0.3048  0.8224
 6518SOL     OW31015   1.384   1.708   4.649  0.6833 -0.0215  0.3620
 6518SOL    HW131016   1.469   1.708   4.693  0.2402 -0.8743  1.2058
 6518SOL    HW231017   1.416   1.719   4.559  0.9072  0.2818  0.4765
 6519SOL     OW31018   1.569   0.550  17.550 -1.0547 -0.4928 -0.4227
 6519SOL    HW131019   1.599   0.534  17.460 -1.2034  0.6133 -0.6705
 6519SOL    HW231020   1.647   0.529  17.601  0.4583  0.3569 -2.3690
 6520SOL     OW31021   1.667   0.704   5.313  0.0784  0.1188  0.0568
 6520SOL    HW131022   1.594   0.755   5.347 -1.4029 -0.1944 -2.6553
 6520SOL    HW231023   1.661   0.730   5.222  0.4969  0.6656  0.1883
 6521SOL     OW31024   4.395   0.444   5.621 -0.2697 -0.0002 -0.7504
 6521SOL    HW131025   4.403   0.429   5.715  3.5477 -0.0703 -1.0955
 6521SOL    HW231026   4.342   0.367   5.600 -1.5100  0.5878  0.2078
 6522SOL     OW31027   4.194   1.951   1.926  0.2151  0.8933 -0.0089
 6522SOL    HW131028   4.221   1.860   1.911  1.8134  1.1993  0.9550
 6522SOL    HW231029   4.283   1.982   1.946  1.1399 -1.4584 -0.4467
 6523SOL     OW31030   0.901   0.160   5.165  0.6251  0.0973 -0.1190
 6523SOL    HW131031   0.931   0.106   5.091 -0.9575 -1.1387  0.1266
 6523SOL    HW231032   0.930   0.099   5.233  2.6160 -0.4758 -1.4852
 6524SOL     OW31033   2.064   0.855   5.315 -0.7170  0.0602 -0.1170
 6524SOL    HW131034   1.984   0.870   5.366 -0.6661 -1.3971  0.3919
 6524SOL    HW231035   2.121   0.928   5.341 -0.1680 -1.2475  2.3374
 6525SOL     OW31036   3.121   4.442  17.403  0.3098 -0.0280 -0.0368
 6525SOL    HW131037   3.086   4.394  17.328  0.4647  1.2531 -0.9360
 6525SOL    HW231038   3.128   4.368  17.464 -2.7625 -0.2838  0.0192
 6526SOL     OW31039   2.046   3.759   2.345 -0.7171 -0.2310 -0.1069
 6526SOL    HW131040   2.055   3.667   2.373 -1.0912 -0.8676 -2.1031
 6526SOL    HW231041   2.082   3.751   2.257  0.8756 -2.0618  0.6904
 6527SOL     OW31042   1.156   2.477   7.178  0.2517  0.4387  0.3158
 6527SOL    HW131043   1.132   2.570   7.175 -1.0181  0.0629 -0.9017
 6527SOL    HW231044   1.079   2.425   7.159  0.7875  0.0510 -0.7953
 6528SOL     OW31045   4.106   3.635   7.847 -0.6142  0.4002  0.8060
 6528SOL    HW131046   4.139   3.557   7.803  0.2826  1.2151  0.0404
 6528SOL    HW231047   4.013   3.609   7.845 -0.8449  1.1945  1.2087
 6529SOL     OW31048   1.419   1.969  11.500 -0.9013 -0.1616  0.3115
 6529SOL    HW131049   1.397   2.060  11.482 -3.5463 -0.3639  2.5867
 6529SOL    HW231050   1.436   1.940  11.410 -0.0557  0.4495  0.2790
 6530SOL     OW31051   0.310   2.051   5.494 -0.2049  0.1780  0.1685
 6530SOL    HW131052   0.269   2.115   5.551  0.2766  1.9479 -1.4893
 6530SOL    HW231053   0.382   2.108   5.469 -0.2358  0.1238 -0.0420
 6531SOL     OW31054   0.735   3.363   6.672  0.0720 -0.2890 -0.2257
 6531SOL    HW131055   0.644   3.389   6.686  0.1350 -0.0501 -0.2458
 6531SOL    HW231056   0.742   3.356   6.577  0.0593 -1.8368 -0.0995
 6532SOL     OW31057   0.697   0.317   9.410 -0.2422  0.4041 -0.3540
 6532SOL    HW131058   0.643   0.293   9.485 -0.2938 -0.1320 -0.5634
 6532SOL    HW231059   0.785   0.303   9.446 -0.8650 -0.2191  0.9204
 6533SOL     OW31060   0.406   3.571   9.500  0.3844  0.3542 -0.1145
 6533SOL    HW131061   0.455   3.490   9.510  1.1713  0.6869 -1.3193
 6533SOL    HW231062   0.413   3.594   9.593 -0.7598  1.4769 -0.3031
 6534SOL     OW31063   2.938   0.030   9.057  0.1883 -0.1971  0.7215
 6534SOL    HW131064   3.021   0.072   9.034  1.2303 -1.6688  1.7377
 6534SOL    HW231065   2.898   0.107   9.099 -0.5175 -0.3645  0.3465
 6535SOL     OW31066   2.129   3.030   6.874 -0.0018 -0.2657  0.6029
 6535SOL    HW131067   2.065   3.079   6.822 -0.7134  0.9190  2.5837
 6535SOL    HW231068   2.208   3.046   6.822 -1.2527  1.1762 -0.8746
 6536SOL     OW31069   0.170   0.115  17.356  0.1114  0.0510 -0.1757
 6536SOL    HW131070   0.160   0.026  17.390 -4.9970  0.4244 -0.6469
 6536SOL    HW231071   0.083   0.149  17.379  0.5820  1.1991 -0.0976
 6537SOL     OW31072   2.722   0.039   1.664  0.2196 -0.3310 -0.3113
 6537SOL    HW131073   2.694   4.686   1.614 -0.4351  1.3153 -2.4405
 6537SOL    HW231074   2.650   0.098   1.640  0.7173 -1.1420 -3.8271
 6538SOL     OW31075   0.737   1.280   8.523  0.3797 -0.3179 -0.2798
 6538SOL    HW131076   0.754   1.231   8.604 -1.9520  0.2435  0.5393
 6538SOL    HW231077   0.770   1.365   8.552  0.0545 -0.3357  0.1453
 6539SOL     OW31078   2.258   1.324   1.038  0.8172  0.6729 -0.5156
 6539SOL    HW131079   2.329   1.385   1.055  1.0334  0.3230 -0.1593
 6539SOL    HW231080   2.221   1.320   1.126 -0.1046  2.4578 -0.8335
 6540SOL     OW31081   3.371   1.949   0.015  0.4185 -0.7160  0.2021
 6540SOL    HW131082   3.285   1.915  17.682 -0.5107  1.9422 -0.1297
 6540SOL    HW231083   3.356   2.041  17.690 -0.5129 -0.8365  0.3822
 6541SOL     OW31084   1.319   2.816   5.663  0.0425 -0.1666 -0.0737
 6541SOL    HW131085   1.371   2.864   5.727 -1.0833  0.8946  0.0480
 6541SOL    HW231086   1.394   2.782   5.614  0.3225  0.7450 -0.2848
 6542SOL     OW31087   0.476   1.095   8.526 -0.3616  0.3463 -0.0512
 6542SOL    HW131088   0.392   1.050   8.540 -0.2135  0.1289  0.1243
 6542SOL    HW231089   0.542   1.032   8.555  0.7403  0.6759 -1.8717
 6543SOL     OW31090   0.734   0.326   4.412 -0.1100  0.3398 -0.5843
 6543SOL    HW131091   0.727   0.233   4.433  1.7014  0.4281  0.4637
 6543SOL    HW231092   0.805   0.347   4.474 -1.4335 -1.4575  1.5059
 6544SOL     OW31093   2.703   1.432  17.685  0.1452  0.7281  0.1332
 6544SOL    HW131094   2.643   1.506  17.691 -0.5429 -0.1358  3.5908
 6544SOL    HW231095   2.785   1.478   0.011  0.9362 -1.2142  1.4009
 6545SOL     OW31096   4.458   3.456   2.126  0.1436  0.2498 -0.4672
 6545SOL    HW131097   4.544   3.488   2.151  0.0823 -0.2734  0.3862
 6545SOL    HW231098   4.438   3.496   2.041 -0.4556  0.5475 -0.1904
 6546SOL     OW31099   3.029   2.359  14.760 -0.3884 -0.0758 -0.0632
 6546SOL    HW131100   3.082   2.363  14.680  3.3242 -0.7246  2.3969
 6546SOL    HW231101   2.941   2.391  14.740 -1.4240 -2.7057  0.3430
 6547SOL     OW31102   4.616   1.708  16.410 -0.0922  0.1360  0.7668
 6547SOL    HW131103   4.687   1.676  16.353 -0.6495  0.3475 -0.0466
 6547SOL    HW231104   4.609   1.798  16.380 -1.7644  0.0915  1.0229
 6548SOL     OW31105   1.834   2.476  11.596  0.4837 -0.0615 -1.1367
 6548SOL    HW131106   1.901   2.409  11.580 -0.0280 -0.1679 -2.8198
 6548SOL    HW231107   1.769   2.443  11.659  0.4283 -0.5092 -1.4286
 6549SOL     OW31108   0.261   0.876   6.154  0.2376 -0.0774 -0.3264
 6549SOL    HW131109   0.209   0.823   6.093  2.7570 -4.3063  1.1932
 6549SOL    HW231110   0.253   0.969   6.134 -1.1539 -0.4021 -1.2825
 6550SOL     OW31111   1.375   1.798   2.162  0.7953 -0.2065 -0.1151
 6550SOL    HW131112   1.469   1.815   2.160  0.5121  1.0841 -2.4164
 6550SOL    HW231113   1.365   1.713   2.117  3.1925  0.7453 -2.4767
 6551SOL     OW31114   0.479   0.501  14.507 -0.3355  0.4964 -0.0393
 6551SOL    HW131115   0.470   0.437  14.436 -1.2813  0.5243  0.0575
 6551SOL    HW231116   0.521   0.569  14.455  0.0662 -1.1348 -1.8560
 6552SOL     OW31117   3.353   2.270   6.167  0.0482 -0.0176  0.4654
 6552SOL    HW131118   3.375   2.230   6.083  0.0327 -0.9505  0.8983
 6552SOL    HW231119   3.431   2.322   6.188  0.1396  0.3059 -0.6615
 6553SOL     OW31120   3.157   0.159   0.770  0.4751 -0.4397  0.8884
 6553SOL    HW131121   3.105   0.134   0.846 -0.5153  1.0728  0.7003
 6553SOL    HW231122   3.166   0.078   0.720  2.4971  0.5252 -0.3506
 6554SOL     OW31123   1.011   2.854   4.857  0.5947 -0.1012 -0.0853
 6554SOL    HW131124   0.927   2.823   4.823  0.7447  0.2088 -0.7423
 6554SOL    HW231125   1.056   2.782   4.901 -1.9178  0.2069  2.9769
 6555SOL     OW31126   1.822   4.503   7.090  0.0277 -0.3623  0.2225
 6555SOL    HW131127   1.823   4.412   7.059 -0.6921 -0.2263 -0.2031
 6555SOL    HW231128   1.765   4.496   7.166  1.2451  0.3994  1.2006
 6556SOL     OW31129   2.654   3.011   5.393 -0.2565 -0.0407 -0.1579
 6556SOL    HW131130   2.739   3.053   5.405  0.1095 -1.1725  1.1370
 6556SOL    HW231131   2.603   3.067   5.451  0.3015 -2.0829  2.2798
 6557SOL     OW31132   3.992   0.705   6.795  0.2116 -0.0239 -0.2018
 6557SOL    HW131133   4.054   0.632   6.784  0.5601  0.1090  0.9179
 6557SOL    HW231134   4.040   0.780   6.760  0.7988 -0.5403 -0.5254
 6558SOL     OW31135   0.042   2.970   6.511 -0.5633  0.1702  0.2458
 6558SOL    HW131136   0.109   3.038   6.517 -0.0748 -0.4328  1.5177
 6558SOL    HW231137   0.059   2.922   6.430  1.9835 -2.6358  2.4820
 6559SOL     OW31138   3.827   4.622   0.829  0.1015  0.2479  0.0980
 6559SOL    HW131139   3.862   4.601   0.916 -1.5545 -0.7246  0.5192
 6559SOL    HW231140   3.742   4.650   0.864 -1.0357 -1.8562 -1.0071
 6560SOL     OW31141   1.003   1.583  10.932  0.2572  0.4758 -0.2229
 6560SOL    HW131142   1.002   1.547  10.843 -0.6142  0.2254 -0.1173
 6560SOL    HW231143   0.927   1.540  10.971  1.3295 -2.7996 -1.7724
 6561SOL     OW31144   3.295   0.666  11.250 -0.1917  0.4278  0.0875
 6561SOL    HW131145   3.293   0.717  11.331 -1.5903 -0.1452  0.4151
 6561SOL    HW231146   3.287   0.736  11.186 -1.5018 -0.5709 -0.8414
 6562SOL     OW31147   0.753   1.461   3.945 -0.0601 -0.1825 -0.0841
 6562SOL    HW131148   0.768   1.375   3.986 -2.2608  0.1041  1.3089
 6562SOL    HW231149   0.840   1.501   3.942 -0.3843  0.6002  0.9690
 6563SOL     OW31150   0.589   1.987   2.869  0.0760  0.1479  0.5094
 6563SOL    HW131151   0.577   2.065   2.815 -0.1390 -0.8287 -0.8494
 6563SOL    HW231152   0.597   2.046   2.943  1.9520 -0.4495  0.7911
 6564SOL     OW31153   2.421   3.292   9.079  0.3829 -0.1997 -0.5005
 6564SOL    HW131154   2.390   3.221   9.134  1.9545  0.6719  1.5242
 6564SOL    HW231155   2.393   3.263   8.992 -1.6565  0.0007  0.0877
 6565SOL     OW31156   0.958   3.702   2.679  0.0597 -0.4256  0.0932
 6565SOL    HW131157   0.867   3.694   2.709  0.5708  1.2538  2.1034
 6565SOL    HW231158   0.978   3.612   2.653 -1.4216 -1.1724  1.5689
 6566SOL     OW31159   2.121   2.459   2.473 -0.0684  0.3471  0.5152
 6566SOL    HW131160   2.141   2.399   2.401 -2.9633 -0.5566  0.4946
 6566SOL    HW231161   2.027   2.447   2.483 -0.1525  0.1942 -0.3941
 6567SOL     OW31162   3.762   0.879   7.449  0.3459  0.1784 -0.0343
 6567SOL    HW131163   3.847   0.835   7.442  0.6909  0.6782  1.0166
 6567SOL    HW231164   3.774   0.972   7.469 -2.2693 -0.0958  2.7924
 6568SOL     OW31165   4.293   0.473   7.083  0.1257  0.7960  0.0879
 6568SOL    HW131166   4.256   0.462   6.995  0.9441 -0.9980 -0.0404
 6568SOL    HW231167   4.240   0.421   7.143  0.0627  2.0498  1.1180
 6569SOL     OW31168   3.922   0.991   7.888 -0.1204 -0.2072  0.0130
 6569SOL    HW131169   3.894   0.972   7.978  0.9273  1.5358  0.6962
 6569SOL    HW231170   3.881   0.921   7.837 -0.6733  1.5992 -2.0279
 6570SOL     OW31171   4.682   3.940   9.867 -0.4280 -0.1310 -0.0049
 6570SOL    HW131172   0.013   3.874   9.909 -1.6065 -0.0816  1.5626
 6570SOL    HW231173   0.015   3.951   9.790 -2.8456  0.4713 -1.6862
 6571SOL     OW31174   1.562   4.499   6.529  0.3891 -0.0328 -0.1053
 6571SOL    HW131175   1.650   4.492   6.567 -1.0518  0.3696  3.2589
 6571SOL    HW231176   1.570   4.588   6.495 -1.2265  0.3470  0.5574
 6572SOL     OW31177   1.174   1.862   4.707  0.0412 -0.6064  0.0941
 6572SOL    HW131178   1.119   1.784   4.704 -0.6104 -0.0871 -1.2611
 6572SOL    HW231179   1.256   1.815   4.688 -0.1394  0.0221 -2.2402
 6573SOL     OW31180   0.558   2.362   3.374 -0.5398 -0.0733 -0.5889
 6573SOL    HW131181   0.529   2.358   3.283  0.1570  1.3235 -0.8728
 6573SOL    HW231182   0.512   2.440   3.405  3.1076  2.3820 -1.2483
 6574SOL     OW31183   0.100   4.571  12.648  0.3123  0.3670  0.0233
 6574SOL    HW131184   0.070   4.606  12.564  0.1418  1.7511  0.6598
 6574SOL    HW231185   0.110   4.653  12.698 -0.4197  1.5215 -1.7137
 6575SOL     OW31186   0.390   0.116   7.575 -0.1294  0.2374 -0.3208
 6575SOL    HW131187   0.357   0.058   7.507  1.4515 -1.5853  0.4774
 6575SOL    HW231188   0.430   0.057   7.640 -0.5178  1.3838  0.9590
 6576SOL     OW31189   4.283   3.443   8.770 -0.0262  0.5138 -0.3341
 6576SOL    HW131190   4.374   3.469   8.782 -0.6399  0.5766  4.2006
 6576SOL    HW231191   4.269   3.368   8.827  1.8592  0.5490  0.1607
 6577SOL     OW31192   4.432   0.706   4.368 -0.0789 -0.4382  0.4016
 6577SOL    HW131193   4.515   0.747   4.345 -0.6816  0.7880  0.4400
 6577SOL    HW231194   4.442   0.615   4.339  1.1979  0.2531 -1.3683
 6578SOL     OW31195   0.777   2.721   4.764  0.7578 -0.1375  0.0573
 6578SOL    HW131196   0.745   2.708   4.853 -0.1588 -0.6889 -0.3433
 6578SOL    HW231197   0.705   2.770   4.725  1.2815  0.7469  0.2184
 6579SOL     OW31198   0.862   4.266   4.684 -0.3506  0.5764  1.4306
 6579SOL    HW131199   0.908   4.249   4.602 -1.7781  1.5774  0.4334
 6579SOL    HW231200   0.785   4.314   4.655 -0.2714 -0.3407 -0.3140
 6580SOL     OW31201   1.037   1.684  16.397 -0.5332 -0.0685 -0.4087
 6580SOL    HW131202   1.039   1.619  16.326 -0.5124 -1.7617  1.1576
 6580SOL    HW231203   1.030   1.758  16.336 -2.2668 -0.1254 -0.2918
 6581SOL     OW31204   2.292   2.331   3.067  0.1192  0.6291 -0.1856
 6581SOL    HW131205   2.228   2.402   3.072 -0.4398  0.3803 -3.7142
 6581SOL    HW231206   2.373   2.375   3.093 -0.9933  1.7370  1.3979
 6582SOL     OW31207   1.271   3.765   1.358  0.5637  0.0362  0.3898
 6582SOL    HW131208   1.193   3.758   1.412 -0.2360 -0.0804 -0.7902
 6582SOL    HW231209   1.309   3.677   1.363 -0.3943 -0.3765  0.3029
 6583SOL     OW31210   3.658   4.242  12.774  0.1193  0.0347 -0.1794
 6583SOL    HW131211   3.672   4.260  12.681  2.1197 -0.1314  0.0858
 6583SOL    HW231212   3.583   4.293  12.804 -0.3076 -0.3175 -0.6464
 6584SOL     OW31213   0.609   3.559   4.285 -0.1112  0.4392  0.1128
 6584SOL    HW131214   0.646   3.643   4.314  0.9920  0.0812 -0.2568
 6584SOL    HW231215   0.684   3.525   4.236 -0.7444 -0.4752 -0.1981
 6585SOL     OW31216   1.553   2.215   9.432  0.3100 -0.3535 -0.2057
 6585SOL    HW131217   1.607   2.261   9.497  0.3381  1.3794 -1.4479
 6585SOL    HW231218   1.624   2.178   9.380 -0.1246 -1.9502  0.3514
 6586SOL     OW31219   2.470   0.122   3.124  0.4081  0.1773 -0.7292
 6586SOL    HW131220   2.478   0.138   3.030  0.0808  0.1871 -0.7546
 6586SOL    HW231221   2.464   0.027   3.117  0.2970  0.2477 -1.6024
 6587SOL     OW31222   4.041   3.245   5.293  0.3110 -0.0142  0.1763
 6587SOL    HW131223   4.051   3.319   5.233  0.8366  0.3772  0.7401
 6587SOL    HW231224   4.050   3.288   5.378 -0.2545  1.7340 -0.6518
 6588SOL     OW31225   2.336   4.443   6.033  0.5094  0.1951 -0.0616
 6588SOL    HW131226   2.240   4.448   6.032  0.3741 -1.9979  2.1756
 6588SOL    HW231227   2.323   4.359   6.077  2.1481 -1.2164 -2.3018
 6589SOL     OW31228   3.882   2.431   4.496  0.5300  1.0333 -0.1611
 6589SOL    HW131229   3.885   2.499   4.564  2.6314  0.8779 -0.0910
 6589SOL    HW231230   3.818   2.473   4.438  0.5346 -1.3047 -1.8390
 6590SOL     OW31231   1.282   1.901  16.215  0.3538  0.3362 -0.0864
 6590SOL    HW131232   1.264   1.945  16.298 -0.7674  0.2784 -0.2939
 6590SOL    HW231233   1.376   1.914  16.211  0.7746 -3.3231 -2.4311
 6591SOL     OW31234   0.079   4.492   8.736 -0.4662 -0.5173  0.0423
 6591SOL    HW131235   0.086   4.463   8.827  1.7813 -0.7318 -0.2098
 6591SOL    HW231236   4.717   4.465   8.699 -0.7788 -0.3726  0.6474
 6592SOL     OW31237   3.534   0.730  14.148  0.5279  0.4705  0.5838
 6592SOL    HW131238   3.515   0.662  14.212  2.8401 -1.4777 -0.8191
 6592SOL    HW231239   3.451   0.778  14.152 -0.4974 -0.9137 -3.2940
 6593SOL     OW31240   1.368   1.773  11.712  0.7645 -0.1958 -0.0648
 6593SOL    HW131241   1.350   1.703  11.649 -0.0232 -1.2841  1.3704
 6593SOL    HW231242   1.366   1.849  11.655  1.0323  0.6257  1.0187
 6594SOL     OW31243   4.575   3.779   0.294  0.0596  0.1036 -0.4439
 6594SOL    HW131244   4.513   3.812   0.229 -0.7883 -1.0026 -0.2114
 6594SOL    HW231245   4.588   3.691   0.259  2.3227  0.7923 -1.2914
 6595SOL     OW31246   3.793   1.256   9.991  0.0339  0.4188 -0.6552
 6595SOL    HW131247   3.855   1.221   9.927 -0.8070  0.8218 -1.6973
 6595SOL    HW231248   3.804   1.350   9.975  1.2736  0.0055 -2.2595
 6596SOL     OW31249   2.568   2.314  15.500 -0.0435  0.3672 -1.0376
 6596SOL    HW131250   2.631   2.242  15.507 -0.1077  0.3556 -0.6070
 6596SOL    HW231251   2.484   2.270  15.513  0.0186  0.8265  0.9154
 6597SOL     OW31252   4.613   3.455   0.631 -0.0875  0.1453 -0.3170
 6597SOL    HW131253   4.578   3.508   0.702 -0.9088 -0.4922 -0.2475
 6597SOL    HW231254   4.587   3.366   0.657 -2.0767  0.5001 -1.0717
 6598SOL     OW31255   1.574   3.678   8.670  0.6966 -0.2445 -0.2033
 6598SOL    HW131256   1.554   3.706   8.760 -0.2178 -1.2988 -0.0716
 6598SOL    HW231257   1.531   3.749   8.623 -0.5219 -0.0844  1.1541
 6599SOL     OW31258   3.843   3.627   7.824  0.5709 -0.0597 -0.4169
 6599SOL    HW131259   3.759   3.583   7.806  0.3053  0.4597 -0.4368
 6599SOL    HW231260   3.816   3.715   7.799 -0.6415  0.4689  2.7265
 6600SOL     OW31261   2.403   0.954   3.470 -0.6795  0.0454 -0.7314
 6600SOL    HW131262   2.488   0.920   3.442 -1.1833 -0.5740 -1.5071
 6600SOL    HW231263   2.338   0.939   3.402 -1.3849 -2.1964  0.4609
 6601SOL     OW31264   2.164   0.536   6.700 -0.2027  0.3917 -0.1412
 6601SOL    HW131265   2.185   0.604   6.764 -0.6916 -0.4334  0.8941
 6601SOL    HW231266   2.174   0.592   6.624  0.5129 -0.1094 -0.4199
 6602SOL     OW31267   3.657   3.353   8.086 -0.8921  0.2963 -0.3351
 6602SOL    HW131268   3.667   3.258   8.077 -2.1860 -0.1086  2.1834
 6602SOL    HW231269   3.596   3.375   8.016 -1.7496  2.6379  1.1337
 6603SOL     OW31270   1.081   4.170   2.883  0.3392 -0.3667 -0.0830
 6603SOL    HW131271   1.141   4.240   2.859 -0.1491 -0.5815 -1.8842
 6603SOL    HW231272   1.136   4.092   2.884 -1.0090 -1.3449 -1.9285
 6604SOL     OW31273   3.985   0.753   5.305  0.2217 -0.1555  0.4056
 6604SOL    HW131274   4.032   0.811   5.246 -0.3168 -0.2867 -0.1478
 6604SOL    HW231275   4.009   0.661   5.290 -0.0752 -0.3241  0.9347
 6605SOL     OW31276   3.805   2.069  12.162 -0.0764 -0.1572 -0.0690
 6605SOL    HW131277   3.859   2.148  12.154 -0.5099  0.2296  0.8709
 6605SOL    HW231278   3.787   2.066  12.256  0.9162  1.0864  0.1613
 6606SOL     OW31279   3.181   0.582   4.893  0.3228  0.4828 -0.0689
 6606SOL    HW131280   3.101   0.546   4.855 -0.4637  4.1441 -1.8592
 6606SOL    HW231281   3.207   0.657   4.840  1.8292  0.0400  0.0350
 6607SOL     OW31282   1.308   2.949  13.763  0.0441 -0.0866 -0.3614
 6607SOL    HW131283   1.380   2.927  13.821 -2.0153 -0.8737  1.9142
 6607SOL    HW231284   1.236   2.981  13.818  0.7722 -0.2598  0.6898
 6608SOL     OW31285   1.288   3.867   8.161 -0.5995  0.5826  0.5493
 6608SOL    HW131286   1.256   3.789   8.207 -0.4443  0.9908  1.3608
 6608SOL    HW231287   1.351   3.819   8.107  0.5435  1.0085  1.4907
 6609SOL     OW31288   3.632   1.612  12.260 -0.0434  0.1038 -0.6022
 6609SOL    HW131289   3.588   1.690  12.294  0.9202  0.3263  0.1389
 6609SOL    HW231290   3.716   1.611  12.305  0.1395  1.5772 -0.9104
 6610SOL     OW31291   1.651   2.944   6.618 -0.0048 -0.1222  0.0468
 6610SOL    HW131292   1.569   2.978   6.584  0.7888  1.8716  0.1560
 6610SOL    HW231293   1.687   2.914   6.535  2.9369 -0.3799  1.4057
 6611SOL     OW31294   0.614   1.764   6.806  0.2469 -0.0392  0.2135
 6611SOL    HW131295   0.537   1.721   6.768 -1.7619  1.5029  2.5402
 6611SOL    HW231296   0.680   1.700   6.780 -0.3111 -0.9099  0.8998
 6612SOL     OW31297   2.774   2.737   3.585  0.0908 -0.4739 -0.2957
 6612SOL    HW131298   2.851   2.710   3.535  0.2449 -0.6190  0.0173
 6612SOL    HW231299   2.799   2.825   3.612 -1.1195 -0.1426 -0.2592
 6613SOL     OW31300   1.286   4.201   7.329  0.8589  0.0902  0.1044
 6613SOL    HW131301   1.380   4.218   7.327  0.7423  0.3978 -3.3819
 6613SOL    HW231302   1.286   4.125   7.387  0.6220  0.6635  0.8485
 6614SOL     OW31303   1.212   1.997   6.721  0.0423 -0.4113 -0.0816
 6614SOL    HW131304   1.149   1.952   6.665 -0.2338 -0.6890  0.4554
 6614SOL    HW231305   1.274   1.926   6.741 -1.4183 -1.6782 -0.0516
 6615SOL     OW31306   2.495   0.655   9.185  0.2823 -0.2560 -0.3450
 6615SOL    HW131307   2.417   0.704   9.213  0.3803  0.4215 -1.2880
 6615SOL    HW231308   2.525   0.627   9.272  2.3014  0.3543 -0.8715
 6616SOL     OW31309   4.104   4.022  11.114 -0.2015  0.0252  0.1065
 6616SOL    HW131310   4.076   3.931  11.122  0.5303 -0.2509 -0.4788
 6616SOL    HW231311   4.053   4.072  11.177 -1.0507 -0.3368 -0.2906
 6617SOL     OW31312   0.845   0.107  10.897 -0.0370  0.2122  0.3068
 6617SOL    HW131313   0.794   0.033  10.929 -0.3528 -0.2839 -1.3935
 6617SOL    HW231314   0.805   0.185  10.935 -2.2669 -1.6376  1.7526
 6618SOL     OW31315   3.749   2.459   7.020 -0.7343  0.5252  0.1718
 6618SOL    HW131316   3.670   2.507   7.046 -0.5100  0.1838  1.4482
 6618SOL    HW231317   3.809   2.527   6.991  1.2067 -1.0946  0.4329
 6619SOL     OW31318   4.071   4.084   3.728 -0.8828  0.3653  0.1961
 6619SOL    HW131319   4.106   4.068   3.815  0.4485  0.7487 -0.2721
 6619SOL    HW231320   4.129   4.025   3.680  0.9262  1.9497  0.4438
 6620SOL     OW31321   0.577   3.372   4.984  0.4632 -0.4157 -0.3683
 6620SOL    HW131322   0.583   3.314   4.908  0.9158  1.1235 -1.4943
 6620SOL    HW231323   0.633   3.446   4.961  0.1797 -0.7032 -1.9645
 6621SOL     OW31324   0.395   1.981   7.694  0.2804 -0.6890 -0.3618
 6621SOL    HW131325   0.418   1.903   7.744 -3.3671  0.1601  2.6474
 6621SOL    HW231326   0.332   1.947   7.630 -0.4130  0.7349 -0.4501
 6622SOL     OW31327   3.936   0.348   2.035 -0.1414  0.0596 -0.6008
 6622SOL    HW131328   3.865   0.411   2.048 -1.3326 -0.8713 -2.4856
 6622SOL    HW231329   3.908   0.278   2.094 -0.8936 -0.0330 -1.0662
 6623SOL     OW31330   0.452   4.678   5.860  0.2411  0.1042  0.1595
 6623SOL    HW131331   0.438   4.584   5.851  2.5628  0.0055 -2.2624
 6623SOL    HW231332   0.547   4.679   5.847 -0.2125 -0.2794 -3.0791
 6624SOL     OW31333   0.944   2.774  11.481 -0.0793  0.2651 -0.6876
 6624SOL    HW131334   0.874   2.839  11.481  0.6131  1.0034 -0.4953
 6624SOL    HW231335   0.915   2.716  11.411 -2.8253  1.4814 -0.5664
 6625SOL     OW31336   1.806   1.594  14.918  0.0086 -0.5686  0.2058
 6625SOL    HW131337   1.806   1.506  14.955 -1.9149 -0.3181  0.7865
 6625SOL    HW231338   1.896   1.599  14.886 -0.1848 -2.3452 -0.6062
 6626SOL     OW31339   1.218   1.732   6.654 -0.2139  0.3245  0.1448
 6626SOL    HW131340   1.146   1.684   6.694 -0.8131  1.8768  0.9616
 6626SOL    HW231341   1.292   1.706   6.710  1.0738 -2.4411 -2.8505
 6627SOL     OW31342   2.954   3.762   8.682  0.4096 -0.1271  0.0667
 6627SOL    HW131343   3.007   3.842   8.677 -3.7524  2.6492 -0.0198
 6627SOL    HW231344   3.005   3.696   8.635 -0.0753  1.6134 -2.9296
 6628SOL     OW31345   0.856   0.119   6.206 -0.4616 -0.4801 -0.5066
 6628SOL    HW131346   0.921   0.150   6.142  0.1795 -0.6891  0.0389
 6628SOL    HW231347   0.783   0.180   6.198 -0.4103 -0.4685 -0.9132
 6629SOL     OW31348   3.514   0.837   6.668  0.2848 -0.0645 -0.3295
 6629SOL    HW131349   3.451   0.868   6.732 -0.8701 -0.5470 -1.2236
 6629SOL    HW231350   3.458   0.802   6.598  0.2788  0.0814 -0.3965
 6630SOL     OW31351   3.002   3.847   3.616 -0.0941  0.0754  0.1364
 6630SOL    HW131352   2.951   3.859   3.536  0.4304 -0.0855 -0.2209
 6630SOL    HW231353   3.051   3.769   3.591  0.0074  0.0268  0.4930
 6631SOL     OW31354   3.139   2.602   5.721  0.2161 -0.0192 -0.3324
 6631SOL    HW131355   3.134   2.690   5.684 -0.5612 -0.9443 -2.4270
 6631SOL    HW231356   3.053   2.603   5.762  0.2236  2.0180 -0.3955
 6632SOL     OW31357   0.143   1.420   4.220 -0.6124  0.0784  0.5007
 6632SOL    HW131358   0.063   1.393   4.265 -1.1018  2.5124  1.1057
 6632SOL    HW231359   0.111   1.457   4.138 -1.5474 -1.9143 -0.0222
 6633SOL     OW31360   4.299   3.091  13.462  0.3199 -0.2692  0.0273
 6633SOL    HW131361   4.278   3.093  13.555  2.2024  2.0979  0.3975
 6633SOL    HW231362   4.209   3.101  13.430 -0.4065 -1.5796  1.6293
 6634SOL     OW31363   1.145   4.204   3.235  0.0382  0.9658  0.0206
 6634SOL    HW131364   1.221   4.207   3.177  0.4610 -1.9991  0.4136
 6634SOL    HW231365   1.177   4.231   3.321  1.1076 -0.1977 -0.0044
 6635SOL     OW31366   3.765   2.489   0.562  0.0010 -0.2773 -0.2096
 6635SOL    HW131367   3.765   2.476   0.467  2.9011  1.4985 -0.4336
 6635SOL    HW231368   3.769   2.397   0.590  2.7657  0.3884  1.5440
 6636SOL     OW31369   0.190   3.906  16.184  0.3251  0.1631 -0.6496
 6636SOL    HW131370   0.270   3.922  16.235  0.7252  1.7411 -1.7910
 6636SOL    HW231371   0.224   3.888  16.096  2.0709 -2.4918  0.5770
 6637SOL     OW31372   0.432   2.202   0.505 -0.1662  0.3485  0.1467
 6637SOL    HW131373   0.342   2.224   0.527 -0.3625 -1.1076  0.7713
 6637SOL    HW231374   0.433   2.113   0.470 -0.6669 -0.2733  1.7091
 6638SOL     OW31375   4.228   2.278   8.271  0.2246 -0.2170  0.0613
 6638SOL    HW131376   4.294   2.209   8.263  0.7982  0.0968  2.0148
 6638SOL    HW231377   4.284   2.353   8.250 -1.6027  1.4803  1.1513
 6639SOL     OW31378   2.714   4.489   8.655 -0.0518 -0.1263 -0.4185
 6639SOL    HW131379   2.629   4.531   8.640 -0.1864  0.2146  1.2854
 6639SOL    HW231380   2.772   4.538   8.596 -0.8863  0.8522 -0.4248
 6640SOL     OW31381   1.546   0.863   0.813  0.4568 -0.2256 -0.1295
 6640SOL    HW131382   1.600   0.819   0.878  1.5754 -0.4865 -1.2488
 6640SOL    HW231383   1.609   0.924   0.776  0.1591 -0.2763 -0.7250
 6641SOL     OW31384   0.534   1.957   3.169 -0.3953  0.3921 -0.0437
 6641SOL    HW131385   0.588   2.035   3.160 -2.8011  2.4481  3.3112
 6641SOL    HW231386   0.601   1.897   3.202 -0.5872  0.3542  0.2739
 6642SOL     OW31387   4.675   0.154   5.148 -0.3661  0.0586 -0.3577
 6642SOL    HW131388   4.686   0.145   5.053 -1.7990 -1.3563 -0.3871
 6642SOL    HW231389   4.618   0.079   5.165  0.5893 -0.7236 -0.5657
 6643SOL     OW31390   3.779   4.519   2.507 -0.5987 -0.3864 -0.7444
 6643SOL    HW131391   3.773   4.433   2.466 -1.5502 -0.1867 -1.0393
 6643SOL    HW231392   3.702   4.517   2.564 -1.0837 -1.1487 -1.4339
 6644SOL     OW31393   3.247   1.174   2.348  0.0609 -0.2335 -0.0545
 6644SOL    HW131394   3.219   1.246   2.293 -0.5265  0.0560  0.6324
 6644SOL    HW231395   3.245   1.111   2.275 -0.3098  0.5924 -0.7503
 6645SOL     OW31396   3.462   4.082   2.960  1.0615 -0.1495 -0.5316
 6645SOL    HW131397   3.497   4.154   2.906  3.5506 -1.3644 -0.5483
 6645SOL    HW231398   3.499   4.006   2.915 -3.4261 -2.5927 -0.0346
 6646SOL     OW31399   3.665   1.548   2.110  0.1397 -0.5762  0.4590
 6646SOL    HW131400   3.632   1.459   2.121 -1.4411  0.0861  1.0735
 6646SOL    HW231401   3.673   1.544   2.015  1.8650  2.5427  0.4735
 6647SOL     OW31402   2.744   2.949   7.263 -0.3390  0.2103  0.0979
 6647SOL    HW131403   2.696   3.032   7.273  2.1460  1.5807  0.5704
 6647SOL    HW231404   2.819   2.968   7.207 -0.4469 -0.2937 -0.2136
 6648SOL     OW31405   4.391   2.909   6.126  0.4964  0.0222 -0.2018
 6648SOL    HW131406   4.333   2.907   6.049 -0.5055 -1.1346  0.5850
 6648SOL    HW231407   4.345   2.974   6.179 -0.7304 -0.8923 -0.1496
 6649SOL     OW31408   1.545   4.714   2.479  0.1783 -0.5981  0.1138
 6649SOL    HW131409   1.581   4.640   2.430  1.3962 -0.0487  0.2006
 6649SOL    HW231410   1.548   4.678   2.568  0.4499  1.7226  1.0326
 6650SOL     OW31411   0.770   1.688   3.759 -0.1588 -0.0203 -0.1631
 6650SOL    HW131412   0.751   1.615   3.818 -0.3611 -0.1901 -0.4392
 6650SOL    HW231413   0.820   1.748   3.814 -1.8881  1.5819 -0.3272
 6651SOL     OW31414   0.497   1.930   5.196  0.4709  0.4931 -0.6349
 6651SOL    HW131415   0.457   2.015   5.181  0.9809  0.8779  0.2141
 6651SOL    HW231416   0.576   1.933   5.142  0.6722  0.4468 -0.3410
 6652SOL     OW31417   4.126   2.770   0.606  0.1821  0.1188 -0.4183
 6652SOL    HW131418   4.066   2.764   0.532 -1.1424  2.2862  0.4778
 6652SOL    HW231419   4.131   2.681   0.642  0.1978  0.2043 -0.2068
 6653SOL     OW31420   1.581   3.948   6.236  0.0842 -0.4931 -0.2014
 6653SOL    HW131421   1.562   3.997   6.156 -0.0606 -0.4392 -0.1345
 6653SOL    HW231422   1.670   3.919   6.216  0.5737 -0.2901  1.7380
 6654SOL     OW31423   3.965   2.123   1.961  0.3768 -1.0251 -0.0689
 6654SOL    HW131424   4.026   2.050   1.964 -1.2429 -2.3519  0.8852
 6654SOL    HW231425   4.025   2.196   1.980  0.6197 -2.2074  3.6395
 6655SOL     OW31426   1.541   3.086   4.789  0.1533 -0.0597  0.7673
 6655SOL    HW131427   1.542   3.039   4.706  1.7170  0.0477  0.7170
 6655SOL    HW231428   1.518   3.172   4.753 -2.1722 -0.8232  0.4392
 6656SOL     OW31429   1.074   4.393  16.257  0.1130  0.1641 -0.2449
 6656SOL    HW131430   1.056   4.482  16.286  1.0675  0.1300  0.4481
 6656SOL    HW231431   1.128   4.367  16.332 -1.5760 -0.9578  0.5992
 6657SOL     OW31432   0.268   4.594   2.856  0.1581  0.0975  0.0435
 6657SOL    HW131433   0.241   4.637   2.937  1.2396  1.3175 -0.2468
 6657SOL    HW231434   0.327   4.524   2.885 -0.4995  0.2474  1.7190
 6658SOL     OW31435   2.850   3.244   6.299 -0.2372  0.6926  0.3951
 6658SOL    HW131436   2.851   3.340   6.289  0.7367  0.7344  0.9498
 6658SOL    HW231437   2.934   3.219   6.263 -1.0092 -1.0028 -0.2216
 6659SOL     OW31438   1.197   2.912   3.235  0.0232  0.0352  0.2687
 6659SOL    HW131439   1.230   2.845   3.295 -0.2248 -0.3085  0.0214
 6659SOL    HW231440   1.163   2.976   3.297  2.5799  2.3719 -0.7457
 6660SOL     OW31441   4.208   3.570  16.830 -0.2452 -0.6464 -0.0651
 6660SOL    HW131442   4.275   3.595  16.766 -0.4318 -0.2715 -0.1118
 6660SOL    HW231443   4.142   3.522  16.780  0.1372 -0.7239 -0.4979
 6661SOL     OW31444   0.913   0.775   4.158  0.5884  0.9133 -0.3133
 6661SOL    HW131445   0.992   0.736   4.120  1.1291  1.4619  0.2427
 6661SOL    HW231446   0.853   0.740   4.093  1.2462 -1.4930  0.3890
 6662SOL     OW31447   4.149   4.215   7.509  0.2045  0.0297  0.0697
 6662SOL    HW131448   4.205   4.166   7.570  0.9576 -0.5424 -1.0643
 6662SOL    HW231449   4.064   4.186   7.542  0.0295  0.5203  0.0475
 6663SOL     OW31450   1.943   3.499  15.127 -0.1502  0.1243  0.0841
 6663SOL    HW131451   2.025   3.465  15.090 -0.8436  0.5295 -1.8257
 6663SOL    HW231452   1.972   3.583  15.162 -0.2036  0.0477  0.3091
 6664SOL     OW31453   1.518   1.742  12.806  0.0248 -0.4837  0.6934
 6664SOL    HW131454   1.565   1.768  12.885  4.0109 -2.7092 -0.9070
 6664SOL    HW231455   1.454   1.809  12.782  0.0439 -0.4349  0.7821
 6665SOL     OW31456   2.309   1.097   6.770  0.5869  0.4360 -0.5734
 6665SOL    HW131457   2.290   1.176   6.719  0.6912  0.6772 -0.2407
 6665SOL    HW231458   2.403   1.089   6.751  1.1011  2.7855  0.9488
 6666SOL     OW31459   1.500   3.917   3.672 -0.6776  0.4069  0.2475
 6666SOL    HW131460   1.438   3.903   3.600 -0.8367 -3.7682  1.1533
 6666SOL    HW231461   1.439   3.888   3.741 -0.6758 -2.5568 -0.9777
 6667SOL     OW31462   1.395   1.264  12.131 -0.1502 -0.3436  0.2882
 6667SOL    HW131463   1.443   1.257  12.049 -0.7307  1.8611 -0.2382
 6667SOL    HW231464   1.416   1.354  12.155  0.7863 -0.5239  0.1268
 6668SOL     OW31465   2.092   0.920   0.145  0.0079 -0.2547  0.2067
 6668SOL    HW131466   2.152   0.851   0.117 -0.9220 -1.4772  1.1971
 6668SOL    HW231467   2.117   0.992   0.088 -0.1267  0.7490  1.4154
 6669SOL     OW31468   0.930   3.841   0.445  0.2700 -0.1920 -0.2917
 6669SOL    HW131469   0.835   3.826   0.442  0.4380 -1.2069 -0.6918
 6669SOL    HW231470   0.930   3.935   0.462  0.4057 -0.3494  0.5806
 6670SOL     OW31471   2.453   1.329   6.472 -0.8324 -0.5470  0.3844
 6670SOL    HW131472   2.475   1.353   6.382  0.3372  0.8304  1.0408
 6670SOL    HW231473   2.377   1.272   6.457  0.2471 -1.3408 -2.0864
 6671SOL     OW31474   2.507   0.416   3.170 -0.5863  0.2834  0.1463
 6671SOL    HW131475   2.522   0.332   3.128  0.7541  0.0688  1.0644
 6671SOL    HW231476   2.495   0.395   3.263 -0.8495 -3.1518 -0.6693
 6672SOL     OW31477   1.371   3.332   8.697 -0.2130 -0.2855  0.3388
 6672SOL    HW131478   1.286   3.302   8.665 -0.3100 -0.3676  0.6705
 6672SOL    HW231479   1.366   3.279   8.777  0.3594 -0.9407 -0.0595
 6673SOL     OW31480   1.620   1.414   9.427  0.6920  0.4462  0.2967
 6673SOL    HW131481   1.604   1.329   9.467  0.3599 -0.0441 -0.8837
 6673SOL    HW231482   1.688   1.387   9.365 -0.7588  0.8637 -1.4728
 6674SOL     OW31483   2.567   3.048  11.740 -0.3369  0.1395  0.2992
 6674SOL    HW131484   2.554   3.114  11.808 -1.1144 -0.0949  0.3687
 6674SOL    HW231485   2.662   3.051  11.726 -0.2501  0.6741  1.0416
 6675SOL     OW31486   1.796   2.921   1.023  0.0564 -0.2364  0.1109
 6675SOL    HW131487   1.778   3.001   1.071 -1.6861 -1.1729  1.0107
 6675SOL    HW231488   1.725   2.861   1.045 -0.7145  1.6149  2.6086
 6676SOL     OW31489   1.071   0.889  15.030 -0.3385 -0.4910 -0.1204
 6676SOL    HW131490   1.162   0.910  15.009 -0.5495  0.6391  0.1068
 6676SOL    HW231491   1.042   0.855  14.945  0.0905 -1.0438 -0.0451
 6677SOL     OW31492   2.212   4.144   3.133 -0.0607  0.1464  0.6444
 6677SOL    HW131493   2.244   4.065   3.176 -0.2099 -0.2625 -0.0021
 6677SOL    HW231494   2.154   4.104   3.069  0.2611 -0.5270  0.7762
 6678SOL     OW31495   0.215   1.512   7.752  0.3173 -0.7143  0.3503
 6678SOL    HW131496   0.216   1.526   7.847 -1.3814 -0.4052  0.3261
 6678SOL    HW231497   0.161   1.587   7.728  1.9123  0.1424 -0.4901
 6679SOL     OW31498   3.606   2.603  11.997  0.2560 -0.5535  0.2937
 6679SOL    HW131499   3.651   2.525  11.965  0.6051 -0.2323  0.0055
 6679SOL    HW231500   3.547   2.621  11.924 -0.3334 -2.1279  0.3769
 6680SOL     OW31501   4.283   3.374   0.559 -0.3056 -0.7888 -0.6270
 6680SOL    HW131502   4.215   3.441   0.554  0.1199 -0.2753  0.5894
 6680SOL    HW231503   4.276   3.368   0.654  2.7015 -0.1130 -0.3531
 6681SOL     OW31504   1.779   1.386  11.561 -0.0869 -0.2231  0.3488
 6681SOL    HW131505   1.765   1.377  11.655 -0.5879  0.0726  0.3043
 6681SOL    HW231506   1.831   1.308  11.544  1.1340  0.1452  2.3918
 6682SOL     OW31507   3.955   0.937  11.272 -0.1955  0.3885  0.0181
 6682SOL    HW131508   3.884   1.001  11.270 -0.6691 -0.1244  0.4559
 6682SOL    HW231509   4.030   0.993  11.251  1.7330 -1.8321  0.8790
 6683SOL     OW31510   2.379   2.899   5.982 -0.2627  0.4867 -0.2950
 6683SOL    HW131511   2.312   2.960   6.013 -0.1922  0.0789  0.6445
 6683SOL    HW231512   2.340   2.843   5.915 -0.1413  1.3126 -1.0634
 6684SOL     OW31513   3.254   4.565   1.995  0.1857 -0.2207 -0.5609
 6684SOL    HW131514   3.317   4.492   1.998  1.8469  1.2250 -0.2860
 6684SOL    HW231515   3.310   4.637   2.023 -0.9464 -1.2409  4.4061
 6685SOL     OW31516   3.917   2.264   9.612  0.1956  0.1328 -0.0632
 6685SOL    HW131517   3.880   2.296   9.530 -1.4489 -1.7734 -0.0608
 6685SOL    HW231518   3.974   2.194   9.581 -1.3166 -1.0919 -0.0823
 6686SOL     OW31519   1.978   3.507  10.690 -0.3810 -0.1291 -0.5970
 6686SOL    HW131520   2.017   3.420  10.691 -1.0153 -0.3889  1.4312
 6686SOL    HW231521   1.959   3.522  10.597  0.3957  0.9179 -0.5853
 6687SOL     OW31522   3.787   0.461  10.743  0.1023 -0.6211 -0.3299
 6687SOL    HW131523   3.822   0.373  10.727  1.1552  0.0554 -1.6720
 6687SOL    HW231524   3.823   0.481  10.829  3.1835  1.8225 -2.2114
 6688SOL     OW31525   3.279   1.291   4.387 -0.6810  0.4213  0.5411
 6688SOL    HW131526   3.244   1.355   4.449 -0.5223  0.7785  0.2576
 6688SOL    HW231527   3.353   1.264   4.441 -1.7389 -1.6645  0.9527
 6689SOL     OW31528   0.892   1.404   6.368  0.3773  0.2861  0.1124
 6689SOL    HW131529   0.975   1.360   6.386  0.2994  0.0766 -0.0516
 6689SOL    HW231530   0.870   1.360   6.286 -0.0120 -1.2779  1.0560
 6690SOL     OW31531   1.334   1.767   0.151 -0.4344  0.0314  0.1113
 6690SOL    HW131532   1.354   1.685   0.105  0.9817  0.7838 -0.5926
 6690SOL    HW231533   1.280   1.811   0.085  1.5246  1.1479 -0.7382
 6691SOL     OW31534   0.853   3.026  14.120 -0.2591  0.4591  0.2426
 6691SOL    HW131535   0.808   3.005  14.038  0.6919 -2.1424  0.3862
 6691SOL    HW231536   0.819   3.113  14.142  0.7477  0.5307  1.4836
 6692SOL     OW31537   1.422   0.206   0.495  0.1987  0.9437  0.1634
 6692SOL    HW131538   1.342   0.237   0.538  0.7240  0.2297  1.6820
 6692SOL    HW231539   1.420   0.256   0.414 -0.9873 -0.5958 -0.7689
 6693SOL     OW31540   2.131   3.433   8.017  0.1040  0.1811  0.0261
 6693SOL    HW131541   2.082   3.370   7.964 -1.1804  2.4172 -1.4286
 6693SOL    HW231542   2.204   3.391   8.062  2.1564  3.2385 -0.4103
 6694SOL     OW31543   3.710   1.939   7.723 -0.0553  0.1302  0.2517
 6694SOL    HW131544   3.781   1.953   7.660  0.7855 -1.1749  0.9242
 6694SOL    HW231545   3.715   2.012   7.784 -0.7680 -0.1164  0.6081
 6695SOL     OW31546   4.592   4.255   5.974 -0.0052  0.0803  0.3941
 6695SOL    HW131547   4.591   4.343   5.936 -0.4183  0.5402  1.4844
 6695SOL    HW231548   4.510   4.271   6.021 -0.2724 -0.5184  0.1307
 6696SOL     OW31549   0.641   2.769   6.684  0.9408  1.0856  0.1722
 6696SOL    HW131550   0.551   2.768   6.717  0.6829 -1.8018 -0.6628
 6696SOL    HW231551   0.641   2.712   6.607  2.1952 -0.6021  1.4345
 6697SOL     OW31552   4.386   1.460   3.657  0.0777 -0.7280  0.0818
 6697SOL    HW131553   4.324   1.428   3.723  0.0551 -1.2506 -0.1881
 6697SOL    HW231554   4.443   1.507   3.717  1.0148 -1.5121 -0.2001
 6698SOL     OW31555   3.470   3.442   8.511  0.1810 -1.0606 -0.2043
 6698SOL    HW131556   3.536   3.464   8.445 -1.0235 -0.2755 -1.1271
 6698SOL    HW231557   3.387   3.448   8.464  0.4083  1.2458 -0.3337
 6699SOL     OW31558   4.308   0.272   1.860  0.2208  0.3371  0.0979
 6699SOL    HW131559   4.347   0.288   1.946 -0.4062  0.2015  0.4028
 6699SOL    HW231560   4.367   0.210   1.816  0.5339  0.7013 -0.0029
 6700SOL     OW31561   0.093   0.414  10.872  0.0984  0.1300 -0.4999
 6700SOL    HW131562   0.017   0.385  10.922 -0.9836  1.1931 -1.5112
 6700SOL    HW231563   0.110   0.346  10.807 -0.3256 -1.3822  0.9812
 6701SOL     OW31564   0.948   4.540   1.728  0.4973  0.9072 -0.8788
 6701SOL    HW131565   1.026   4.492   1.755  1.7448  2.2748 -2.0515
 6701SOL    HW231566   0.890   4.500   1.793  2.0152  1.3243  0.7330
 6702SOL     OW31567   4.557   3.851  16.308  0.5187  0.1513 -0.0864
 6702SOL    HW131568   4.543   3.757  16.295  1.5822  0.2134 -1.6963
 6702SOL    HW231569   4.600   3.871  16.225  0.3981  0.0522 -0.1732
 6703SOL     OW31570   0.226   4.340   7.463  0.3010 -0.2425  0.1365
 6703SOL    HW131571   0.146   4.292   7.483  1.2243 -1.4326  0.9710
 6703SOL    HW231572   0.211   4.414   7.522  0.4340  1.8751 -2.4464
 6704SOL     OW31573   2.258   2.717   8.530  0.0280  0.0576  0.2891
 6704SOL    HW131574   2.331   2.656   8.540  0.0010  0.2133  1.3973
 6704SOL    HW231575   2.191   2.652   8.507 -0.7577  1.6847 -2.0241
 6705SOL     OW31576   3.027   1.814   5.448  0.0262 -0.1449 -0.3659
 6705SOL    HW131577   3.015   1.868   5.370 -0.4650 -2.0442 -1.6165
 6705SOL    HW231578   3.059   1.875   5.515  0.1942 -1.7819  1.0514
 6706SOL     OW31579   3.402   0.750   5.310  0.0919  0.2082 -0.0144
 6706SOL    HW131580   3.489   0.736   5.273  0.9939  1.4829  1.6357
 6706SOL    HW231581   3.339   0.713   5.248  1.4102 -0.6470 -0.8546
 6707SOL     OW31582   0.584   1.751  13.695 -0.0808 -0.8020  0.1600
 6707SOL    HW131583   0.615   1.764  13.606  0.0834 -1.1713  0.1650
 6707SOL    HW231584   0.641   1.815  13.738  0.4045 -0.7942 -0.4974
 6708SOL     OW31585   2.299   1.841   4.390  0.2452 -0.1973  0.3260
 6708SOL    HW131586   2.214   1.856   4.349  0.8115 -1.0244 -1.1686
 6708SOL    HW231587   2.345   1.921   4.365  1.3318 -0.9898 -0.1991
 6709SOL     OW31588   2.906   0.697  11.945  0.0694  0.0982  0.1392
 6709SOL    HW131589   2.826   0.718  11.993 -1.7042 -3.2413 -1.3705
 6709SOL    HW231590   2.952   0.781  11.938 -0.6941  0.0836 -4.7009
 6710SOL     OW31591   2.948   4.004   3.236 -0.2897 -0.1952  0.2217
 6710SOL    HW131592   2.999   4.047   3.167 -2.4679  0.2110 -1.1363
 6710SOL    HW231593   2.981   3.915   3.246 -0.8776 -0.5911 -1.4388
 6711SOL     OW31594   1.895   4.609  11.194 -0.1970  0.6030 -0.2063
 6711SOL    HW131595   1.852   4.539  11.145 -0.8092  1.3672 -0.7609
 6711SOL    HW231596   1.853   4.606  11.280 -0.0268  3.0993 -0.0207
 6712SOL     OW31597   0.400   0.690   0.020  0.4699  0.1251  0.2550
 6712SOL    HW131598   0.416   0.627  17.644  1.3473  2.3753 -1.5605
 6712SOL    HW231599   0.308   0.714   0.006  0.8231  0.9049 -0.7022
 6713SOL     OW31600   4.358   1.362   9.686  0.2559  0.3157 -0.1629
 6713SOL    HW131601   4.371   1.442   9.737 -0.7673 -1.3989  2.7297
 6713SOL    HW231602   4.361   1.404   9.600 -0.4152 -2.5223 -1.5560
 6714SOL     OW31603   1.573   1.131   4.698 -0.1105  0.4680  0.4373
 6714SOL    HW131604   1.539   1.205   4.748  0.7046  1.2800 -0.2089
 6714SOL    HW231605   1.666   1.146   4.684  0.0208 -0.0680  0.7794
 6715SOL     OW31606   2.624   2.511   0.293  0.5492  0.2383  0.2801
 6715SOL    HW131607   2.555   2.576   0.287  0.2213 -0.2078 -0.6354
 6715SOL    HW231608   2.606   2.488   0.385 -1.9394 -1.4434 -0.6434
 6716SOL     OW31609   3.116   0.097  11.146  0.0544  0.4248  0.1332
 6716SOL    HW131610   3.076   0.044  11.076 -0.9755 -0.9812  1.7878
 6716SOL    HW231611   3.163   0.163  11.095 -0.5327 -0.4779 -1.5979
 6717SOL     OW31612   4.381   0.859   5.453 -0.2141 -0.3594 -0.0465
 6717SOL    HW131613   4.417   0.821   5.373  1.4999  1.1526  0.0172
 6717SOL    HW231614   4.457   0.897   5.497  0.3674 -0.3483 -1.0761
 6718SOL     OW31615   3.033   0.405   0.234  0.9608  0.2042 -0.0540
 6718SOL    HW131616   3.081   0.322   0.242  1.3229  0.5034  0.8359
 6718SOL    HW231617   2.949   0.367   0.209  0.6477  1.5142 -0.9650
 6719SOL     OW31618   3.699   0.117   6.106 -0.3718 -0.0434  0.0185
 6719SOL    HW131619   3.676   0.119   6.199 -2.8517  1.0770 -0.6121
 6719SOL    HW231620   3.789   0.084   6.109  1.0823  3.8496 -0.9448
 6720SOL     OW31621   1.419   0.881   8.165  0.3781 -0.5687 -0.4779
 6720SOL    HW131622   1.398   0.803   8.113 -1.5223 -0.2569 -0.1616
 6720SOL    HW231623   1.513   0.890   8.150  0.4251 -0.5560 -0.1838
 6721SOL     OW31624   4.704   4.157   1.241  0.3746 -0.0579  0.5882
 6721SOL    HW131625   4.627   4.125   1.194  0.6561 -1.3239  0.9947
 6721SOL    HW231626   4.707   4.102   1.319  2.6173  0.7112  1.0499
 6722SOL     OW31627   0.636   0.678   7.737  0.1002 -0.2206 -0.7702
 6722SOL    HW131628   0.613   0.666   7.829 -1.0002  1.0723 -0.8760
 6722SOL    HW231629   0.720   0.723   7.739 -0.4500  0.7827 -0.3537
 6723SOL     OW31630   1.430   0.979   4.930 -0.1997 -0.0724  0.7457
 6723SOL    HW131631   1.462   0.959   4.842 -3.0052  1.8020 -0.6954
 6723SOL    HW231632   1.337   0.994   4.913 -0.1058  0.7073  0.9279
 6724SOL     OW31633   2.069   2.397   6.975  0.2286  0.3442 -0.7936
 6724SOL    HW131634   2.019   2.463   7.023 -0.8067 -0.2561 -1.0658
 6724SOL    HW231635   2.142   2.457   6.959  0.0550  1.3988  2.2671
 6725SOL     OW31636   1.938   3.726  16.604 -0.2208  0.1032  0.3636
 6725SOL    HW131637   1.850   3.731  16.643 -1.2493  0.4583 -1.9864
 6725SOL    HW231638   1.929   3.653  16.543 -1.3838 -0.4347  1.1621
 6726SOL     OW31639   0.123   4.029  13.660  0.2233  0.0427  0.0989
 6726SOL    HW131640   0.131   4.100  13.597  1.3789 -0.0479  0.1374
 6726SOL    HW231641   0.063   3.964  13.624 -0.4494  0.6219  0.1880
 6727SOL     OW31642   4.409   2.478   8.262  0.0062  0.5279  0.1356
 6727SOL    HW131643   4.453   2.538   8.201  0.3326  0.2529  0.1032
 6727SOL    HW231644   4.442   2.509   8.347  1.1949 -1.0888  0.2549
 6728SOL     OW31645   3.741   3.478  15.527  0.5302 -0.2887  0.1510
 6728SOL    HW131646   3.674   3.522  15.580  0.8609  1.9469 -1.2746
 6728SOL    HW231647   3.818   3.486  15.583  0.6772 -2.1336  0.1906
 6729SOL     OW31648   0.167   1.836   4.800 -0.2331  0.0126  0.5267
 6729SOL    HW131649   0.247   1.886   4.814  1.1788 -1.2395 -3.0637
 6729SOL    HW231650   0.150   1.806   4.890 -1.8552  0.1001  0.2455
 6730SOL     OW31651   2.887   1.449   9.799  0.1273  0.2680  0.1315
 6730SOL    HW131652   2.838   1.375   9.835  2.2419 -1.6257 -0.9035
 6730SOL    HW231653   2.929   1.471   9.883 -1.2171  1.6327  0.4376
 6731SOL     OW31654   0.310   3.628   6.387 -0.7864  0.3163  0.6878
 6731SOL    HW131655   0.290   3.720   6.406  2.7213  1.7065 -2.4136
 6731SOL    HW231656   0.308   3.590   6.475 -1.5184  0.4825  0.7487
 6732SOL     OW31657   2.633   1.756   2.054  0.1906  0.6881  0.1416
 6732SOL    HW131658   2.570   1.767   1.982  0.5841  2.6639  0.0950
 6732SOL    HW231659   2.590   1.806   2.124 -1.2506 -2.6444  1.6097
 6733SOL     OW31660   4.211   2.243   4.533  0.0892 -0.8626 -0.1901
 6733SOL    HW131661   4.168   2.252   4.448 -0.1380  0.4568  0.0554
 6733SOL    HW231662   4.252   2.159   4.515  1.0871 -1.0751  3.0943
 6734SOL     OW31663   2.855   1.024   4.057 -0.0526  0.0697  0.3356
 6734SOL    HW131664   2.799   0.974   3.999  1.1896 -0.3497 -0.5063
 6734SOL    HW231665   2.790   1.093   4.067  0.9903  1.3561 -1.9131
 6735SOL     OW31666   1.339   3.814   3.458 -0.0024 -0.0461 -0.1837
 6735SOL    HW131667   1.296   3.867   3.391 -0.6494  1.8375  1.7277
 6735SOL    HW231668   1.426   3.806   3.418 -0.6096 -2.0807 -1.1401
 6736SOL     OW31669   4.705   3.546  16.789  0.4395  0.5232 -0.8841
 6736SOL    HW131670   4.704   3.535  16.694 -0.4343  0.3515 -0.8584
 6736SOL    HW231671   0.052   3.487  16.817  1.6228  1.7569 -1.2132
 6737SOL     OW31672   3.263   1.217   7.965 -0.3110 -0.0498 -0.7993
 6737SOL    HW131673   3.256   1.158   7.890 -2.6141 -1.7922  0.7907
 6737SOL    HW231674   3.248   1.303   7.925 -1.2825  1.4350  2.7528
 6738SOL     OW31675   2.339   0.049   4.445 -0.0063 -0.6866 -0.6343
 6738SOL    HW131676   2.283   0.055   4.367  0.0555  0.2227 -0.6066
 6738SOL    HW231677   2.427   0.058   4.407 -0.1228  1.9150 -0.2646
 6739SOL     OW31678   3.432   1.325   7.070 -0.3163  0.1314  0.5691
 6739SOL    HW131679   3.496   1.256   7.052 -0.2886  0.2611  0.1810
 6739SOL    HW231680   3.398   1.346   6.983 -0.0114 -0.1236  0.3895
 6740SOL     OW31681   3.582   0.379   4.226  0.8140  0.2598  0.1213
 6740SOL    HW131682   3.574   0.475   4.231 -0.8031  0.1227  0.0930
 6740SOL    HW231683   3.667   0.373   4.269  1.0311 -2.3394 -0.7110
 6741SOL     OW31684   1.139   0.507   2.877 -0.2962  0.0564  0.2408
 6741SOL    HW131685   1.211   0.447   2.858 -1.8236 -0.8231 -2.8436
 6741SOL    HW231686   1.160   0.566   2.804 -0.2206  1.1379  1.1316
 6742SOL     OW31687   4.383   2.728  10.677 -0.2559 -0.0546 -0.3046
 6742SOL    HW131688   4.296   2.763  10.695  0.3657  1.7194 -0.6988
 6742SOL    HW231689   4.374   2.732  10.582  0.7017 -0.0332 -0.3957
 6743SOL     OW31690   0.583   1.835   6.516 -0.0407 -0.2936 -0.2730
 6743SOL    HW131691   0.533   1.766   6.472 -0.1681 -0.2312 -0.2254
 6743SOL    HW231692   0.559   1.825   6.608 -1.3253 -0.8426 -0.6685
 6744SOL     OW31693   4.273   2.550   3.330 -0.0510 -0.1429  0.2928
 6744SOL    HW131694   4.235   2.580   3.248 -0.9949 -1.5234  0.2135
 6744SOL    HW231695   4.215   2.588   3.396 -0.5576  0.9796 -0.8131
 6745SOL     OW31696   1.689   1.238   7.123  0.3536 -0.0369 -0.1698
 6745SOL    HW131697   1.597   1.214   7.112  0.1825  0.8618 -0.6827
 6745SOL    HW231698   1.691   1.290   7.203  3.1624  0.1964 -0.4128
 6746SOL     OW31699   1.599   0.641   8.166 -0.2085 -0.2209  0.0696
 6746SOL    HW131700   1.574   0.555   8.133 -0.8229 -0.5276  1.3779
 6746SOL    HW231701   1.665   0.669   8.102  1.0887  1.5084  2.1679
 6747SOL     OW31702   4.473   2.120  14.921 -0.2575 -0.1505 -0.1011
 6747SOL    HW131703   4.389   2.074  14.913  0.2585 -1.2080  0.5123
 6747SOL    HW231704   4.527   2.046  14.892 -0.2443  0.3306 -1.2965
 6748SOL     OW31705   3.097   3.773   4.112  0.0302 -0.6039  0.2241
 6748SOL    HW131706   3.115   3.864   4.134  0.8855 -0.8026  0.3686
 6748SOL    HW231707   3.181   3.730   4.128  0.5792  0.1596 -0.5910
 6749SOL     OW31708   4.492   0.162  11.366  0.0587 -0.0717  0.3157
 6749SOL    HW131709   4.463   0.242  11.410  2.9408  0.4285  1.2467
 6749SOL    HW231710   4.411   0.142  11.318  0.8685 -0.2382 -0.9851
 6750SOL     OW31711   1.392   1.978   6.407  0.1553  0.2627 -0.2443
 6750SOL    HW131712   1.298   1.964   6.395 -0.2344  1.8871  0.8682
 6750SOL    HW231713   1.404   2.073   6.397 -1.3202  0.3673 -1.0423
 6751SOL     OW31714   4.049   0.320  13.730 -0.2457 -0.6600  0.5036
 6751SOL    HW131715   3.970   0.356  13.770 -1.0959 -0.2653 -1.5361
 6751SOL    HW231716   4.120   0.334  13.794  1.3387  1.7572 -1.7661
 6752SOL     OW31717   1.090   0.639   2.607 -0.6786 -0.1306 -0.9235
 6752SOL    HW131718   1.036   0.590   2.546 -1.0260  0.0316 -0.7473
 6752SOL    HW231719   1.134   0.686   2.536 -1.4365 -1.4948 -2.3000
 6753SOL     OW31720   3.312   0.808  15.805 -0.2027  0.1641 -0.1802
 6753SOL    HW131721   3.377   0.870  15.839  1.3253 -0.4362 -1.9815
 6753SOL    HW231722   3.373   0.749  15.759  1.5407  0.6196  1.5408
 6754SOL     OW31723   1.872   3.621   6.324 -0.8908 -0.2540  0.0300
 6754SOL    HW131724   1.965   3.612   6.302 -0.2531  1.9890  1.7201
 6754SOL    HW231725   1.850   3.714   6.326 -0.4856 -0.1707  0.7816
 6755SOL     OW31726   1.930   0.643   9.660  0.1584  0.0849 -0.4446
 6755SOL    HW131727   1.885   0.650   9.576  0.0232 -0.3750 -0.4089
 6755SOL    HW231728   1.882   0.703   9.717  0.8284 -0.6324  0.8874
 6756SOL     OW31729   1.107   1.103   5.721 -0.0822 -0.5311  0.5304
 6756SOL    HW131730   1.131   1.140   5.636 -2.3801  1.6426  0.8100
 6756SOL    HW231731   1.021   1.065   5.701 -0.0645  1.2164 -2.8067
 6757SOL     OW31732   2.941   3.335  12.916 -0.3175  0.0167  0.2127
 6757SOL    HW131733   2.860   3.296  12.885  0.0108 -0.7587  0.3255
 6757SOL    HW231734   2.947   3.320  13.011 -0.3024  2.4814  0.6003
 6758SOL     OW31735   1.538   1.001  12.201  0.2174 -0.0723 -0.1203
 6758SOL    HW131736   1.626   0.995  12.237  0.6645  0.4621 -1.1341
 6758SOL    HW231737   1.528   0.906  12.187 -1.5418 -0.0442  0.9155
 6759SOL     OW31738   3.126   0.534   4.165  0.0003 -0.2545  0.1636
 6759SOL    HW131739   3.151   0.579   4.084 -0.3206  2.1015  1.3856
 6759SOL    HW231740   3.167   0.449   4.149 -2.8460 -1.4937 -0.5295
 6760SOL     OW31741   2.348   4.002  13.832 -0.5993 -0.1771 -0.4603
 6760SOL    HW131742   2.410   4.015  13.904 -0.4503  0.6109 -0.7278
 6760SOL    HW231743   2.407   4.009  13.757  0.1305  1.6947  0.2858
 6761SOL     OW31744   0.012   3.863  15.626  0.2700 -0.2366  0.8436
 6761SOL    HW131745   0.005   3.794  15.692  0.6742 -1.5427 -0.4888
 6761SOL    HW231746   4.651   3.854  15.581  0.5596  1.1747  0.0299
 6762SOL     OW31747   3.292   2.438   5.243  0.3077 -0.1187 -0.0924
 6762SOL    HW131748   3.221   2.490   5.281 -0.0915  0.5086 -1.6891
 6762SOL    HW231749   3.260   2.436   5.152 -2.7672 -1.3446  0.9970
 6763SOL     OW31750   3.526   2.635   6.876 -0.0433 -0.2719 -0.4793
 6763SOL    HW131751   3.466   2.589   6.935 -0.2170  1.0178  0.3718
 6763SOL    HW231752   3.543   2.720   6.917 -1.2025 -1.5837  2.7058
 6764SOL     OW31753   4.328   0.182   2.936 -0.2205  0.0716 -0.1859
 6764SOL    HW131754   4.365   0.256   2.985 -1.3811 -0.0841  0.9221
 6764SOL    HW231755   4.334   0.224   2.850  1.2714 -1.3850 -0.7868
 6765SOL     OW31756   1.719   3.267   0.583  0.3251  0.1442 -0.2961
 6765SOL    HW131757   1.762   3.351   0.600  1.3256 -0.6199  0.9112
 6765SOL    HW231758   1.746   3.209   0.654  1.9916 -0.1510 -1.1808
 6766SOL     OW31759   1.183   4.137   0.144  0.2562  0.3921  0.2325
 6766SOL    HW131760   1.234   4.201   0.194  0.6355 -2.5423  3.6511
 6766SOL    HW231761   1.094   4.173   0.149 -0.4170 -0.9285 -2.0824
 6767SOL     OW31762   0.518   1.159   6.354  0.1359 -0.9070 -0.6395
 6767SOL    HW131763   0.438   1.212   6.350 -0.1669 -1.3540 -0.4220
 6767SOL    HW231764   0.494   1.086   6.297 -2.4421 -0.9527  0.4836
 6768SOL     OW31765   3.524   4.377   8.310  0.0236 -0.4897  0.3615
 6768SOL    HW131766   3.436   4.347   8.333 -0.1667 -0.9945 -0.9873
 6768SOL    HW231767   3.562   4.396   8.395  1.2758 -1.0755 -0.0726
 6769SOL     OW31768   2.062   1.858   5.354  0.3874 -0.0688 -0.3148
 6769SOL    HW131769   2.012   1.784   5.320  2.1900 -1.0653 -0.7614
 6769SOL    HW231770   2.007   1.864   5.432  0.5467  1.8304 -0.3543
 6770SOL     OW31771   1.395   2.541   9.168 -0.0859 -0.6885  0.1971
 6770SOL    HW131772   1.426   2.627   9.140 -0.9053 -0.2146  0.7792
 6770SOL    HW231773   1.478   2.493   9.160  0.7205  0.7620 -0.1415
 6771SOL     OW31774   0.499   2.099   3.481 -0.0431  0.5305 -0.1480
 6771SOL    HW131775   0.524   2.190   3.465  1.1967  0.2476  0.2238
 6771SOL    HW231776   0.424   2.106   3.422 -0.3163  1.0544  0.2527
 6772SOL     OW31777   1.467   1.408   4.158  0.2134 -0.2620 -0.0348
 6772SOL    HW131778   1.483   1.329   4.210 -0.7947  1.6104  3.1231
 6772SOL    HW231779   1.545   1.456   4.184  0.1582 -0.0147 -0.3172
 6773SOL     OW31780   1.634   2.905   7.888 -0.2281  0.1759  0.0230
 6773SOL    HW131781   1.727   2.890   7.875 -0.9132 -3.4740 -0.9503
 6773SOL    HW231782   1.598   2.831   7.937 -0.5979  0.9843  0.9593
 6774SOL     OW31783   1.846   4.691   1.833 -0.3471  0.5683  0.1303
 6774SOL    HW131784   1.927   4.670   1.787 -2.0843 -2.2497 -1.6284
 6774SOL    HW231785   1.883   4.723   1.916 -1.8700 -0.0337  1.0448
 6775SOL     OW31786   2.378   1.395   2.401 -0.3319 -0.4737  0.1290
 6775SOL    HW131787   2.415   1.426   2.318  0.1527 -1.8970 -0.1720
 6775SOL    HW231788   2.368   1.472   2.457  3.1249  0.8068 -0.9850
 6776SOL     OW31789   1.722   4.186   5.108  0.1863  0.2990 -0.3675
 6776SOL    HW131790   1.641   4.235   5.095 -1.0682 -1.6903 -0.0127
 6776SOL    HW231791   1.775   4.264   5.124  1.0668 -0.3524 -0.1251
 6777SOL     OW31792   3.276   1.555   9.726  0.7342  0.2800  0.3708
 6777SOL    HW131793   3.291   1.609   9.649  1.0574 -0.8931 -0.3959
 6777SOL    HW231794   3.301   1.612   9.799 -0.7339  0.0871  1.0193
 6778SOL     OW31795   3.818   4.262   7.665 -0.5186  0.6123  0.4484
 6778SOL    HW131796   3.872   4.185   7.646 -0.9601  0.7063 -1.1142
 6778SOL    HW231797   3.804   4.291   7.575  0.6990  0.3215  0.1576
 6779SOL     OW31798   0.668   2.459   9.042  0.3337  0.6326  0.0220
 6779SOL    HW131799   0.738   2.403   9.076 -0.3083 -0.5319 -0.5547
 6779SOL    HW231800   0.717   2.519   8.987  0.8705 -0.2275 -0.4408
 6780SOL     OW31801   3.076   1.169   5.924  0.1924  0.6038  1.1324
 6780SOL    HW131802   3.127   1.247   5.948  0.7380 -0.1051  2.2975
 6780SOL    HW231803   3.055   1.176   5.831  2.5414 -0.9679  0.5035
 6781SOL     OW31804   0.695   4.638   7.814 -0.2779  0.2492  0.1933
 6781SOL    HW131805   0.696   4.597   7.727 -0.2879  1.1924 -0.2512
 6781SOL    HW231806   0.700   0.007   7.787 -0.3598  0.4316  0.8114
 6782SOL     OW31807   1.899   3.380   4.977 -0.2838 -0.6436 -0.4891
 6782SOL    HW131808   1.905   3.313   4.909 -1.0516  0.4853 -1.6726
 6782SOL    HW231809   1.854   3.449   4.928  0.8513  0.4380  0.0228
 6783SOL     OW31810   4.711   0.468   7.538  0.7456  0.3156 -0.1413
 6783SOL    HW131811   0.007   0.401   7.604  1.2352 -1.6389 -2.2839
 6783SOL    HW231812   0.076   0.498   7.515  0.7856 -0.4737 -1.0220
 6784SOL     OW31813   4.017   2.539   5.457  0.5170  0.0483  0.4093
 6784SOL    HW131814   3.980   2.454   5.483 -2.2813  1.1085 -0.1542
 6784SOL    HW231815   3.984   2.560   5.370  0.6225  1.9939  0.8542
 6785SOL     OW31816   1.674   1.734   2.149  0.6026 -0.4193 -0.2061
 6785SOL    HW131817   1.741   1.801   2.153 -0.9835  1.2571 -1.7288
 6785SOL    HW231818   1.719   1.652   2.129 -1.1339 -0.9390 -2.0273
 6786SOL     OW31819   1.625   0.569   9.457 -0.1858  0.5210  0.1434
 6786SOL    HW131820   1.623   0.501   9.390  2.1910  0.5305  0.0444
 6786SOL    HW231821   1.707   0.613   9.433  0.6071  0.3137  2.4278
 6787SOL     OW31822   1.842   1.265   2.743 -0.1372  0.6571  0.0841
 6787SOL    HW131823   1.930   1.262   2.779  0.2867  0.6743 -0.9805
 6787SOL    HW231824   1.847   1.304   2.657  0.6447 -1.1404 -0.6825
 6788SOL     OW31825   1.610   4.570   3.417  0.0458  0.2710 -0.2388
 6788SOL    HW131826   1.685   4.517   3.443 -0.1074 -0.0924 -0.5330
 6788SOL    HW231827   1.583   4.614   3.497 -1.5305 -0.8364 -0.1732
 6789SOL     OW31828   1.307   4.117  11.669  0.2781 -0.3165 -0.3555
 6789SOL    HW131829   1.347   4.188  11.619 -0.4262  0.9218  0.8338
 6789SOL    HW231830   1.227   4.168  11.684  1.8340  2.5370 -1.8505
 6790SOL     OW31831   4.189   4.257   4.826 -0.3109  0.1217 -0.2278
 6790SOL    HW131832   4.104   4.273   4.866 -0.1884  2.2878 -0.8458
 6790SOL    HW231833   4.169   4.180   4.773 -1.5077 -0.1272  0.5933
 6791SOL     OW31834   0.375   2.158   5.099  0.0797  0.0554 -0.5165
 6791SOL    HW131835   0.408   2.177   5.011 -0.4121  0.9862 -0.5005
 6791SOL    HW231836   0.323   2.235   5.123  0.0631  0.3204 -1.3831
 6792SOL     OW31837   2.344   4.532   6.380 -0.2231 -0.5747  0.5983
 6792SOL    HW131838   2.297   4.605   6.339  0.5639 -0.7078 -0.5391
 6792SOL    HW231839   2.352   4.552   6.474  0.4251  2.5400 -0.1186
 6793SOL     OW31840   2.136   3.422   7.127 -0.1613  0.2506  0.2071
 6793SOL    HW131841   2.123   3.516   7.122 -0.8537  0.0047 -2.6218
 6793SOL    HW231842   2.049   3.382   7.135 -1.1252  2.5519  1.0460
 6794SOL     OW31843   1.577   1.559   2.360 -0.9867  0.0231 -0.1388
 6794SOL    HW131844   1.506   1.606   2.402 -0.5776  1.1857 -0.7284
 6794SOL    HW231845   1.590   1.611   2.280  1.0152 -0.5355 -0.1815
 6795SOL     OW31846   0.251   0.433   9.932  0.1592 -0.1070  0.6812
 6795SOL    HW131847   0.235   0.506   9.873 -1.5730 -0.4255  0.7517
 6795SOL    HW231848   0.322   0.459   9.991  1.5460  0.2732 -1.1660
 6796SOL     OW31849   1.544   4.172   3.743  0.2199 -0.2106  0.1060
 6796SOL    HW131850   1.585   4.168   3.829  0.3217 -0.7518  0.0348
 6796SOL    HW231851   1.522   4.081   3.722 -0.1707 -0.0474 -0.1875
 6797SOL     OW31852   0.151   3.248   7.593  0.0806 -0.2909 -0.1227
 6797SOL    HW131853   0.219   3.298   7.549  0.2782  0.2044  0.7350
 6797SOL    HW231854   0.080   3.283   7.539  0.8037 -0.4725 -1.1926
 6798SOL     OW31855   1.104   1.726   8.580 -0.3113 -0.2433 -0.3427
 6798SOL    HW131856   1.179   1.771   8.540 -0.2393  0.3189  0.4214
 6798SOL    HW231857   1.123   1.714   8.673 -1.2131  1.8554  0.1117
 6799SOL     OW31858   1.707   1.556   5.810  0.2537 -0.0943 -0.9087
 6799SOL    HW131859   1.719   1.557   5.715 -1.2924  0.5684 -1.1002
 6799SOL    HW231860   1.673   1.467   5.807  0.8304 -0.3704  0.7916
 6800SOL     OW31861   4.646   1.936   2.916 -0.4950 -0.1746 -0.0080
 6800SOL    HW131862   4.551   1.945   2.912 -0.3494  1.0425 -0.4106
 6800SOL    HW231863   4.663   1.957   3.008 -1.0778 -3.9529  0.9835
 6801SOL     OW31864   2.637   2.054   6.970 -0.2261  0.0117 -0.1790
 6801SOL    HW131865   2.646   2.002   6.890  0.9097  2.2797 -1.4911
 6801SOL    HW231866   2.725   2.056   7.007 -0.4524  0.4081  0.3490
 6802SOL     OW31867   1.889   2.036  12.728  0.0565  0.0200 -0.1248
 6802SOL    HW131868   1.929   2.122  12.738 -2.2033  0.8952  1.5016
 6802SOL    HW231869   1.797   2.051  12.750 -0.8406  0.4291 -4.1305
 6803SOL     OW31870   0.551   4.227   5.994 -0.5553  0.5981 -0.1642
 6803SOL    HW131871   0.613   4.222   6.067  0.3107  1.7275 -0.8227
 6803SOL    HW231872   0.609   4.196   5.925 -1.0060 -4.0694  1.5946
 6804SOL     OW31873   3.440   3.896   8.252  0.3964  0.2555  0.2368
 6804SOL    HW131874   3.434   3.972   8.309 -3.1217  1.4727 -1.7541
 6804SOL    HW231875   3.519   3.859   8.291  0.0237 -0.1684  0.5876
 6805SOL     OW31876   4.650   2.516   2.298 -0.0870 -0.4902  0.1865
 6805SOL    HW131877   4.672   2.501   2.390 -0.3762  1.1373  0.5223
 6805SOL    HW231878   4.602   2.598   2.300 -0.5456 -0.7440 -0.2916
 6806SOL     OW31879   3.263   0.474   2.189 -0.4416  0.0120  0.4557
 6806SOL    HW131880   3.214   0.553   2.166  0.5321  0.1470 -1.1942
 6806SOL    HW231881   3.261   0.461   2.284 -1.8965  1.0782  0.5753
 6807SOL     OW31882   2.951   4.714   6.001 -0.3277 -0.0997 -0.2119
 6807SOL    HW131883   2.954   4.618   6.002  1.6012 -0.0197  1.0391
 6807SOL    HW231884   2.870   0.002   6.051 -1.3687 -1.9938 -1.4477
 6808SOL     OW31885   2.628   1.700   3.606  0.7882  0.3995  0.2792
 6808SOL    HW131886   2.599   1.750   3.529 -2.2068 -0.5407  0.7958
 6808SOL    HW231887   2.721   1.684   3.593  1.0180  0.2554  2.1574
 6809SOL     OW31888   0.427   3.024   3.065  0.0057  0.5017  0.0526
 6809SOL    HW131889   0.423   3.060   3.153 -2.0419 -0.0612  0.1854
 6809SOL    HW231890   0.520   3.041   3.050  0.1878 -0.0668  0.5838
 6810SOL     OW31891   3.847   4.119  10.367 -0.0561 -0.1075 -0.1227
 6810SOL    HW131892   3.927   4.067  10.358 -0.3894 -0.1602 -2.7500
 6810SOL    HW231893   3.885   4.203  10.392  2.0573 -1.2060  0.3944
 6811SOL     OW31894   2.476   3.214   4.143  0.1536  0.3188 -0.3056
 6811SOL    HW131895   2.453   3.242   4.054  0.0859  1.7581  0.1641
 6811SOL    HW231896   2.485   3.298   4.188 -2.5982  2.0429 -3.0019
 6812SOL     OW31897   3.562   1.966   0.953 -0.0648 -0.0918  0.5053
 6812SOL    HW131898   3.623   1.898   0.980  0.3151  0.6276  1.4496
 6812SOL    HW231899   3.598   2.046   0.993  1.7068  0.0525 -1.3820
 6813SOL     OW31900   2.524   1.271   0.745  0.6992  0.0697 -0.0063
 6813SOL    HW131901   2.535   1.176   0.747  0.1541 -0.0391 -2.3470
 6813SOL    HW231902   2.600   1.297   0.693 -0.5488  2.1985 -0.7733
 6814SOL     OW31903   0.246   4.403   7.116  0.4220  0.5752  0.1559
 6814SOL    HW131904   0.167   4.458   7.122  2.3787  3.5955 -1.7669
 6814SOL    HW231905   0.310   4.472   7.099 -0.9393  1.8757  0.2849
 6815SOL     OW31906   2.956   0.766  10.484  0.6386 -0.0062 -0.4806
 6815SOL    HW131907   2.907   0.810  10.413 -0.9292 -0.1797  0.4942
 6815SOL    HW231908   2.896   0.778  10.558 -0.3727  0.0187 -1.2964
 6816SOL     OW31909   2.949   4.192   8.006 -0.2868 -0.1980 -0.3295
 6816SOL    HW131910   2.896   4.124   8.048  0.2854 -0.2951  0.2362
 6816SOL    HW231911   2.948   4.251   8.081 -1.5319 -1.3366  0.5519
 6817SOL     OW31912   2.112   0.293   0.245  0.2877  0.2458  0.1009
 6817SOL    HW131913   2.139   0.362   0.183 -0.6700  0.1791 -0.3873
 6817SOL    HW231914   2.020   0.311   0.263 -0.1130 -2.1515  0.4045
 6818SOL     OW31915   1.650   0.451   7.176  0.3857  0.4536 -0.0611
 6818SOL    HW131916   1.738   0.414   7.174  0.2053 -0.0980  1.5594
 6818SOL    HW231917   1.597   0.400   7.238  0.3222  0.2641 -0.2735
 6819SOL     OW31918   2.464   3.667   2.495 -0.1624  0.0587  0.2813
 6819SOL    HW131919   2.384   3.654   2.445 -0.5806 -1.2403  1.2923
 6819SOL    HW231920   2.512   3.585   2.483 -1.1591 -0.5698  0.6162
 6820SOL     OW31921   1.099   3.429   4.366  0.4121 -0.0771  0.3801
 6820SOL    HW131922   1.019   3.422   4.417  0.7156  2.0977  1.1853
 6820SOL    HW231923   1.098   3.353   4.308  2.7901 -0.3724  0.7271
 6821SOL     OW31924   3.409   1.562   2.305  0.1297  0.3058  1.0473
 6821SOL    HW131925   3.498   1.574   2.271  0.7617 -0.7260  2.3535
 6821SOL    HW231926   3.373   1.488   2.256  1.0497  0.3113  0.3775
 6822SOL     OW31927   1.290   4.696   4.907 -0.1503  0.4714 -0.3265
 6822SOL    HW131928   1.315   4.679   4.998 -0.4302 -1.7623 -0.6631
 6822SOL    HW231929   1.377   4.711   4.869  0.5396 -1.8600  0.3722
 6823SOL     OW31930   2.536   4.245   5.806 -0.4942  0.0506  0.1359
 6823SOL    HW131931   2.599   4.280   5.743  1.1636  0.4504  2.0384
 6823SOL    HW231932   2.480   4.322   5.812 -0.9938 -0.1871 -1.4261
 6824SOL     OW31933   0.338   1.975  15.706 -0.3094 -0.1462  0.1157
 6824SOL    HW131934   0.243   1.973  15.721 -0.3474 -2.2845 -0.3737
 6824SOL    HW231935   0.361   2.063  15.735 -0.2083 -0.1620  0.0840
 6825SOL     OW31936   3.849   2.524   3.866  0.0954  0.0205 -0.2861
 6825SOL    HW131937   3.874   2.613   3.890  0.9625 -0.4904  0.7134
 6825SOL    HW231938   3.923   2.478   3.906  0.9517 -0.5920 -2.5860
 6826SOL     OW31939   1.006   2.992   3.889  0.4700 -0.6625 -0.6118
 6826SOL    HW131940   1.027   3.080   3.921 -1.4313 -0.1572 -0.7417
 6826SOL    HW231941   1.063   2.948   3.951 -0.1766 -3.2272 -1.8588
 6827SOL     OW31942   1.738   2.942   8.543 -0.2076 -0.2137  0.1057
 6827SOL    HW131943   1.653   2.961   8.581  0.1966 -0.9744  1.3967
 6827SOL    HW231944   1.731   2.848   8.526 -1.1436  0.1644 -1.6923
 6828SOL     OW31945   4.019   2.644   8.805 -0.5697  0.2371 -0.1681
 6828SOL    HW131946   3.942   2.637   8.862 -1.2185 -2.9330 -1.4087
 6828SOL    HW231947   4.095   2.629   8.860 -0.1906  2.8924  0.0177
 6829SOL     OW31948   1.549   0.001   4.838  0.5503  0.2358 -0.2311
 6829SOL    HW131949   1.546   0.084   4.790  3.3423 -0.4061 -1.4874
 6829SOL    HW231950   1.640   4.695   4.843  0.8188  1.1433  0.0645
 6830SOL     OW31951   3.971   1.908  14.884  0.4267  0.1201  0.5078
 6830SOL    HW131952   3.944   1.885  14.796 -1.9100  1.9600  0.7236
 6830SOL    HW231953   3.893   1.881  14.933 -0.2260  0.1823 -0.4988
 6831SOL     OW31954   1.510   4.060  17.543  0.0919  0.1797  0.2844
 6831SOL    HW131955   1.505   3.987  17.605 -0.8238 -0.6206 -0.7288
 6831SOL    HW231956   1.450   4.028  17.476  1.6154 -0.5824 -0.7394
 6832SOL     OW31957   2.983   2.696   7.724  0.1034 -0.0969  0.0484
 6832SOL    HW131958   2.925   2.634   7.769  0.7885 -1.6632 -1.2675
 6832SOL    HW231959   3.065   2.659   7.758 -0.4835 -0.9868  0.4954
 6833SOL     OW31960   1.918   1.760   7.928 -0.1608 -0.2320  0.0208
 6833SOL    HW131961   1.994   1.740   7.873  1.4412  2.7538  1.1493
 6833SOL    HW231962   1.883   1.678   7.963  0.7144 -0.2225  0.9118
 6834SOL     OW31963   2.591   4.023   6.459  0.1980 -0.4197 -0.0072
 6834SOL    HW131964   2.655   4.015   6.530  0.0684  1.3513  0.3193
 6834SOL    HW231965   2.554   4.110   6.478  0.8489 -0.6079  2.0823
 6835SOL     OW31966   3.496   0.729  10.465 -0.0338  0.3538 -0.0290
 6835SOL    HW131967   3.402   0.744  10.455  0.0294 -0.5787 -2.1101
 6835SOL    HW231968   3.511   0.674  10.541  1.0378 -1.7260 -1.7565
 6836SOL     OW31969   2.519   2.291   8.143  0.0506  0.0562  0.2080
 6836SOL    HW131970   2.433   2.266   8.108 -0.8022  2.4136  0.6466
 6836SOL    HW231971   2.531   2.219   8.205  0.1761  0.8377  1.0917
 6837SOL     OW31972   1.728   3.502   2.556  0.0111 -0.3608  0.1774
 6837SOL    HW131973   1.754   3.592   2.579  0.6441 -0.4824 -0.0487
 6837SOL    HW231974   1.638   3.505   2.523 -0.3850  0.0989  1.2991
 6838SOL     OW31975   4.513   3.286   6.829 -0.9636 -0.3220 -0.3386
 6838SOL    HW131976   4.517   3.196   6.861  2.6711 -0.2679 -0.6377
 6838SOL    HW231977   4.524   3.339   6.908  4.0904  0.9782 -1.9332
 6839SOL     OW31978   2.205   1.776   3.916  0.2488  0.0512  0.0974
 6839SOL    HW131979   2.180   1.854   3.867  0.8319  0.3778  0.3191
 6839SOL    HW231980   2.231   1.713   3.849 -1.8311 -2.7020  1.8992
 6840SOL     OW31981   1.519   0.736  12.159  0.5395  0.5719 -0.7039
 6840SOL    HW131982   1.517   0.675  12.233 -1.3818  2.5790  0.8848
 6840SOL    HW231983   1.517   0.683  12.080  2.7264  1.0790 -1.0971
 6841SOL     OW31984   0.630   1.323   2.253  0.2654 -0.2572 -0.0616
 6841SOL    HW131985   0.561   1.367   2.302  1.4756 -1.1528  2.4047
 6841SOL    HW231986   0.615   1.364   2.167  1.0661  0.3737  0.1027
 6842SOL     OW31987   2.682   0.451   9.633 -0.5321  0.5331  0.5362
 6842SOL    HW131988   2.770   0.427   9.663 -1.6025 -1.6661  1.8855
 6842SOL    HW231989   2.633   0.394   9.691 -1.8597 -0.4929 -1.6094
 6843SOL     OW31990   3.460   0.819  16.293 -0.5401 -0.1178 -0.5847
 6843SOL    HW131991   3.381   0.781  16.253 -1.9562  0.6260  1.5080
 6843SOL    HW231992   3.489   0.753  16.356 -0.1923 -0.2649 -0.9021
 6844SOL     OW31993   4.526   4.114   3.431 -0.6065  0.4113 -0.4121
 6844SOL    HW131994   4.509   4.067   3.349 -0.3132  0.0538 -0.2654
 6844SOL    HW231995   4.552   4.042   3.487  1.4345  0.3470 -1.4474
 6845SOL     OW31996   1.191   2.613  16.321  0.1334 -0.2567  0.1859
 6845SOL    HW131997   1.114   2.620  16.264  0.0449  0.8428  0.4336
 6845SOL    HW231998   1.215   2.706  16.328 -0.3356 -0.2410  1.6340
 6846SOL     OW31999   3.975   1.112   8.254  0.1855  0.4438  0.3521
 6846SOL    HW132000   3.895   1.162   8.273 -0.2074  0.0331 -0.2234
 6846SOL    HW232001   4.041   1.155   8.309  0.7756  0.8684 -0.6734
 6847SOL     OW32002   0.558   2.732   8.886 -0.1291 -0.2777  0.1132
 6847SOL    HW132003   0.567   2.728   8.981  0.0996  2.2091  0.2105
 6847SOL    HW232004   0.631   2.794   8.878  0.7909 -1.4505 -0.5522
 6848SOL     OW32005   0.812   3.476   4.143 -0.3068  0.3011  0.5537
 6848SOL    HW132006   0.797   3.491   4.050 -1.1936 -1.9888  0.3211
 6848SOL    HW232007   0.905   3.496   4.140 -0.2130 -0.3400 -0.7273
 6849SOL     OW32008   2.840   0.761   3.873 -0.2846 -0.3153  0.1638
 6849SOL    HW132009   2.924   0.748   3.830 -0.2301 -0.5426  0.3396
 6849SOL    HW232010   2.855   0.722   3.960  1.4960 -0.6053 -0.2727
 6850SOL     OW32011   4.391   4.453   0.095 -0.1510 -0.0822 -0.2852
 6850SOL    HW132012   4.336   4.396   0.041 -2.3640  1.0616  0.7413
 6850SOL    HW232013   4.455   4.471   0.027 -1.4157  0.2473 -1.3931
 6851SOL     OW32014   0.597   1.143   5.295  0.4315 -0.0076  0.0642
 6851SOL    HW132015   0.509   1.104   5.296  0.6241 -0.4879 -1.1963
 6851SOL    HW232016   0.612   1.174   5.384  0.6780 -0.2540  0.1093
 6852SOL     OW32017   0.784   2.570   7.690  0.0705  0.3662  0.0225
 6852SOL    HW132018   0.785   2.507   7.619  1.1728  1.8925 -1.2919
 6852SOL    HW232019   0.874   2.560   7.721  1.1059  0.8111 -2.8496
 6853SOL     OW32020   1.396   0.528   5.848  0.1656  0.2155  0.4670
 6853SOL    HW132021   1.429   0.576   5.924 -0.1454 -2.8148  2.5105
 6853SOL    HW232022   1.395   0.438   5.881  1.1377 -0.1801 -0.5778
 6854SOL     OW32023   1.366   2.545   8.632  0.1248 -0.4817  0.0167
 6854SOL    HW132024   1.401   2.575   8.715 -1.8307  1.7014  0.0565
 6854SOL    HW232025   1.273   2.548   8.655 -0.0478  1.8712 -0.9699
 6855SOL     OW32026   4.266   1.848   3.905  0.0150  0.0041  0.0245
 6855SOL    HW132027   4.311   1.766   3.885  0.1079  0.0078  0.2137
 6855SOL    HW232028   4.239   1.835   3.996  1.3367  1.7232  0.6586
 6856SOL     OW32029   0.647   4.357   1.032  0.1809 -0.3624  0.5590
 6856SOL    HW132030   0.664   4.438   0.984  0.0203 -0.4754  0.3106
 6856SOL    HW232031   0.691   4.371   1.116 -1.1300 -1.8939  1.5080
 6857SOL     OW32032   3.867   0.974  13.104  0.0504  0.8796  0.3171
 6857SOL    HW132033   3.811   0.907  13.143 -1.7963  2.8357  1.0271
 6857SOL    HW232034   3.955   0.951  13.134  0.1096  0.6062 -0.0709
 6858SOL     OW32035   3.841   0.955  11.674 -0.1264  0.1299 -0.1804
 6858SOL    HW132036   3.801   0.901  11.606 -2.8265  0.4340  1.1588
 6858SOL    HW232037   3.933   0.929  11.669 -0.5523 -1.1274 -1.6891
 6859SOL     OW32038   0.789   0.983   4.322 -0.6657  0.6667 -0.4481
 6859SOL    HW132039   0.829   0.919   4.263  1.8694  2.3498 -0.5598
 6859SOL    HW232040   0.856   1.008   4.386  0.7250 -1.6252 -1.0103
 6860SOL     OW32041   4.461   2.369  12.251  0.0056 -0.0438  0.2831
 6860SOL    HW132042   4.460   2.437  12.318  2.3839 -0.1674  0.4404
 6860SOL    HW232043   4.529   2.311  12.284 -0.1573 -0.8878 -0.8693
 6861SOL     OW32044   0.293   3.609   4.768  0.2201 -0.2670  0.4111
 6861SOL    HW132045   0.240   3.572   4.838 -1.8600  1.6563 -0.1513
 6861SOL    HW232046   0.229   3.638   4.703 -0.4238  1.1961  1.6760
 6862SOL     OW32047   0.042   4.662  14.120  0.0565  0.1731  0.6394
 6862SOL    HW132048   4.700   4.716  14.166  0.3584  0.9707  0.1298
 6862SOL    HW232049   0.117   4.720  14.112  0.2817 -0.0919  0.8283
 6863SOL     OW32050   1.977   3.997  17.151  0.2285 -0.0421 -0.1283
 6863SOL    HW132051   2.044   4.057  17.118 -2.0251  2.6951  0.3140
 6863SOL    HW232052   1.898   4.045  17.128  0.2453  0.1075  0.1293
 6864SOL     OW32053   3.818   3.548  16.872 -0.7721 -0.9571 -0.0153
 6864SOL    HW132054   3.766   3.574  16.796 -0.6724 -0.3717  0.1201
 6864SOL    HW232055   3.877   3.492  16.822  0.5412 -0.5782  1.1168
 6865SOL     OW32056   3.383   4.579  17.364 -0.4858  0.1874 -0.5200
 6865SOL    HW132057   3.423   4.577  17.451 -0.5164  2.8514 -0.4498
 6865SOL    HW232058   3.297   4.548  17.390  0.5622 -0.9032  1.6990
 6866SOL     OW32059   3.460   3.813   6.354 -0.4532  0.2598  0.4968
 6866SOL    HW132060   3.411   3.782   6.430  0.7585 -1.7032  0.4791
 6866SOL    HW232061   3.474   3.906   6.372 -2.0109  0.5287  0.2634
 6867SOL     OW32062   4.699   4.722   4.598 -0.2416  0.1294 -0.0594
 6867SOL    HW132063   0.054   0.053   4.612 -1.2418  0.9907  2.0851
 6867SOL    HW232064   4.649   0.044   4.667 -0.3278 -2.1779  1.3601
 6868SOL     OW32065   3.360   1.134   1.630 -0.3871 -0.2267  0.0116
 6868SOL    HW132066   3.324   1.126   1.718  0.7111 -1.2850  0.3575
 6868SOL    HW232067   3.357   1.042   1.605  0.1554 -0.3705  0.4922
 6869SOL     OW32068   3.450   3.955   3.370 -0.0595 -0.1177  0.0363
 6869SOL    HW132069   3.417   3.871   3.400  1.3235  0.1082  2.1920
 6869SOL    HW232070   3.385   3.971   3.301  1.5897 -2.0657 -1.9552
 6870SOL     OW32071   2.139   0.799   6.003 -0.2665 -0.3518  0.4904
 6870SOL    HW132072   2.044   0.794   6.009 -0.4924  1.4568 -1.9721
 6870SOL    HW232073   2.149   0.883   5.959 -0.7417 -0.7254 -0.3326
 6871SOL     OW32074   3.827   2.715  14.444  0.0876  0.3598 -0.2008
 6871SOL    HW132075   3.905   2.769  14.439 -1.0151  2.0713  0.7376
 6871SOL    HW232076   3.860   2.630  14.418 -1.5633  0.4422 -2.5752
 6872SOL     OW32077   0.269   0.450   2.607 -0.4223  0.0664 -0.2482
 6872SOL    HW132078   0.301   0.472   2.520  1.7604 -0.6554  0.3668
 6872SOL    HW232079   0.268   0.536   2.649 -1.2749 -0.6007  1.1101
 6873SOL     OW32080   1.976   4.114   7.341  0.0321  0.1302  0.0752
 6873SOL    HW132081   1.957   4.040   7.398 -0.1128 -0.2003 -0.3998
 6873SOL    HW232082   2.071   4.123   7.341  0.1208 -0.7840 -0.3271
 6874SOL     OW32083   1.234   3.499   6.462  0.1648 -0.0483 -0.7022
 6874SOL    HW132084   1.280   3.420   6.490 -0.8697 -0.4531 -0.1442
 6874SOL    HW232085   1.158   3.487   6.519  0.5341 -0.5112 -0.3143
 6875SOL     OW32086   0.936   0.244   8.612 -0.4395  0.1894 -0.3569
 6875SOL    HW132087   1.018   0.198   8.595 -0.7112 -0.3958 -0.1012
 6875SOL    HW232088   0.885   0.175   8.656 -0.6804  0.0617 -0.8399
 6876SOL     OW32089   1.635   1.147  15.162 -0.1111 -0.0584  0.1716
 6876SOL    HW132090   1.575   1.111  15.097 -1.7725  1.3828  0.9177
 6876SOL    HW232091   1.695   1.076  15.186 -0.3235 -0.4579 -0.4960
 6877SOL     OW32092   0.015   3.744   9.608  0.3003 -0.3348 -0.2104
 6877SOL    HW132093   0.038   3.690   9.532  0.6504  0.3085 -0.5593
 6877SOL    HW232094   4.696   3.674   9.658 -1.8347  0.3196 -1.1151
 6878SOL     OW32095   1.890   4.401   5.151 -0.8798 -0.6451 -0.0911
 6878SOL    HW132096   1.976   4.365   5.129 -0.5287  0.3219 -0.2865
 6878SOL    HW232097   1.904   4.495   5.147  0.5890 -0.9123 -1.3974
 6879SOL     OW32098   4.113   0.074  15.931  0.5277 -0.0548  0.6390
 6879SOL    HW132099   4.065   0.035  16.003  0.5733 -0.5783  0.3831
 6879SOL    HW232100   4.067   0.036  15.857  0.4304 -1.2913  1.3415
 6880SOL     OW32101   1.489   0.389   1.260  0.6917  0.6575 -0.5429
 6880SOL    HW132102   1.479   0.466   1.204  2.6887 -0.3138 -2.2108
 6880SOL    HW232103   1.569   0.359   1.216  1.4475  0.4453  0.9649
 6881SOL     OW32104   2.481   4.085   3.905 -0.1968 -0.3382 -0.0352
 6881SOL    HW132105   2.549   4.019   3.900 -0.6944 -0.8198 -0.6002
 6881SOL    HW232106   2.401   4.032   3.909 -2.0576  2.4638  0.1653
 6882SOL     OW32107   1.015   0.227   2.599 -0.1939 -0.6640 -0.6714
 6882SOL    HW132108   0.991   0.290   2.532  0.5014  0.2435 -0.0672
 6882SOL    HW232109   0.932   0.221   2.645 -0.2881  2.3017 -0.5135
 6883SOL     OW32110   2.771   2.295  14.404 -0.6287  0.5623 -0.6584
 6883SOL    HW132111   2.707   2.243  14.452  0.2303  0.1123 -0.0123
 6883SOL    HW232112   2.830   2.232  14.363  1.4987  1.2528  1.3502
 6884SOL     OW32113   0.368   4.486  13.586  0.0331  0.4162  0.0948
 6884SOL    HW132114   0.435   4.497  13.519 -0.8324  1.6889 -0.5473
 6884SOL    HW232115   0.404   4.527  13.664  1.5033  3.2644 -2.0871
 6885SOL     OW32116   2.326   3.314   3.929  0.0431 -0.0515 -0.2365
 6885SOL    HW132117   2.271   3.359   3.865  1.2200  0.0882 -1.1635
 6885SOL    HW232118   2.253   3.282   3.983 -0.6314 -1.9992 -2.2629
 6886SOL     OW32119   2.454   0.722   0.960  0.2227  0.6084 -0.4013
 6886SOL    HW132120   2.458   0.627   0.951  0.6190  0.4956  1.0325
 6886SOL    HW232121   2.443   0.750   0.869 -1.0555 -1.6106 -0.9242
 6887SOL     OW32122   0.778   1.751   9.596 -0.9691  0.2899 -0.1267
 6887SOL    HW132123   0.807   1.833   9.637  0.1625  0.2350 -0.8080
 6887SOL    HW232124   0.702   1.774   9.543  0.1142  1.7757 -1.0287
 6888SOL     OW32125   4.708   1.651   5.414  0.1647  0.1748  0.1045
 6888SOL    HW132126   0.046   1.725   5.412  1.1165 -0.6127 -0.1196
 6888SOL    HW232127   0.019   1.608   5.335 -0.0893  0.6623 -0.2708
 6889SOL     OW32128   3.094   2.281   4.773 -0.0029 -0.0364 -0.0441
 6889SOL    HW132129   3.081   2.338   4.696 -2.3599  0.6381  0.8392
 6889SOL    HW232130   3.153   2.220   4.729  0.6385  0.3209  0.3293
 6890SOL     OW32131   3.674   3.297   6.059  0.0008 -0.2624 -0.1541
 6890SOL    HW132132   3.642   3.208   6.069 -1.3298  0.2865  0.4644
 6890SOL    HW232133   3.606   3.340   6.007  0.8956  1.1556 -0.1520
 6891SOL     OW32134   3.680   0.407  16.136 -0.3233 -0.0766 -0.0951
 6891SOL    HW132135   3.734   0.339  16.096  1.9949  1.1846  0.8859
 6891SOL    HW232136   3.634   0.452  16.065 -1.4845 -2.3350 -0.7932
 6892SOL     OW32137   0.671   4.489   8.724  0.5553 -0.5290  0.1499
 6892SOL    HW132138   0.593   4.508   8.775 -0.4328 -0.1471 -1.5178
 6892SOL    HW232139   0.729   4.503   8.799  2.8277 -1.6422 -1.3816
 6893SOL     OW32140   3.618   1.486   3.693 -0.1903  0.3904  0.2947
 6893SOL    HW132141   3.591   1.406   3.738  0.8805 -0.8631 -1.3039
 6893SOL    HW232142   3.576   1.558   3.740 -0.7575  0.3575 -0.1674
 6894SOL     OW32143   3.348   0.612   1.333 -0.0384 -0.1723  0.0737
 6894SOL    HW132144   3.287   0.686   1.324  0.6085  0.4427  0.7238
 6894SOL    HW232145   3.330   0.570   1.249 -0.6841 -0.9201  0.5880
 6895SOL     OW32146   1.244   4.031   5.046 -0.2654  0.2704  0.0248
 6895SOL    HW132147   1.174   3.988   4.996  1.2621 -1.3161 -0.7198
 6895SOL    HW232148   1.188   4.090   5.098 -2.7230 -2.0055 -0.0411
 6896SOL     OW32149   2.896   2.580   7.494 -0.1471 -0.2752 -0.0046
 6896SOL    HW132150   2.931   2.608   7.579 -0.9579  1.0915 -0.1388
 6896SOL    HW232151   2.805   2.603   7.510  0.4434  1.0362  1.5282
 6897SOL     OW32152   1.715   0.306   3.635  1.0811 -0.1596  0.0584
 6897SOL    HW132153   1.760   0.387   3.612  2.6323 -1.3639 -1.2057
 6897SOL    HW232154   1.622   0.324   3.618  1.3446  0.1450 -1.0576
 6898SOL     OW32155   3.309   4.630   5.623  0.3081  0.6605  0.5984
 6898SOL    HW132156   3.324   4.678   5.704  1.3401 -1.4209  1.6231
 6898SOL    HW232157   3.385   4.572   5.624  0.0724  0.3235 -0.3936
 6899SOL     OW32158   3.136   3.476   8.092 -0.0342  0.2008 -0.0006
 6899SOL    HW132159   3.171   3.564   8.085 -0.4303  0.3673  0.0803
 6899SOL    HW232160   3.177   3.451   8.174  0.1538  0.4205 -0.0307
 6900SOL     OW32161   0.908   0.577   5.853 -0.3373  0.1804 -0.5094
 6900SOL    HW132162   0.947   0.541   5.932 -2.1301  0.7801  0.6495
 6900SOL    HW232163   0.823   0.606   5.886  0.4371 -0.7209  2.2681
 6901SOL     OW32164   2.754   3.655   2.629  0.2762 -0.2429 -0.6515
 6901SOL    HW132165   2.672   3.615   2.658  1.6261 -2.4150  0.1322
 6901SOL    HW232166   2.792   3.599   2.563  2.3906  0.1344  0.2551
 6902SOL     OW32167   4.403   1.469   7.014  0.3257 -0.2874 -0.3962
 6902SOL    HW132168   4.482   1.432   7.053  1.0173 -0.1080 -1.6087
 6902SOL    HW232169   4.373   1.403   6.950  1.5396 -0.1892 -1.0691
 6903SOL     OW32170   3.500   2.878  12.125 -0.1529 -0.2853  0.2586
 6903SOL    HW132171   3.500   2.889  12.030  1.2691 -0.0177  0.2909
 6903SOL    HW232172   3.414   2.838  12.139 -0.7372  0.8078 -0.1881
 6904SOL     OW32173   2.379   2.254   7.821  0.2243 -0.0415 -0.3683
 6904SOL    HW132174   2.379   2.232   7.727 -0.8466  0.5476 -0.4947
 6904SOL    HW232175   2.361   2.346   7.805 -2.3188 -0.6867 -1.2457
 6905SOL     OW32176   3.612   0.692  15.445 -0.1318 -0.3699 -0.3026
 6905SOL    HW132177   3.664   0.749  15.388 -1.5005 -0.2133 -1.4033
 6905SOL    HW232178   3.628   0.615  15.390  0.5716 -2.9147  3.4586
 6906SOL     OW32179   0.697   4.015   5.043 -0.3054  0.7162  0.0684
 6906SOL    HW132180   0.649   3.934   5.023  0.4044  0.7512 -1.7911
 6906SOL    HW232181   0.736   4.032   4.958 -1.5734 -2.6798 -1.1993
 6907SOL     OW32182   1.479   0.619   1.105  0.2073  0.1743  0.2209
 6907SOL    HW132183   1.454   0.683   1.039 -0.5314 -0.0423  0.2872
 6907SOL    HW232184   1.562   0.592   1.066  0.0041 -1.4331  0.9211
 6908SOL     OW32185   3.839   4.047  12.573 -0.8510 -0.0686 -0.3201
 6908SOL    HW132186   3.777   4.066  12.503 -4.0695 -0.8614  2.3470
 6908SOL    HW232187   3.786   4.063  12.652 -0.9148 -1.9005  0.0070
 6909SOL     OW32188   0.350   0.459   4.500  0.1379  0.0918  0.7929
 6909SOL    HW132189   0.409   0.398   4.545  1.1983  0.6630  0.1985
 6909SOL    HW232190   0.405   0.537   4.494 -1.4760  1.0924 -0.8145
 6910SOL     OW32191   0.176   3.525   1.454  0.4463 -0.0440 -0.4641
 6910SOL    HW132192   0.271   3.515   1.460  0.3152 -0.9513  0.0163
 6910SOL    HW232193   0.161   3.465   1.527 -0.5180  1.6398  0.7185
 6911SOL     OW32194   2.061   2.443   2.044 -0.0721  0.0508 -0.0022
 6911SOL    HW132195   2.148   2.467   2.010 -0.6654 -0.2618 -1.7324
 6911SOL    HW232196   2.034   2.515   2.100  0.2511  0.0257  0.1863
 6912SOL     OW32197   4.257   1.663  11.098  0.3944 -0.0554 -0.2582
 6912SOL    HW132198   4.319   1.695  11.163 -0.3954 -1.2428  1.0910
 6912SOL    HW232199   4.205   1.741  11.079 -1.0813 -0.9145  0.2057
 6913SOL     OW32200   3.879   1.556   6.972 -0.0186  0.2038  0.2951
 6913SOL    HW132201   3.877   1.462   6.986  0.3361 -0.1662 -2.0140
 6913SOL    HW232202   3.972   1.579   6.975  0.2551 -0.7708 -0.6225
 6914SOL     OW32203   1.209   4.340   4.927  0.1052 -0.6919  0.4135
 6914SOL    HW132204   1.238   4.290   5.003 -2.0201 -0.7533  1.1884
 6914SOL    HW232205   1.132   4.380   4.967  1.5400 -0.3525  2.8590
 6915SOL     OW32206   1.306   1.114   2.347 -0.2431  0.0973 -0.1432
 6915SOL    HW132207   1.386   1.155   2.316  0.1268 -0.8911 -0.4717
 6915SOL    HW232208   1.321   1.022   2.328 -1.2740 -0.2254  0.6220
 6916SOL     OW32209   2.181   2.531   8.092  0.4869  0.3083  0.4926
 6916SOL    HW132210   2.179   2.601   8.027  0.5795 -0.3269 -0.2033
 6916SOL    HW232211   2.133   2.469   8.038 -1.9919  0.5241  2.4851
 6917SOL     OW32212   1.995   3.888  14.271 -0.3566  0.2331 -0.0078
 6917SOL    HW132213   2.068   3.826  14.267  0.6563  1.6142 -3.3560
 6917SOL    HW232214   1.935   3.840  14.328  1.2151 -3.0864 -1.1428
 6918SOL     OW32215   4.407   1.140   4.980  0.7470 -0.0517 -0.3534
 6918SOL    HW132216   4.483   1.086   4.958  1.4007  0.2224  1.1974
 6918SOL    HW232217   4.353   1.133   4.902  0.5836 -0.2886 -0.2220
 6919SOL     OW32218   2.489   3.772  11.532  0.0894  0.5011 -0.0201
 6919SOL    HW132219   2.523   3.860  11.549  0.1573  0.3553  0.6076
 6919SOL    HW232220   2.417   3.798  11.475  1.7723  0.1891 -2.2886
 6920SOL     OW32221   2.343   1.449  10.270 -0.3683 -0.0387 -0.0034
 6920SOL    HW132222   2.324   1.488  10.356  2.8333  2.1618 -0.2838
 6920SOL    HW232223   2.254   1.438  10.237 -0.4489 -1.7786  0.8383
 6921SOL     OW32224   0.305   2.047  13.000  0.0750 -0.3498 -0.1409
 6921SOL    HW132225   0.367   2.045  13.073 -0.9973 -2.6492  0.6999
 6921SOL    HW232226   0.363   2.032  12.925 -1.1927 -0.6051 -1.0777
 6922SOL     OW32227   1.567   3.203   9.162 -0.2361  0.0222 -0.3062
 6922SOL    HW132228   1.519   3.235   9.085  0.4619 -0.3423 -0.8930
 6922SOL    HW232229   1.604   3.122   9.128  1.6857  1.1248 -0.8726
 6923SOL     OW32230   2.604   1.710   5.778 -0.5535  0.4894  0.2487
 6923SOL    HW132231   2.575   1.782   5.832 -1.0147  2.2267 -2.3122
 6923SOL    HW232232   2.672   1.669   5.832 -0.8263  0.6846  0.7373
 6924SOL     OW32233   2.441   2.528  16.943 -0.2655  0.0525 -0.0364
 6924SOL    HW132234   2.409   2.445  16.907  0.5002 -0.2665  0.0102
 6924SOL    HW232235   2.368   2.571  16.987 -1.7104 -0.5530 -1.8757
 6925SOL     OW32236   2.125   1.131   5.240  0.4081 -0.6519 -0.1038
 6925SOL    HW132237   2.183   1.182   5.183  0.8163 -1.3988 -0.3577
 6925SOL    HW232238   2.051   1.108   5.184  2.4323 -4.2604 -1.2232
 6926SOL     OW32239   3.485   0.470   3.361 -0.2357 -0.2248 -0.1417
 6926SOL    HW132240   3.539   0.516   3.426 -1.2131 -0.3865  0.7719
 6926SOL    HW232241   3.490   0.530   3.286 -0.2132 -3.0696 -2.4029
 6927SOL     OW32242   0.188   0.799   9.371 -0.1444 -0.6428  0.6030
 6927SOL    HW132243   0.207   0.835   9.458  1.0368 -1.4647  0.6794
 6927SOL    HW232244   0.215   0.708   9.374  1.4555 -0.2617 -2.1175
 6928SOL     OW32245   2.764   1.346  10.618  0.2804 -0.0113 -0.5036
 6928SOL    HW132246   2.834   1.410  10.604  0.0176  0.1075 -1.2510
 6928SOL    HW232247   2.715   1.363  10.538 -2.4200 -2.9624  0.5145
 6929SOL     OW32248   3.319   2.409   2.454 -0.0331 -0.4097 -0.1088
 6929SOL    HW132249   3.302   2.398   2.548 -1.4832  0.0650 -0.3209
 6929SOL    HW232250   3.342   2.318   2.436  0.1122 -0.6046  1.0303
 6930SOL     OW32251   2.698   0.511   7.108  0.3757 -0.7207 -0.1080
 6930SOL    HW132252   2.735   0.568   7.176  1.5055 -0.2498 -1.1200
 6930SOL    HW232253   2.759   0.437   7.115 -3.0603 -3.5628 -0.1403
 6931SOL     OW32254   0.448   0.626  13.444  0.2419  0.3515 -0.3989
 6931SOL    HW132255   0.507   0.621  13.520 -1.2289 -0.3679  0.6902
 6931SOL    HW232256   0.516   0.645  13.380  0.0524  2.5289  0.0219
 6932SOL     OW32257   2.517   4.040  11.491 -0.2268  0.1409 -0.3007
 6932SOL    HW132258   2.603   4.080  11.503 -0.3717 -0.3577  2.4159
 6932SOL    HW232259   2.493   4.084  11.409  0.0587  0.4769 -0.2041
 6933SOL     OW32260   2.825   1.998  14.460  0.2301 -0.0933  0.5488
 6933SOL    HW132261   2.818   1.908  14.492 -3.0735 -0.4132 -1.0964
 6933SOL    HW232262   2.782   2.053  14.526 -0.7796  0.0863 -0.2477
 6934SOL     OW32263   4.407   1.863   9.720  0.3848 -0.7253 -0.6021
 6934SOL    HW132264   4.349   1.870   9.645 -1.0532 -0.2426  0.5457
 6934SOL    HW232265   4.374   1.937   9.772  0.9211 -0.5167 -0.5569
 6935SOL     OW32266   0.888   1.130   9.184  0.1247 -0.5192  0.9214
 6935SOL    HW132267   0.851   1.092   9.105 -1.8858  0.4187  1.4140
 6935SOL    HW232268   0.880   1.222   9.158 -3.0600 -1.5713 -1.6881
 6936SOL     OW32269   2.288   4.110   2.809  0.1991 -0.0914  0.5836
 6936SOL    HW132270   2.306   4.025   2.848 -2.7846 -1.0588 -0.2042
 6936SOL    HW232271   2.194   4.121   2.820  0.5528  1.9935  1.5089
 6937SOL     OW32272   1.702   1.621  12.663 -0.0586  0.3507 -0.6439
 6937SOL    HW132273   1.646   1.544  12.672 -1.4424  1.6454  1.7959
 6937SOL    HW232274   1.666   1.683  12.726 -1.5770 -1.5687  0.3859
 6938SOL     OW32275   2.060   2.645   1.234 -0.0040 -0.3917  0.5380
 6938SOL    HW132276   2.021   2.561   1.260 -1.0898  0.0961  0.5184
 6938SOL    HW232277   2.127   2.665   1.299 -0.5006  2.2942  0.2489
 6939SOL     OW32278   0.543   2.482  13.769  0.1299 -0.1938 -0.4251
 6939SOL    HW132279   0.587   2.477  13.684 -1.4074  1.4560 -1.3352
 6939SOL    HW232280   0.455   2.499  13.735 -0.2648 -1.3480  0.0363
 6940SOL     OW32281   1.066   2.450   7.701  0.3562 -0.4423 -0.0026
 6940SOL    HW132282   1.032   2.438   7.790  1.6893 -0.1913  0.5259
 6940SOL    HW232283   1.151   2.406   7.706  1.3450  1.3457 -1.2962
 6941SOL     OW32284   2.743   3.424   7.776  0.2151  0.2448 -0.2206
 6941SOL    HW132285   2.719   3.367   7.850 -0.1320  1.3364  0.5104
 6941SOL    HW232286   2.770   3.356   7.715  3.6783  1.6817 -0.2707
 6942SOL     OW32287   0.121   3.372   1.662  0.1148  0.2984  0.0037
 6942SOL    HW132288   0.145   3.344   1.750 -0.2774  1.3347  0.4355
 6942SOL    HW232289   0.026   3.374   1.674 -0.0696  1.9181 -1.7447
 6943SOL     OW32290   0.787   2.672   9.407 -0.6419 -0.6997 -0.1481
 6943SOL    HW132291   0.870   2.641   9.443  0.7874  1.0544 -1.9582
 6943SOL    HW232292   0.724   2.608   9.441 -0.4543  0.8880  3.2248
 6944SOL     OW32293   2.401   1.244   9.405  0.5121  0.0565 -0.1920
 6944SOL    HW132294   2.494   1.255   9.385  0.3775 -0.9950 -1.3624
 6944SOL    HW232295   2.354   1.318   9.366 -0.6217  0.3249  1.6394
 6945SOL     OW32296   1.348   3.084   0.136 -0.0130 -0.1270  0.5006
 6945SOL    HW132297   1.279   3.139   0.172 -0.0684  0.3799 -0.3762
 6945SOL    HW232298   1.321   3.068   0.045  0.8393  0.7174  0.1033
 6946SOL     OW32299   0.059   2.693   8.661 -0.4561 -0.0224 -0.0796
 6946SOL    HW132300   0.007   2.680   8.740  0.6194  2.6958  1.0528
 6946SOL    HW232301   0.148   2.694   8.696  0.2761  0.5749 -1.9594
 6947SOL     OW32302   2.913   1.649   3.273  0.0741  0.0404  0.1027
 6947SOL    HW132303   2.989   1.604   3.237 -0.6766 -1.0429 -0.1361
 6947SOL    HW232304   2.928   1.738   3.242  1.2109  1.1354  3.8394
 6948SOL     OW32305   2.089   1.370   6.693  0.5208  0.3308 -0.6052
 6948SOL    HW132306   2.016   1.422   6.726  0.5755  0.4121 -0.6129
 6948SOL    HW232307   2.161   1.388   6.753  0.7108 -1.1513 -0.3757
 6949SOL     OW32308   3.929   1.362   0.972  0.1421 -0.2346 -0.5744
 6949SOL    HW132309   3.875   1.438   0.951 -1.7198 -1.7391 -1.2845
 6949SOL    HW232310   3.952   1.378   1.064  1.5897  0.7481 -1.1084
 6950SOL     OW32311   4.473   1.806  14.833  0.0453 -0.3185 -0.9039
 6950SOL    HW132312   4.392   1.844  14.798 -0.1463  1.3488  1.3088
 6950SOL    HW232313   4.443   1.769  14.916  1.4474 -1.1529 -0.7708
 6951SOL     OW32314   3.189   1.076   8.882  0.5842  0.6103  0.4226
 6951SOL    HW132315   3.153   1.013   8.945 -1.3761  0.8963 -0.4139
 6951SOL    HW232316   3.250   1.023   8.830  2.9107  2.4186  1.3131
 6952SOL     OW32317   3.647   3.794   1.024 -0.5329 -0.3475  0.1992
 6952SOL    HW132318   3.722   3.737   1.006  0.0231  1.2406 -2.5222
 6952SOL    HW232319   3.581   3.750   0.970  0.4714 -1.2200 -0.3311
 6953SOL     OW32320   1.514   1.646   4.926  0.4694 -0.0319  0.7294
 6953SOL    HW132321   1.434   1.599   4.902  1.3966 -0.7361 -1.0131
 6953SOL    HW232322   1.481   1.718   4.980 -2.3463  1.0775 -2.4472
 6954SOL     OW32323   4.092   1.917   2.444  0.5514 -0.4368  0.5944
 6954SOL    HW132324   4.153   1.905   2.517  0.2620  0.5764  1.0065
 6954SOL    HW232325   4.014   1.869   2.473  0.3529  0.1298  0.9901
 6955SOL     OW32326   2.448   2.364  15.949  0.0649 -1.0458  0.7391
 6955SOL    HW132327   2.364   2.319  15.935 -0.5548  0.4811 -0.4595
 6955SOL    HW232328   2.468   2.398  15.862 -0.3375  0.8840  1.4109
 6956SOL     OW32329   4.663   1.412   5.544 -0.0904 -0.0979 -0.2926
 6956SOL    HW132330   4.567   1.419   5.541 -0.0012  1.6087  1.4230
 6956SOL    HW232331   4.684   1.497   5.505  1.1860 -0.8139 -1.1720
 6957SOL     OW32332   2.769   4.373   7.953  0.6688 -0.4630  0.3063
 6957SOL    HW132333   2.847   4.320   7.934  1.3965  0.2772  1.1964
 6957SOL    HW232334   2.803   4.418   8.030  0.6196  0.2806 -0.1073
 6958SOL     OW32335   3.809   1.528   9.966 -0.3422 -0.1927 -0.0404
 6958SOL    HW132336   3.838   1.524  10.058 -0.3968  0.0202 -0.0155
 6958SOL    HW232337   3.734   1.588   9.972 -1.1058 -1.0184 -1.1733
 6959SOL     OW32338   1.027   1.073   4.456  0.0054  0.0614 -0.2006
 6959SOL    HW132339   1.066   1.015   4.521  1.0112  2.7134  1.5934
 6959SOL    HW232340   1.092   1.066   4.386  0.6615 -0.2419  0.4307
 6960SOL     OW32341   3.214   1.393   9.446  0.3777 -0.0425  0.9133
 6960SOL    HW132342   3.244   1.392   9.355 -1.5268 -2.3384  0.2924
 6960SOL    HW232343   3.119   1.394   9.434  0.7997 -0.4386 -2.3903
 6961SOL     OW32344   4.687   2.777   6.719 -0.6582 -0.1318 -0.2048
 6961SOL    HW132345   0.028   2.713   6.751 -0.5366 -0.8194 -1.8518
 6961SOL    HW232346   0.008   2.816   6.644  1.5904  1.9985  2.1989
 6962SOL     OW32347   4.635   2.970   0.165  0.3095  0.6403 -0.1407
 6962SOL    HW132348   4.594   2.988   0.249 -1.1518  0.8720 -0.9135
 6962SOL    HW232349   4.560   2.990   0.110  0.8421  0.6296 -0.8759
 6963SOL     OW32350   2.119   4.526   5.703  0.0128 -0.5302  0.1736
 6963SOL    HW132351   2.085   4.603   5.658  1.2765 -0.6111 -0.9106
 6963SOL    HW232352   2.055   4.458   5.683  0.8755 -0.8597 -1.5117
 6964SOL     OW32353   3.990   2.125  13.296  0.0572  0.0931  0.3067
 6964SOL    HW132354   3.917   2.082  13.251 -0.2261  1.3875 -0.4465
 6964SOL    HW232355   3.946   2.203  13.331  0.4153  0.2945  0.3038
 6965SOL     OW32356   4.202   4.401  15.028  0.0598  0.0359  0.6491
 6965SOL    HW132357   4.152   4.320  15.044 -0.5030  0.2602  0.0275
 6965SOL    HW232358   4.245   4.408  15.114  1.2163 -1.6309  0.2186
 6966SOL     OW32359   0.097   3.637   0.617  0.0123  0.2699 -0.2689
 6966SOL    HW132360   0.094   3.647   0.712  3.0202 -0.4523 -0.0692
 6966SOL    HW232361   0.021   3.580   0.613  2.3618 -2.8464 -0.6279
 6967SOL     OW32362   0.636   0.528   4.821 -0.8818  0.1709 -0.0907
 6967SOL    HW132363   0.615   0.457   4.881 -0.1399 -0.5934 -0.7482
 6967SOL    HW232364   0.731   0.521   4.813 -1.2798 -2.2297 -2.4513
 6968SOL     OW32365   2.239   3.043   4.243  0.4317 -0.0686  0.4372
 6968SOL    HW132366   2.317   3.057   4.189 -0.2805 -0.2538 -0.6548
 6968SOL    HW232367   2.195   3.126   4.223 -1.1572 -0.4355  2.4404
 6969SOL     OW32368   1.330   1.500   2.031  0.1624 -0.3547 -0.3282
 6969SOL    HW132369   1.288   1.544   1.957 -0.5308 -0.7416 -0.1674
 6969SOL    HW232370   1.313   1.407   2.023  0.8807 -0.5437  0.2869
 6970SOL     OW32371   2.486   1.850  13.732  0.3653 -0.0986 -0.4106
 6970SOL    HW132372   2.526   1.836  13.646 -1.0640 -0.3855 -1.0339
 6970SOL    HW232373   2.438   1.931  13.714  2.0761  1.3975  1.9139
 6971SOL     OW32374   2.778   4.251   4.556  0.2059  0.0501 -0.2774
 6971SOL    HW132375   2.823   4.186   4.611  0.8845 -0.0694 -0.9724
 6971SOL    HW232376   2.723   4.301   4.616  1.5655  1.4988 -0.2362
 6972SOL     OW32377   3.198   0.745   9.216 -0.1005  0.4687 -0.1395
 6972SOL    HW132378   3.198   0.772   9.308  2.5222  0.6234 -0.1954
 6972SOL    HW232379   3.154   0.662   9.234  0.8632 -0.3591 -1.5899
 6973SOL     OW32380   3.719   4.167   8.600 -0.5762  0.1027 -0.5030
 6973SOL    HW132381   3.763   4.098   8.550 -0.1189  0.7173 -0.9475
 6973SOL    HW232382   3.743   4.146   8.690 -1.6490  0.3916 -0.1570
 6974SOL     OW32383   0.266   1.885   4.551 -0.2754  0.0123  0.1803
 6974SOL    HW132384   0.215   1.880   4.632 -1.7609  0.4206 -0.7171
 6974SOL    HW232385   0.304   1.798   4.554 -1.3695 -0.4956 -0.7476
 6975SOL     OW32386   2.761   2.667   8.539 -0.5787  0.4268 -0.3728
 6975SOL    HW132387   2.773   2.611   8.463 -0.8356  0.4830 -0.4557
 6975SOL    HW232388   2.669   2.656   8.566 -0.5779  2.2834  0.4007
 6976SOL     OW32389   2.266   1.508   8.655  0.1760 -0.3507 -1.0069
 6976SOL    HW132390   2.342   1.566   8.650  0.0970 -0.1190  0.8508
 6976SOL    HW232391   2.201   1.578   8.655 -0.1954 -0.6978 -2.6753
 6977SOL     OW32392   1.748   2.471   1.391  0.4732 -0.3254 -0.7652
 6977SOL    HW132393   1.673   2.478   1.332 -0.1570 -1.4204 -0.1035
 6977SOL    HW232394   1.756   2.376   1.394 -2.7111 -0.6292 -1.5201
 6978SOL     OW32395   3.988   3.657   5.190  0.4758 -0.2786  0.2484
 6978SOL    HW132396   4.020   3.732   5.241 -0.2121  0.3158 -0.1911
 6978SOL    HW232397   4.057   3.592   5.191 -0.5774 -1.3801  1.3063
 6979SOL     OW32398   1.942   3.424   4.503  0.7469 -0.2274  0.0306
 6979SOL    HW132399   1.854   3.437   4.468  0.9258 -0.3293 -0.4652
 6979SOL    HW232400   1.952   3.508   4.548 -1.0479  0.3039 -0.5680
 6980SOL     OW32401   1.926   2.651   4.306 -0.4920  0.0152 -0.2662
 6980SOL    HW132402   1.919   2.608   4.221  0.5529 -1.0278  0.1847
 6980SOL    HW232403   2.010   2.624   4.343 -1.0277  0.3197  1.1719
 6981SOL     OW32404   1.844   4.576   8.074 -0.2896 -0.1916  0.5440
 6981SOL    HW132405   1.935   4.548   8.073 -0.4500 -0.6879 -1.4865
 6981SOL    HW232406   1.815   4.496   8.030  1.2737 -0.0870 -0.6997
 6982SOL     OW32407   1.056   3.666   9.035  0.1451 -0.6196  0.0713
 6982SOL    HW132408   1.043   3.609   9.111 -0.7556  0.2730  0.5858
 6982SOL    HW232409   1.076   3.749   9.078  1.1413 -1.7000  1.6603
 6983SOL     OW32410   1.375   3.524   7.319  0.2432 -0.1104  0.3488
 6983SOL    HW132411   1.303   3.543   7.259  0.5179 -0.0100  0.0492
 6983SOL    HW232412   1.456   3.550   7.275  1.6636  1.2617  3.7767
 6984SOL     OW32413   1.957   4.291   5.809  0.1844  0.1804  0.1491
 6984SOL    HW132414   1.973   4.200   5.834  0.0506 -0.3212 -1.6077
 6984SOL    HW232415   1.943   4.333   5.894 -2.1891 -1.3411  0.5181
 6985SOL     OW32416   4.400   2.055   6.237 -0.0936  0.3584  0.0615
 6985SOL    HW132417   4.412   1.973   6.284  1.8250  0.3740 -0.4021
 6985SOL    HW232418   4.319   2.075   6.285 -0.0193  2.0996 -0.5365
 6986SOL     OW32419   1.750   3.868   2.156 -0.4404  0.4602 -0.3625
 6986SOL    HW132420   1.787   3.798   2.209  0.1683  1.0190 -0.0448
 6986SOL    HW232421   1.704   3.819   2.088 -1.3872  2.2027 -0.9847
 6987SOL     OW32422   2.612   3.287  16.046 -0.5029 -0.3057 -0.4486
 6987SOL    HW132423   2.582   3.287  16.136  3.7630 -0.3591  1.0046
 6987SOL    HW232424   2.623   3.381  16.034  0.8797 -0.3616  0.3371
 6988SOL     OW32425   1.648   4.357   8.871  0.0693 -0.1212 -0.1796
 6988SOL    HW132426   1.732   4.363   8.917 -0.7118 -0.9739  1.3566
 6988SOL    HW232427   1.653   4.273   8.827 -2.5394  0.8596 -2.3495
 6989SOL     OW32428   3.627   0.904   4.520  0.3516 -0.6474 -0.4002
 6989SOL    HW132429   3.697   0.839   4.507  2.3129  0.9626  2.3057
 6989SOL    HW232430   3.620   0.949   4.436  0.4266 -3.0627 -1.6967
 6990SOL     OW32431   3.013   4.524  12.391 -0.3724 -0.4968 -0.3363
 6990SOL    HW132432   3.081   4.457  12.401 -0.3283 -0.3703  0.1783
 6990SOL    HW232433   3.035   4.554  12.302  0.6338  0.9294  0.4011
 6991SOL     OW32434   4.329   1.063   7.552 -0.1078 -0.3156 -0.3952
 6991SOL    HW132435   4.415   1.037   7.520 -0.5117 -3.7444  1.3878
 6991SOL    HW232436   4.277   1.037   7.476 -0.3317 -0.3837 -0.2170
 6992SOL     OW32437   0.271   2.507   7.496 -0.0499  0.3094 -0.2433
 6992SOL    HW132438   0.295   2.599   7.497  2.5485 -0.3484 -0.6324
 6992SOL    HW232439   0.302   2.475   7.581 -2.3620  1.7933  1.1318
 6993SOL     OW32440   1.150   2.711   8.786  0.7760 -0.0385  0.1398
 6993SOL    HW132441   1.186   2.774   8.722 -1.1866  0.6693 -0.2718
 6993SOL    HW232442   1.147   2.759   8.868  0.3984 -1.1803  0.7848
 6994SOL     OW32443   0.384   0.519   6.711 -0.1242  0.1532 -0.1724
 6994SOL    HW132444   0.409   0.520   6.618  0.0813 -0.5070 -0.1205
 6994SOL    HW232445   0.318   0.588   6.700 -0.5205 -0.2038 -0.0145
 6995SOL     OW32446   3.065   3.407  17.498  0.1596 -0.0416 -0.1934
 6995SOL    HW132447   3.102   3.435  17.414 -0.3215  2.8802  0.5528
 6995SOL    HW232448   3.067   3.311  17.496 -3.0301 -0.1446  1.4491
 6996SOL     OW32449   3.134   0.840   2.285 -0.4120  0.8522  0.0464
 6996SOL    HW132450   3.065   0.904   2.303  1.0498  2.2332  0.7475
 6996SOL    HW232451   3.098   0.785   2.216 -1.6578  1.6726  0.0413
 6997SOL     OW32452   1.151   4.311   1.714 -0.0144  0.2115  0.1360
 6997SOL    HW132453   1.133   4.240   1.776 -0.3902 -0.2565 -0.5144
 6997SOL    HW232454   1.246   4.321   1.714 -0.0535  0.7037  2.3107
 6998SOL     OW32455   3.983   0.299   1.018 -0.1953  0.0811  0.0349
 6998SOL    HW132456   3.898   0.345   1.014 -1.2606 -1.9951 -1.2805
 6998SOL    HW232457   3.969   0.228   0.955 -0.4664  0.4826 -0.3677
 6999SOL     OW32458   4.392   4.432  13.453 -0.0910  0.3168  0.2744
 6999SOL    HW132459   4.300   4.419  13.428 -0.1758  2.7232 -0.6592
 6999SOL    HW232460   4.386   4.403  13.544  0.6421  0.5783  0.4036
 7000SOL     OW32461   2.071   1.423   7.042 -0.3076 -0.0396  0.5472
 7000SOL    HW132462   2.093   1.332   7.058 -2.8466 -0.9019 -1.0329
 7000SOL    HW232463   2.153   1.449   6.999 -1.2951  0.6036 -0.9382
 7001SOL     OW32464   4.467   1.373   2.871  0.1914 -0.2832  0.6333
 7001SOL    HW132465   4.437   1.434   2.938 -1.7434  0.0954 -0.5814
 7001SOL    HW232466   4.559   1.359   2.892  0.6019  0.2719 -0.8022
 7002SOL     OW32467   1.704   0.444   4.742  0.9563  0.0726  0.1149
 7002SOL    HW132468   1.730   0.441   4.650 -1.7267 -0.2489 -0.6479
 7002SOL    HW232469   1.783   0.437   4.794  1.8628 -0.5941 -1.3378
 7003SOL     OW32470   1.459   0.920   0.506  0.7247  0.3339 -0.4644
 7003SOL    HW132471   1.522   0.928   0.579  1.1207 -0.6862 -0.6934
 7003SOL    HW232472   1.515   0.853   0.466 -0.8881 -1.4466  0.2380
 7004SOL     OW32473   4.538   0.353   2.926 -0.3561  0.4587 -0.0781
 7004SOL    HW132474   4.557   0.384   2.837 -1.9259 -0.0760 -0.5932
 7004SOL    HW232475   4.602   0.281   2.925 -1.8438 -0.8539 -0.0127
 7005SOL     OW32476   0.436   2.965   8.579 -0.4035  0.2701 -0.0927
 7005SOL    HW132477   0.509   2.914   8.543 -0.4692  0.9349 -1.1764
 7005SOL    HW232478   0.456   3.055   8.551  0.4372 -0.6072 -2.2679
 7006SOL     OW32479   3.975   3.697  15.463 -0.3753  0.1725  0.4724
 7006SOL    HW132480   3.994   3.647  15.542  0.6891  1.0378  0.7509
 7006SOL    HW232481   3.910   3.760  15.495  0.7982  0.5302  2.1259
 7007SOL     OW32482   1.185   3.377  14.735 -0.2870 -0.8307 -0.6259
 7007SOL    HW132483   1.112   3.316  14.722 -1.7183  0.4600  1.2849
 7007SOL    HW232484   1.263   3.324  14.720  0.7337  0.5672 -0.3185
 7008SOL     OW32485   3.528   3.896  16.312 -0.1429 -0.1093 -0.6598
 7008SOL    HW132486   3.513   3.987  16.338  1.8238  0.0011  0.0504
 7008SOL    HW232487   3.612   3.915  16.269 -0.4395  1.6388 -0.5012
 7009SOL     OW32488   0.892   1.556   3.470 -0.1196 -0.0556 -0.4239
 7009SOL    HW132489   0.892   1.538   3.376  3.4866 -0.1230 -0.4246
 7009SOL    HW232490   0.819   1.617   3.472  0.2893  0.4182 -0.0841
 7010SOL     OW32491   4.490   0.650   7.621  0.0833  0.1367  0.6337
 7010SOL    HW132492   4.527   0.708   7.688  1.4611  0.2622 -0.2362
 7010SOL    HW232493   4.564   0.590   7.612  0.3046  0.5833 -0.5534
 7011SOL     OW32494   1.862   2.575   7.023 -0.2322  0.2543 -0.7275
 7011SOL    HW132495   1.869   2.662   6.983 -1.3540 -0.2249 -1.9641
 7011SOL    HW232496   1.805   2.538   6.956  0.3504 -1.3951 -0.2923
 7012SOL     OW32497   2.388   2.401   7.288 -0.1017 -0.2222 -0.2885
 7012SOL    HW132498   2.469   2.365   7.253  0.2214 -2.5692  2.7467
 7012SOL    HW232499   2.364   2.454   7.213  2.1896 -2.0530 -2.2991
 7013SOL     OW32500   3.154   2.881   8.233  0.5932  0.0398  0.5730
 7013SOL    HW132501   3.080   2.935   8.263 -0.4792 -0.9825 -0.2327
 7013SOL    HW232502   3.117   2.796   8.210  0.8982 -0.0387  0.3802
 7014SOL     OW32503   0.151   3.681  15.458  0.3067 -0.9075  0.0760
 7014SOL    HW132504   0.157   3.752  15.523  1.6224 -0.6086 -0.3721
 7014SOL    HW232505   0.071   3.637  15.486  0.5797 -0.1211  2.1560
 7015SOL     OW32506   3.031   2.298   4.020  0.0778 -0.0758 -0.9457
 7015SOL    HW132507   2.979   2.378   4.016 -1.6142 -1.1738 -0.6779
 7015SOL    HW232508   3.012   2.266   4.108 -1.3135 -1.9388 -1.9306
 7016SOL     OW32509   3.723   3.820   4.760  0.3899  0.0679 -0.2682
 7016SOL    HW132510   3.767   3.834   4.676  1.2804  1.2681  0.4002
 7016SOL    HW232511   3.783   3.771   4.817  1.0438  0.3598 -0.7091
 7017SOL     OW32512   0.601   1.449   2.007  0.0357  0.1156  0.4349
 7017SOL    HW132513   0.597   1.430   1.913 -2.4801  0.1698  0.5160
 7017SOL    HW232514   0.662   1.523   2.008 -1.2531  1.2161 -0.7772
 7018SOL     OW32515   2.009   0.269   3.266  0.5315  0.2359  0.0748
 7018SOL    HW132516   1.996   0.207   3.195 -1.5298 -0.9597  1.4861
 7018SOL    HW232517   2.097   0.301   3.245  0.3063  0.8458  0.0532
 7019SOL     OW32518   2.962   2.004   5.273  0.1032  0.4794 -0.5536
 7019SOL    HW132519   3.047   2.046   5.259 -0.3249  0.9161 -1.8291
 7019SOL    HW232520   2.908   2.077   5.302 -1.5613 -0.6239 -0.8691
 7020SOL     OW32521   1.743   4.102  17.078  0.0678  0.2642 -0.0078
 7020SOL    HW132522   1.761   4.088  16.985  1.6482  0.9250  0.1836
 7020SOL    HW232523   1.741   4.198  17.082 -3.3129 -0.0203  3.7870
 7021SOL     OW32524   3.117   3.817   5.328 -0.7194 -0.6190 -0.5148
 7021SOL    HW132525   3.033   3.818   5.373  0.0181  0.7793  0.8103
 7021SOL    HW232526   3.173   3.874   5.381 -2.1782  0.4119 -0.0794
 7022SOL     OW32527   4.614   1.671   6.370  0.3581 -0.1895 -0.6011
 7022SOL    HW132528   4.555   1.728   6.418  0.6499  0.2582 -0.7808
 7022SOL    HW232529   4.695   1.721   6.380 -0.2554  0.4393  1.1475
 7023SOL     OW32530   0.197   1.718   3.210 -0.5128 -0.4245 -0.3519
 7023SOL    HW132531   0.243   1.662   3.148 -0.3804 -0.0139 -0.6174
 7023SOL    HW232532   0.266   1.749   3.268 -0.6284 -1.5851  0.4179
 7024SOL     OW32533   3.040   1.178  10.317 -0.0592  0.0100 -0.6086
 7024SOL    HW132534   2.987   1.127  10.379 -1.1529  0.2136 -1.3849
 7024SOL    HW232535   2.969   1.221  10.270 -0.5307  0.9019  0.9023
 7025SOL     OW32536   4.610   0.366  13.158  0.3057 -0.0645  0.0291
 7025SOL    HW132537   4.641   0.419  13.231 -0.6949 -0.8622  1.0311
 7025SOL    HW232538   4.645   0.281  13.185  2.6111  1.6239  2.2968
 7026SOL     OW32539   1.806   4.631   0.744 -0.0706 -0.1550  0.1210
 7026SOL    HW132540   1.784   4.627   0.651 -0.4942 -3.5430  0.3768
 7026SOL    HW232541   1.829   4.541   0.767 -0.7614 -0.3081  0.2081
 7027SOL     OW32542   1.687   4.305  11.500 -0.3134 -0.6968  0.6040
 7027SOL    HW132543   1.599   4.319  11.535 -0.0885  1.5033  0.2661
 7027SOL    HW232544   1.733   4.345  11.573 -1.1045  2.9009 -0.8596
 7028SOL     OW32545   1.064   4.203   5.984 -0.4112 -0.0624 -0.5612
 7028SOL    HW132546   1.044   4.192   6.077  1.2400 -4.0567 -0.6390
 7028SOL    HW232547   1.110   4.120   5.968  1.5925  0.7362  1.0482
 7029SOL     OW32548   2.080   4.648   2.514 -0.1976  0.4340  0.0464
 7029SOL    HW132549   2.071   4.627   2.421 -2.9306  1.3398  0.0802
 7029SOL    HW232550   2.129   0.006   2.505 -1.3485  1.1292  0.0155
 7030SOL     OW32551   4.215   0.416  12.931 -0.5177 -0.1206  0.1284
 7030SOL    HW132552   4.141   0.382  12.981 -0.2593 -0.5042  0.2556
 7030SOL    HW232553   4.267   0.444  13.006 -1.6594  2.3750 -0.0423
 7031SOL     OW32554   4.262   4.053  11.724  0.1386  0.5805 -0.7128
 7031SOL    HW132555   4.221   4.035  11.639 -2.1459  0.4470  0.4005
 7031SOL    HW232556   4.219   3.994  11.786  1.4376 -0.5827 -0.9268
 7032SOL     OW32557   1.818   1.630   4.975  0.8911  0.6002 -0.0517
 7032SOL    HW132558   1.882   1.695   5.004  0.7099  1.1260 -0.8195
 7032SOL    HW232559   1.746   1.681   4.939 -1.1679 -2.0603  0.3431
 7033SOL     OW32560   3.686   2.338  15.854  0.3705 -0.2927  0.1474
 7033SOL    HW132561   3.651   2.427  15.853  0.4335 -0.2749 -0.7378
 7033SOL    HW232562   3.673   2.311  15.944 -0.5841 -1.3359 -0.3085
 7034SOL     OW32563   2.660   3.153   6.489 -0.0777 -0.6198 -0.2435
 7034SOL    HW132564   2.695   3.189   6.570  0.9296 -2.2329  0.0189
 7034SOL    HW232565   2.727   3.180   6.426 -0.4568 -2.4747 -1.4472
 7035SOL     OW32566   2.037   0.898   5.671 -0.1682  0.5403  0.0426
 7035SOL    HW132567   1.967   0.859   5.619 -0.5038  0.6898  0.3807
 7035SOL    HW232568   2.092   0.821   5.683 -1.6742 -0.5687 -0.2355
 7036SOL     OW32569   0.528   3.529   2.685  0.1935 -0.3273  0.5760
 7036SOL    HW132570   0.514   3.471   2.610  0.5415 -1.8324  1.6646
 7036SOL    HW232571   0.607   3.578   2.664 -0.2215  0.3286  0.5407
 7037SOL     OW32572   1.735   3.346   7.751 -0.4610  0.1106  0.3124
 7037SOL    HW132573   1.675   3.351   7.676  0.9119  0.8503 -0.7456
 7037SOL    HW232574   1.702   3.266   7.790 -1.1090  1.3099  2.2115
 7038SOL     OW32575   1.919   4.503   0.251  0.8420  0.7583  0.2087
 7038SOL    HW132576   1.945   4.474   0.164  0.1861 -1.7552  0.8275
 7038SOL    HW232577   2.007   4.510   0.288  1.1986 -1.2604 -0.2271
 7039SOL     OW32578   1.030   3.847   1.566  0.5742 -0.2348  0.1878
 7039SOL    HW132579   0.972   3.771   1.576 -1.4528  1.2110 -0.5783
 7039SOL    HW232580   1.031   3.876   1.657  1.4066  0.5884 -0.0822
 7040SOL     OW32581   2.534   3.203   8.707  0.3342 -0.3442  0.3366
 7040SOL    HW132582   2.595   3.265   8.746  0.4446  0.0472 -0.4661
 7040SOL    HW232583   2.534   3.147   8.785  0.9578  0.6430  1.0466
 7041SOL     OW32584   2.871   2.418  16.511  0.4364  0.2139 -0.0182
 7041SOL    HW132585   2.792   2.427  16.565  0.4175 -0.2820  0.0397
 7041SOL    HW232586   2.876   2.324  16.493  0.2051  0.3384 -0.7036
 7042SOL     OW32587   0.040   1.177   3.948 -0.1744 -0.3609 -0.5275
 7042SOL    HW132588   4.716   1.220   3.876  2.1609  1.9190 -0.6914
 7042SOL    HW232589   4.713   1.210   4.023  1.2337  0.6603 -0.0510
 7043SOL     OW32590   3.169   3.901   6.128  0.3263 -0.4363  0.3047
 7043SOL    HW132591   3.084   3.872   6.161  0.3566 -0.5767  0.2605
 7043SOL    HW232592   3.215   3.818   6.119  1.7824  0.5875 -1.6610
 7044SOL     OW32593   3.393   3.316   7.835 -0.5099 -0.8900 -0.1361
 7044SOL    HW132594   3.348   3.231   7.838 -1.8972 -0.0856  1.5005
 7044SOL    HW232595   3.337   3.363   7.773  0.0363 -0.2805 -0.1650
 7045SOL     OW32596   0.861   1.267   4.345 -0.6514  0.1196 -0.0379
 7045SOL    HW132597   0.894   1.189   4.390 -0.1475  0.7721  0.7314
 7045SOL    HW232598   0.795   1.234   4.284  0.2653  1.1354 -1.5984
 7046SOL     OW32599   2.066   3.717   1.875  0.3110  0.7412 -0.2133
 7046SOL    HW132600   2.137   3.692   1.815 -1.4648 -0.1665 -1.9368
 7046SOL    HW232601   2.042   3.628   1.900  1.2111  0.4557 -0.3680
 7047SOL     OW32602   3.990   3.571   3.861 -0.1533 -0.0354 -0.0888
 7047SOL    HW132603   3.924   3.501   3.865 -1.5654  1.1880 -1.9424
 7047SOL    HW232604   4.058   3.529   3.914  1.3596 -0.5529 -2.4249
 7048SOL     OW32605   0.670   3.530  11.173 -0.1443  0.7975 -0.1899
 7048SOL    HW132606   0.702   3.461  11.114 -1.9520 -1.0583  1.0094
 7048SOL    HW232607   0.752   3.569  11.201  1.2451 -1.8149 -0.6481
 7049SOL     OW32608   1.630   3.625   7.217 -0.4448 -0.2296 -0.3345
 7049SOL    HW132609   1.689   3.571   7.166 -1.3089 -1.7054  0.2135
 7049SOL    HW232610   1.593   3.674   7.143 -0.7605  0.6995  0.4264
 7050SOL     OW32611   0.784   4.098   2.638  0.3935  0.2022  0.1647
 7050SOL    HW132612   0.877   4.108   2.656  0.1792  0.6835  1.0033
 7050SOL    HW232613   0.740   4.168   2.687 -0.0256  1.1128 -1.4711
 7051SOL     OW32614   0.508   1.311  11.618  0.5967 -0.3498  0.1532
 7051SOL    HW132615   0.531   1.275  11.704  0.0663 -2.1763 -0.4775
 7051SOL    HW232616   0.593   1.302  11.575  1.7293 -1.1683  2.5482
 7052SOL     OW32617   3.368   0.715  16.993 -0.0474 -0.2629  0.4837
 7052SOL    HW132618   3.288   0.674  16.960  0.9572 -0.5464 -1.5897
 7052SOL    HW232619   3.337   0.805  16.992  0.7485 -0.0100 -1.0792
 7053SOL     OW32620   3.409   2.322  17.572  0.5303 -0.1254 -0.4944
 7053SOL    HW132621   3.375   2.395  17.521 -1.5026 -2.2552 -2.1439
 7053SOL    HW232622   3.335   2.296  17.627 -0.6790  1.5840 -1.3184
 7054SOL     OW32623   2.736   4.679   0.754 -0.7892 -0.5414 -0.3339
 7054SOL    HW132624   2.657   4.706   0.802 -1.5030  2.3872 -3.2036
 7054SOL    HW232625   2.713   4.591   0.723  1.8623 -0.9506 -1.1445
 7055SOL     OW32626   1.882   1.979  17.283 -0.0138 -0.5217 -0.3373
 7055SOL    HW132627   1.807   2.008  17.231  1.2583 -2.1667 -3.0897
 7055SOL    HW232628   1.838   1.927  17.350  1.6772 -2.6098 -0.8512
 7056SOL     OW32629   3.732   0.573   0.631  0.1496  0.2237  0.0226
 7056SOL    HW132630   3.818   0.534   0.617  0.6762  1.8741 -1.3046
 7056SOL    HW232631   3.756   0.666   0.624  0.0769  0.2525  0.1571
 7057SOL     OW32632   0.436   2.584  10.751 -0.2237 -0.2224  0.7184
 7057SOL    HW132633   0.368   2.525  10.786 -0.2348 -2.0498 -2.4025
 7057SOL    HW232634   0.387   2.661  10.779 -2.6723 -1.3114 -0.5644
 7058SOL     OW32635   0.740   3.454   2.981  0.3724  0.2742  0.2909
 7058SOL    HW132636   0.749   3.382   3.044 -2.1437  0.7293  1.1920
 7058SOL    HW232637   0.810   3.514   3.005  0.8105  1.3172 -3.5646
 7059SOL     OW32638   3.272   4.230   8.164  0.1785  0.3816  0.1682
 7059SOL    HW132639   3.248   4.270   8.248  1.1765  1.3483 -0.0217
 7059SOL    HW232640   3.362   4.261   8.153  0.8334 -1.3785  0.4810
 7060SOL     OW32641   2.615   2.818   0.584 -0.1475  0.0981 -0.2608
 7060SOL    HW132642   2.563   2.895   0.605 -0.9478 -0.4150 -0.3714
 7060SOL    HW232643   2.543   2.755   0.584 -2.0329  2.2797  0.3190
 7061SOL     OW32644   1.980   2.593   4.011 -0.4585 -0.0626 -0.0334
 7061SOL    HW132645   1.897   2.549   3.994  1.0277 -2.1060 -2.0044
 7061SOL    HW232646   1.987   2.654   3.938 -3.0498 -0.6402 -0.7735
 7062SOL     OW32647   1.144   1.094   6.169  0.2093  0.2655  0.0206
 7062SOL    HW132648   1.095   1.137   6.098 -0.1551 -0.9179 -0.4550
 7062SOL    HW232649   1.145   1.001   6.143 -2.2715  0.1640  0.3140
 7063SOL     OW32650   0.716   3.039   3.044 -0.1793  0.1955  0.2918
 7063SOL    HW132651   0.809   3.053   3.062  0.4956 -3.2136 -0.4632
 7063SOL    HW232652   0.681   3.038   3.133  0.5853  0.8506  0.6069
 7064SOL     OW32653   1.996   2.067   7.697  0.3788  0.1925 -0.4105
 7064SOL    HW132654   2.008   2.157   7.665  0.1289  0.0981 -0.7611
 7064SOL    HW232655   2.020   2.077   7.789  2.0609 -1.0156 -0.7207
 7065SOL     OW32656   3.255   1.269   3.454  0.7049  0.1019 -0.0817
 7065SOL    HW132657   3.227   1.360   3.460 -2.6951 -0.8208 -2.0030
 7065SOL    HW232658   3.250   1.237   3.544 -2.2246 -0.1253 -0.3376
 7066SOL     OW32659   1.673   1.240   3.996 -0.1938 -0.7327 -0.0181
 7066SOL    HW132660   1.693   1.212   3.907 -0.2786  0.1089 -0.2932
 7066SOL    HW232661   1.741   1.304   4.017 -0.0821  0.0319 -2.7564
 7067SOL     OW32662   0.287   0.544   6.199 -0.1105  0.6605  0.0011
 7067SOL    HW132663   0.279   0.482   6.126  3.7218  2.2680 -1.7602
 7067SOL    HW232664   0.374   0.582   6.187 -0.3467  1.6257  1.4026
 7068SOL     OW32665   2.830   1.954   9.315  0.0273 -0.4722  0.0338
 7068SOL    HW132666   2.892   1.882   9.303  0.2304 -0.1957 -0.6125
 7068SOL    HW232667   2.749   1.918   9.280 -0.7956 -0.3003  1.7817
 7069SOL     OW32668   3.480   2.756   6.132 -0.1706  0.4104  0.0844
 7069SOL    HW132669   3.514   2.753   6.222 -0.2036  1.9938  0.1606
 7069SOL    HW232670   3.530   2.831   6.100  0.3101 -0.1547 -0.4851
 7070SOL     OW32671   3.554   3.087  14.199  0.3096  0.4239 -0.0568
 7070SOL    HW132672   3.595   3.023  14.258 -0.8589 -1.4130 -1.2329
 7070SOL    HW232673   3.475   3.095  14.253 -0.5705 -3.2135 -0.8077
 7071SOL     OW32674   3.656   3.644   6.268 -0.4572  0.3156 -0.4152
 7071SOL    HW132675   3.609   3.728   6.274 -0.6393 -0.0420  2.9512
 7071SOL    HW232676   3.738   3.661   6.314 -0.1032 -1.4559 -0.3950
 7072SOL     OW32677   3.790   1.200   3.867 -0.1514 -0.2226 -0.5102
 7072SOL    HW132678   3.756   1.182   3.779  2.2437  0.9710 -1.6600
 7072SOL    HW232679   3.709   1.183   3.915 -0.7340  1.0925 -1.0426
 7073SOL     OW32680   1.253   3.129  16.575 -0.2782  0.2646 -0.2117
 7073SOL    HW132681   1.218   3.148  16.487 -1.6850 -1.9884 -0.1303
 7073SOL    HW232682   1.343   3.160  16.568 -0.7129  1.7973  0.8757
 7074SOL     OW32683   1.545   0.975   1.777 -0.2013 -0.4442 -0.2145
 7074SOL    HW132684   1.564   1.025   1.857 -1.5335 -1.8889  0.9809
 7074SOL    HW232685   1.482   1.028   1.730  2.7090  2.5896 -0.7047
 7075SOL     OW32686   1.466   0.447   3.017 -0.5902  0.1297 -0.3992
 7075SOL    HW132687   1.539   0.401   2.976 -1.2439 -0.1139 -1.2739
 7075SOL    HW232688   1.448   0.516   2.953 -0.8954 -0.4512 -0.9343
 7076SOL     OW32689   1.071   3.936   3.756  0.0725 -0.2690 -0.0514
 7076SOL    HW132690   1.051   3.965   3.667 -2.5569 -2.0870 -0.0821
 7076SOL    HW232691   0.989   3.900   3.790  0.2092 -0.5227  0.0073
 7077SOL     OW32692   1.454   1.764   3.531  0.1651  0.1009  0.1961
 7077SOL    HW132693   1.395   1.820   3.480  0.5389 -0.9235 -1.3534
 7077SOL    HW232694   1.498   1.725   3.456  0.7695  0.6454  0.2684
 7078SOL     OW32695   4.067   2.528   0.715 -0.0505  0.0819 -0.1408
 7078SOL    HW132696   4.158   2.502   0.730 -0.9240 -1.3219  2.6354
 7078SOL    HW232697   4.040   2.466   0.647  0.0291 -0.3272  0.2011
 7079SOL     OW32698   4.171   2.082   6.346  0.1731  0.0285 -0.1466
 7079SOL    HW132699   4.122   2.124   6.275 -0.8930 -1.0549 -0.0580
 7079SOL    HW232700   4.109   2.020   6.383  0.5707 -0.8109 -0.8964
 7080SOL     OW32701   3.501   4.593  10.900  0.2061 -0.0256 -0.4034
 7080SOL    HW132702   3.437   4.648  10.854  2.1314  2.5900  0.0848
 7080SOL    HW232703   3.459   4.591  10.986  2.8467 -1.1310  0.8524
 7081SOL     OW32704   0.009   1.859   3.596  0.3032 -0.1285  0.2385
 7081SOL    HW132705   0.083   1.813   3.555  0.2783  0.5452 -0.5647
 7081SOL    HW232706   4.657   1.837   3.539 -0.3121 -0.4603  1.1820
 7082SOL     OW32707   0.932   4.279   2.297  0.1691  0.1947  0.8735
 7082SOL    HW132708   0.989   4.217   2.252 -0.1492  0.3243  0.3006
 7082SOL    HW232709   0.989   4.315   2.365  3.6535 -1.6958 -1.0594
 7083SOL     OW32710   2.340   0.131   7.456 -0.3731  0.1763 -0.3902
 7083SOL    HW132711   2.258   0.145   7.504 -0.0302 -2.9882  1.0568
 7083SOL    HW232712   2.395   0.094   7.524  1.3434 -0.6891 -2.2749
 7084SOL     OW32713   0.890   3.242   7.050 -0.5895  0.2443  0.4490
 7084SOL    HW132714   0.892   3.174   6.983 -1.1568 -0.7578  1.4254
 7084SOL    HW232715   0.851   3.321   7.013  0.1920  0.4780  0.1348
 7085SOL     OW32716   3.399   1.375   4.128 -0.3308  0.1423  0.4564
 7085SOL    HW132717   3.418   1.469   4.133  0.7873  0.0553 -2.4706
 7085SOL    HW232718   3.329   1.372   4.194 -0.3193 -0.6194  0.4340
 7086SOL     OW32719   4.285   3.564   5.504  0.3077  0.0900  0.1590
 7086SOL    HW132720   4.368   3.565   5.553  0.3092  3.3612  0.1301
 7086SOL    HW232721   4.323   3.528   5.424  1.2403 -1.6280  1.3799
 7087SOL     OW32722   2.894   0.133   4.738 -0.7780 -0.0007  0.3212
 7087SOL    HW132723   2.914   0.089   4.656 -0.0242  1.2147 -0.1511
 7087SOL    HW232724   2.981   0.161   4.767 -0.4190 -0.6512 -0.1422
 7088SOL     OW32725   3.615   2.635   8.523  0.0169 -0.6774 -0.1299
 7088SOL    HW132726   3.692   2.684   8.553 -1.9742  1.9087  0.6897
 7088SOL    HW232727   3.649   2.545   8.524  1.6958 -0.0653 -2.8588
 7089SOL     OW32728   2.968   1.166   5.672 -0.2374 -0.2863 -0.5081
 7089SOL    HW132729   2.885   1.210   5.656  1.6291  3.0831 -0.9186
 7089SOL    HW232730   2.977   1.116   5.591  1.6294  2.4613 -1.9852
 7090SOL     OW32731   2.777   0.151   6.846  0.0192 -0.4201  0.5996
 7090SOL    HW132732   2.822   0.193   6.920  3.4985 -1.2576 -1.0601
 7090SOL    HW232733   2.716   0.089   6.887 -2.4414  2.6944  1.6412
 7091SOL     OW32734   1.966   4.235  15.447  0.7381  0.4276  0.1896
 7091SOL    HW132735   2.002   4.290  15.378  1.2886 -2.3058 -1.6998
 7091SOL    HW232736   1.880   4.274  15.462  0.0601 -0.1025 -2.2921
 7092SOL     OW32737   1.627   1.683  10.632  0.1202 -0.2682 -0.7504
 7092SOL    HW132738   1.621   1.592  10.660  2.5988 -0.7450 -1.8359
 7092SOL    HW232739   1.716   1.698  10.601  0.1628 -0.4840 -0.7288
 7093SOL     OW32740   2.737   3.987   4.204  0.4226  0.3151 -0.0660
 7093SOL    HW132741   2.657   4.039   4.197 -1.0513 -1.4381  3.8275
 7093SOL    HW232742   2.721   3.953   4.292  0.1503  1.3010  0.2661
 7094SOL     OW32743   4.721   4.656   1.715  0.2903  0.2246  0.2506
 7094SOL    HW132744   0.001   4.660   1.620 -2.2802  0.4443  0.1906
 7094SOL    HW232745   4.710   4.561   1.717 -0.7258  0.3582  1.7758
 7095SOL     OW32746   2.116   1.281   4.811 -0.0284  0.0213  0.1169
 7095SOL    HW132747   2.147   1.262   4.900  0.4952  1.2110  0.1862
 7095SOL    HW232748   2.188   1.339   4.786  0.9406 -0.1145  2.5783
 7096SOL     OW32749   3.349   1.982  10.071 -0.3481  0.7530  0.9239
 7096SOL    HW132750   3.258   1.954  10.062  0.5060 -1.2162 -1.6073
 7096SOL    HW232751   3.321   2.073  10.058 -2.9357  0.0277  1.6096
 7097SOL     OW32752   1.554   2.482  15.661 -0.3232 -0.5903 -0.2377
 7097SOL    HW132753   1.466   2.505  15.632 -0.4036  0.9959  1.2459
 7097SOL    HW232754   1.550   2.390  15.636 -0.5844 -0.7723  0.4658
 7098SOL     OW32755   0.179   1.074   4.816 -0.1101  0.1333 -1.2263
 7098SOL    HW132756   0.084   1.067   4.805 -0.4764 -0.2666  1.9695
 7098SOL    HW232757   0.186   1.155   4.765  0.9676  0.3412 -0.7658
 7099SOL     OW32758   0.046   2.703  11.385  0.2822  0.1653  0.1740
 7099SOL    HW132759   0.094   2.694  11.467 -4.0433  1.7392  2.8652
 7099SOL    HW232760   4.686   2.734  11.422  0.8747  3.8662 -1.6230
 7100SOL     OW32761   2.960   1.480   9.382 -0.3365 -0.1756 -0.3208
 7100SOL    HW132762   2.931   1.521   9.463 -1.2446  1.1342 -1.3054
 7100SOL    HW232763   2.895   1.511   9.319  0.9791 -0.3734 -1.7813
 7101SOL     OW32764   4.357   0.095   8.202 -0.2258  0.1757  0.2386
 7101SOL    HW132765   4.409   0.161   8.248  0.3848  2.9529 -4.4087
 7101SOL    HW232766   4.267   0.125   8.207  0.0539  0.8598  1.1515
 7102SOL     OW32767   0.619   1.451  13.491 -0.2600 -0.5742 -0.0062
 7102SOL    HW132768   0.569   1.488  13.419  0.9374 -0.7603 -0.9330
 7102SOL    HW232769   0.609   1.525  13.552 -1.4941 -1.3779  0.7522
 7103SOL     OW32770   0.334   1.230   0.107  0.9204 -0.3087  0.3955
 7103SOL    HW132771   0.307   1.144   0.074  1.6978 -1.0688  1.7725
 7103SOL    HW232772   0.388   1.207   0.182  0.4046 -0.5534  0.6897
 7104SOL     OW32773   1.548   1.270   2.289  0.2558 -0.4678  0.3041
 7104SOL    HW132774   1.610   1.234   2.352 -1.6769 -0.9388  1.9273
 7104SOL    HW232775   1.548   1.362   2.315  2.6936  0.2831 -2.4623
 7105SOL     OW32776   2.777   0.913   3.087  0.2357 -0.2705  0.4458
 7105SOL    HW132777   2.782   0.914   2.991  2.1317 -0.6361  0.5348
 7105SOL    HW232778   2.856   0.967   3.096 -1.6121  2.2224  1.5309
 7106SOL     OW32779   1.190   0.906  16.688  0.2279  0.0615 -0.0522
 7106SOL    HW132780   1.251   0.963  16.735  1.1933 -1.5658  0.6386
 7106SOL    HW232781   1.239   0.824  16.688  0.3677  0.1472 -1.1797
 7107SOL     OW32782   3.939   1.290   6.678  0.0891 -0.0481  0.2270
 7107SOL    HW132783   3.966   1.377   6.708  0.1691  0.8351 -2.4013
 7107SOL    HW232784   3.871   1.316   6.615 -0.8988  0.4981  1.5060
 7108SOL     OW32785   0.900   4.693  17.637 -0.2114 -0.3181  0.6700
 7108SOL    HW132786   0.874   4.627  17.573  1.3788 -0.2402 -0.0419
 7108SOL    HW232787   0.986   0.001  17.610 -0.7941  0.5982 -0.1394
 7109SOL     OW32788   2.242   2.392   5.114 -0.5677 -0.0850 -0.2369
 7109SOL    HW132789   2.194   2.426   5.039  0.6837 -1.3986 -1.6061
 7109SOL    HW232790   2.185   2.322   5.146  1.0527 -0.1107  2.6359
 7110SOL     OW32791   0.380   3.412   2.349  0.0659 -0.0770 -0.3026
 7110SOL    HW132792   0.464   3.395   2.392 -1.9385 -2.3220  2.7205
 7110SOL    HW232793   0.389   3.504   2.326 -1.9212  0.6926  2.0452
 7111SOL     OW32794   0.834   1.631  14.545 -0.5016  0.2863 -0.2703
 7111SOL    HW132795   0.919   1.589  14.535 -0.8371 -0.2153 -1.0210
 7111SOL    HW232796   0.794   1.592  14.468  0.4876 -0.9873 -0.1292
 7112SOL     OW32797   4.265   3.081  13.719  0.2418 -0.3473 -0.1958
 7112SOL    HW132798   4.202   3.048  13.783  0.7176 -1.7498 -0.4362
 7112SOL    HW232799   4.269   3.168  13.758  0.1781  0.2794 -1.5930
 7113SOL     OW32800   0.256   1.786   8.435  0.2636  0.7799 -0.1438
 7113SOL    HW132801   0.231   1.787   8.343  1.9760 -2.5276 -0.6645
 7113SOL    HW232802   0.298   1.701   8.448  1.6018  1.3972 -0.5210
 7114SOL     OW32803   3.221   3.982   5.538 -0.3624 -0.2831  0.6609
 7114SOL    HW132804   3.204   3.979   5.632 -0.8404 -2.1274  0.5171
 7114SOL    HW232805   3.185   4.067   5.514 -2.0563 -0.9407  0.8770
 7115SOL     OW32806   3.135   4.605  12.162 -0.4222 -0.4017  0.3123
 7115SOL    HW132807   3.207   4.579  12.105 -0.1077  0.3510  0.3699
 7115SOL    HW232808   3.180   4.671  12.214 -1.4376  0.3401  0.2602
 7116SOL     OW32809   1.382   0.306   8.904  0.5480  0.4736 -0.6554
 7116SOL    HW132810   1.342   0.264   8.829  0.5342 -1.5859  0.4924
 7116SOL    HW232811   1.473   0.295   8.876  0.0294 -1.9291 -1.3407
 7117SOL     OW32812   0.164   2.566   9.996 -0.1676 -0.0924  0.6977
 7117SOL    HW132813   0.116   2.642  10.028  0.2206  0.3171  0.2943
 7117SOL    HW232814   0.103   2.494  10.015 -0.8240  0.0702 -0.7983
 7118SOL     OW32815   0.055   2.602   5.935 -0.4297  0.3064  0.4598
 7118SOL    HW132816   0.129   2.657   5.913  0.5543 -1.1117  0.2196
 7118SOL    HW232817   4.708   2.664   5.956  0.4779  1.2756  0.6150
 7119SOL     OW32818   0.562   3.472   6.924  0.7369  0.2216 -0.4024
 7119SOL    HW132819   0.640   3.459   6.979 -0.8632 -0.3599  1.7305
 7119SOL    HW232820   0.516   3.534   6.981 -0.3802 -0.1534 -0.8932
 7120SOL     OW32821   0.651   4.093   2.949  0.4647 -0.5237  0.3755
 7120SOL    HW132822   0.736   4.061   2.978  0.5704 -0.1852  0.4400
 7120SOL    HW232823   0.630   4.153   3.021 -0.6187  0.2119 -0.5506
 7121SOL     OW32824   2.644   3.431   2.874 -0.3823  0.5382 -0.1121
 7121SOL    HW132825   2.646   3.440   2.970 -1.9427 -0.6845  0.0468
 7121SOL    HW232826   2.568   3.483   2.851 -1.8113 -1.1965  0.6288
 7122SOL     OW32827   3.303   2.381   6.774  0.4042  0.1507  0.1116
 7122SOL    HW132828   3.306   2.323   6.698  1.3571  1.3014 -0.7321
 7122SOL    HW232829   3.365   2.449   6.745  2.4257 -1.7312  0.0446
 7123SOL     OW32830   2.817   1.257   7.510 -0.5701  0.0884  0.0792
 7123SOL    HW132831   2.864   1.325   7.462 -0.6883  0.6910  0.8046
 7123SOL    HW232832   2.799   1.303   7.592  0.3572  0.0905  0.2774
 7124SOL     OW32833   4.537   1.907   8.883  0.6040 -0.1404  0.4620
 7124SOL    HW132834   4.518   1.869   8.798 -1.3929 -2.6486  2.0178
 7124SOL    HW232835   4.546   1.819   8.920  2.1373 -0.2801 -0.2639
 7125SOL     OW32836   1.608   1.516  15.205  0.0819  0.0594 -0.5563
 7125SOL    HW132837   1.543   1.467  15.256  0.9830 -0.0411  0.4832
 7125SOL    HW232838   1.596   1.462  15.127  1.7225 -1.0036 -0.0550
 7126SOL     OW32839   2.520   3.540   7.887  0.6618 -0.1200 -0.0474
 7126SOL    HW132840   2.481   3.468   7.936  0.1735 -0.1895 -0.5410
 7126SOL    HW232841   2.575   3.497   7.821  2.4035  0.2010  1.2001
 7127SOL     OW32842   0.350   4.366   3.249  0.0293 -0.1097  0.3007
 7127SOL    HW132843   0.346   4.460   3.265 -0.5646  0.3735 -2.6249
 7127SOL    HW232844   0.257   4.344   3.253 -0.1986  0.3438 -2.0813
 7128SOL     OW32845   1.606   0.760   8.786 -0.3722  0.3845  1.0225
 7128SOL    HW132846   1.654   0.761   8.869  2.1959  2.1265 -0.4471
 7128SOL    HW232847   1.596   0.666   8.773 -0.0787  0.6344 -1.1301
 7129SOL     OW32848   2.290   4.378   8.792 -0.3610 -0.2371 -0.8282
 7129SOL    HW132849   2.272   4.472   8.787 -1.3269 -0.1146  4.4612
 7129SOL    HW232850   2.226   4.346   8.728 -1.1957 -0.1483 -0.0538
 7130SOL     OW32851   1.620   2.562   5.122 -0.9305  0.2157  0.0268
 7130SOL    HW132852   1.564   2.638   5.134 -0.7288  0.3177  0.3238
 7130SOL    HW232853   1.705   2.605   5.113 -0.4009 -0.7021  0.6679
 7131SOL     OW32854   3.103   0.894   3.049 -0.0620 -0.4607  0.0476
 7131SOL    HW132855   3.133   0.845   2.972 -0.1106  0.9349 -0.8641
 7131SOL    HW232856   3.078   0.981   3.016 -0.9672 -0.1623  1.5369
 7132SOL     OW32857   0.081   3.297  14.477 -0.1278 -0.4286  0.0547
 7132SOL    HW132858   0.136   3.356  14.528  0.6705 -2.3048  1.3947
 7132SOL    HW232859   0.131   3.288  14.396 -0.1279  1.7417 -0.1596
 7133SOL     OW32860   2.463   0.835   5.257 -0.1536  0.7825 -0.5094
 7133SOL    HW132861   2.493   0.924   5.239  2.4118  0.4351  2.2668
 7133SOL    HW232862   2.546   0.789   5.260 -0.0876  0.7228 -3.0254
 7134SOL     OW32863   1.510   4.683   3.644  0.7509  0.2783  0.1512
 7134SOL    HW132864   1.432   4.721   3.604  0.0161 -0.7421  0.6251
 7134SOL    HW232865   1.469   4.619   3.701  0.1949  2.2555  1.9942
 7135SOL     OW32866   2.112   0.552   4.673 -0.3403  0.1192 -0.1623
 7135SOL    HW132867   2.204   0.543   4.646 -0.2602  1.9540 -0.4760
 7135SOL    HW232868   2.124   0.628   4.729  1.5328 -2.2148  2.6515
 7136SOL     OW32869   0.483   3.029  15.706  0.5469  0.4818  0.0293
 7136SOL    HW132870   0.554   3.092  15.700 -0.0159  0.7784 -3.2966
 7136SOL    HW232871   0.478   2.992  15.618  0.2561  0.7670 -0.0736
 7137SOL     OW32872   1.794   0.489   2.859 -0.7321 -0.2494 -0.7632
 7137SOL    HW132873   1.872   0.441   2.885 -0.6381  0.1138 -0.3713
 7137SOL    HW232874   1.729   0.419   2.858 -1.8424  0.7619  0.1736
 7138SOL     OW32875   3.879   2.699   0.854 -0.4486  0.4283  0.2945
 7138SOL    HW132876   3.798   2.675   0.810 -1.1477  1.3276  1.0974
 7138SOL    HW232877   3.936   2.663   0.786 -2.9797 -2.9097 -0.0960
 7139SOL     OW32878   1.744   3.791   3.714 -0.3910  0.5102  0.1457
 7139SOL    HW132879   1.659   3.834   3.701 -1.6745 -1.4995  1.9560
 7139SOL    HW232880   1.728   3.707   3.758 -0.0820  1.3993  1.9756
 7140SOL     OW32881   3.983   4.294   2.604  0.0394  0.2046  0.5635
 7140SOL    HW132882   3.929   4.262   2.532  0.0471 -0.5520  0.8907
 7140SOL    HW232883   4.015   4.367   2.551  0.3797 -0.2268  0.1746
 7141SOL     OW32884   1.563   2.121   3.626  0.0399 -0.5817  0.6468
 7141SOL    HW132885   1.510   2.108   3.547 -0.3572  2.1418  0.4431
 7141SOL    HW232886   1.647   2.148   3.590 -1.7521  1.3353 -2.1090
 7142SOL     OW32887   1.388   4.575   4.108  0.7245 -0.1840  0.9376
 7142SOL    HW132888   1.350   4.586   4.195  2.7143 -1.8801  2.0227
 7142SOL    HW232889   1.417   4.666   4.095 -1.0281  0.1447 -0.6395
 7143SOL     OW32890   3.971   0.237  10.716 -0.5333 -0.3051  0.5964
 7143SOL    HW132891   4.035   0.236  10.787 -1.0824 -0.7734  1.0893
 7143SOL    HW232892   3.972   0.143  10.696  0.9753  0.0631 -1.1206
 7144SOL     OW32893   3.673   2.955   6.755 -0.6103 -0.4420 -0.6475
 7144SOL    HW132894   3.612   2.981   6.686  0.4815 -0.6512 -1.6802
 7144SOL    HW232895   3.719   2.894   6.697 -2.6182 -0.6819 -1.9734
 7145SOL     OW32896   0.957   0.495   8.720  0.2332 -0.8148 -0.2138
 7145SOL    HW132897   0.945   0.414   8.671 -2.5756 -0.8739  0.5571
 7145SOL    HW232898   1.016   0.467   8.790 -1.5751 -0.9159  1.3065
 7146SOL     OW32899   3.312   4.599   8.633 -0.0102 -0.2626  0.0731
 7146SOL    HW132900   3.287   4.627   8.721 -0.1046  1.9112 -0.6455
 7146SOL    HW232901   3.362   4.518   8.642 -0.5450 -0.5368  0.5648
 7147SOL     OW32902   3.854   3.352   4.575 -0.9797  0.3201  0.0739
 7147SOL    HW132903   3.846   3.349   4.670 -3.2670  0.2897 -0.1174
 7147SOL    HW232904   3.877   3.443   4.556  0.2340 -0.4459 -2.0961
 7148SOL     OW32905   2.941   0.128   7.658 -0.1718 -0.3319 -0.4543
 7148SOL    HW132906   2.917   0.073   7.733  1.9947  1.2953  1.4008
 7148SOL    HW232907   3.025   0.082   7.651 -0.7783 -1.4815 -0.1914
 7149SOL     OW32908   1.180   1.625  13.222  0.0044 -0.5765  0.2375
 7149SOL    HW132909   1.119   1.660  13.157 -2.1397 -0.0016  2.5713
 7149SOL    HW232910   1.227   1.577  13.154 -0.1192 -0.9283  0.4013
 7150SOL     OW32911   1.037   1.015   8.237  0.5684 -0.3590  0.4805
 7150SOL    HW132912   1.106   1.045   8.295  0.7814  1.6021 -0.7829
 7150SOL    HW232913   0.966   1.063   8.281 -0.5179 -0.6054 -1.0013
 7151SOL     OW32914   0.820   0.492   2.897  0.3948  0.0291 -0.0650
 7151SOL    HW132915   0.798   0.554   2.828 -0.0894  1.1995  1.1242
 7151SOL    HW232916   0.911   0.517   2.911  0.7450  0.1407 -2.5378
 7152SOL     OW32917   4.135   2.605   7.345  0.0119 -0.4356  0.7928
 7152SOL    HW132918   4.152   2.511   7.334 -1.2804 -0.4363 -1.3506
 7152SOL    HW232919   4.209   2.641   7.296 -1.3888  0.1192 -0.9296
 7153SOL     OW32920   3.438   0.989   4.688  0.0509  1.1344 -0.0481
 7153SOL    HW132921   3.455   0.992   4.782 -0.5689  0.4406  0.0884
 7153SOL    HW232922   3.517   0.963   4.641 -0.7633 -2.7358  0.6821
 7154SOL     OW32923   2.848   0.719   5.026 -0.3118 -0.4871 -0.6678
 7154SOL    HW132924   2.768   0.678   4.990 -0.3051 -0.8200 -0.3000
 7154SOL    HW232925   2.908   0.652   4.994  2.1973  0.8766  1.2593
 7155SOL     OW32926   1.757   4.115   7.598  0.7008 -0.4947 -0.4054
 7155SOL    HW132927   1.809   4.051   7.550 -1.9421 -2.3617 -0.7736
 7155SOL    HW232928   1.820   4.186   7.610 -0.9001  0.5496  1.8969
 7156SOL     OW32929   4.418   1.836  16.035 -0.3235 -0.5843  0.5559
 7156SOL    HW132930   4.355   1.796  15.975 -0.5840  1.5521 -0.6041
 7156SOL    HW232931   4.439   1.914  15.984 -0.6281 -1.3424 -0.7226
 7157SOL     OW32932   0.407   0.718  16.520  0.0359 -0.3658  0.0403
 7157SOL    HW132933   0.481   0.674  16.479 -1.1041 -2.2275  0.0063
 7157SOL    HW232934   0.410   0.807  16.485 -0.9179 -0.7939 -1.1211
 7158SOL     OW32935   1.342   3.791   5.190  0.2023  0.1187 -0.0423
 7158SOL    HW132936   1.336   3.843   5.110 -0.4275 -1.6323 -1.1259
 7158SOL    HW232937   1.328   3.859   5.256 -1.7479 -0.4183  0.0886
 7159SOL     OW32938   0.369   0.690   2.749 -0.3088 -0.0295 -0.5562
 7159SOL    HW132939   0.311   0.653   2.815 -1.7249 -1.9008 -2.8640
 7159SOL    HW232940   0.378   0.777   2.787 -0.0163 -0.7707  1.0677
 7160SOL     OW32941   1.913   2.931   2.346 -0.2923 -0.4669  0.2631
 7160SOL    HW132942   1.885   2.845   2.379  0.0755 -0.4802  0.5288
 7160SOL    HW232943   1.986   2.950   2.404 -0.2456  1.0621 -0.3038
 7161SOL     OW32944   0.237   0.592   8.234 -0.1959 -0.6495 -0.0220
 7161SOL    HW132945   0.240   0.681   8.270  0.9914 -0.6545 -0.0982
 7161SOL    HW232946   0.320   0.559   8.266 -0.0717  0.4608  0.8010
 7162SOL     OW32947   0.874   1.719   7.081  0.4964 -0.2122  0.3273
 7162SOL    HW132948   0.954   1.667   7.076 -0.7606 -1.9800 -1.2195
 7162SOL    HW232949   0.891   1.796   7.026  0.7248 -0.7658 -0.3794
 7163SOL     OW32950   2.597   0.067   2.268 -0.5447  0.0822 -0.5830
 7163SOL    HW132951   2.657   4.723   2.236 -0.3278 -0.4773  0.9984
 7163SOL    HW232952   2.521   0.016   2.293  0.0402 -1.3794 -1.8304
 7164SOL     OW32953   0.483   1.097   0.301 -0.0522  0.2061 -0.1944
 7164SOL    HW132954   0.512   1.031   0.364  1.4207  2.2159  1.2176
 7164SOL    HW232955   0.502   1.044   0.223 -0.1623 -0.8528  0.4948
 7165SOL     OW32956   2.445   1.426   4.404 -0.8441  0.1642 -0.5311
 7165SOL    HW132957   2.462   1.347   4.352 -1.2156 -0.0876 -0.2682
 7165SOL    HW232958   2.525   1.426   4.457  0.4800 -1.9198 -2.5640
 7166SOL     OW32959   0.032   3.564   6.832 -0.0173  0.3568  0.5937
 7166SOL    HW132960   0.033   3.470   6.849 -0.5392  0.5116  1.4818
 7166SOL    HW232961   4.680   3.593   6.884 -0.0331 -0.1939  0.8756
 7167SOL     OW32962   3.985   3.974   3.144 -0.1541  0.6758 -0.2901
 7167SOL    HW132963   3.995   3.883   3.115  0.6760  0.9452 -0.8406
 7167SOL    HW232964   3.891   3.988   3.131 -0.2664 -0.0882 -0.2918
 7168SOL     OW32965   2.099   0.198   7.583  0.2816 -0.2591  0.6297
 7168SOL    HW132966   2.085   0.293   7.586 -2.2200 -0.6915  2.2338
 7168SOL    HW232967   2.023   0.166   7.631 -0.9835  0.0495 -1.1626
 7169SOL     OW32968   3.660   0.405   3.643  0.4862  0.4080  0.0969
 7169SOL    HW132969   3.671   0.498   3.622  2.2682 -0.0811 -1.1694
 7169SOL    HW232970   3.752   0.385   3.631  0.5103  0.5602  0.0284
 7170SOL     OW32971   0.010   2.610   2.865  0.4063  0.0526  0.0543
 7170SOL    HW132972   0.039   2.626   2.954  1.1064 -0.4980 -0.0643
 7170SOL    HW232973   4.664   2.676   2.858  1.3279  0.8335 -1.7994
 7171SOL     OW32974   3.627   1.103   1.962  0.1914 -0.3476  0.2859
 7171SOL    HW132975   3.626   1.071   1.873  0.3372  1.1280 -0.2525
 7171SOL    HW232976   3.556   1.053   2.002  0.0984 -0.9065 -0.5884
 7172SOL     OW32977   1.236   2.317   0.715  0.0794  0.1608 -0.1498
 7172SOL    HW132978   1.330   2.315   0.734  0.6386 -0.2282 -3.0101
 7172SOL    HW232979   1.229   2.287   0.625  0.9116 -0.2844 -0.0665
 7173SOL     OW32980   4.664   3.236   1.953  0.0689  0.1032 -0.0874
 7173SOL    HW132981   4.652   3.168   2.019  0.7133  1.0347  0.9796
 7173SOL    HW232982   4.619   3.310   1.992  0.4855  0.8933 -1.0937
 7174SOL     OW32983   3.137   0.930  15.119 -0.4509 -0.3747 -0.2228
 7174SOL    HW132984   3.098   0.942  15.206  0.6323  0.3264  0.1701
 7174SOL    HW232985   3.220   0.887  15.139 -0.0566  1.0104  1.1944
 7175SOL     OW32986   0.431   0.718   0.935 -0.3545 -0.3573  0.4647
 7175SOL    HW132987   0.411   0.772   1.012  0.2347  0.8679 -0.2300
 7175SOL    HW232988   0.344   0.695   0.902  0.2595 -0.0557 -1.3866
 7176SOL     OW32989   2.766   3.391   5.678  0.2322 -0.0892 -0.0241
 7176SOL    HW132990   2.740   3.467   5.627  1.6100 -0.1786 -0.8723
 7176SOL    HW232991   2.858   3.384   5.651  0.7135  1.5631  1.2491
 7177SOL     OW32992   1.053   2.462   8.720  0.0553  0.3435 -0.5409
 7177SOL    HW132993   0.980   2.474   8.659 -1.8058 -4.2120  0.7745
 7177SOL    HW232994   1.074   2.554   8.735  1.1686  0.2251 -1.3248
 7178SOL     OW32995   3.249   3.313   3.202 -0.7125  0.0944 -0.0736
 7178SOL    HW132996   3.219   3.236   3.155  1.6795 -0.7124 -0.2666
 7178SOL    HW232997   3.338   3.311   3.167  0.0330 -2.9730  2.0119
 7179SOL     OW32998   0.589   1.109   2.904  0.0870  0.1282 -0.0621
 7179SOL    HW132999   0.515   1.171   2.907 -0.0154  0.0438 -0.9358
 7179SOL    HW233000   0.635   1.147   2.830 -2.7667 -0.3589 -2.1015
 7180SOL     OW33001   4.676   0.802   4.286 -0.0805 -1.2765  0.2429
 7180SOL    HW133002   0.019   0.736   4.307  0.1922 -0.7937  0.9026
 7180SOL    HW233003   0.012   0.878   4.277  0.3305 -1.6732 -0.4725
 7181SOL     OW33004   0.400   4.686  11.802 -0.3347  0.0382  0.0640
 7181SOL    HW133005   0.491   4.717  11.803 -0.2368 -0.2335 -0.5623
 7181SOL    HW233006   0.395   4.651  11.713  0.0095 -0.7598  0.3578
 7182SOL     OW33007   3.658   1.438   8.907  0.1220  0.2764  0.0158
 7182SOL    HW133008   3.651   1.455   9.001 -2.5051  0.7428 -0.2720
 7182SOL    HW233009   3.744   1.396   8.914 -0.3655 -0.9100 -1.1228
 7183SOL     OW33010   2.602   3.507  12.744 -0.2238 -0.5136  0.5233
 7183SOL    HW133011   2.638   3.512  12.833 -2.3204 -1.4339  1.4328
 7183SOL    HW233012   2.608   3.597  12.712 -0.0923 -1.5770 -2.3617
 7184SOL     OW33013   1.987   1.116   3.236  0.3298 -0.3360  0.5700
 7184SOL    HW133014   2.042   1.186   3.201 -0.1469  0.2449  0.9776
 7184SOL    HW233015   1.902   1.159   3.244  0.8120  0.8170 -0.4332
 7185SOL     OW33016   1.404   0.286   6.001  0.4936 -0.1187  0.6185
 7185SOL    HW133017   1.484   0.257   6.045  2.0638  1.8855 -0.9131
 7185SOL    HW233018   1.360   0.202   5.985  1.6075 -0.4944 -0.3954
 7186SOL     OW33019   1.531   3.443   1.875  0.2791 -0.2432  0.2376
 7186SOL    HW133020   1.438   3.424   1.868 -0.6322  4.8812 -1.3644
 7186SOL    HW233021   1.559   3.368   1.927  3.2717 -0.3961 -1.5825
 7187SOL     OW33022   1.120   3.922   9.367  0.0735  0.0054  0.0971
 7187SOL    HW133023   1.150   3.966   9.446 -2.5849 -0.7498  1.5109
 7187SOL    HW233024   1.196   3.911   9.309 -1.9422 -0.0258 -2.5586
 7188SOL     OW33025   1.140   1.050   9.040  0.0714  0.2627 -0.4340
 7188SOL    HW133026   1.082   0.974   9.039  2.1953 -1.3871  1.3051
 7188SOL    HW233027   1.112   1.092   9.121 -2.0060 -2.5792  0.3296
 7189SOL     OW33028   4.115   2.669   1.236  0.6731 -0.1900 -0.3790
 7189SOL    HW133029   4.028   2.699   1.210  0.0527 -2.8775 -1.3805
 7189SOL    HW233030   4.157   2.671   1.150  1.6782  0.4922  0.1153
 7190SOL     OW33031   3.475   4.332   6.450  0.3181 -0.2801  0.4320
 7190SOL    HW133032   3.474   4.389   6.374  1.0771  1.0683  1.4340
 7190SOL    HW233033   3.503   4.397   6.514 -0.0650 -0.3293  0.6478
 7191SOL     OW33034   0.437   1.660   4.490  0.0244 -0.2901 -0.2523
 7191SOL    HW133035   0.440   1.598   4.417 -0.8326 -0.5080 -0.0980
 7191SOL    HW233036   0.528   1.689   4.492  0.1174 -0.6366  0.6593
 7192SOL     OW33037   4.351   1.729   6.932  0.1157 -0.4869 -0.0602
 7192SOL    HW133038   4.359   1.635   6.952 -2.2226 -0.6236  0.2535
 7192SOL    HW233039   4.261   1.746   6.902  0.4890  0.5821 -0.5449
 7193SOL     OW33040   2.911   3.836  13.067  0.4037  0.4283  0.0770
 7193SOL    HW133041   2.851   3.909  13.049 -0.4904 -0.0975  0.8903
 7193SOL    HW233042   2.966   3.856  12.992  0.4323  1.3634  0.3397
 7194SOL     OW33043   4.616   3.034   7.587  0.6259  0.1576  0.0060
 7194SOL    HW133044   4.525   3.037   7.557 -0.2946 -1.3827  2.6117
 7194SOL    HW233045   4.665   3.047   7.506  0.5261  1.0880  0.0958
 7195SOL     OW33046   3.595   1.227   7.369  0.2078 -0.5389 -0.6675
 7195SOL    HW133047   3.553   1.151   7.328 -2.6582  0.7529 -0.0886
 7195SOL    HW233048   3.628   1.277   7.294  0.1130  0.6954  0.1107
 7196SOL     OW33049   3.081   1.045   9.386 -0.0561 -0.0437 -0.1623
 7196SOL    HW133050   3.056   1.062   9.477  2.2693 -1.7777  0.7965
 7196SOL    HW233051   3.134   0.966   9.395 -0.4168 -0.0969  1.6672
 7197SOL     OW33052   0.275   2.747   5.872  0.6362 -0.6518  0.0998
 7197SOL    HW133053   0.313   2.834   5.878 -1.9349  0.4218  0.7647
 7197SOL    HW233054   0.349   2.702   5.832 -1.3007 -1.1305 -2.9863
 7198SOL     OW33055   0.474   3.140   0.786  0.0912 -0.1864  0.7402
 7198SOL    HW133056   0.543   3.204   0.800  0.6453 -0.9704  1.6141
 7198SOL    HW233057   0.397   3.194   0.766  1.4929  1.4263 -0.2938
 7199SOL     OW33058   0.426   1.806   5.595  0.1774 -0.5074 -0.4059
 7199SOL    HW133059   0.375   1.882   5.566 -0.4022 -1.4291 -1.7483
 7199SOL    HW233060   0.376   1.731   5.565 -1.7631  1.7504 -2.8374
 7200SOL     OW33061   2.034   3.536   8.801  0.1274 -0.1654  0.3972
 7200SOL    HW133062   2.048   3.629   8.818 -0.5097 -0.0271  0.1716
 7200SOL    HW233063   1.972   3.526   8.874 -1.1744 -1.0488 -0.8167
 7201SOL     OW33064   0.400   2.206  15.847  0.3936 -0.8665 -0.3197
 7201SOL    HW133065   0.354   2.193  15.930 -0.6169  0.6573 -0.6447
 7201SOL    HW233066   0.388   2.300  15.830  0.3232 -0.5194  1.6026
 7202SOL     OW33067   4.499   2.984   0.395 -0.3057  0.1809 -0.0981
 7202SOL    HW133068   4.429   2.920   0.380 -0.9792  0.3740  2.3382
 7202SOL    HW233069   4.543   2.953   0.474  3.0289 -1.0859 -2.4060
 7203SOL     OW33070   1.252   0.784   0.305 -0.0320  0.2913 -0.0712
 7203SOL    HW133071   1.244   0.712   0.367 -3.1529  0.7284  0.0402
 7203SOL    HW233072   1.178   0.773   0.245 -1.1060  0.3989  1.2298
 7204SOL     OW33073   2.440   3.487  10.388 -0.5631 -0.1949 -0.4446
 7204SOL    HW133074   2.433   3.460  10.480  2.6368  0.8882  0.1076
 7204SOL    HW233075   2.375   3.557  10.390 -1.3653 -0.8792 -2.0367
 7205SOL     OW33076   0.263   2.376   9.715 -0.0692 -0.5344  0.1047
 7205SOL    HW133077   0.295   2.438   9.781 -1.7037  1.6408 -1.1392
 7205SOL    HW233078   0.331   2.388   9.649 -0.7739 -0.5444 -0.6205
 7206SOL     OW33079   1.366   2.927  12.152 -0.4478  0.5925 -0.3739
 7206SOL    HW133080   1.318   2.959  12.076  0.1246 -0.9160 -1.3550
 7206SOL    HW233081   1.316   2.965  12.225  0.4133  0.8848  0.0681
 7207SOL     OW33082   4.308   0.750   7.477 -0.1222  0.4187 -0.2577
 7207SOL    HW133083   4.315   0.701   7.394 -1.6121  0.5806 -0.4738
 7207SOL    HW233084   4.372   0.707   7.534 -0.6769 -0.0020  0.0423
 7208SOL     OW33085   3.372   0.874   8.777  0.5640 -0.2897  0.1407
 7208SOL    HW133086   3.365   0.849   8.685  0.0616 -0.7059  0.2917
 7208SOL    HW233087   3.464   0.898   8.786  0.9599 -0.9773 -2.0062
 7209SOL     OW33088   3.564   2.460   2.002  0.4432 -0.2248  0.7279
 7209SOL    HW133089   3.543   2.538   1.951  0.2945  0.1260  1.3335
 7209SOL    HW233090   3.659   2.458   1.990  0.3893 -2.8072  0.6674
 7210SOL     OW33091   2.086   4.383   3.939  0.9282 -0.2440 -0.3585
 7210SOL    HW133092   2.030   4.456   3.912  0.8227  0.5083  1.8619
 7210SOL    HW233093   2.160   4.403   3.883  3.0114 -2.4655  1.5972
 7211SOL     OW33094   0.947   0.309   9.472 -0.1712 -0.2659  0.5269
 7211SOL    HW133095   0.978   0.226   9.436 -1.5343 -1.6859  2.6632
 7211SOL    HW233096   0.982   0.354   9.395 -0.7596  0.7892  0.8836
 7212SOL     OW33097   4.571   2.071   7.752  0.3543  0.3899  0.1741
 7212SOL    HW133098   4.518   2.070   7.832 -0.6888  1.2303 -0.5157
 7212SOL    HW233099   4.509   2.096   7.684  1.3798 -0.9336 -1.2571
 7213SOL     OW33100   3.631   1.214   6.252  0.2362 -0.2402 -0.8616
 7213SOL    HW133101   3.635   1.123   6.222 -0.4187 -1.5087  2.9636
 7213SOL    HW233102   3.539   1.218   6.278  0.5376 -0.2716  0.1888
 7214SOL     OW33103   3.171   1.696   4.648  0.5415  0.3423 -0.1493
 7214SOL    HW133104   3.165   1.601   4.654  2.0045  0.2035 -0.8460
 7214SOL    HW233105   3.216   1.718   4.729  0.6631  1.2296 -0.4597
 7215SOL     OW33106   4.376   3.909   6.591 -0.4034  0.0310 -0.2926
 7215SOL    HW133107   4.329   3.936   6.512 -0.8536 -0.2158 -0.1144
 7215SOL    HW233108   4.339   3.958   6.665 -2.2237  2.3081 -2.7419
 7216SOL     OW33109   3.362   0.932   6.939 -0.3671 -0.0567  0.2030
 7216SOL    HW133110   3.317   0.877   6.875 -2.3847  1.6294  0.1597
 7216SOL    HW233111   3.323   0.899   7.020 -1.9887  1.0945 -0.1057
 7217SOL     OW33112   1.819   0.794   2.155 -0.1036  0.4206  0.1478
 7217SOL    HW133113   1.784   0.733   2.220 -0.6481 -1.2602 -1.7257
 7217SOL    HW233114   1.743   0.852   2.151  0.6258  1.1598 -2.8267
 7218SOL     OW33115   3.887   0.354   6.574 -0.9188 -0.1148  0.2428
 7218SOL    HW133116   3.956   0.384   6.632 -1.2335 -1.4251  1.2894
 7218SOL    HW233117   3.823   0.326   6.640  1.5593 -0.5281  2.4448
 7219SOL     OW33118   3.369   3.918   6.625 -0.2743 -0.4358 -0.0929
 7219SOL    HW133119   3.362   3.823   6.614  1.9779 -0.7252  0.9660
 7219SOL    HW233120   3.352   3.944   6.716  1.1284 -1.1824  0.3772
 7220SOL     OW33121   0.009   0.446  13.420  0.0129 -0.0886 -0.2346
 7220SOL    HW133122   0.101   0.439  13.445 -0.5543  2.4982  2.6341
 7220SOL    HW233123   4.680   0.456  13.500 -1.0733  1.9041 -1.1830
 7221SOL     OW33124   2.782   4.084   5.869  0.1643 -0.0163  0.0421
 7221SOL    HW133125   2.848   4.153   5.870 -0.9419  1.0564 -0.4302
 7221SOL    HW233126   2.720   4.118   5.934  0.7460 -1.0248  1.1280
 7222SOL     OW33127   1.787   3.411   8.132 -0.6954 -0.1724 -0.3949
 7222SOL    HW133128   1.700   3.374   8.119 -0.0854 -2.1095  0.9549
 7222SOL    HW233129   1.824   3.440   8.049  1.8687 -2.6485 -0.1220
 7223SOL     OW33130   3.016   2.508  13.317 -0.2378  0.1365 -1.0413
 7223SOL    HW133131   2.926   2.539  13.308 -0.7784 -0.8135  1.2039
 7223SOL    HW233132   3.040   2.532  13.227  2.4075  0.9357 -0.1428
 7224SOL     OW33133   3.085   4.001  11.348 -0.0495 -0.1718  0.6230
 7224SOL    HW133134   3.048   4.089  11.356  0.7163  0.3657 -1.9948
 7224SOL    HW233135   3.171   4.037  11.328 -0.4064 -0.3404 -1.2099
 7225SOL     OW33136   2.601   0.932   4.907  0.4950  0.0526  0.2540
 7225SOL    HW133137   2.569   1.012   4.866 -0.1143  0.0178  0.6692
 7225SOL    HW233138   2.558   0.860   4.861 -1.1296  1.8470 -1.0288
 7226SOL     OW33139   1.175   3.975   4.082 -0.0217  0.0390 -0.4521
 7226SOL    HW133140   1.187   4.069   4.094  0.1222 -0.1124  0.5867
 7226SOL    HW233141   1.088   3.954   4.114  0.2531  1.3889  1.1338
 7227SOL     OW33142   3.714   1.590   6.209 -0.2887  0.2372 -0.2644
 7227SOL    HW133143   3.736   1.513   6.158  1.5837  0.6928 -0.1613
 7227SOL    HW233144   3.761   1.567   6.290  0.1721  0.9653 -0.3213
 7228SOL     OW33145   4.394   4.555  11.149  0.3404 -0.1872 -0.3763
 7228SOL    HW133146   4.340   4.597  11.216  0.2280 -1.0050  0.0531
 7228SOL    HW233147   4.336   4.531  11.077 -0.9468 -2.1452  1.3119
 7229SOL     OW33148   4.592   0.027   6.715  0.1759  0.2874 -0.2431
 7229SOL    HW133149   4.633   4.685   6.773  1.4360  0.3952 -0.9974
 7229SOL    HW233150   4.524   0.051   6.778  1.3910  0.3014  1.0716
 7230SOL     OW33151   1.085   3.310  15.042 -0.5336 -0.4473  0.4178
 7230SOL    HW133152   1.080   3.232  15.097 -0.0890 -1.2951 -0.7377
 7230SOL    HW233153   1.065   3.268  14.958  0.0833 -1.4745  0.7768
 7231SOL     OW33154   3.031   3.900   5.812 -0.1712  0.0735  0.3096
 7231SOL    HW133155   2.957   3.959   5.814 -0.5410 -0.3560 -1.2271
 7231SOL    HW233156   3.088   3.976   5.822  1.2787 -1.1222  1.2551
 7232SOL     OW33157   0.905   1.880   3.906 -0.1790 -0.4155 -0.3388
 7232SOL    HW133158   0.971   1.882   3.975 -2.7149 -1.3740  2.1080
 7232SOL    HW233159   0.845   1.950   3.930 -1.2779 -0.4614 -2.9101
 7233SOL     OW33160   0.802   2.052   4.106 -0.2904  0.0094 -0.2027
 7233SOL    HW133161   0.863   2.035   4.177 -0.1980 -1.8047 -0.7267
 7233SOL    HW233162   0.742   1.979   4.121 -1.0950  0.9176  0.9817
 7234SOL     OW33163   3.535   0.807  10.917  0.2465 -0.1538  0.9070
 7234SOL    HW133164   3.494   0.869  10.978  2.0521  2.2858 -0.3334
 7234SOL    HW233165   3.606   0.861  10.881 -0.3958 -0.3790 -0.6902
 7235SOL     OW33166   1.113   3.168   5.187 -0.4292  0.4637 -0.1534
 7235SOL    HW133167   1.130   3.108   5.115 -1.2761  0.3964 -0.2961
 7235SOL    HW233168   1.200   3.174   5.226 -1.0961 -1.4781  1.6290
 7236SOL     OW33169   1.690   2.331   3.846 -0.7693 -0.4944  0.0248
 7236SOL    HW133170   1.679   2.302   3.755 -3.0194  0.4290 -0.0128
 7236SOL    HW233171   1.722   2.252   3.888 -2.3134 -1.7599 -1.1512
 7237SOL     OW33172   3.034   3.706  11.559 -0.1114  0.1630 -0.1667
 7237SOL    HW133173   2.972   3.767  11.600 -1.0396  0.4354 -1.9387
 7237SOL    HW233174   3.056   3.660  11.640 -0.3562 -0.1451 -0.2737
 7238SOL     OW33175   0.330   2.616   0.897 -0.0499  0.6181  0.5696
 7238SOL    HW133176   0.375   2.685   0.848  0.6499 -0.8425 -0.8279
 7238SOL    HW233177   0.283   2.668   0.963 -1.0224 -0.0426  0.3991
 7239SOL     OW33178   0.674   2.993   7.940  0.1763  0.2196  0.4307
 7239SOL    HW133179   0.595   3.006   7.993  0.5867  3.2189  0.3383
 7239SOL    HW233180   0.701   2.908   7.975  1.6495 -0.4994 -2.4429
 7240SOL     OW33181   1.383   0.932   5.650  0.1038 -0.4778 -0.2011
 7240SOL    HW133182   1.359   1.005   5.707 -0.8825  1.3227 -2.9136
 7240SOL    HW233183   1.328   0.870   5.697  0.2462  0.5820  1.3816
 7241SOL     OW33184   3.246   4.318   8.426  0.0474  0.5706  0.6761
 7241SOL    HW133185   3.156   4.350   8.419  0.9076  3.3478  2.3006
 7241SOL    HW233186   3.267   4.341   8.516  3.4804  1.6963 -0.4088
 7242SOL     OW33187   2.614   2.407   2.801 -0.3182  0.0427 -0.3049
 7242SOL    HW133188   2.595   2.326   2.753  0.4600 -0.2722 -0.0724
 7242SOL    HW233189   2.667   2.460   2.742 -3.2232  0.9475 -2.1267
 7243SOL     OW33190   0.960   0.638   9.924 -0.3576 -0.0844  0.0574
 7243SOL    HW133191   1.033   0.580   9.904 -1.4730 -1.2373 -0.6865
 7243SOL    HW233192   0.978   0.662  10.015 -1.4680  0.8986  0.0195
 7244SOL     OW33193   0.649   3.398   2.437  0.6609 -0.6100 -0.7407
 7244SOL    HW133194   0.669   3.448   2.358 -0.3675  1.4945  0.3445
 7244SOL    HW233195   0.712   3.327   2.423  0.4455 -0.7409 -1.0429
 7245SOL     OW33196   3.020   1.058   7.565  0.2285  0.6560  0.4630
 7245SOL    HW133197   2.954   1.127   7.553 -1.4009 -1.2865 -1.6556
 7245SOL    HW233198   3.047   1.048   7.474  1.4001 -0.0731  0.8994
 7246SOL     OW33199   3.850   2.999  15.314 -0.0668  0.0796 -0.0059
 7246SOL    HW133200   3.852   2.993  15.218  1.9459  0.4710  0.0090
 7246SOL    HW233201   3.834   3.093  15.328  1.3691  0.3174  0.0253
 7247SOL     OW33202   2.113   3.731   7.381 -0.0953  0.5717  0.1958
 7247SOL    HW133203   2.088   3.761   7.469 -0.6593 -0.2636  0.3301
 7247SOL    HW233204   2.152   3.812   7.349  0.6149 -0.7860 -2.3366
 7248SOL     OW33205   2.373   3.544   8.877  0.0402 -0.7165 -0.1840
 7248SOL    HW133206   2.342   3.499   8.799 -1.6252  0.0415  0.0389
 7248SOL    HW233207   2.299   3.521   8.934  1.1199  0.4009  1.6785
 7249SOL     OW33208   1.322   4.557   7.786 -0.3198  0.0663 -0.1046
 7249SOL    HW133209   1.387   4.574   7.854 -0.2866 -1.6336  0.2894
 7249SOL    HW233210   1.249   4.612   7.814 -0.1567 -0.5783  1.6170
 7250SOL     OW33211   2.589   2.999   8.094 -0.0569  0.1467 -0.1759
 7250SOL    HW133212   2.599   2.938   8.167  2.2126 -0.7155 -1.2027
 7250SOL    HW233213   2.639   2.955   8.025 -0.6198 -0.2819 -0.3100
 7251SOL     OW33214   0.091   3.492  16.520 -0.2354  1.0966  0.2952
 7251SOL    HW133215   0.095   3.569  16.463 -1.1077  2.2752  1.8252
 7251SOL    HW233216   0.019   3.453  16.471 -0.8166  1.7393  0.6320
 7252SOL     OW33217   3.414   1.440  13.453 -0.5659 -0.5415 -0.0709
 7252SOL    HW133218   3.342   1.463  13.393  0.4403 -0.0603 -1.0906
 7252SOL    HW233219   3.394   1.351  13.481  0.1408 -0.9498 -0.8710
 7253SOL     OW33220   3.721   0.446   1.371 -0.6563 -0.2246 -0.2122
 7253SOL    HW133221   3.758   0.483   1.291 -1.0604 -0.1067 -0.3432
 7253SOL    HW233222   3.797   0.435   1.428 -1.1453 -1.7038  0.1602
 7254SOL     OW33223   1.643   2.321   4.843 -0.0757 -0.2653 -0.6058
 7254SOL    HW133224   1.732   2.292   4.823  0.1126  0.6962 -1.1681
 7254SOL    HW233225   1.637   2.401   4.791  0.5785  1.4092  1.8568
 7255SOL     OW33226   1.660   0.286   8.808  0.3593 -0.3515 -0.2375
 7255SOL    HW133227   1.704   0.320   8.730  0.2263 -0.5127 -0.3815
 7255SOL    HW233228   1.695   0.197   8.808  2.2112  0.3709  1.1402
 7256SOL     OW33229   0.343   2.394   9.435  0.4708  0.2479  0.1650
 7256SOL    HW133230   0.314   2.307   9.410 -0.5376  0.9046 -0.9757
 7256SOL    HW233231   0.389   2.421   9.356  1.0751 -2.6440 -0.4439
 7257SOL     OW33232   4.438   4.332   0.319  0.1320 -0.1481 -0.4979
 7257SOL    HW133233   4.449   4.391   0.245 -1.5811  0.8964  0.0913
 7257SOL    HW233234   4.361   4.372   0.359  0.1048 -1.1344  0.4593
 7258SOL     OW33235   3.864   1.776   5.672  0.7746 -0.0766 -0.2456
 7258SOL    HW133236   3.817   1.754   5.592 -0.5125  1.7501  0.0017
 7258SOL    HW233237   3.815   1.728   5.738 -0.2902 -0.1914 -1.1141
 7259SOL     OW33238   0.069   3.798   6.706 -0.0101  0.4131 -0.0687
 7259SOL    HW133239   0.051   3.718   6.755 -0.5884  0.5506 -0.0576
 7259SOL    HW233240   0.023   3.864   6.757 -0.8218 -2.4315  2.9251
 7260SOL     OW33241   3.766   2.562   9.289 -0.0379 -0.1833 -0.0175
 7260SOL    HW133242   3.713   2.641   9.295  0.5705  0.2173  0.0889
 7260SOL    HW233243   3.810   2.582   9.206  0.4421 -1.4183 -0.0633
 7261SOL     OW33244   0.270   2.819   3.418 -0.7219  0.5560  0.2790
 7261SOL    HW133245   0.188   2.773   3.438 -0.4483  0.1015  0.3480
 7261SOL    HW233246   0.254   2.907   3.452 -1.6215 -0.0835  1.5561
 7262SOL     OW33247   2.167   1.141   3.557 -0.2985 -0.4819 -0.4385
 7262SOL    HW133248   2.162   1.052   3.592 -0.6413 -0.2930 -0.0034
 7262SOL    HW233249   2.106   1.188   3.614 -0.0270  1.4688 -1.7609
 7263SOL     OW33250   2.836   0.945  10.284  0.0074  0.5978  0.6657
 7263SOL    HW133251   2.781   0.887  10.232 -0.7504  0.2114  1.8862
 7263SOL    HW233252   2.833   1.024  10.230  1.8837  0.2820  0.0960
 7264SOL     OW33253   0.199   0.103   3.645  0.3423  0.4597 -0.1318
 7264SOL    HW133254   0.191   0.025   3.700  1.8782  1.5322  1.6427
 7264SOL    HW233255   0.151   0.070   3.569  0.3597  2.2724 -0.9223
 7265SOL     OW33256   1.481   0.276   5.527 -0.0973  0.7641  0.1821
 7265SOL    HW133257   1.486   0.258   5.621 -0.0001 -0.6168 -0.0834
 7265SOL    HW233258   1.421   0.351   5.528 -1.1837 -0.0937 -0.1137
 7266SOL     OW33259   2.562   1.913   4.722 -0.0710 -0.4498 -0.6907
 7266SOL    HW133260   2.612   1.989   4.693 -0.4882  0.2327  0.4249
 7266SOL    HW233261   2.633   1.868   4.767 -0.1121 -0.3036 -0.4834
 7267SOL     OW33262   4.180   1.374  10.778  0.1992  0.5948 -0.9535
 7267SOL    HW133263   4.231   1.325  10.715 -1.8585  0.8434 -2.8101
 7267SOL    HW233264   4.098   1.378  10.729 -1.7911 -0.3183  2.3442
 7268SOL     OW33265   2.602   2.050   8.263  0.2364  0.4481  0.4491
 7268SOL    HW133266   2.521   2.001   8.245 -0.4609  1.5229  0.6605
 7268SOL    HW233267   2.628   1.997   8.338 -0.1698  1.2488  1.1478
 7269SOL     OW33268   1.105   2.970   6.168  0.4891  0.1211 -0.5632
 7269SOL    HW133269   1.159   2.990   6.092  0.1821  3.2775  0.0206
 7269SOL    HW233270   1.155   2.908   6.222  0.6308  1.7249  1.1667
 7270SOL     OW33271   3.783   3.349   0.931  0.4708  0.2029  0.0185
 7270SOL    HW133272   3.741   3.288   0.991  0.6850 -0.6395 -0.6963
 7270SOL    HW233273   3.744   3.330   0.846  1.2837 -3.8795  0.5813
 7271SOL     OW33274   1.997   2.480  11.123  0.1611 -0.2268 -0.1136
 7271SOL    HW133275   1.929   2.444  11.180 -0.3560  1.0349  0.0726
 7271SOL    HW233276   1.966   2.467  11.033 -3.1948 -2.4977  1.3593
 7272SOL     OW33277   0.631   0.706  13.723 -0.0742 -0.6486  0.2197
 7272SOL    HW133278   0.699   0.712  13.656 -1.1120  1.3552 -0.6123
 7272SOL    HW233279   0.646   0.788  13.770  0.8456 -0.6088 -0.1413
 7273SOL     OW33280   3.624   3.248   8.779  0.1898 -0.7264 -0.3844
 7273SOL    HW133281   3.553   3.199   8.737 -0.7626  0.0566  0.3105
 7273SOL    HW233282   3.686   3.175   8.771 -0.7448 -1.8259  2.1915
 7274SOL     OW33283   2.149   0.581   2.051  0.7888  0.0155  0.0056
 7274SOL    HW133284   2.086   0.509   2.045  0.7266 -0.0993  1.9267
 7274SOL    HW233285   2.174   0.588   1.959 -0.3728  2.8739 -0.0963
 7275SOL     OW33286   0.291   0.076   4.530  0.8629  0.5346  0.5295
 7275SOL    HW133287   0.347   0.100   4.456 -1.2508 -1.7703 -1.8550
 7275SOL    HW233288   0.258   0.163   4.553  0.5706  0.6764 -0.4015
 7276SOL     OW33289   4.351   1.771   5.549  0.1941 -0.2449  0.2748
 7276SOL    HW133290   4.271   1.720   5.541 -0.4138  0.5805  1.0028
 7276SOL    HW233291   4.335   1.846   5.491 -1.7274 -0.4224  0.5741
 7277SOL     OW33292   1.950   0.184  10.897 -0.4357 -0.2502 -0.5067
 7277SOL    HW133293   1.989   0.162  10.982  0.5498  0.4661 -0.7823
 7277SOL    HW233294   1.933   0.278  10.902  0.8201  0.0706 -2.6855
 7278SOL     OW33295   0.663   1.518  15.952  0.0440  0.3854  0.1135
 7278SOL    HW133296   0.750   1.499  15.986 -0.1529 -0.8487 -0.0506
 7278SOL    HW233297   0.680   1.556  15.866  3.4672  1.0872  1.1375
 7279SOL     OW33298   3.521   1.051   6.484  0.4078  0.0085  0.5806
 7279SOL    HW133299   3.540   0.984   6.550  0.0859 -0.6514 -0.0008
 7279SOL    HW233300   3.576   1.021   6.412 -0.0930  2.4761 -0.8323
 7280SOL     OW33301   1.432   3.712   8.006 -0.3065  0.2926 -0.0620
 7280SOL    HW133302   1.454   3.706   7.913 -2.2064 -1.1088 -0.4195
 7280SOL    HW233303   1.460   3.625   8.033 -0.4203  0.5586  0.8990
 7281SOL     OW33304   1.278   1.151  13.609 -0.1568  0.1539  0.3913
 7281SOL    HW133305   1.195   1.115  13.640 -0.4208 -2.0017 -2.8911
 7281SOL    HW233306   1.284   1.241  13.642  0.9610  0.1999  0.0764
 7282SOL     OW33307   2.784   0.050  16.203 -0.0432 -0.1524  0.3424
 7282SOL    HW133308   2.870   0.019  16.175  0.4902  1.4768  0.1876
 7282SOL    HW233309   2.757   4.693  16.248  1.3822 -0.7740  0.1064
 7283SOL     OW33310   4.129   0.509   4.434  0.6947  0.3738 -0.2347
 7283SOL    HW133311   4.074   0.499   4.356 -0.9890 -0.8878  1.1064
 7283SOL    HW233312   4.216   0.499   4.395  0.5572 -3.4324  0.4489
 7284SOL     OW33313   0.224   4.150   9.160 -0.2749  0.0374 -0.2606
 7284SOL    HW133314   0.179   4.093   9.097 -0.6055 -0.7510  0.6800
 7284SOL    HW233315   0.290   4.199   9.111  0.4270 -0.3005  0.3447
 7285SOL     OW33316   1.355   3.104   8.082  0.5275  0.4960  0.4586
 7285SOL    HW133317   1.292   3.149   8.026 -0.3189  0.6920  1.5608
 7285SOL    HW233318   1.340   3.010   8.071  0.0022  0.7233 -0.7197
 7286SOL     OW33319   3.865   0.838   6.332  0.0295  0.0419  0.1607
 7286SOL    HW133320   3.945   0.798   6.365 -0.0233 -1.2067 -1.1906
 7286SOL    HW233321   3.808   0.809   6.402 -0.4429 -3.1166 -1.5563
 7287SOL     OW33322   3.841   1.538   8.659 -0.4270 -0.2942 -0.4809
 7287SOL    HW133323   3.919   1.593   8.668 -0.9558 -0.0028  2.4566
 7287SOL    HW233324   3.787   1.572   8.731 -2.1102 -0.7371 -1.5342
 7288SOL     OW33325   3.638   3.570   0.202 -0.3395  0.0944 -0.4230
 7288SOL    HW133326   3.570   3.624   0.161  0.6703  3.9157  2.9868
 7288SOL    HW233327   3.696   3.635   0.240 -1.1121 -0.2937  1.4157
 7289SOL     OW33328   2.697   4.343  10.955  0.7568  0.4612 -0.7427
 7289SOL    HW133329   2.763   4.410  10.973 -0.6146  1.3904  0.9030
 7289SOL    HW233330   2.631   4.373  11.018  1.0484 -0.7523  0.1436
 7290SOL     OW33331   4.268   2.857   3.179  0.2515  0.1780 -0.3718
 7290SOL    HW133332   4.275   2.895   3.092 -3.9302 -1.1581 -1.3125
 7290SOL    HW233333   4.259   2.765   3.152 -1.5379  0.2091  0.0962
 7291SOL     OW33334   4.404   2.270  11.795 -0.0576  0.1875  0.4734
 7291SOL    HW133335   4.390   2.183  11.758 -0.5907  0.2560  0.5112
 7291SOL    HW233336   4.496   2.263  11.820 -0.3122 -0.1103  1.3039
 7292SOL     OW33337   3.053   4.325   3.722  0.0558 -0.3829  0.2091
 7292SOL    HW133338   3.028   4.233   3.724  0.1386 -0.4047  0.2305
 7292SOL    HW233339   3.085   4.323   3.812  1.9545  0.0996 -0.4581
 7293SOL     OW33340   4.554   4.597   7.282 -0.3034 -0.2062  0.1833
 7293SOL    HW133341   4.594   4.558   7.204  0.8033 -0.2398  0.7603
 7293SOL    HW233342   4.616   4.567   7.349 -0.5184 -1.4214 -0.1602
 7294SOL     OW33343   4.602   0.173   6.278  0.4193 -0.2532 -0.6537
 7294SOL    HW133344   4.694   0.175   6.252  0.4207  0.4713 -0.5999
 7294SOL    HW233345   4.592   0.086   6.317 -1.5932 -0.8455 -2.5506
 7295SOL     OW33346   3.722   2.757   4.141  0.1186 -0.1868 -0.2683
 7295SOL    HW133347   3.766   2.763   4.057 -0.5877  1.7320 -0.5000
 7295SOL    HW233348   3.765   2.825   4.193  0.8991 -0.3668 -0.6797
 7296SOL     OW33349   3.129   0.944   9.778 -0.5563 -0.2002 -0.5547
 7296SOL    HW133350   3.098   0.855   9.767  1.9007 -1.5161  3.0799
 7296SOL    HW233351   3.210   0.937   9.727 -0.8857 -2.0021 -0.8280
 7297SOL     OW33352   2.268   3.741   5.962 -0.1358  0.7643  0.3495
 7297SOL    HW133353   2.305   3.828   5.943 -0.5404  0.4223 -1.9935
 7297SOL    HW233354   2.177   3.749   5.931 -0.0517 -0.4043 -0.1826
 7298SOL     OW33355   4.589   3.396   6.557  0.0709  0.5351  0.3342
 7298SOL    HW133356   4.547   3.482   6.558  0.1442  0.5477  1.9366
 7298SOL    HW233357   4.577   3.359   6.645 -0.6326 -0.5546 -0.2170
 7299SOL     OW33358   3.429   0.288   4.022  0.3089 -0.8174 -0.0085
 7299SOL    HW133359   3.476   0.296   4.105 -0.2317  1.0882  0.1093
 7299SOL    HW233360   3.433   0.380   3.996 -0.7938 -0.3884  1.3556
 7300SOL     OW33361   0.499   1.358   7.707  0.1620 -0.2254  0.5660
 7300SOL    HW133362   0.504   1.281   7.652 -0.2548  0.6538 -0.7151
 7300SOL    HW233363   0.442   1.329   7.779 -1.7172 -1.1248 -1.2717
 7301SOL     OW33364   2.222   2.131   2.559  0.3515 -0.3737 -0.3138
 7301SOL    HW133365   2.271   2.076   2.499  0.4296 -1.0402  0.3604
 7301SOL    HW233366   2.179   2.187   2.495 -0.2296  0.6175  0.9373
 7302SOL     OW33367   3.790   3.912   6.814 -0.6095 -0.0768  0.2512
 7302SOL    HW133368   3.821   3.842   6.871 -0.8446 -1.3973 -1.2160
 7302SOL    HW233369   3.866   3.969   6.811 -1.2268  0.7984  1.6086
 7303SOL     OW33370   3.630   1.854  12.401 -0.7367  0.4194  0.0735
 7303SOL    HW133371   3.684   1.926  12.435 -0.4741  0.6153 -0.7412
 7303SOL    HW233372   3.561   1.854  12.467 -1.5813 -2.2099 -0.8148
 7304SOL     OW33373   2.272   0.678  16.197  0.0482  0.3766 -0.5383
 7304SOL    HW133374   2.196   0.671  16.256 -0.2084 -1.1949 -1.0523
 7304SOL    HW233375   2.231   0.706  16.116 -2.0418 -3.1886 -0.7404
 7305SOL     OW33376   2.705   3.251  12.784 -0.0759 -0.3457  0.4934
 7305SOL    HW133377   2.691   3.334  12.740  0.1182 -0.3183  0.4832
 7305SOL    HW233378   2.652   3.202  12.721 -0.3103  2.0845 -1.1516
 7306SOL     OW33379   1.907   4.302   6.926  0.4015 -0.3317 -0.4720
 7306SOL    HW133380   1.876   4.213   6.940  2.0296 -0.9517 -0.7825
 7306SOL    HW233381   1.855   4.324   6.849 -1.1103 -0.7803  0.4137
 7307SOL     OW33382   1.281   3.236  13.507  0.6113  0.4534  0.3534
 7307SOL    HW133383   1.306   3.257  13.417  0.6683  0.2429  0.3201
 7307SOL    HW233384   1.202   3.288  13.514 -0.6776 -1.4838  0.1983
 7308SOL     OW33385   2.732   4.268  15.752  0.2797  0.0459 -0.3738
 7308SOL    HW133386   2.764   4.358  15.760  0.8370 -0.3552  1.7992
 7308SOL    HW233387   2.795   4.222  15.696  1.0042  0.5109  0.0688
 7309SOL     OW33388   2.087   3.068   8.969  0.0889  0.4295  0.1457
 7309SOL    HW133389   2.156   3.092   8.908  1.2609  0.4909  1.5131
 7309SOL    HW233390   2.131   3.073   9.053  0.7327 -1.1062 -0.1023
 7310SOL     OW33391   2.947   4.707  15.265  0.2835  0.1448  0.6897
 7310SOL    HW133392   2.970   0.077  15.265  2.6329 -0.4454  1.4091
 7310SOL    HW233393   3.036   4.675  15.249 -0.0646  0.7071 -2.4440
 7311SOL     OW33394   0.064   2.827  15.009 -0.2544 -0.1915  0.1587
 7311SOL    HW133395   0.005   2.855  15.080 -1.9596  1.9116 -2.1003
 7311SOL    HW233396   4.722   2.806  14.942  0.5255 -1.7942 -0.0800
 7312SOL     OW33397   3.676   3.140   2.416  0.0168  0.7204  0.0872
 7312SOL    HW133398   3.682   3.056   2.463  2.1201  0.0372 -1.4048
 7312SOL    HW233399   3.709   3.104   2.333 -1.0689  0.0616 -0.0594
 7313SOL     OW33400   0.354   1.022   5.302  0.8035 -0.3884 -0.0514
 7313SOL    HW133401   0.353   0.926   5.293  0.9093 -0.3391 -0.6016
 7313SOL    HW233402   0.308   1.057   5.226 -1.9459 -0.3813  1.6057
 7314SOL     OW33403   2.905   0.330  11.725  0.1647  0.3867  0.4142
 7314SOL    HW133404   2.826   0.378  11.702 -0.9052 -1.5248  0.1669
 7314SOL    HW233405   2.905   0.260  11.660 -0.1165  0.9732 -0.2156
 7315SOL     OW33406   2.457   0.978   2.016  0.4900  0.0037 -0.0052
 7315SOL    HW133407   2.423   0.946   2.100 -0.1424 -0.7313 -0.5394
 7315SOL    HW233408   2.378   1.002   1.968  1.0900  2.3865  0.1876
 7316SOL     OW33409   0.664   1.628  15.239  0.1174 -0.6329 -0.9486
 7316SOL    HW133410   0.697   1.652  15.152  0.1231 -0.1241 -0.8034
 7316SOL    HW233411   0.599   1.561  15.217 -0.2176 -0.7686  0.4833
 7317SOL     OW33412   2.403   2.265   5.309 -0.3510  0.6217 -0.3741
 7317SOL    HW133413   2.398   2.333   5.242  1.4546  0.4397 -0.7098
 7317SOL    HW233414   2.327   2.210   5.291 -1.2212  1.7082  0.0343
 7318SOL     OW33415   2.264   2.727   5.526  0.1546 -0.0417  0.1790
 7318SOL    HW133416   2.357   2.723   5.549  0.4683  1.3746 -0.8255
 7318SOL    HW233417   2.255   2.661   5.457  1.7864 -0.0180 -0.0562
 7319SOL     OW33418   1.258   3.940   2.500 -0.4693  0.1577  0.3408
 7319SOL    HW133419   1.232   3.936   2.408 -1.2031  2.2479  0.4674
 7319SOL    HW233420   1.270   4.033   2.515  1.0922  0.4701 -2.8603
 7320SOL     OW33421   1.178   1.700   3.739 -0.4538  0.3271  0.0364
 7320SOL    HW133422   1.160   1.793   3.730 -1.5384  0.2522  1.5174
 7320SOL    HW233423   1.248   1.693   3.673 -1.1870  0.3035 -0.7378
 7321SOL     OW33424   0.023   3.762  12.807 -0.3864  0.5713  0.3161
 7321SOL    HW133425   4.651   3.754  12.817 -0.6111 -0.5288 -2.9645
 7321SOL    HW233426   0.026   3.822  12.733  0.5804 -1.5399 -1.3296
 7322SOL     OW33427   1.739   0.093  13.510  0.0677 -0.5040 -0.5600
 7322SOL    HW133428   1.661   0.039  13.500  0.0043 -0.3043 -1.1394
 7322SOL    HW233429   1.769   0.070  13.422 -0.5501  2.4453 -1.5593
 7323SOL     OW33430   1.549   3.148   3.240 -0.0151 -0.3614 -0.0030
 7323SOL    HW133431   1.597   3.192   3.170 -0.1062  0.2206  0.3033
 7323SOL    HW233432   1.462   3.187   3.231  0.3710  0.9611  2.1037
 7324SOL     OW33433   2.833   3.607  15.883 -0.2175 -0.0165 -0.6965
 7324SOL    HW133434   2.899   3.544  15.855 -0.7380 -0.4321 -0.9874
 7324SOL    HW233435   2.754   3.586  15.833  0.1783  0.4784 -1.5111
 7325SOL     OW33436   2.118   2.408  12.869  0.3270  0.1863  0.2544
 7325SOL    HW133437   2.078   2.353  12.802  0.5495  1.8835 -1.2858
 7325SOL    HW233438   2.198   2.426  12.820  0.0568 -0.7887 -0.5309
 7326SOL     OW33439   0.728   1.768   8.720  0.7788  0.3283 -0.1678
 7326SOL    HW133440   0.739   1.799   8.810  2.1164  1.1165 -0.6221
 7326SOL    HW233441   0.705   1.846   8.669  1.4852 -0.5074 -1.7643
 7327SOL     OW33442   0.010   1.230   4.475 -0.1028  0.5938 -0.4557
 7327SOL    HW133443   0.046   1.268   4.555 -0.0565 -0.8473  0.2150
 7327SOL    HW233444   4.648   1.271   4.456  0.5160  0.8168 -2.6908
 7328SOL     OW33445   2.248   0.547   3.326 -0.0248  0.4324 -0.0366
 7328SOL    HW133446   2.330   0.590   3.351  0.6858  0.2509 -2.0819
 7328SOL    HW233447   2.182   0.594   3.376 -1.7950 -0.2818 -1.7091
 7329SOL     OW33448   3.266   3.689   5.737  0.0024 -0.0141 -0.1701
 7329SOL    HW133449   3.282   3.642   5.655  2.7704 -0.0932  0.4150
 7329SOL    HW233450   3.212   3.762   5.706 -0.1456 -0.4000 -0.8318
 7330SOL     OW33451   0.236   3.584  15.974  0.3477  0.7826  0.3777
 7330SOL    HW133452   0.267   3.574  16.064 -0.5021  0.1358  0.5939
 7330SOL    HW233453   0.273   3.508  15.930  0.0385  1.1812 -0.5790
 7331SOL     OW33454   0.857   0.166   3.709 -0.2595 -0.2006 -0.2557
 7331SOL    HW133455   0.801   0.090   3.693 -0.5522  0.0909 -0.6176
 7331SOL    HW233456   0.937   0.140   3.663  1.5743  1.8145  1.7712
 7332SOL     OW33457   3.013   2.613   5.012  0.3009 -0.0740 -0.2431
 7332SOL    HW133458   2.949   2.632   4.943  0.5457 -0.1763 -0.5012
 7332SOL    HW233459   2.987   2.677   5.078  1.9497 -0.2656  0.5940
 7333SOL     OW33460   2.859   0.177   9.438  0.1848  0.3488  0.4358
 7333SOL    HW133461   2.800   0.193   9.364  1.1327 -0.6883 -0.5578
 7333SOL    HW233462   2.793   0.133   9.492  0.7064 -0.1185  0.6928
 7334SOL     OW33463   2.187   1.788   5.067  0.1118 -0.2601  0.3301
 7334SOL    HW133464   2.180   1.881   5.050  1.2875 -0.4979 -1.4144
 7334SOL    HW233465   2.093   1.771   5.061  0.2992 -1.7322  1.3748
 7335SOL     OW33466   2.322   3.717   4.888 -0.5130  0.0876 -0.0200
 7335SOL    HW133467   2.360   3.727   4.801  0.8585 -0.3900  0.5273
 7335SOL    HW233468   2.229   3.711   4.866 -0.3894 -0.7600 -0.3026
 7336SOL     OW33469   3.187   4.145   7.921 -0.1208  0.0020  0.2300
 7336SOL    HW133470   3.243   4.156   7.998  2.0984  1.1221 -1.5271
 7336SOL    HW233471   3.101   4.172   7.953 -0.2395  0.9875 -0.9009
 7337SOL     OW33472   3.516   0.146   5.449  0.2916 -0.1054 -0.2736
 7337SOL    HW133473   3.535   0.053   5.447  1.1783  0.0899 -0.7036
 7337SOL    HW233474   3.444   0.144   5.386 -0.8189 -0.0965  0.9843
 7338SOL     OW33475   1.428   4.151  16.864 -0.4839 -0.1326 -0.2116
 7338SOL    HW133476   1.340   4.146  16.826  0.5862 -3.5895 -2.2337
 7338SOL    HW233477   1.425   4.088  16.935 -0.5777  0.5468  0.3878
 7339SOL     OW33478   4.712   4.513  13.538  0.3440  0.2270 -0.3380
 7339SOL    HW133479   4.635   4.542  13.490 -1.5973  0.4352  2.8626
 7339SOL    HW233480   0.043   4.591  13.526  0.8326  0.0067  0.3788
 7340SOL     OW33481   3.224   4.566   0.803 -0.5421 -0.0414 -0.2845
 7340SOL    HW133482   3.303   4.537   0.758  0.1912 -0.4542  1.2566
 7340SOL    HW233483   3.168   4.602   0.735 -0.1020 -0.2844 -0.7741
 7341SOL     OW33484   1.658   0.292   1.056 -0.1686  0.1558  0.0762
 7341SOL    HW133485   1.691   0.238   0.984 -2.3393  2.0896 -2.3473
 7341SOL    HW233486   1.741   0.339   1.067 -1.0020  1.6951 -0.2737
 7342SOL     OW33487   2.186   1.886   7.724 -0.1127  0.0913  0.1468
 7342SOL    HW133488   2.186   1.798   7.686  0.8611 -0.5394  1.5985
 7342SOL    HW233489   2.122   1.936   7.673 -3.2424 -1.5777  2.4294
 7343SOL     OW33490   3.657   0.107   0.269  0.0154  0.4205  0.7054
 7343SOL    HW133491   3.686   0.045   0.203  0.1874  1.3091 -0.0457
 7343SOL    HW233492   3.736   0.134   0.315  1.7124 -2.2931 -0.6531
 7344SOL     OW33493   2.181   0.429   4.354 -0.5243  0.2371 -0.1554
 7344SOL    HW133494   2.227   0.470   4.428  0.4905  1.0214 -1.2260
 7344SOL    HW233495   2.101   0.387   4.384  0.8670 -1.2753  1.4643
 7345SOL     OW33496   2.216   0.139   2.477  0.0169  0.3646 -0.5998
 7345SOL    HW133497   2.249   0.120   2.390  2.0125  0.7180  0.0704
 7345SOL    HW233498   2.250   0.226   2.497  0.5071  0.1725 -0.6096
 7346SOL     OW33499   2.650   0.833   9.823  0.1055 -0.4050 -0.1339
 7346SOL    HW133500   2.643   0.885   9.903 -1.1182 -0.3947 -0.2426
 7346SOL    HW233501   2.670   0.751   9.869 -1.0307  0.8757  2.6387
 7347SOL     OW33502   4.527   0.724   8.948  0.3592 -0.6905 -0.0593
 7347SOL    HW133503   4.438   0.753   8.930  0.3752 -0.6856 -0.1324
 7347SOL    HW233504   4.510   0.679   9.030  1.9240 -1.6046 -0.2401
 7348SOL     OW33505   2.098   1.941   7.363  0.4441 -0.2939 -0.0161
 7348SOL    HW133506   2.079   1.941   7.270 -0.5072 -1.5638  0.1800
 7348SOL    HW233507   2.021   1.994   7.385  1.3413  1.1427 -0.3146
 7349SOL     OW33508   3.652   2.537   6.658  0.6348 -0.3991 -0.3059
 7349SOL    HW133509   3.569   2.542   6.611  1.5362  0.2771 -1.8396
 7349SOL    HW233510   3.629   2.571   6.744 -1.1485  0.1575 -1.0032
 7350SOL     OW33511   0.242   2.327   4.020 -0.1920  0.0860 -0.1001
 7350SOL    HW133512   0.294   2.315   3.941  0.8439 -1.5983  0.8443
 7350SOL    HW233513   0.267   2.252   4.074 -0.0383  1.5738  1.8954
 7351SOL     OW33514   0.224   3.218  15.651  0.3290  0.1344 -0.3094
 7351SOL    HW133515   0.286   3.180  15.589  1.2010  2.6800 -1.0157
 7351SOL    HW233516   0.164   3.257  15.587  0.6205  1.0996  0.0156
 7352SOL     OW33517   0.550   3.463   8.949 -0.0377 -1.2059  0.4289
 7352SOL    HW133518   0.606   3.408   9.004 -0.2630 -1.5503  0.3100
 7352SOL    HW233519   0.574   3.551   8.981 -1.2472  0.3855 -3.0605
 7353SOL     OW33520   3.135   1.271   2.560 -0.3707 -0.1457 -0.4254
 7353SOL    HW133521   3.188   1.348   2.582  0.9717 -0.3427 -2.9720
 7353SOL    HW233522   3.176   1.238   2.480 -0.9942  0.3208 -0.9357
 7354SOL     OW33523   1.683   3.966   9.189  0.2427  0.4122 -0.0859
 7354SOL    HW133524   1.732   3.940   9.267  0.8229  0.5139 -0.4205
 7354SOL    HW233525   1.662   4.056   9.214  0.4598  0.1370  1.0964
 7355SOL     OW33526   1.622   4.274  16.736 -0.3056 -0.4925 -0.3212
 7355SOL    HW133527   1.698   4.216  16.742 -0.2372 -0.4035 -0.3340
 7355SOL    HW233528   1.555   4.227  16.785 -2.6824  3.1356 -0.1234
 7356SOL     OW33529   0.310   0.883   6.980 -0.0660 -0.2373 -0.0520
 7356SOL    HW133530   0.304   0.874   7.075  0.5506  0.4703  0.0566
 7356SOL    HW233531   0.404   0.897   6.970 -0.2026 -0.7722 -2.1946
 7357SOL     OW33532   2.093   0.022   8.037  0.1360  0.3262  0.8680
 7357SOL    HW133533   2.087   0.002   8.130 -3.3034  1.4674  0.8848
 7357SOL    HW233534   2.174   4.699   8.012  0.9494  2.3232 -0.1475
 7358SOL     OW33535   4.063   1.865  13.350  0.3292 -0.0713 -0.0716
 7358SOL    HW133536   4.159   1.874  13.347  0.2499  0.6406 -0.4519
 7358SOL    HW233537   4.045   1.959  13.352  0.9797 -0.0019  1.7531
 7359SOL     OW33538   4.406   1.818   6.489  0.4029 -0.3110 -0.0491
 7359SOL    HW133539   4.434   1.759   6.559  0.7360  2.0294  1.7680
 7359SOL    HW233540   4.339   1.869   6.534  0.4650  0.7727 -1.1710
 7360SOL     OW33541   2.361   0.501   1.732  0.0890  0.2547 -0.4291
 7360SOL    HW133542   2.277   0.454   1.729  0.3426 -0.1694 -0.8579
 7360SOL    HW233543   2.325   0.588   1.750 -0.5734 -0.0134 -0.4659
 7361SOL     OW33544   3.398   4.262   6.712 -0.5933  0.0216 -0.2810
 7361SOL    HW133545   3.426   4.270   6.621 -4.3234  0.1190 -1.4428
 7361SOL    HW233546   3.460   4.200   6.750  0.6016  0.9635 -0.6986
 7362SOL     OW33547   4.679   3.408   9.288 -0.5382 -0.3590  0.1856
 7362SOL    HW133548   0.026   3.383   9.348 -1.2536 -2.1373  0.2563
 7362SOL    HW233549   0.015   3.434   9.216  0.0924 -1.0789  0.4439
 7363SOL     OW33550   3.911   4.008  10.069 -0.1195  0.1208 -0.1297
 7363SOL    HW133551   3.925   3.972  10.157  1.5066 -1.1937 -0.9204
 7363SOL    HW233552   3.951   4.094  10.077  0.6014 -0.1219 -1.1804
 7364SOL     OW33553   3.584   4.622   5.354 -0.2224 -0.3191 -0.2523
 7364SOL    HW133554   3.559   4.555   5.418  0.9407 -2.0947 -1.6665
 7364SOL    HW233555   3.671   4.634   5.392 -1.3332  1.3502  1.7673
 7365SOL     OW33556   3.302   4.114   6.165  0.6601  0.1021  0.3061
 7365SOL    HW133557   3.257   4.033   6.140 -1.6101  1.0091  1.4718
 7365SOL    HW233558   3.286   4.107   6.259  1.8493 -1.2954  0.4029
 7366SOL     OW33559   3.076   3.146  10.647  0.6000 -0.1747 -0.3994
 7366SOL    HW133560   3.017   3.221  10.649  2.0528  0.9770 -0.5649
 7366SOL    HW233561   3.065   3.111  10.558 -0.2582  1.0298 -0.7733
 7367SOL     OW33562   0.676   3.888  16.127  0.1602  0.5668 -0.1162
 7367SOL    HW133563   0.715   3.973  16.105  1.3060 -0.0280 -0.4078
 7367SOL    HW233564   0.755   3.834  16.135 -0.9766 -1.0892 -0.0858
 7368SOL     OW33565   3.500   1.354   4.799  1.0273 -0.0042  0.8243
 7368SOL    HW133566   3.449   1.411   4.856 -1.3365 -0.3335 -0.9865
 7368SOL    HW233567   3.574   1.414   4.787 -1.0308  2.3445 -0.0186
 7369SOL     OW33568   3.560   1.699   3.856  0.4541 -0.1377 -0.2469
 7369SOL    HW133569   3.513   1.691   3.939 -0.6165 -0.2486 -0.8529
 7369SOL    HW233570   3.590   1.789   3.844 -0.0111 -0.3526 -3.1010
 7370SOL     OW33571   4.475   0.136   3.887 -0.1280 -0.1502  0.2892
 7370SOL    HW133572   4.479   0.197   3.813  0.1272 -0.0378  0.3958
 7370SOL    HW233573   4.389   0.099   3.872 -0.4311  0.7717 -0.2658
 7371SOL     OW33574   1.924   4.098   8.168  0.3460  0.1520 -0.3855
 7371SOL    HW133575   1.954   4.050   8.091 -0.5382  1.2809 -1.4145
 7371SOL    HW233576   1.935   4.188   8.139  0.7492  0.0385 -0.5824
 7372SOL     OW33577   1.042   2.060   4.600  0.2594 -0.0085 -0.1286
 7372SOL    HW133578   0.965   2.065   4.657  1.6146 -1.3272  1.8164
 7372SOL    HW233579   1.091   1.997   4.652  1.0669 -0.2031 -1.1299
 7373SOL     OW33580   0.169   3.110   1.792 -0.1306 -0.7447  0.3584
 7373SOL    HW133581   0.185   3.022   1.827  0.1818  0.6829  3.8188
 7373SOL    HW233582   0.095   3.147   1.840  0.1945  0.5309 -0.1202
 7374SOL     OW33583   4.454   3.879   4.499 -0.4952  0.4428  0.1003
 7374SOL    HW133584   4.429   3.788   4.482 -0.5961  0.0411  2.4254
 7374SOL    HW233585   4.545   3.869   4.471 -0.8668 -0.6372 -0.7231
 7375SOL     OW33586   3.641   1.530  13.569  0.5581 -0.2244  0.2571
 7375SOL    HW133587   3.699   1.521  13.493  0.7688  2.3667  0.0969
 7375SOL    HW233588   3.567   1.480  13.534  1.0816 -0.4469 -0.5340
 7376SOL     OW33589   1.716   4.180   5.577 -0.0225 -0.4285  0.4909
 7376SOL    HW133590   1.690   4.112   5.514 -2.0987  1.3113 -0.5192
 7376SOL    HW233591   1.632   4.194   5.619 -1.0104 -3.2218 -0.5149
 7377SOL     OW33592   2.765   2.965   8.473 -0.0622 -0.6347  0.0233
 7377SOL    HW133593   2.813   2.979   8.554 -0.3675  1.8139 -0.2364
 7377SOL    HW233594   2.750   2.870   8.463 -2.1228 -0.2233 -0.7366
 7378SOL     OW33595   4.034   3.165  13.348 -0.4378 -0.3900 -0.2220
 7378SOL    HW133596   3.991   3.236  13.299  0.6051  0.2452 -0.2252
 7378SOL    HW233597   3.961   3.134  13.401 -1.4797 -0.9079 -1.9342
 7379SOL     OW33598   0.986   0.316  12.575 -0.8339 -0.5561 -0.5831
 7379SOL    HW133599   0.976   0.349  12.664  1.8898  2.2859 -1.3037
 7379SOL    HW233600   1.080   0.324  12.562 -1.0256  0.7550 -1.1873
 7380SOL     OW33601   4.709   3.882   0.512  0.1988  0.0582  0.0138
 7380SOL    HW133602   4.653   3.850   0.440 -2.1484 -0.7322  2.1930
 7380SOL    HW233603   0.017   3.793   0.528  1.3831  0.3967 -0.4337
 7381SOL     OW33604   3.437   1.570   8.156 -0.7921 -0.2191 -0.1835
 7381SOL    HW133605   3.513   1.512   8.166 -0.0661  1.2815  2.9366
 7381SOL    HW233606   3.473   1.645   8.202 -0.9673 -1.4757  1.9881
 7382SOL     OW33607   4.650   0.806   0.842 -0.1815  0.0191 -0.2093
 7382SOL    HW133608   0.018   0.789   0.816 -0.3407 -0.1885 -0.6354
 7382SOL    HW233609   4.593   0.762   0.779 -1.0694  0.8358  0.0303
 7383SOL     OW33610   2.388   4.180   2.478 -0.4729 -0.5202  0.2133
 7383SOL    HW133611   2.386   4.271   2.508  1.2459  0.1943 -1.7861
 7383SOL    HW233612   2.484   4.174   2.470 -0.5874 -0.9139 -0.9088
 7384SOL     OW33613   4.233   3.028   0.197 -0.5497 -0.7949  0.1633
 7384SOL    HW133614   4.257   2.958   0.257  0.0350  1.3739  2.4277
 7384SOL    HW233615   4.174   3.079   0.253 -0.4830  0.2539 -0.7144
 7385SOL     OW33616   0.981   0.822  13.184  0.5809  0.1575 -0.1900
 7385SOL    HW133617   1.056   0.860  13.138 -0.0918 -1.1711 -2.3781
 7385SOL    HW233618   0.962   0.746  13.129 -0.5092  0.4161 -0.1855
 7386SOL     OW33619   1.217   0.768   5.787 -1.0172  0.9865 -0.0010
 7386SOL    HW133620   1.150   0.767   5.856 -2.3130 -0.5670 -1.2682
 7386SOL    HW233621   1.274   0.697   5.816 -1.0965  0.2731 -1.5759
 7387SOL     OW33622   3.314   2.140   2.333  0.1921 -0.8084 -0.6072
 7387SOL    HW133623   3.307   2.045   2.342 -1.8577 -0.4056  2.3169
 7387SOL    HW233624   3.393   2.151   2.281 -0.7741 -0.3583 -1.9748
 7388SOL     OW33625   0.964   3.856  17.600 -0.2514  0.7606  0.1538
 7388SOL    HW133626   0.992   3.816  17.518  1.0791 -0.3662  1.1578
 7388SOL    HW233627   0.939   3.943  17.569 -0.1898  0.1781 -1.5348
 7389SOL     OW33628   0.792   1.901   4.360 -0.0122  0.3276 -0.3097
 7389SOL    HW133629   0.740   1.859   4.291  1.0786 -2.5239  0.6157
 7389SOL    HW233630   0.824   1.821   4.401 -0.9133 -1.3266 -2.8301
 7390SOL     OW33631   0.012   1.240   3.187  0.9973 -0.9330  0.5337
 7390SOL    HW133632   0.014   1.308   3.120 -2.0277 -0.2860  1.0860
 7390SOL    HW233633   4.702   1.291   3.261 -1.2742 -1.0802 -0.3853
 7391SOL     OW33634   3.805   4.172   1.463 -0.6663  0.5337 -0.3698
 7391SOL    HW133635   3.718   4.199   1.491 -0.4663  3.7371 -2.7751
 7391SOL    HW233636   3.836   4.132   1.544 -1.2596  3.0955  1.1227
 7392SOL     OW33637   4.140   4.540   4.512  0.8780  0.0508 -0.0596
 7392SOL    HW133638   4.155   4.633   4.528 -1.7159  0.8500 -2.5471
 7392SOL    HW233639   4.045   4.536   4.511  0.7653  2.4945  1.3337
 7393SOL     OW33640   0.850   1.912  15.909 -0.1545  0.0184  0.3541
 7393SOL    HW133641   0.820   2.002  15.908 -0.2302 -0.0643 -3.9660
 7393SOL    HW233642   0.836   1.880  15.820 -0.5644  1.1607  0.0107
 7394SOL     OW33643   2.098   3.430  16.597 -0.6903  0.4079  0.0887
 7394SOL    HW133644   2.167   3.470  16.544 -0.7684 -0.9478 -1.0566
 7394SOL    HW233645   2.020   3.440  16.543 -0.6039 -0.9359 -0.2945
 7395SOL     OW33646   4.017   0.277   6.032 -0.3022  0.5146  0.2444
 7395SOL    HW133647   3.994   0.292   5.941  0.3412 -0.8920 -0.1500
 7395SOL    HW233648   4.113   0.273   6.031 -0.2382  2.1079  0.4415
 7396SOL     OW33649   0.517   0.189   6.309 -0.4373  0.3674 -0.1214
 7396SOL    HW133650   0.462   0.138   6.250 -1.9239  2.0792 -0.2152
 7396SOL    HW233651   0.555   0.241   6.238  1.2189  0.2513  0.6811
 7397SOL     OW33652   0.130   0.583  13.730 -0.2754 -0.1387 -0.5364
 7397SOL    HW133653   0.037   0.596  13.750 -0.5032 -1.1272 -0.9540
 7397SOL    HW233654   0.176   0.656  13.773 -0.3745 -1.0079  1.0481
 7398SOL     OW33655   3.387   1.695   4.462 -0.7019  0.4929 -0.3523
 7398SOL    HW133656   3.341   1.743   4.393  0.6947  0.8795 -1.0262
 7398SOL    HW233657   3.332   1.696   4.540 -3.9777 -0.1730 -2.6626
 7399SOL     OW33658   1.851   0.048   5.850 -0.0733  0.3248 -0.5622
 7399SOL    HW133659   1.864   0.042   5.756  1.0784 -3.0469 -0.2230
 7399SOL    HW233660   1.929   4.722   5.878  1.0144  2.0728 -0.5707
 7400SOL     OW33661   0.707   1.967  13.816  0.3845 -0.4447 -0.2258
 7400SOL    HW133662   0.730   2.051  13.777 -0.5337  0.5022  1.2791
 7400SOL    HW233663   0.669   1.993  13.900  1.0861  0.4586 -0.1894
 7401SOL     OW33664   4.281   1.671   6.229 -0.0707 -0.0040  0.0550
 7401SOL    HW133665   4.353   1.689   6.169  1.6565 -1.2031  1.7557
 7401SOL    HW233666   4.327   1.708   6.305  0.4109  0.9068 -0.6758
 7402SOL     OW33667   4.149   2.771   6.893  0.5711  0.4595 -0.3136
 7402SOL    HW133668   4.206   2.810   6.960  3.4484  0.5911 -2.8163
 7402SOL    HW233669   4.201   2.704   6.849 -0.7688 -0.7454 -0.0575
 7403SOL     OW33670   1.275   4.605   0.578 -0.1248 -0.1746 -0.1088
 7403SOL    HW133671   1.184   4.622   0.556 -0.7241 -1.1027  1.6086
 7403SOL    HW233672   1.272   4.513   0.604  1.2993 -0.4765 -1.0360
 7404SOL     OW33673   0.492   2.218   6.581 -0.8077  0.2009  0.0717
 7404SOL    HW133674   0.578   2.179   6.568 -0.6202  0.9522 -0.8701
 7404SOL    HW233675   0.469   2.274   6.507  3.1812  2.5091  0.5718
 7405SOL     OW33676   2.021   0.717   1.350  0.5330  0.0780  0.1113
 7405SOL    HW133677   2.044   0.625   1.363  1.2988  0.3545  0.7092
 7405SOL    HW233678   2.045   0.746   1.438  1.0591  1.0282 -0.3506
 7406SOL     OW33679   2.420   3.273   6.474  0.0867  0.3075 -0.0081
 7406SOL    HW133680   2.437   3.364   6.450 -1.3670  0.3168 -1.0164
 7406SOL    HW233681   2.509   3.237   6.476 -0.4702 -1.1805 -2.0237
 7407SOL     OW33682   1.831   2.457  15.944 -0.3194 -0.2246  0.5866
 7407SOL    HW133683   1.839   2.495  16.031  1.1573 -1.6579  1.0789
 7407SOL    HW233684   1.738   2.434  15.952 -0.4735  0.3290  0.4222
 7408SOL     OW33685   0.980   2.465   7.945 -0.0285 -0.2663  0.2525
 7408SOL    HW133686   0.899   2.429   7.982 -0.2263 -0.3691 -0.2749
 7408SOL    HW233687   1.029   2.489   8.023  2.4604 -3.8001 -0.2123
 7409SOL     OW33688   3.425   3.367   6.581 -0.6009 -0.6887  0.2071
 7409SOL    HW133689   3.385   3.312   6.649  1.2617 -0.8785  1.1463
 7409SOL    HW233690   3.493   3.307   6.550 -1.2421 -1.1413 -0.3293
 7410SOL     OW33691   4.422   2.682   2.660 -0.0073 -0.1877 -0.3976
 7410SOL    HW133692   4.414   2.613   2.725  1.6770 -0.6670 -0.6953
 7410SOL    HW233693   4.331   2.710   2.671  0.5758  0.7372  2.0024
 7411SOL     OW33694   3.390   3.154   0.715  0.0244 -0.3717 -0.7577
 7411SOL    HW133695   3.457   3.087   0.729 -1.9783 -1.3535  4.1979
 7411SOL    HW233696   3.328   3.145   0.787  0.1492 -0.1734 -0.6231
 7412SOL     OW33697   1.889   0.029  12.325 -0.1464  0.1602  0.4993
 7412SOL    HW133698   1.885   0.105  12.383  2.5200  0.0204  0.8772
 7412SOL    HW233699   1.845   4.682  12.374 -1.1338  1.5743  1.6136
 7413SOL     OW33700   2.217   0.452   5.799  0.0007  0.1045 -0.6055
 7413SOL    HW133701   2.125   0.475   5.788 -0.2588 -0.3148  0.7362
 7413SOL    HW233702   2.222   0.398   5.720 -0.3545 -0.5613 -0.1839
 7414SOL     OW33703   1.121   0.347   4.883 -0.2834 -0.1885  0.5046
 7414SOL    HW133704   1.147   0.380   4.797 -0.3040  1.0639  0.9813
 7414SOL    HW233705   1.205   0.355   4.927 -0.7702 -1.3159  1.6144
 7415SOL     OW33706   2.144   1.074   9.209  0.4183  0.3584 -0.6170
 7415SOL    HW133707   2.065   1.074   9.155 -0.6854 -1.9494  1.0112
 7415SOL    HW233708   2.111   1.034   9.290 -0.5348  1.6555 -0.3572
 7416SOL     OW33709   1.751   3.118  17.538  0.0148 -0.1306 -0.5283
 7416SOL    HW133710   1.698   3.197  17.553  0.3199  0.3528 -2.0525
 7416SOL    HW233711   1.738   3.079  17.625 -1.6965  3.1766  0.7390
 7417SOL     OW33712   1.379   4.014   7.898 -0.5398 -0.4004 -0.1932
 7417SOL    HW133713   1.391   3.930   7.943  1.3227 -1.2860 -2.3519
 7417SOL    HW233714   1.315   4.057   7.953  0.5743  0.9427  0.0431
 7418SOL     OW33715   0.412   4.015   5.528  0.1627 -0.1358  0.2053
 7418SOL    HW133716   0.490   3.984   5.482 -0.3339  1.8578 -2.0260
 7418SOL    HW233717   0.425   4.108   5.546  1.3202 -0.2295 -0.1327
 7419SOL     OW33718   4.175   0.365   0.761  0.5588  0.0297  0.2674
 7419SOL    HW133719   4.265   0.359   0.793  0.7709 -0.2251 -0.3710
 7419SOL    HW233720   4.135   0.423   0.825 -1.4256 -1.2166  0.1707
 7420SOL     OW33721   0.626   3.985   7.138  0.2437  0.0064 -0.5104
 7420SOL    HW133722   0.545   3.934   7.126 -0.8321  1.4205  0.8134
 7420SOL    HW233723   0.597   4.071   7.167  1.7871 -0.0067  1.0448
 7421SOL     OW33724   1.081   0.555   7.750 -0.6340  0.4147  0.1782
 7421SOL    HW133725   1.053   0.500   7.823  1.5013  0.9088  1.3616
 7421SOL    HW233726   1.045   0.498   7.682 -2.2478 -0.8212  2.0345
 7422SOL     OW33727   4.502   1.883   2.606  0.0767  0.0408 -0.1113
 7422SOL    HW133728   4.491   1.973   2.636  1.8199 -0.2643  1.4148
 7422SOL    HW233729   4.597   1.871   2.602  0.1254  0.0689  1.1705
 7423SOL     OW33730   0.789   0.012  12.594  0.6946  0.1503 -0.5393
 7423SOL    HW133731   0.816   4.652  12.633  1.6393  0.3848 -0.6773
 7423SOL    HW233732   0.865   0.049  12.549  0.4704 -0.2870 -1.2731
 7424SOL     OW33733   4.056   4.048   4.729  0.1637  0.6859 -0.3036
 7424SOL    HW133734   4.059   4.008   4.816  1.9587 -0.1703 -0.7432
 7424SOL    HW233735   3.966   4.070   4.709  0.1376 -0.4234 -1.3724
 7425SOL     OW33736   2.439   3.124   3.495 -0.3249  0.0153 -0.1484
 7425SOL    HW133737   2.388   3.148   3.418 -0.8328 -0.8686 -0.0822
 7425SOL    HW233738   2.526   3.151   3.466  0.6506 -2.5394  0.4372
 7426SOL     OW33739   1.850   2.027   3.385  0.8385  0.6422 -0.0700
 7426SOL    HW133740   1.885   1.974   3.457 -0.2491  1.9181  1.4056
 7426SOL    HW233741   1.874   1.969   3.313 -3.3140 -1.3911  0.1455
 7427SOL     OW33742   0.437   2.647   4.576  0.1955  0.0853  0.2167
 7427SOL    HW133743   0.342   2.655   4.568  0.2827 -1.3938 -2.4328
 7427SOL    HW233744   0.449   2.572   4.518 -1.7634  2.2107 -2.9848
 7428SOL     OW33745   0.067   3.411   7.852  0.3348 -0.1025 -0.2548
 7428SOL    HW133746   0.059   3.316   7.866  0.7895 -0.4216 -2.0983
 7428SOL    HW233747   0.034   3.443   7.935 -2.0820  1.8463 -1.9687
 7429SOL     OW33748   0.857   3.950   4.091  0.1327  0.3896  0.2102
 7429SOL    HW133749   0.880   4.030   4.044  0.4745 -0.3352 -0.8504
 7429SOL    HW233750   0.837   3.892   4.018 -1.1626  0.2502  0.6686
 7430SOL     OW33751   0.624   3.055  12.710 -0.4086  0.1134  0.1270
 7430SOL    HW133752   0.634   3.101  12.626 -1.4189  0.8450  0.4039
 7430SOL    HW233753   0.599   2.970  12.673 -0.8766  0.7354 -0.9817
 7431SOL     OW33754   0.782   4.396  10.290 -0.4280 -0.2665  0.3040
 7431SOL    HW133755   0.863   4.362  10.252  0.0327 -0.4229  1.4240
 7431SOL    HW233756   0.769   4.473  10.236 -0.0280  0.2201  0.9058
 7432SOL     OW33757   0.168   0.930   9.113 -0.1827 -0.7287 -0.2327
 7432SOL    HW133758   0.093   0.893   9.067  1.4064 -2.7169 -1.2312
 7432SOL    HW233759   0.156   0.902   9.204  3.2045 -1.8129 -0.0871
 7433SOL     OW33760   2.015   0.379  10.551 -0.2498 -0.0215 -0.4838
 7433SOL    HW133761   2.069   0.394  10.474 -0.1068 -2.0466 -0.7870
 7433SOL    HW233762   2.038   0.462  10.593 -0.3146  0.3295 -1.1476
 7434SOL     OW33763   0.755   0.926   2.567  0.2447  0.3046  0.0978
 7434SOL    HW133764   0.716   1.013   2.574  0.9751  0.5532  1.0031
 7434SOL    HW233765   0.782   0.925   2.475  1.3408  0.1948  0.4202
 7435SOL     OW33766   0.036   4.468   5.682 -0.7565 -0.3492 -0.4280
 7435SOL    HW133767   4.717   4.513   5.756  1.1364  1.5171 -0.4978
 7435SOL    HW233768   0.085   4.398   5.725 -2.7472 -0.6198  1.3862
 7436SOL     OW33769   0.333   3.036  13.081 -0.7782 -0.0826  0.1841
 7436SOL    HW133770   0.396   3.026  13.010 -0.3290  0.1330  0.5515
 7436SOL    HW233771   0.381   3.083  13.149 -0.8061  1.3532 -0.8059
 7437SOL     OW33772   2.723   1.080  15.198  0.4645  1.0340 -0.9271
 7437SOL    HW133773   2.799   1.104  15.144 -0.0171  1.0291 -1.5994
 7437SOL    HW233774   2.648   1.138  15.186 -0.9752 -0.4864  0.7164
 7438SOL     OW33775   4.415   1.572   3.404 -0.2418 -0.7030 -0.3100
 7438SOL    HW133776   4.388   1.536   3.488  1.0726 -0.9508  0.0027
 7438SOL    HW233777   4.468   1.495   3.381  1.1298  0.1630 -0.0593
 7439SOL     OW33778   2.873   1.242   4.395 -0.1754  0.0873 -0.3009
 7439SOL    HW133779   2.878   1.197   4.480  1.0259  1.7164  0.5057
 7439SOL    HW233780   2.821   1.320   4.417 -1.9842 -0.7509 -1.6411
 7440SOL     OW33781   1.971   3.764   0.233  0.3841  0.2186 -0.3994
 7440SOL    HW133782   2.034   3.697   0.207 -1.1251 -2.5199  2.9330
 7440SOL    HW233783   1.894   3.708   0.248  0.9531 -0.3864  0.2828
 7441SOL     OW33784   2.828   0.714   7.242  0.7022 -0.0862  0.4984
 7441SOL    HW133785   2.819   0.792   7.297 -0.7405 -0.6640  1.0861
 7441SOL    HW233786   2.899   0.670   7.289  1.1483 -0.2535 -0.3429
 7442SOL     OW33787   2.468   1.139   8.412 -0.0666 -0.3468 -0.2235
 7442SOL    HW133788   2.545   1.173   8.455 -0.2388 -0.2340 -0.0059
 7442SOL    HW233789   2.477   1.161   8.319  0.7505 -0.0607 -0.0685
 7443SOL     OW33790   3.098   0.140   2.713 -0.6073  0.4091 -0.0975
 7443SOL    HW133791   3.161   0.174   2.649 -1.3439 -0.4038 -1.2578
 7443SOL    HW233792   3.128   0.188   2.791 -2.5422 -1.4037  1.7579
 7444SOL     OW33793   1.074   1.759  15.885  0.2409  0.1323 -0.1847
 7444SOL    HW133794   1.057   1.748  15.792 -0.4614 -0.5187  0.0172
 7444SOL    HW233795   1.016   1.832  15.907 -0.6412 -1.2118  1.9849
 7445SOL     OW33796   2.135   3.266   4.117 -0.1368 -0.0311  1.1503
 7445SOL    HW133797   2.065   3.219   4.073  1.7682  0.8883 -2.7920
 7445SOL    HW233798   2.091   3.343   4.154  1.8632  2.1382 -1.0148
 7446SOL     OW33799   1.601   1.987  14.144 -0.0851  1.0527 -0.5674
 7446SOL    HW133800   1.574   2.079  14.138 -1.4199  0.8488  2.7067
 7446SOL    HW233801   1.628   1.988  14.236 -0.5603  1.1877 -0.4315
 7447SOL     OW33802   0.506   4.424  17.309  0.1463  0.4458  1.0869
 7447SOL    HW133803   0.556   4.357  17.263  0.3518  1.3415  0.0118
 7447SOL    HW233804   0.503   4.481  17.233  2.0745  0.9063  1.3446
 7448SOL     OW33805   4.651   2.258   4.358 -0.4141  0.6056 -0.0259
 7448SOL    HW133806   4.668   2.244   4.451 -1.2174  1.9098  0.3036
 7448SOL    HW233807   4.697   2.181   4.322  1.0232  1.1913  0.5502
 7449SOL     OW33808   4.693   4.100  16.110  0.6018 -0.0889 -0.7204
 7449SOL    HW133809   4.660   4.106  16.020 -0.6039 -1.9668 -0.4124
 7449SOL    HW233810   0.013   4.014  16.118 -0.1971 -0.2089  2.4393
 7450SOL     OW33811   4.527   1.347  11.164  0.1834  0.4193  0.8104
 7450SOL    HW133812   4.541   1.414  11.231 -1.6267  2.5203 -0.8947
 7450SOL    HW233813   4.468   1.388  11.101  1.7142 -0.7352 -1.3774
 7451SOL     OW33814   1.403   1.168   3.975 -0.1716 -0.4092 -0.6908
 7451SOL    HW133815   1.341   1.226   4.018 -1.7299 -2.9083  0.4389
 7451SOL    HW233816   1.486   1.214   3.986 -1.1544  1.5220 -1.3113
 7452SOL     OW33817   3.786   2.449   0.981 -0.4150 -0.1003 -0.2605
 7452SOL    HW133818   3.879   2.432   0.995 -0.7204 -0.5125  1.3167
 7452SOL    HW233819   3.761   2.479   1.069  0.0175 -1.4497  0.3187
 7453SOL     OW33820   0.883   1.567   8.886 -0.4926 -0.1992 -0.1772
 7453SOL    HW133821   0.916   1.478   8.898 -0.9344 -0.1025  1.6781
 7453SOL    HW233822   0.957   1.613   8.926  0.1058  0.6849 -2.2485
 7454SOL     OW33823   0.291   2.398  10.250  0.0621 -0.3552  0.0199
 7454SOL    HW133824   0.197   2.391  10.229 -0.1074 -1.2344  1.0949
 7454SOL    HW233825   0.303   2.308  10.278 -0.1161 -0.3809  0.0173
 7455SOL     OW33826   0.781   1.065  10.730  0.0075 -0.4026 -0.1759
 7455SOL    HW133827   0.716   1.031  10.792 -1.0541  0.1631 -0.9860
 7455SOL    HW233828   0.723   1.108  10.666  1.9509  1.4630 -0.6724
 7456SOL     OW33829   1.020   0.149   3.263 -0.0886 -0.1145 -0.2156
 7456SOL    HW133830   1.019   0.063   3.221  1.3461 -0.8889  1.3365
 7456SOL    HW233831   1.039   0.198   3.182  0.5136 -1.2208 -0.7405
 7457SOL     OW33832   4.234   3.431   0.819 -0.1885  0.6662  0.3858
 7457SOL    HW133833   4.280   3.446   0.901 -0.3938 -4.9000  1.5132
 7457SOL    HW233834   4.149   3.458   0.853 -1.6487 -1.3634 -1.6475
 7458SOL     OW33835   0.679   4.299   3.993 -0.0991  0.4303  0.3314
 7458SOL    HW133836   0.636   4.227   4.040  0.9151 -0.2885  0.1465
 7458SOL    HW233837   0.630   4.374   4.026  1.8929  0.3190  3.5691
 7459SOL     OW33838   3.766   4.529   3.404 -0.0995 -0.0100 -0.1195
 7459SOL    HW133839   3.685   4.578   3.420 -0.8508 -1.0822 -0.6084
 7459SOL    HW233840   3.747   4.492   3.318  0.0089  3.1304 -1.5006
 7460SOL     OW33841   2.551   4.643   4.294 -0.5885 -0.0461  0.2969
 7460SOL    HW133842   2.556   4.580   4.223  0.4422  2.2929 -1.7127
 7460SOL    HW233843   2.617   4.706   4.263 -0.0917 -0.6054  0.2183
 7461SOL     OW33844   1.074   0.576  15.719 -0.3606 -0.5089 -0.4306
 7461SOL    HW133845   1.085   0.654  15.664  2.5206  1.0535  2.3754
 7461SOL    HW233846   1.076   0.499  15.661 -3.0833 -0.5176 -0.5079
 7462SOL     OW33847   0.054   1.419  12.243 -0.4146 -0.0776 -0.4897
 7462SOL    HW133848   0.133   1.442  12.291 -1.4654  0.9753  0.7467
 7462SOL    HW233849   4.721   1.383  12.312  0.6043 -0.0829  0.3282
 7463SOL     OW33850   3.374   4.248   7.184  0.1719 -0.3810 -0.2285
 7463SOL    HW133851   3.441   4.244   7.116  0.1743 -3.1846 -0.0653
 7463SOL    HW233852   3.408   4.183   7.245  0.1072  1.5962  1.8922
 7464SOL     OW33853   4.250   0.362   6.176 -0.0765  0.5625  0.0399
 7464SOL    HW133854   4.214   0.450   6.183  0.5196  0.7265  0.9766
 7464SOL    HW233855   4.343   0.387   6.176  0.2319 -0.5659  1.2307
 7465SOL     OW33856   1.181   2.162   3.567  0.2798 -0.0995  0.2296
 7465SOL    HW133857   1.244   2.161   3.495  0.8477 -4.0694  0.8133
 7465SOL    HW233858   1.216   2.093   3.622  1.1116 -1.4226 -1.9713
 7466SOL     OW33859   3.905   0.463  14.581  0.2394 -0.2456 -0.3110
 7466SOL    HW133860   3.941   0.487  14.495  1.8637 -1.3214  0.0716
 7466SOL    HW233861   3.828   0.515  14.605 -0.0869 -0.3850 -1.0537
 7467SOL     OW33862   1.105   1.264   2.130 -0.7934 -0.3110 -0.6014
 7467SOL    HW133863   1.178   1.248   2.070 -0.7661 -0.2857 -0.5748
 7467SOL    HW233864   1.043   1.313   2.077 -1.2528  0.1387  0.3576
 7468SOL     OW33865   2.344   4.521   7.396  0.3609 -0.2447 -0.0689
 7468SOL    HW133866   2.372   4.575   7.322 -1.0397  2.2576  1.2720
 7468SOL    HW233867   2.429   4.522   7.441  0.9644  0.7099 -1.2408
 7469SOL     OW33868   0.929   1.160   7.234 -0.3037  0.5570 -0.4938
 7469SOL    HW133869   0.932   1.188   7.142  0.0102  2.1986  0.0077
 7469SOL    HW233870   0.843   1.194   7.260 -0.8510 -1.0003 -0.2788
 7470SOL     OW33871   4.534   1.731   6.094  0.3209  0.0363  0.6303
 7470SOL    HW133872   4.581   1.668   6.148  0.6995 -0.0451  0.2075
 7470SOL    HW233873   4.599   1.799   6.076 -0.5890  0.2030 -1.9813
 7471SOL     OW33874   1.997   0.351   0.890 -0.5093  0.0887  0.4874
 7471SOL    HW133875   1.981   0.265   0.852 -0.6946 -0.1311  1.0679
 7471SOL    HW233876   1.951   0.342   0.973 -1.3937 -1.3353 -0.1507
 7472SOL     OW33877   1.238   4.660  13.352  0.4707  0.6428 -0.2611
 7472SOL    HW133878   1.250   4.578  13.401 -0.7005  0.6669  0.0615
 7472SOL    HW233879   1.155   4.637  13.310 -0.8317 -0.3836  2.8162
 7473SOL     OW33880   2.988   0.912   1.916 -0.4326  0.6798 -0.2437
 7473SOL    HW133881   2.967   0.986   1.971 -0.5291 -0.8874  1.8254
 7473SOL    HW233882   2.923   0.912   1.846 -1.4836  1.8961  0.7397
 7474SOL     OW33883   2.042   2.320  11.502  0.4227 -0.3015  0.1478
 7474SOL    HW133884   2.133   2.331  11.473  0.0543  1.0710 -0.4996
 7474SOL    HW233885   2.002   2.260  11.439  0.5162  0.4142 -0.5992
 7475SOL     OW33886   2.617   2.371   5.983  0.3630  0.0462 -0.4519
 7475SOL    HW133887   2.637   2.463   5.966  2.4815 -0.4980 -0.9207
 7475SOL    HW233888   2.574   2.368   5.898  1.6595  0.0456 -1.1129
 7476SOL     OW33889   4.002   3.392   9.543  0.3424  0.2021 -0.7743
 7476SOL    HW133890   4.051   3.352   9.614 -0.8166 -0.7936 -0.5314
 7476SOL    HW233891   3.976   3.476   9.580 -1.9631 -1.6515  1.8837
 7477SOL     OW33892   3.054   1.535  11.591  0.7310  0.2476 -0.1974
 7477SOL    HW133893   3.124   1.585  11.549 -0.5738  1.1241 -1.3203
 7477SOL    HW233894   3.040   1.582  11.673 -1.5865 -0.8939  0.0513
 7478SOL     OW33895   2.873   1.246   8.039 -0.7779  0.0506  0.4287
 7478SOL    HW133896   2.920   1.187   7.980 -1.4800 -1.1787  1.0892
 7478SOL    HW233897   2.868   1.325   7.986 -1.8789 -1.4272 -1.6847
 7479SOL     OW33898   4.483   3.466  13.861 -0.1989  0.6695 -0.0843
 7479SOL    HW133899   4.571   3.494  13.839  0.0496 -0.5534 -0.6598
 7479SOL    HW233900   4.429   3.545  13.858 -0.6002  0.4402  0.9549
 7480SOL     OW33901   1.588   1.378   3.615  0.2946 -0.1721 -0.2537
 7480SOL    HW133902   1.493   1.378   3.627  0.2597  1.3738 -0.4595
 7480SOL    HW233903   1.619   1.311   3.675 -0.5368  0.3503  0.7637
 7481SOL     OW33904   1.051   2.386  11.191  0.1563 -0.6000  0.3569
 7481SOL    HW133905   1.067   2.361  11.099 -3.7383 -1.9936  0.0801
 7481SOL    HW233906   1.139   2.393  11.228  0.2309 -0.1343  0.0919
 7482SOL     OW33907   0.259   0.355   6.012 -0.1440 -0.3864  0.0022
 7482SOL    HW133908   0.279   0.283   5.951  1.1889 -1.3671  1.5908
 7482SOL    HW233909   0.235   0.423   5.949 -1.4203 -1.1328 -0.3188
 7483SOL     OW33910   2.451   4.714  11.594 -0.2527 -0.7825 -0.4587
 7483SOL    HW133911   2.389   0.063  11.583  0.6641 -0.2578 -2.1859
 7483SOL    HW233912   2.405   4.645  11.546 -1.5938 -0.7313  0.7502
 7484SOL     OW33913   4.027   4.186   5.376  0.2314 -0.5866  0.0516
 7484SOL    HW133914   4.029   4.270   5.329  2.3577 -1.1427 -0.8631
 7484SOL    HW233915   4.058   4.216   5.461 -1.7545  0.1229  0.5286
 7485SOL     OW33916   0.822   2.645  17.408 -0.1936  0.1217  0.0115
 7485SOL    HW133917   0.865   2.695  17.478  0.8853 -0.2449 -0.3828
 7485SOL    HW233918   0.841   2.712  17.342  0.8036 -1.4279 -1.2728
 7486SOL     OW33919   1.764   4.597  11.430 -0.7891  0.0152  0.5094
 7486SOL    HW133920   1.669   4.600  11.420 -0.6564 -1.2889 -1.2017
 7486SOL    HW233921   1.772   4.540  11.506 -0.5628 -2.4698 -1.3535
 7487SOL     OW33922   0.497   1.740  16.477  0.0233  0.1156  0.2322
 7487SOL    HW133923   0.582   1.741  16.520 -0.5916  1.2362  1.4341
 7487SOL    HW233924   0.527   1.715  16.389 -0.1913  0.1792  0.1395
 7488SOL     OW33925   3.419   2.347   8.817  0.6689 -0.2372  0.2775
 7488SOL    HW133926   3.334   2.342   8.861 -0.2010 -0.4557 -1.4382
 7488SOL    HW233927   3.395   2.296   8.740 -1.6679 -0.8016  1.3935
 7489SOL     OW33928   4.719   4.288   0.949  0.0309 -0.5252 -0.1124
 7489SOL    HW133929   4.701   4.198   0.976 -0.7630 -0.2476  0.2579
 7489SOL    HW233930   0.068   4.270   0.889  0.3136 -0.9542  0.3566
 7490SOL     OW33931   3.746   0.969   3.158  0.4306  0.1409 -0.4654
 7490SOL    HW133932   3.811   0.908   3.123  2.5628  1.9778  0.3003
 7490SOL    HW233933   3.739   0.931   3.246  0.3935  0.2480 -0.4226
 7491SOL     OW33934   4.403   4.508  15.789 -0.6761 -0.3601 -0.4078
 7491SOL    HW133935   4.473   4.442  15.793 -2.1541 -1.8451  0.7669
 7491SOL    HW233936   4.417   4.532  15.881 -1.7192 -1.3032 -0.0031
 7492SOL     OW33937   3.682   2.376   2.489 -0.8222  0.8852 -0.1035
 7492SOL    HW133938   3.625   2.391   2.414 -1.5423  0.5411  0.3662
 7492SOL    HW233939   3.686   2.281   2.500  1.9410  1.4000  3.5281
 7493SOL     OW33940   0.427   0.322  10.353 -0.8876  0.3516  0.6062
 7493SOL    HW133941   0.411   0.417  10.348  1.9519  0.8461  0.7884
 7493SOL    HW233942   0.338   0.287  10.350 -0.9586  0.4844  1.2120
 7494SOL     OW33943   1.696   1.951   1.558 -0.2924  0.0826 -0.8273
 7494SOL    HW133944   1.666   1.990   1.640  0.9702  0.6932 -0.6620
 7494SOL    HW233945   1.617   1.904   1.532  1.7553 -3.3547 -0.8686
 7495SOL     OW33946   2.025   1.577  10.006  0.3988  0.1055  0.2903
 7495SOL    HW133947   1.933   1.578   9.980  0.2935 -0.6682  0.6398
 7495SOL    HW233948   2.046   1.664  10.039  1.1037  0.3361 -0.7622
 7496SOL     OW33949   4.376   2.062  11.030  0.3993 -0.3088  0.0371
 7496SOL    HW133950   4.307   1.996  11.020 -0.6639  0.5791  1.5017
 7496SOL    HW233951   4.317   2.137  11.041 -2.5115 -2.8137  1.7516
 7497SOL     OW33952   0.375   2.895   6.249 -0.0261  0.1187  0.0639
 7497SOL    HW133953   0.284   2.922   6.246 -0.6428 -1.6430  2.2817
 7497SOL    HW233954   0.416   2.954   6.313 -0.1897 -0.6843  0.9184
 7498SOL     OW33955   3.513   3.547   3.912  0.2412 -0.0859 -0.3972
 7498SOL    HW133956   3.429   3.502   3.924  0.3990  0.1541  1.5766
 7498SOL    HW233957   3.533   3.513   3.825 -0.4897 -0.2094 -0.5190
 7499SOL     OW33958   3.673   3.015   6.316  0.5102 -0.4387 -0.0120
 7499SOL    HW133959   3.609   3.033   6.247 -2.7999  1.0772  3.4484
 7499SOL    HW233960   3.749   2.991   6.262 -1.3800 -3.7462 -1.2522
 7500SOL     OW33961   3.464   1.947  10.356  0.4469 -0.3798  0.2646
 7500SOL    HW133962   3.444   1.943  10.263 -0.8392  2.6976  0.4020
 7500SOL    HW233963   3.428   2.030  10.388  0.1294  0.0601 -1.2673
 7501SOL     OW33964   4.448   3.284   0.364 -0.6574 -0.3088  0.5010
 7501SOL    HW133965   4.411   3.323   0.444  2.7200  0.8225  1.4987
 7501SOL    HW233966   4.452   3.192   0.388 -2.1613  0.3512  3.3058
 7502SOL     OW33967   4.411   1.487  14.989 -0.0903  0.6874 -0.2781
 7502SOL    HW133968   4.365   1.409  15.020  1.1201  0.9019  1.9925
 7502SOL    HW233969   4.379   1.484  14.898  1.1372 -1.3704 -0.6206
 7503SOL     OW33970   2.658   0.513   6.367  0.1871 -0.0636  0.0172
 7503SOL    HW133971   2.718   0.583   6.393 -0.0547  0.1447  0.0167
 7503SOL    HW233972   2.581   0.569   6.355  1.3367  1.2094 -1.4566
 7504SOL     OW33973   2.858   2.619  16.283 -0.1842 -0.1266 -0.2041
 7504SOL    HW133974   2.943   2.598  16.243 -0.6521  1.3980 -2.0236
 7504SOL    HW233975   2.856   2.544  16.342 -0.2265  0.6485  0.7758
 7505SOL     OW33976   3.056   1.452   5.519  0.1422  0.3337 -0.2879
 7505SOL    HW133977   3.032   1.366   5.483  1.2264  0.1056 -0.4716
 7505SOL    HW233978   2.976   1.493   5.551 -0.6093  0.5903 -2.4989
 7506SOL     OW33979   0.973   4.309   4.431 -0.1573 -0.3628  0.2743
 7506SOL    HW133980   1.007   4.369   4.365 -0.4745 -0.8745 -0.3536
 7506SOL    HW233981   0.922   4.257   4.369  0.1515  0.6834 -0.8472
 7507SOL     OW33982   2.322   4.613   7.959  0.1908  0.0193  0.4109
 7507SOL    HW133983   2.316   4.582   7.868 -3.0062 -0.9576  0.9553
 7507SOL    HW233984   2.410   4.584   7.984 -0.4027 -1.4260  0.8220
 7508SOL     OW33985   2.115   4.398   7.075 -0.1905  0.3801  0.1696
 7508SOL    HW133986   2.049   4.353   7.023 -0.0842 -1.0402  1.2520
 7508SOL    HW233987   2.069   4.470   7.117  0.8600 -0.7104  3.1912
 7509SOL     OW33988   4.475   2.950   5.214 -0.0185 -0.3448 -0.8086
 7509SOL    HW133989   4.570   2.939   5.225  0.1710  1.3091 -0.8970
 7509SOL    HW233990   4.462   3.040   5.243 -2.7098 -1.3670  1.1786
 7510SOL     OW33991   1.629   1.044  13.718 -0.3740 -0.4535 -0.0221
 7510SOL    HW133992   1.590   1.069  13.802  0.4384  0.8426 -0.0364
 7510SOL    HW233993   1.682   1.117  13.686 -0.8210 -0.5538 -0.9851
 7511SOL     OW33994   1.700   4.584   5.375 -0.6632 -0.0244 -0.0382
 7511SOL    HW133995   1.717   4.565   5.283 -1.8855 -1.2017 -0.0246
 7511SOL    HW233996   1.659   4.670   5.360  2.6868  1.4545 -0.7482
 7512SOL     OW33997   0.207   2.810   4.282 -0.2557 -0.3500 -0.0155
 7512SOL    HW133998   0.215   2.716   4.301 -0.1955  0.2232  2.7698
 7512SOL    HW233999   0.299   2.828   4.262 -0.1113 -0.1755  0.8263
 7513SOL     OW34000   4.353   1.316   5.573 -0.1092 -0.0136  0.0510
 7513SOL    HW134001   4.372   1.394   5.520 -0.9250 -0.7065 -1.2705
 7513SOL    HW234002   4.258   1.312   5.560 -0.3636  1.5361  1.3470
 7514SOL     OW34003   4.154   1.862   7.485  0.1592 -0.3177 -0.3541
 7514SOL    HW134004   4.208   1.783   7.496  0.1582 -0.6116 -2.5538
 7514SOL    HW234005   4.071   1.829   7.452 -0.8167  2.1400 -0.3563
 7515SOL     OW34006   0.644   3.326   7.467  0.3024  0.1718 -0.0747
 7515SOL    HW134007   0.553   3.330   7.436 -0.4857 -2.7655  1.7618
 7515SOL    HW234008   0.666   3.419   7.459  1.2850 -0.0545  0.1081
 7516SOL     OW34009   4.560   1.597  13.122  0.4851  0.0536  0.7394
 7516SOL    HW134010   4.485   1.595  13.062  1.9784 -0.4746 -1.0788
 7516SOL    HW234011   4.568   1.693  13.122 -1.3362  0.1984  0.0343
 7517SOL     OW34012   1.360   1.475   6.865  0.4624  0.3289 -0.0889
 7517SOL    HW134013   1.454   1.472   6.884  0.4452 -0.5016 -0.1385
 7517SOL    HW234014   1.344   1.568   6.850 -0.2545  0.1203 -0.6096
 7518SOL     OW34015   2.238   1.408   8.928 -0.4730  0.3376  0.3611
 7518SOL    HW134016   2.219   1.403   8.834  1.5398 -1.8234  0.0818
 7518SOL    HW234017   2.333   1.406   8.921 -0.4434  1.4702  0.4414
 7519SOL     OW34018   3.070   0.532   0.987  0.3589  0.8994  0.1210
 7519SOL    HW134019   3.150   0.539   1.040  0.7640  1.7541 -0.6030
 7519SOL    HW234020   3.100   0.495   0.904  0.2712 -3.5080  2.0616
 7520SOL     OW34021   1.109   2.687   2.912 -0.3549 -0.3295  0.1455
 7520SOL    HW134022   1.047   2.705   2.982  0.1473 -1.7716  0.9602
 7520SOL    HW234023   1.046   2.686   2.839 -0.6377 -0.2018  0.3882
 7521SOL     OW34024   1.277   4.342  10.083  0.3582 -0.0341 -0.4690
 7521SOL    HW134025   1.293   4.268  10.025  0.3838 -1.0101  0.7719
 7521SOL    HW234026   1.324   4.307  10.158  0.9141  1.9400  0.1083
 7522SOL     OW34027   1.891   0.877  16.066  0.4113 -0.1979  0.1110
 7522SOL    HW134028   1.827   0.932  16.111  1.2249  0.5226  0.4014
 7522SOL    HW234029   1.831   0.810  16.035  0.3967  0.5403 -1.4428
 7523SOL     OW34030   0.735   3.095   3.885  0.3520  0.3502  0.0402
 7523SOL    HW134031   0.822   3.066   3.913  0.3149  0.8298  0.6577
 7523SOL    HW234032   0.704   3.016   3.841  1.0196  0.6506 -0.9821
 7524SOL     OW34033   2.075   1.667   5.962 -0.4535  0.2383  0.2514
 7524SOL    HW134034   2.155   1.720   5.959  0.9858 -1.9888 -1.1980
 7524SOL    HW234035   2.059   1.655   5.868 -0.6368  0.9798  0.1868
 7525SOL     OW34036   0.543   2.250   2.751  0.4550  0.7294 -0.3163
 7525SOL    HW134037   0.573   2.337   2.724  3.8036  0.2870  1.9683
 7525SOL    HW234038   0.462   2.270   2.798 -0.5195 -3.1101 -0.3538
 7526SOL     OW34039   1.411   4.323   5.487  0.0514 -0.4559  0.4523
 7526SOL    HW134040   1.406   4.407   5.533  0.7678 -0.9493  1.4422
 7526SOL    HW234041   1.437   4.268   5.562 -0.8109  0.3138  1.3104
 7527SOL     OW34042   3.878   2.763   1.120  0.2912 -0.2020 -0.3733
 7527SOL    HW134043   3.901   2.761   1.027  1.0955 -0.5602 -0.1733
 7527SOL    HW234044   3.792   2.805   1.125 -0.1736 -1.2880  0.8345
 7528SOL     OW34045   1.459   1.547   3.929 -0.6502 -0.1123  0.0768
 7528SOL    HW134046   1.400   1.486   3.885 -1.4377  0.5331  0.2319
 7528SOL    HW234047   1.458   1.503   4.014  1.5442 -0.2895  0.0091
 7529SOL     OW34048   2.969   0.613   0.495  0.4957  0.2582  0.4877
 7529SOL    HW134049   2.994   0.628   0.586 -2.9875  3.2763  0.9490
 7529SOL    HW234050   2.948   0.704   0.476  1.0566  0.1503 -0.6553
 7530SOL     OW34051   2.780   4.149  12.971  0.0143  0.3187  0.8545
 7530SOL    HW134052   2.856   4.171  12.916  0.4928  0.2124  1.4702
 7530SOL    HW234053   2.734   4.231  12.987 -0.8272 -0.0352  0.2280
 7531SOL     OW34054   1.187   0.590   7.451  0.6277  0.0543 -0.4181
 7531SOL    HW134055   1.100   0.551   7.454  0.0552  1.3044 -1.0746
 7531SOL    HW234056   1.233   0.511   7.422  1.9197  0.3453  0.8102
 7532SOL     OW34057   2.505   3.391   7.078 -0.3355 -0.5807  0.6379
 7532SOL    HW134058   2.516   3.481   7.049  0.8603 -0.8118  0.3764
 7532SOL    HW234059   2.436   3.407   7.143 -0.5152  0.0713  0.2909
 7533SOL     OW34060   2.927   3.643   0.521 -0.4030  0.4422 -0.2892
 7533SOL    HW134061   2.832   3.658   0.518 -0.0950  2.9216  1.3636
 7533SOL    HW234062   2.953   3.734   0.508 -1.5303  0.5834 -1.5640
 7534SOL     OW34063   3.035   2.561   3.311 -0.1929 -0.3156  0.3507
 7534SOL    HW134064   3.028   2.624   3.239 -0.5740  1.0577  1.6087
 7534SOL    HW234065   3.055   2.629   3.374 -1.2120 -0.3298  0.6910
 7535SOL     OW34066   3.151   0.152   4.886  0.2704 -0.1217  0.1280
 7535SOL    HW134067   3.195   0.210   4.948  0.6279 -0.5828  0.3093
 7535SOL    HW234068   3.202   0.072   4.903  1.1371  0.1880 -0.9990
 7536SOL     OW34069   3.725   1.043  12.529  0.1240  0.6156  0.4478
 7536SOL    HW134070   3.725   1.102  12.604  1.5419 -0.5323  1.3387
 7536SOL    HW234071   3.742   1.098  12.452 -0.3528  2.0844  1.4041
 7537SOL     OW34072   0.082   4.459   9.125  0.6727  0.3778  0.1839
 7537SOL    HW134073   0.122   4.494   9.204 -0.3648 -2.1947  1.8751
 7537SOL    HW234074   0.143   4.491   9.059 -0.4263  0.6720 -0.6907
 7538SOL     OW34075   0.881   2.941   5.200  0.1006  0.1271 -0.4926
 7538SOL    HW134076   0.972   2.970   5.201 -0.1605  0.9336 -0.2183
 7538SOL    HW234077   0.904   2.851   5.223 -1.8156 -0.3056 -0.3251
 7539SOL     OW34078   4.148   1.714   8.694  0.0963  0.2094 -0.5230
 7539SOL    HW134079   4.155   1.715   8.789 -1.0594 -1.5300 -0.4294
 7539SOL    HW234080   4.240   1.694   8.676  0.2348  1.5435 -1.3473
 7540SOL     OW34081   4.114   3.830   8.585  0.2540 -0.4031 -0.3133
 7540SOL    HW134082   4.183   3.834   8.519  1.1740 -1.5813  0.5902
 7540SOL    HW234083   4.090   3.737   8.580  0.8105 -0.5894  0.4709
 7541SOL     OW34084   1.372   2.433   2.714 -0.0161  0.7155 -0.0167
 7541SOL    HW134085   1.461   2.459   2.740 -0.3737  1.4899  0.4310
 7541SOL    HW234086   1.343   2.511   2.666 -1.2821  0.8079  0.8958
 7542SOL     OW34087   3.409   0.347   7.618 -0.5284 -0.1542 -0.5979
 7542SOL    HW134088   3.505   0.345   7.617 -0.4691  0.3334  3.1299
 7542SOL    HW234089   3.390   0.438   7.595  0.6955  0.6459  1.5590
 7543SOL     OW34090   0.122   4.346   5.037 -0.3794 -0.2190 -0.2149
 7543SOL    HW134091   0.179   4.300   4.974  0.5138  0.4830  0.0724
 7543SOL    HW234092   0.073   4.404   4.979  2.3689  1.2833 -1.0328
 7544SOL     OW34093   1.057   1.506  14.369  0.0317 -0.5263  0.0960
 7544SOL    HW134094   1.038   1.560  14.291 -1.6421  1.5772  1.9499
 7544SOL    HW234095   1.113   1.448  14.318 -0.9714 -1.6423  0.2913
 7545SOL     OW34096   3.228   2.992   4.560  0.6263  0.2621 -0.2228
 7545SOL    HW134097   3.169   2.959   4.492 -0.7467 -0.6633  1.3983
 7545SOL    HW234098   3.198   2.927   4.625  0.2970  1.1713  0.5356
 7546SOL     OW34099   3.642   2.481   8.787  0.5823  0.9452 -0.1559
 7546SOL    HW134100   3.677   2.420   8.722 -1.3424 -0.9866  0.5999
 7546SOL    HW234101   3.550   2.454   8.792  0.9447  0.1896  2.2180
 7547SOL     OW34102   0.943   0.413   3.336 -0.3585  0.4691 -0.1768
 7547SOL    HW134103   0.963   0.333   3.287 -0.6638  0.3036 -0.0327
 7547SOL    HW234104   0.852   0.436   3.315 -0.7782 -1.2666 -0.2613
 7548SOL     OW34105   3.098   2.535  16.524  0.0079 -0.3206 -0.3195
 7548SOL    HW134106   3.102   2.537  16.428  1.8914 -0.7508 -0.2396
 7548SOL    HW234107   3.006   2.508  16.526  0.3292 -1.2409  1.8241
 7549SOL     OW34108   4.297   4.664   7.306  0.1585  0.4541 -0.8323
 7549SOL    HW134109   4.249   4.581   7.306  0.4734  0.2681  0.6446
 7549SOL    HW234110   4.382   4.627   7.281 -0.5985 -1.2918 -0.8768
 7550SOL     OW34111   0.467   4.616   3.437 -0.5759 -0.4189  0.7839
 7550SOL    HW134112   0.379   4.615   3.474 -0.5047 -5.4426  0.8453
 7550SOL    HW234113   0.444   4.685   3.375  2.7468  0.1859  0.1914
 7551SOL     OW34114   0.054   2.682   8.009  0.0721 -1.1320  0.2770
 7551SOL    HW134115   0.040   2.775   8.028 -1.2381 -0.9571 -1.5855
 7551SOL    HW234116   0.131   2.687   7.952 -0.0192 -1.4913  0.1228
 7552SOL     OW34117   0.250   1.389   3.051  0.7098 -0.5233  0.5010
 7552SOL    HW134118   0.293   1.474   3.058  0.6275 -0.3186 -1.5410
 7552SOL    HW234119   0.314   1.352   2.990  2.1449  2.2231  0.3395
 7553SOL     OW34120   4.476   0.117   3.580  0.2774 -0.6107  0.0640
 7553SOL    HW134121   4.449   0.032   3.545  1.4037  0.2539 -2.9116
 7553SOL    HW234122   4.419   0.165   3.519 -0.8034 -0.7278  0.9957
 7554SOL     OW34123   1.513   4.706   8.216 -0.0451  0.0232 -0.0004
 7554SOL    HW134124   1.515   4.655   8.297 -0.2107  1.3648  0.8483
 7554SOL    HW234125   1.556   0.064   8.245 -0.0433  0.3350 -0.8708
 7555SOL     OW34126   0.837   0.291  14.223  0.3236 -0.0062 -0.2402
 7555SOL    HW134127   0.872   0.344  14.294  0.6308  0.6486 -0.8786
 7555SOL    HW234128   0.920   0.254  14.192 -0.0877 -0.0540 -1.3000
 7556SOL     OW34129   2.309   1.011   0.734 -0.1774  0.1233  0.8230
 7556SOL    HW134130   2.404   0.999   0.735  0.0886  2.0429 -0.8259
 7556SOL    HW234131   2.283   0.919   0.738 -0.6709  0.1466 -1.9624
 7557SOL     OW34132   3.811   2.259   5.134  0.9665 -0.0724 -0.0986
 7557SOL    HW134133   3.819   2.183   5.191  0.0763 -1.5425 -1.9537
 7557SOL    HW234134   3.891   2.296   5.172  0.0683  1.6081  0.1779
 7558SOL     OW34135   3.566   1.445   6.706 -0.1751  0.0170 -0.0931
 7558SOL    HW134136   3.624   1.405   6.641  0.8278  2.6782 -0.8312
 7558SOL    HW234137   3.623   1.509   6.749  0.0263  0.9462 -1.7555
 7559SOL     OW34138   0.129   3.986   9.643 -0.1146 -0.5271 -0.3415
 7559SOL    HW134139   0.097   3.898   9.624 -1.7142  0.0100 -0.1589
 7559SOL    HW234140   0.130   4.025   9.556  0.2611  1.9751  0.7902
 7560SOL     OW34141   0.854   0.375   4.927  0.5780  0.6896 -0.0331
 7560SOL    HW134142   0.944   0.343   4.917  0.1481  0.4884 -3.1891
 7560SOL    HW234143   0.833   0.311   4.996  0.2133  0.5556 -0.2670
 7561SOL     OW34144   4.351   3.494   4.928 -0.3088  0.5603 -0.2343
 7561SOL    HW134145   4.415   3.427   4.904 -0.5854  0.4225 -0.6016
 7561SOL    HW234146   4.311   3.510   4.842  0.6282 -1.1669 -1.0033
 7562SOL     OW34147   0.153   3.410  15.231  0.0281 -0.0518 -0.2261
 7562SOL    HW134148   0.077   3.452  15.190  1.2567  0.9101 -1.5051
 7562SOL    HW234149   0.221   3.406  15.164  0.3505  0.3063  0.0756
 7563SOL     OW34150   3.616   4.405   8.561 -0.2002 -0.2778  0.5927
 7563SOL    HW134151   3.621   4.456   8.642  2.7422  0.2910  0.0189
 7563SOL    HW234152   3.677   4.332   8.569 -0.1278 -0.4040 -1.2940
 7564SOL     OW34153   0.665   0.110   8.825 -0.0031 -0.4689  0.3508
 7564SOL    HW134154   0.583   0.105   8.874  0.4456  1.4973  1.2631
 7564SOL    HW234155   0.717   0.173   8.873 -1.2968  1.1212 -0.3456
 7565SOL     OW34156   3.755   1.421  12.140  0.2478  0.1493  0.2431
 7565SOL    HW134157   3.677   1.383  12.100  0.9871 -2.5104  1.2704
 7565SOL    HW234158   3.713   1.492  12.187 -0.7142  0.2073 -0.7030
 7566SOL     OW34159   4.024   1.702   6.339  0.5567 -0.1811 -0.9132
 7566SOL    HW134160   3.999   1.789   6.308 -1.0201 -0.2774  0.1179
 7566SOL    HW234161   4.115   1.688   6.313  1.1772  0.5750  0.8460
 7567SOL     OW34162   0.307   4.076   1.920 -0.0958 -0.0807 -0.1186
 7567SOL    HW134163   0.225   4.125   1.923  0.3087  0.6508 -0.8330
 7567SOL    HW234164   0.273   3.988   1.935  2.2070 -0.7204  1.3268
 7568SOL     OW34165   4.237   3.855   8.818  0.1516 -0.1948  0.0193
 7568SOL    HW134166   4.169   3.847   8.751 -0.0067  0.9466  0.0436
 7568SOL    HW234167   4.312   3.872   8.761  0.0574 -0.2623 -0.1267
 7569SOL     OW34168   4.177   4.076   6.807 -0.0705 -0.0882 -0.3656
 7569SOL    HW134169   4.104   4.048   6.863 -0.2505  1.9803  0.4434
 7569SOL    HW234170   4.144   4.163   6.786  0.1564 -0.1443 -0.9364
 7570SOL     OW34171   1.456   2.441   3.489 -0.2181  0.2936 -0.2619
 7570SOL    HW134172   1.532   2.462   3.434  0.5027  0.2984  0.7382
 7570SOL    HW234173   1.426   2.376   3.426  2.1179 -1.1790  0.1593
 7571SOL     OW34174   4.317   0.695   8.200 -0.6830 -0.2776  0.4949
 7571SOL    HW134175   4.255   0.631   8.236 -1.9134 -0.0200 -1.1800
 7571SOL    HW234176   4.277   0.780   8.216  1.1062  0.4428  1.1510
 7572SOL     OW34177   3.454   4.375   7.569  0.1788  0.1821  0.3635
 7572SOL    HW134178   3.398   4.304   7.601 -0.3332  0.8300  0.9060
 7572SOL    HW234179   3.512   4.388   7.643  2.5158  2.0536 -1.7893
 7573SOL     OW34180   1.907   3.797   9.034  0.3722 -0.5116  0.5468
 7573SOL    HW134181   1.964   3.843   8.972 -0.4317  0.1000  0.2747
 7573SOL    HW234182   1.964   3.780   9.109  0.4181 -0.3133  0.5567
 7574SOL     OW34183   0.674   3.458   9.353 -0.1134  0.5211  0.2659
 7574SOL    HW134184   0.621   3.403   9.412 -0.2467 -0.0196 -0.3539
 7574SOL    HW234185   0.734   3.492   9.419  0.1673  5.8170 -2.7629
 7575SOL     OW34186   2.497   0.845  14.638 -0.5443  0.0495 -0.3446
 7575SOL    HW134187   2.573   0.826  14.693 -1.4146 -0.1898  0.8019
 7575SOL    HW234188   2.462   0.756  14.641 -1.7849  0.4931 -1.5305
 7576SOL     OW34189   2.593   1.465   2.221 -0.1095 -0.3039 -0.4372
 7576SOL    HW134190   2.622   1.448   2.132 -0.0522  0.2756 -0.5318
 7576SOL    HW234191   2.643   1.393   2.261 -0.1658  0.2414  0.6331
 7577SOL     OW34192   3.105   4.417  10.341  0.0547 -0.5492  0.1074
 7577SOL    HW134193   3.133   4.337  10.386  1.6805 -0.0120  0.0661
 7577SOL    HW234194   3.010   4.415  10.342 -0.0242  3.5783 -2.0233
 7578SOL     OW34195   1.532   4.612   8.458  0.3149 -0.5180  0.0069
 7578SOL    HW134196   1.528   4.518   8.446 -0.0993 -0.2264 -2.1248
 7578SOL    HW234197   1.596   4.614   8.529  0.4109  0.0202 -0.0907
 7579SOL     OW34198   2.738   1.292   8.811  0.2207  0.1483  0.1617
 7579SOL    HW134199   2.674   1.359   8.836  0.3862  1.2428 -2.3484
 7579SOL    HW234200   2.800   1.335   8.752 -0.3120  0.5914 -0.0723
 7580SOL     OW34201   3.933   4.484   6.168 -0.5943  0.3229 -0.3773
 7580SOL    HW134202   3.953   4.578   6.164  0.3206  0.1298 -0.2583
 7580SOL    HW234203   3.906   4.468   6.078  0.4648  1.6172 -0.9338
 7581SOL     OW34204   2.156   4.337   5.048  0.5704  0.1849 -0.0670
 7581SOL    HW134205   2.222   4.341   5.117 -0.7556 -1.4298  1.3042
 7581SOL    HW234206   2.147   4.242   5.037  1.5351  0.3766 -2.6123
 7582SOL     OW34207   1.731   0.424  15.842  0.8356 -0.1728  0.0111
 7582SOL    HW134208   1.639   0.417  15.865  0.6086  0.9620 -0.5935
 7582SOL    HW234209   1.770   0.375  15.915 -0.1559  1.1165  1.3883
 7583SOL     OW34210   4.712   0.705   2.168 -0.1063 -0.0304  0.0695
 7583SOL    HW134211   4.624   0.738   2.150 -0.0954 -0.9210 -1.6477
 7583SOL    HW234212   0.037   0.787   2.177  2.3902 -1.5347  0.5079
 7584SOL     OW34213   1.763   0.350  15.323 -0.5022  0.6087  0.3267
 7584SOL    HW134214   1.845   0.311  15.353 -0.9169  0.1802  0.9123
 7584SOL    HW234215   1.713   0.327  15.402 -1.5000  1.8446  0.0585
 7585SOL     OW34216   1.429   3.413   7.764  0.1689 -0.3367 -0.1284
 7585SOL    HW134217   1.453   3.466   7.688 -1.6471  0.3566 -0.2173
 7585SOL    HW234218   1.456   3.325   7.738 -0.3894 -0.5502  0.0164
 7586SOL     OW34219   2.540   3.067   9.229  0.1605 -0.2087  0.3207
 7586SOL    HW134220   2.581   2.997   9.281 -0.7803  0.4854  1.9770
 7586SOL    HW234221   2.491   3.124   9.288  1.0920  1.9771 -1.0441
 7587SOL     OW34222   1.878   4.209  11.332 -0.3009  0.0770 -0.6153
 7587SOL    HW134223   1.962   4.238  11.367  1.0503 -0.7212 -3.1682
 7587SOL    HW234224   1.815   4.236  11.399  1.9722  0.7429  1.2635
 7588SOL     OW34225   2.642   4.100   1.129  0.2835  0.9694 -0.3635
 7588SOL    HW134226   2.561   4.051   1.147 -0.7174  3.4213  1.6951
 7588SOL    HW234227   2.675   4.126   1.214  0.2041 -1.2914  0.3600
 7589SOL     OW34228   2.385   0.559   8.869  0.3831  0.4402 -0.5528
 7589SOL    HW134229   2.362   0.488   8.809 -1.5288 -0.1962  0.9467
 7589SOL    HW234230   2.361   0.636   8.818 -1.1502 -0.2758 -0.8938
 7590SOL     OW34231   2.376   2.665   0.343 -0.2135  0.3796 -0.1487
 7590SOL    HW134232   2.304   2.638   0.401 -0.5669 -0.5428 -1.0202
 7590SOL    HW234233   2.338   2.745   0.307 -1.3706 -0.1648 -0.1200
 7591SOL     OW34234   3.865   2.574  14.829  0.1725 -0.0140  0.2623
 7591SOL    HW134235   3.840   2.596  14.918  0.0329 -1.1306  0.4929
 7591SOL    HW234236   3.927   2.643  14.802  0.9715 -1.4355 -1.5663
 7592SOL     OW34237   4.513   1.326   6.006  0.1973 -0.2210 -0.0540
 7592SOL    HW134238   4.486   1.355   6.093 -1.9351 -1.2657 -0.3691
 7592SOL    HW234239   4.556   1.247   6.040  0.1051  0.0969  0.7899
 7593SOL     OW34240   4.109   3.380   2.405  0.5837  0.1730 -0.0067
 7593SOL    HW134241   4.014   3.375   2.401  0.6454  0.8822 -2.3720
 7593SOL    HW234242   4.147   3.443   2.466 -2.8921  1.3548  0.8986
 7594SOL     OW34243   0.560   1.748   9.050 -0.4051  0.3040  0.4259
 7594SOL    HW134244   0.601   1.694   9.118 -0.7330 -0.3274  0.1221
 7594SOL    HW234245   0.631   1.806   9.023  2.3222 -2.2208  2.1167
 7595SOL     OW34246   0.093   2.101  13.252  0.3042  0.5971 -0.1101
 7595SOL    HW134247   0.111   2.194  13.237 -0.5404  0.8006  0.1334
 7595SOL    HW234248   0.152   2.063  13.187  1.6423  2.3189  0.0971
 7596SOL     OW34249   4.521   2.845   4.868  0.1356 -0.0018 -0.0074
 7596SOL    HW134250   4.433   2.875   4.891  0.1256  0.4333 -0.5911
 7596SOL    HW234251   4.523   2.759   4.911 -0.1407  0.6564  1.3056
 7597SOL     OW34252   1.585   2.392   7.530  0.2753 -0.1607  0.0222
 7597SOL    HW134253   1.636   2.461   7.488  0.9206 -1.1697 -0.8610
 7597SOL    HW234254   1.496   2.404   7.497  0.0435  0.4242  0.8469
 7598SOL     OW34255   2.281   2.985   9.160  0.0013 -0.2179 -0.4272
 7598SOL    HW134256   2.306   2.935   9.082 -0.3674 -1.5792  0.3242
 7598SOL    HW234257   2.362   3.033   9.179 -0.6753 -0.1812  2.4092
 7599SOL     OW34258   3.305   0.794   7.800  0.2516  0.5503 -0.1749
 7599SOL    HW134259   3.222   0.745   7.798 -0.1521  1.2027  0.4720
 7599SOL    HW234260   3.275   0.880   7.768  0.4834  0.7051  0.0247
 7600SOL     OW34261   1.951   2.113   5.858 -0.6785 -0.2629  0.3601
 7600SOL    HW134262   1.904   2.032   5.879 -0.6062  0.1705  2.2161
 7600SOL    HW234263   2.039   2.091   5.886  0.2795  2.1617 -0.6841
 7601SOL     OW34264   1.439   0.188   4.342 -0.3123  0.2929  0.1728
 7601SOL    HW134265   1.493   0.156   4.270  1.2429 -0.4314  1.6381
 7601SOL    HW234266   1.442   0.113   4.401  0.7913  0.2405  0.0613
 7602SOL     OW34267   2.707   3.643   8.822 -0.0581  0.4161 -0.8132
 7602SOL    HW134268   2.789   3.657   8.776  0.3386 -1.7564 -0.7640
 7602SOL    HW234269   2.729   3.708   8.889 -0.7795 -0.3908  0.1944
 7603SOL     OW34270   3.545   4.465   2.631  0.5013  0.4252  0.4522
 7603SOL    HW134271   3.481   4.398   2.607 -1.5272  2.0441  1.3724
 7603SOL    HW234272   3.485   4.532   2.662  0.7338 -0.5109  2.9101
 7604SOL     OW34273   0.480   1.005   4.050 -0.6999 -0.3241 -0.6599
 7604SOL    HW134274   0.412   0.943   4.025 -0.4225 -2.3018  3.4048
 7604SOL    HW234275   0.561   0.964   4.022 -0.2248 -1.0551  1.7557
 7605SOL     OW34276   1.263   0.076   1.876  0.1965  0.1545  0.2512
 7605SOL    HW134277   1.233   0.080   1.966  1.8632 -1.2053  0.8819
 7605SOL    HW234278   1.258   0.169   1.854 -1.7118  0.1168  0.5126
 7606SOL     OW34279   3.801   4.352   5.480  0.0677 -0.0797  0.4857
 7606SOL    HW134280   3.751   4.299   5.418 -0.9470  2.8447 -1.1614
 7606SOL    HW234281   3.829   4.275   5.530  0.7731 -0.7508 -0.9479
 7607SOL     OW34282   2.781   2.772  14.623  0.2387 -0.0452 -0.1249
 7607SOL    HW134283   2.838   2.695  14.622 -0.0978 -0.3308  2.1554
 7607SOL    HW234284   2.758   2.768  14.716  0.6771 -0.3042 -0.0261
 7608SOL     OW34285   0.545   3.098   0.298 -0.7686  0.2899  0.3705
 7608SOL    HW134286   0.641   3.095   0.299 -0.7900 -1.0651 -1.4419
 7608SOL    HW234287   0.527   3.152   0.375  1.0618  1.4241  0.0222
 7609SOL     OW34288   0.118   1.275   8.396 -0.3102  0.3085  0.6449
 7609SOL    HW134289   0.031   1.246   8.421 -1.1653  1.6148 -0.8487
 7609SOL    HW234290   0.160   1.191   8.375 -0.5047  0.1978  0.7009
 7610SOL     OW34291   0.324   3.162   2.835  0.4907  0.2134 -0.1506
 7610SOL    HW134292   0.305   3.149   2.742 -0.7312  1.5852 -0.0954
 7610SOL    HW234293   0.346   3.076   2.871  2.7308  0.2806 -1.3310
 7611SOL     OW34294   0.101   0.257   8.798 -0.6884  0.0265  0.0835
 7611SOL    HW134295   0.082   0.263   8.891 -1.8180 -1.2657 -0.0662
 7611SOL    HW234296   0.156   0.332   8.774 -0.5763 -1.1392 -3.2501
 7612SOL     OW34297   1.317   0.630  16.761  0.4075 -0.7709 -0.0766
 7612SOL    HW134298   1.341   0.539  16.775 -2.1856 -1.2084  1.5745
 7612SOL    HW234299   1.222   0.614  16.765 -0.0250  1.6600 -0.2365
 7613SOL     OW34300   2.296   0.114   6.793  0.1862  0.3873 -0.1927
 7613SOL    HW134301   2.335   0.197   6.819  0.7281 -0.0449  0.3878
 7613SOL    HW234302   2.256   0.142   6.711 -0.7756  2.5063  1.0131
 7614SOL     OW34303   3.576   2.881  11.090 -0.7096 -0.2190  0.0060
 7614SOL    HW134304   3.537   2.915  11.170 -0.0999  0.9679 -0.1943
 7614SOL    HW234305   3.494   2.861  11.045 -0.7750 -1.1221  0.5430
 7615SOL     OW34306   1.086   3.857  15.340  0.1360 -0.4022  0.2465
 7615SOL    HW134307   1.096   3.950  15.359 -0.5346 -0.2627 -0.0636
 7615SOL    HW234308   1.167   3.819  15.373  0.3036 -0.0391  0.2446
 7616SOL     OW34309   1.222   1.278  10.544 -0.5622 -1.1040  0.3396
 7616SOL    HW134310   1.161   1.221  10.592 -1.0187 -0.2788  0.7468
 7616SOL    HW234311   1.261   1.216  10.483  1.7923  1.4868 -0.7721
 7617SOL     OW34312   0.973   4.650   5.303  0.4710 -0.2547 -0.1098
 7617SOL    HW134313   0.941   4.576   5.354  0.8935 -0.1230  0.3521
 7617SOL    HW234314   1.052   4.680   5.348  1.4848 -3.5457  0.2443
 7618SOL     OW34315   2.054   2.934   6.470  0.4316  0.2991 -0.1356
 7618SOL    HW134316   2.108   2.994   6.521 -1.8727  0.1695  2.4708
 7618SOL    HW234317   2.069   2.854   6.519 -2.5090 -0.9635 -1.3171
 7619SOL     OW34318   3.071   3.511   7.024  0.6050 -0.3797  0.3597
 7619SOL    HW134319   3.119   3.557   7.092  0.5990 -0.1385  0.1990
 7619SOL    HW234320   2.979   3.529   7.045  0.4455 -2.8170  1.7617
 7620SOL     OW34321   1.355   2.520   6.485 -0.0181 -0.2569 -0.2009
 7620SOL    HW134322   1.351   2.519   6.580 -0.1848 -0.9475 -0.2107
 7620SOL    HW234323   1.264   2.543   6.464 -0.4346 -3.1383 -1.6097
 7621SOL     OW34324   3.646   2.143   8.453  0.0113  0.0897  0.5568
 7621SOL    HW134325   3.616   2.150   8.363  0.1669 -0.5860  0.4500
 7621SOL    HW234326   3.732   2.105   8.433 -0.4762 -0.6681 -0.1095
 7622SOL     OW34327   0.523   3.810   4.927 -0.3751 -0.0632  0.2591
 7622SOL    HW134328   0.483   3.828   4.842  1.1111  1.6516 -0.0814
 7622SOL    HW234329   0.457   3.841   4.989 -1.1075  0.6724 -0.8691
 7623SOL     OW34330   2.117   4.618   5.946 -0.9254  0.5145 -0.0811
 7623SOL    HW134331   2.204   4.655   5.929 -2.3222  3.0103 -1.8738
 7623SOL    HW234332   2.117   4.565   5.866  0.2451  0.8336 -0.2871
 7624SOL     OW34333   1.538   4.373   2.932 -0.1689  0.0543 -0.0064
 7624SOL    HW134334   1.549   4.467   2.939  1.7834 -0.3299  2.1615
 7624SOL    HW234335   1.578   4.349   2.848  0.5275  0.7851  0.1239
 7625SOL     OW34336   0.818   4.714   1.247 -0.5979 -0.5832  1.0352
 7625SOL    HW134337   0.781   4.702   1.334  0.5717 -3.1541  1.1938
 7625SOL    HW234338   0.823   0.086   1.245 -0.6336 -0.5972 -0.1007
 7626SOL     OW34339   4.537   4.221   7.497  0.9236  0.3140  0.6356
 7626SOL    HW134340   4.541   4.135   7.457  0.9241  0.6216 -0.0197
 7626SOL    HW234341   4.630   4.239   7.513  1.2978  1.1600 -2.6394
 7627SOL     OW34342   3.356   4.261   2.579 -0.4402 -0.3527  0.2254
 7627SOL    HW134343   3.279   4.277   2.634  0.2659  2.4081  0.4096
 7627SOL    HW234344   3.348   4.172   2.545 -1.7962 -1.1764  2.6544
 7628SOL     OW34345   3.872   0.650   1.203 -0.3427  0.0271 -0.3331
 7628SOL    HW134346   3.905   0.735   1.231  0.4494 -0.1133 -0.8422
 7628SOL    HW234347   3.951   0.597   1.194 -0.0386  0.5390 -0.6820
 7629SOL     OW34348   2.519   0.141   4.079  0.1934 -0.1001 -0.4174
 7629SOL    HW134349   2.449   0.140   4.145 -0.1722  0.3987 -0.8040
 7629SOL    HW234350   2.581   0.202   4.120 -1.2610  0.6937  0.6095
 7630SOL     OW34351   0.168   3.368   2.521  0.6890  0.0236 -0.3642
 7630SOL    HW134352   0.235   3.387   2.456  2.1923 -0.6622  0.9756
 7630SOL    HW234353   0.175   3.450   2.571  0.5459  0.7373 -1.5103
 7631SOL     OW34354   1.627   4.026   8.760 -0.0352  0.6040  0.4182
 7631SOL    HW134355   1.691   4.037   8.830  0.1422  0.0227  0.3401
 7631SOL    HW234356   1.571   3.955   8.794  1.6487 -0.6550  0.5281
 7632SOL     OW34357   4.424   3.881   6.970 -0.1535 -0.0070  0.2456
 7632SOL    HW134358   4.373   3.896   7.049 -0.1450  1.5727 -0.0615
 7632SOL    HW234359   4.367   3.924   6.907  0.2920 -0.0261 -0.1696
 7633SOL     OW34360   4.125   1.990   2.821  0.2734 -0.3474  0.7697
 7633SOL    HW134361   4.145   1.931   2.894  2.5733 -0.0554  0.3899
 7633SOL    HW234362   4.175   1.945   2.753  0.6963  1.4938 -0.1516
 7634SOL     OW34363   2.998   0.333   7.266 -0.0814 -0.1015  0.2045
 7634SOL    HW134364   3.028   0.406   7.319 -0.4555  0.1824  0.0209
 7634SOL    HW234365   2.909   0.333   7.299 -0.2644  0.9253 -0.3023
 7635SOL     OW34366   2.722   2.412   2.282  0.6573 -0.0005  0.8955
 7635SOL    HW134367   2.698   2.505   2.289 -0.9459 -0.3638  0.2309
 7635SOL    HW234368   2.723   2.380   2.373  0.3409 -0.3903  0.7621
 7636SOL     OW34369   4.659   0.539   4.530 -0.2154 -0.1826 -0.9813
 7636SOL    HW134370   4.718   0.488   4.585  1.5820  2.8127 -0.1545
 7636SOL    HW234371   4.649   0.621   4.578 -2.6701 -2.4595  2.3541
 7637SOL     OW34372   4.010   4.017   2.726 -0.9571 -0.2284 -0.2222
 7637SOL    HW134373   3.984   4.077   2.795 -1.3701  1.6380 -1.9829
 7637SOL    HW234374   4.058   4.067   2.660 -1.5153  0.9409  0.2657
 7638SOL     OW34375   0.891   3.662   5.128 -0.0694 -0.9617  0.0419
 7638SOL    HW134376   0.883   3.567   5.137 -1.8292 -0.7430  0.8319
 7638SOL    HW234377   0.964   3.676   5.188 -1.0191  0.5533  0.8582
 7639SOL     OW34378   2.758   2.772   0.912 -0.4739  0.2041  0.3168
 7639SOL    HW134379   2.803   2.736   0.835 -0.3378  3.8508 -1.3095
 7639SOL    HW234380   2.685   2.712   0.929 -1.4908  1.0422 -1.0563
 7640SOL     OW34381   2.821   0.794   4.351 -0.0201 -0.7973  0.0044
 7640SOL    HW134382   2.844   0.788   4.259 -0.1826  0.3951 -0.1099
 7640SOL    HW234383   2.910   0.806   4.385  0.3678 -4.2700  0.2596
 7641SOL     OW34384   3.221   4.107   6.437  0.0577  0.1876 -0.0877
 7641SOL    HW134385   3.209   4.185   6.491 -1.3229 -0.6683  0.8859
 7641SOL    HW234386   3.276   4.054   6.496  1.8685 -0.0541 -2.0287
 7642SOL     OW34387   2.898   0.855   1.330 -0.2125  0.2979  0.0599
 7642SOL    HW134388   2.858   0.772   1.303  2.1894 -0.9485  0.2786
 7642SOL    HW234389   2.870   0.921   1.267 -1.3222  0.5829  0.8448
 7643SOL     OW34390   4.356   2.256   0.563  0.0372 -0.0598  0.3810
 7643SOL    HW134391   4.340   2.324   0.628 -0.0625  1.6777 -1.4531
 7643SOL    HW234392   4.427   2.290   0.509 -0.7824  0.3840 -0.4069
 7644SOL     OW34393   3.665   4.501  16.777  0.0460  0.3974  0.2212
 7644SOL    HW134394   3.709   4.473  16.697  0.5209 -0.1616  0.6734
 7644SOL    HW234395   3.680   4.428  16.838  1.0794  0.6463  0.2696
 7645SOL     OW34396   2.113   2.220   2.828 -0.5205  0.2966  0.1563
 7645SOL    HW134397   2.147   2.184   2.746 -1.5360  1.9196 -0.9574
 7645SOL    HW234398   2.187   2.281   2.832  0.5039 -0.9976  1.1702
 7646SOL     OW34399   2.014   3.044   5.311  0.6843  0.0683 -0.0949
 7646SOL    HW134400   1.945   3.076   5.369  2.2632 -0.4236  2.0486
 7646SOL    HW234401   2.009   2.949   5.318 -1.8137  0.2080 -0.0456
 7647SOL     OW34402   0.087   3.080   7.784 -0.1084 -0.2572  0.0973
 7647SOL    HW134403   0.026   3.056   7.715  0.6561  0.9032 -0.9736
 7647SOL    HW234404   0.130   3.147   7.731  1.5465 -0.1296  1.5936
 7648SOL     OW34405   1.109   3.287   8.921  0.7027 -0.0604  0.2559
 7648SOL    HW134406   1.072   3.298   9.008  2.2315  1.1046  0.7633
 7648SOL    HW234407   1.120   3.379   8.895 -3.2553  0.8225  1.7084
 7649SOL     OW34408   1.932   1.880   5.048 -0.4148 -0.5422 -0.4082
 7649SOL    HW134409   1.970   1.957   5.007  1.8404 -1.3647  0.1354
 7649SOL    HW234410   1.878   1.919   5.117 -0.5458  0.7763 -1.2630
 7650SOL     OW34411   2.929   4.670   0.101 -0.1008 -0.0816 -0.0109
 7650SOL    HW134412   2.985   4.603   0.063 -1.3154 -0.7517 -0.6152
 7650SOL    HW234413   2.874   4.693   0.026  2.4819 -0.0375 -1.8692
 7651SOL     OW34414   2.533   2.677   3.472  0.2188  0.3216  0.6803
 7651SOL    HW134415   2.571   2.598   3.434 -0.9701  0.0669  0.0192
 7651SOL    HW234416   2.607   2.706   3.525  0.8811 -1.5441  0.7917
 7652SOL     OW34417   1.241   2.000   6.004 -0.3847 -0.3501 -0.0535
 7652SOL    HW134418   1.233   1.915   6.047 -0.8990  0.2696  1.0614
 7652SOL    HW234419   1.150   2.028   5.988 -0.4300 -0.6726 -0.3472
 7653SOL     OW34420   1.244   3.870   2.977  0.2239  0.4159 -0.4082
 7653SOL    HW134421   1.271   3.779   2.974  0.6365  0.4730  2.2380
 7653SOL    HW234422   1.193   3.875   2.896 -1.8385 -1.4606  0.7812
 7654SOL     OW34423   0.409   1.983   4.787 -0.1040  0.2099  0.3123
 7654SOL    HW134424   0.415   2.076   4.809  1.4727  0.3970 -0.9483
 7654SOL    HW234425   0.478   1.972   4.721 -1.8562 -0.0651 -1.4661
 7655SOL     OW34426   1.826   3.606  14.050  0.1996 -0.2687 -0.1161
 7655SOL    HW134427   1.813   3.541  13.981  0.9001 -0.2687 -0.2480
 7655SOL    HW234428   1.871   3.544  14.106  2.4474  0.7047 -0.8148
 7656SOL     OW34429   3.629   1.940  13.573  0.5224 -0.0723  0.1057
 7656SOL    HW134430   3.633   2.007  13.505 -1.3193 -0.0378  0.0174
 7656SOL    HW234431   3.718   1.911  13.591  0.2373 -0.0370  1.5917
 7657SOL     OW34432   0.610   4.340   9.411 -0.1889  0.2467  0.0636
 7657SOL    HW134433   0.577   4.285   9.482  0.4414 -0.8947 -0.5266
 7657SOL    HW234434   0.584   4.292   9.332  0.0964  1.6271 -0.8740
 7658SOL     OW34435   0.907   0.469   2.465 -0.3301 -0.4674  0.2018
 7658SOL    HW134436   0.822   0.433   2.492  0.5417 -1.2352  1.9199
 7658SOL    HW234437   0.888   0.503   2.378 -1.5525 -0.0764  0.6211
 7659SOL     OW34438   0.856   3.419   6.415 -0.3094 -0.9414  0.1991
 7659SOL    HW134439   0.915   3.353   6.452 -0.2854 -0.9410  0.1607
 7659SOL    HW234440   0.871   3.394   6.324 -2.3080  1.2811 -0.7331
 7660SOL     OW34441   3.530   0.070   6.345 -0.5805 -0.8674  0.1799
 7660SOL    HW134442   3.539   0.099   6.436 -1.9412  0.1575 -0.0115
 7660SOL    HW234443   3.461   0.131   6.317 -0.0332  0.4101  1.5859
 7661SOL     OW34444   1.201   1.641  14.119  0.0950  0.2403  0.0744
 7661SOL    HW134445   1.267   1.580  14.087 -0.1596 -1.1465  2.2055
 7661SOL    HW234446   1.120   1.611  14.079 -1.0189 -0.4662  2.8784
 7662SOL     OW34447   4.330   2.830   0.760  0.3068 -0.3228  0.2021
 7662SOL    HW134448   4.336   2.745   0.805  3.5924  0.3459  1.0251
 7662SOL    HW234449   4.250   2.823   0.708 -0.2986 -0.6345  1.1921
 7663SOL     OW34450   4.380   1.060   2.372  0.4058  0.3271 -0.6363
 7663SOL    HW134451   4.327   1.140   2.368 -1.6289 -0.9369  1.3322
 7663SOL    HW234452   4.345   1.020   2.293 -1.1897 -0.1726  0.3313
 7664SOL     OW34453   2.092   1.497   1.637  0.0421  0.5974  0.0131
 7664SOL    HW134454   2.064   1.499   1.545 -0.9401 -0.9919  0.2962
 7664SOL    HW234455   2.174   1.457   1.609  0.5823  0.4096  1.8459
 7665SOL     OW34456   0.911   1.556   4.418  1.0005  0.0885  0.3587
 7665SOL    HW134457   0.865   1.472   4.413  1.3975 -0.1347  0.4803
 7665SOL    HW234458   0.991   1.536   4.370  0.3759 -1.3107 -0.1060
 7666SOL     OW34459   1.217   3.328  12.303 -0.2161  0.6735  0.3283
 7666SOL    HW134460   1.223   3.423  12.299  4.0899  0.2596 -1.8238
 7666SOL    HW234461   1.311   3.319  12.292 -0.1777  0.8072  0.5437
 7667SOL     OW34462   0.948   1.697   7.875  0.1841 -0.7386 -0.2177
 7667SOL    HW134463   0.916   1.625   7.930  0.6792 -0.9282 -0.1796
 7667SOL    HW234464   0.972   1.770   7.931 -2.3740 -1.7110  2.1436
 7668SOL     OW34465   0.774   4.452   1.920 -0.0771 -0.0779 -0.4315
 7668SOL    HW134466   0.787   4.366   1.961  2.5813  0.1257 -0.8664
 7668SOL    HW234467   0.759   4.515   1.990 -0.2940 -0.3431 -0.2409
 7669SOL     OW34468   2.703   1.812  14.292 -0.1412 -0.0644 -0.3406
 7669SOL    HW134469   2.702   1.739  14.230 -1.9820 -0.4272  0.1084
 7669SOL    HW234470   2.764   1.768  14.351  1.1883  0.2913 -1.4773
 7670SOL     OW34471   0.945   4.674  11.223  0.2514  0.3386  0.4507
 7670SOL    HW134472   1.033   4.679  11.260  1.1398  1.7453 -1.9181
 7670SOL    HW234473   0.965   4.663  11.131 -0.8291  1.2242  0.1055
 7671SOL     OW34474   2.791   3.091   0.932 -0.4902 -0.0221  0.3465
 7671SOL    HW134475   2.743   3.010   0.947 -1.0589  0.5245  1.5178
 7671SOL    HW234476   2.867   3.050   0.892 -0.2852 -0.0189  0.7242
 7672SOL     OW34477   0.846   0.374   0.720 -0.1970 -0.2280  1.0611
 7672SOL    HW134478   0.809   0.387   0.632  3.0839 -0.4289 -0.3192
 7672SOL    HW234479   0.857   0.460   0.761 -0.8260 -0.1671  1.1126
 7673SOL     OW34480   1.531   1.322  13.150  0.3602  0.4668 -0.6249
 7673SOL    HW134481   1.538   1.231  13.177 -0.3035  1.3233  2.4908
 7673SOL    HW234482   1.517   1.361  13.236 -1.0223 -0.6301 -0.3576
 7674SOL     OW34483   0.008   3.548   2.796  0.1234 -0.2814  0.2051
 7674SOL    HW134484   0.092   3.562   2.753 -0.6147  1.4475 -0.6636
 7674SOL    HW234485   4.669   3.564   2.726  0.6656  0.4473 -0.1029
 7675SOL     OW34486   2.788   0.060  13.893 -0.1473  0.6928  0.4688
 7675SOL    HW134487   2.858   0.042  13.955 -0.1390  1.8719  0.7947
 7675SOL    HW234488   2.712   0.042  13.948 -1.2967  0.8442 -1.0789
 7676SOL     OW34489   1.715   3.384   6.489 -0.5342 -0.5805  0.2593
 7676SOL    HW134490   1.727   3.450   6.557  0.2787  2.1997 -2.5940
 7676SOL    HW234491   1.690   3.434   6.412 -2.5369 -0.4649  0.9838
 7677SOL     OW34492   3.256   4.264   5.950  0.0318 -0.6529 -0.1590
 7677SOL    HW134493   3.325   4.330   5.945 -0.8906  0.2621 -0.7067
 7677SOL    HW234494   3.263   4.235   6.041 -3.0088  0.8843  0.5777
 7678SOL     OW34495   3.043   2.244   7.271 -0.4350  0.1825  0.2852
 7678SOL    HW134496   3.120   2.262   7.218  0.5334  0.1452  1.6763
 7678SOL    HW234497   3.043   2.319   7.331 -1.1422 -0.3639  0.9833
 7679SOL     OW34498   0.442   2.183  11.803 -0.1983 -0.5639  0.2430
 7679SOL    HW134499   0.460   2.116  11.737  1.4472  0.9528 -0.8424
 7679SOL    HW234500   0.496   2.153  11.876 -0.3153 -2.4797 -0.4755
 7680SOL     OW34501   1.089   4.057   8.947  0.2399  0.0559  0.1295
 7680SOL    HW134502   1.177   4.043   8.982  0.6701 -3.0698 -2.1918
 7680SOL    HW234503   1.108   4.027   8.858 -0.3306 -1.5892  0.5760
 7681SOL     OW34504   4.679   0.708   3.149  0.1485 -0.0351  0.1067
 7681SOL    HW134505   0.017   0.768   3.107  0.7039 -0.6550  0.0162
 7681SOL    HW234506   4.696   0.736   3.239  2.6438 -1.4815  0.0769
 7682SOL     OW34507   0.421   2.467  10.008 -0.7906 -0.2937 -0.2582
 7682SOL    HW134508   0.341   2.510   9.977 -1.0283 -0.0404  0.7115
 7682SOL    HW234509   0.388   2.420  10.084 -0.5238 -0.6944 -0.3911
 7683SOL     OW34510   0.013   0.869   8.308 -0.2112  0.4029  0.4795
 7683SOL    HW134511   0.013   0.833   8.219 -2.0368  2.6756 -0.4609
 7683SOL    HW234512   0.085   0.931   8.305  1.2380 -1.3209 -0.0731
 7684SOL     OW34513   2.621   2.748  11.707 -0.7769  0.0206  0.1432
 7684SOL    HW134514   2.603   2.744  11.801  1.2356  3.6032  0.6813
 7684SOL    HW234515   2.685   2.819  11.708  0.8863 -1.4882  1.0484
 7685SOL     OW34516   4.482   2.378  16.335  0.3519  0.2492  0.3920
 7685SOL    HW134517   4.432   2.307  16.295 -0.8592 -0.3606  2.9279
 7685SOL    HW234518   4.561   2.381  16.282  1.5996  0.1010  2.2138
 7686SOL     OW34519   2.979   3.866   5.050 -0.0007 -0.1192 -0.6365
 7686SOL    HW134520   2.999   3.933   5.115  0.8652 -0.9630 -0.0315
 7686SOL    HW234521   3.037   3.793   5.075 -0.8546 -0.8778 -0.8721
 7687SOL     OW34522   0.725   0.376   8.939 -0.1757  0.4722  0.1657
 7687SOL    HW134523   0.727   0.461   8.985  0.5503  0.1931  0.6455
 7687SOL    HW234524   0.780   0.391   8.863  1.0870 -2.8479  0.4548
 7688SOL     OW34525   0.490   3.752  15.374  0.5523 -0.2011  0.4141
 7688SOL    HW134526   0.553   3.787  15.437  0.8984 -0.9805  0.5059
 7688SOL    HW234527   0.541   3.678  15.342  1.0672  0.2781  0.1310
 7689SOL     OW34528   0.759   0.515  16.607  0.6652  0.7636 -0.4311
 7689SOL    HW134529   0.737   0.596  16.654 -0.5331 -1.0573  2.1191
 7689SOL    HW234530   0.724   0.526  16.519  1.3599 -0.6879 -0.8792
 7690SOL     OW34531   4.512   2.153  10.821 -0.3140  0.3152  0.3757
 7690SOL    HW134532   4.470   2.139  10.905  0.1534  2.4120  0.9583
 7690SOL    HW234533   4.520   2.061  10.795 -0.4501  0.2891  0.4256
 7691SOL     OW34534   3.329   2.933  14.719 -0.9056  0.4884  0.1436
 7691SOL    HW134535   3.370   2.929  14.632  0.4940  1.4688  0.7672
 7691SOL    HW234536   3.385   2.999  14.759 -1.3043  0.9000  0.0225
 7692SOL     OW34537   3.184   4.641   3.629  0.6302  0.9208  0.1942
 7692SOL    HW134538   3.133   4.696   3.570 -1.9129 -1.0305  0.5676
 7692SOL    HW234539   3.210   4.705   3.695  0.2983  0.6689  0.5781
 7693SOL     OW34540   2.243   3.937   3.891 -0.0379  0.1946 -0.1016
 7693SOL    HW134541   2.171   3.936   3.828 -1.3336  1.3628  1.3371
 7693SOL    HW234542   2.269   3.845   3.897 -0.8708  0.0519  1.4605
 7694SOL     OW34543   4.635   3.422   8.081 -0.1334  0.3267  0.5286
 7694SOL    HW134544   4.588   3.377   8.152  1.6361 -0.5365  1.1469
 7694SOL    HW234545   4.569   3.425   8.011  1.4584 -0.6463 -1.0229
 7695SOL     OW34546   1.258   0.124   6.547 -0.5856  0.0226 -0.0566
 7695SOL    HW134547   1.304   0.201   6.512  1.4268 -1.4303 -0.5759
 7695SOL    HW234548   1.182   0.126   6.488  0.1238  0.3063 -0.9684
 7696SOL     OW34549   3.421   1.627   9.394  0.2488  0.0456  0.0805
 7696SOL    HW134550   3.409   1.564   9.323 -2.1751  1.1371 -0.4724
 7696SOL    HW234551   3.446   1.573   9.469  0.8767 -1.1616 -1.0135
 7697SOL     OW34552   1.085   0.548   8.176  0.0370  0.1903  0.3916
 7697SOL    HW134553   1.025   0.622   8.166 -1.3303 -1.2259 -1.7049
 7697SOL    HW234554   1.107   0.563   8.268  0.3263 -0.1748  0.3847
 7698SOL     OW34555   3.248   0.837  11.029 -0.0237  0.0701 -0.2120
 7698SOL    HW134556   3.163   0.850  11.070  0.1939  2.1128 -0.4463
 7698SOL    HW234557   3.223   0.804  10.943 -0.5603  0.0300 -0.0409
 7699SOL     OW34558   0.571   2.714  16.926 -0.3639  0.4213  0.2774
 7699SOL    HW134559   0.647   2.656  16.930 -0.4705  0.4234  2.3615
 7699SOL    HW234560   0.529   2.707  17.012  0.3943 -0.8032  0.5470
 7700SOL     OW34561   1.279   3.448  16.486  0.0137 -0.0346  0.5298
 7700SOL    HW134562   1.258   3.542  16.487 -0.4425 -0.1338  0.6246
 7700SOL    HW234563   1.220   3.416  16.555  0.5529 -1.8592  0.1247
 7701SOL     OW34564   0.300   1.232  13.322 -0.1173 -0.1594 -0.0524
 7701SOL    HW134565   0.395   1.233  13.325 -0.2197  0.2875  2.8237
 7701SOL    HW234566   0.295   1.161  13.258  2.8168  0.4446 -0.9400
 7702SOL     OW34567   1.643   1.982  10.210  0.1084  0.4126  0.3909
 7702SOL    HW134568   1.605   1.897  10.190  2.4459 -0.3470 -0.8660
 7702SOL    HW234569   1.700   2.004  10.136 -1.0542 -0.3275 -0.7201
 7703SOL     OW34570   3.181   1.626   7.212 -0.3981  0.3761 -0.0710
 7703SOL    HW134571   3.198   1.720   7.210  0.6746  0.1726 -0.4660
 7703SOL    HW234572   3.164   1.598   7.122 -2.3928  1.7577 -0.1204
 7704SOL     OW34573   3.742   4.320   9.782  0.0421  0.0256 -0.0097
 7704SOL    HW134574   3.791   4.240   9.767  2.5972  1.6836 -0.4448
 7704SOL    HW234575   3.735   4.349   9.691 -3.0842 -0.7101 -0.0009
 7705SOL     OW34576   0.353   3.188   9.684 -0.2301 -0.2577  0.3654
 7705SOL    HW134577   0.324   3.148   9.765  1.6751 -1.0842  0.6479
 7705SOL    HW234578   0.294   3.263   9.694  0.2647 -0.1254  2.3984
 7706SOL     OW34579   2.482   3.539   6.372 -0.4317 -0.1629 -0.6947
 7706SOL    HW134580   2.484   3.635   6.369  0.0832 -0.1662 -0.4919
 7706SOL    HW234581   2.433   3.521   6.292  1.5064  0.2281 -1.9535
 7707SOL     OW34582   3.537   3.490  16.735 -0.4854 -0.1257  0.0085
 7707SOL    HW134583   3.474   3.446  16.679 -0.3227  3.3638 -2.9316
 7707SOL    HW234584   3.580   3.551  16.675  1.6999 -1.5497  0.1105
 7708SOL     OW34585   3.085   2.061   3.887  0.4043 -0.8444  0.3049
 7708SOL    HW134586   3.088   2.134   3.949 -0.5556 -0.7884  0.2927
 7708SOL    HW234587   3.169   2.057   3.842 -0.4017 -1.1792 -1.1741
 7709SOL     OW34588   0.971   2.678   2.645  0.1898  0.0803 -0.0870
 7709SOL    HW134589   0.942   2.757   2.599 -0.5301 -0.9592 -1.4337
 7709SOL    HW234590   0.912   2.608   2.615  0.6017 -0.9215  1.4421
 7710SOL     OW34591   2.587   4.612  14.036 -0.1527  0.0476 -0.1975
 7710SOL    HW134592   2.536   4.531  14.046  0.5986 -0.4878 -0.7313
 7710SOL    HW234593   2.671   4.568  14.028 -0.1060 -0.3219  2.1934
 7711SOL     OW34594   3.118   3.984   8.176 -0.5761 -0.3689 -0.0529
 7711SOL    HW134595   3.162   4.067   8.157 -3.1967  1.0882  0.2605
 7711SOL    HW234596   3.068   4.009   8.254 -1.9980 -1.3480 -0.6546
 7712SOL     OW34597   2.786   4.266   5.334 -0.4024  0.1033 -0.6216
 7712SOL    HW134598   2.861   4.319   5.362 -1.3165  0.5626  0.9221
 7712SOL    HW234599   2.770   4.311   5.251 -0.0951 -1.3385 -1.4605
 7713SOL     OW34600   0.435   2.968   1.001 -0.1347 -0.3073  0.2095
 7713SOL    HW134601   0.449   2.995   0.911 -0.5626 -0.1556  0.1891
 7713SOL    HW234602   0.499   2.896   1.004  0.3418  0.1394  0.8692
 7714SOL     OW34603   3.565   0.556  15.944 -0.4446  0.4000 -0.2288
 7714SOL    HW134604   3.472   0.534  15.937 -0.6369  0.8364  0.9903
 7714SOL    HW234605   3.577   0.624  15.878 -1.0467 -1.0434 -1.8256
 7715SOL     OW34606   0.558   2.924   5.108  0.2186  0.7126 -0.1433
 7715SOL    HW134607   0.632   2.864   5.100 -0.5093 -0.1055 -0.7570
 7715SOL    HW234608   0.603   3.001   5.142  0.8323 -0.9917  2.9851
 7716SOL     OW34609   4.669   3.418   8.470 -0.0962 -0.1882  0.1677
 7716SOL    HW134610   4.690   3.480   8.540  1.1445  0.4987 -0.8047
 7716SOL    HW234611   4.577   3.410   8.495 -0.5662  0.8477 -1.2044
 7717SOL     OW34612   3.150   4.273   5.481  0.2471 -0.3549  0.1457
 7717SOL    HW134613   3.214   4.335   5.447  1.3450 -2.3071 -1.3709
 7717SOL    HW234614   3.107   4.331   5.544  0.3031  0.3985 -0.5152
 7718SOL     OW34615   4.666   2.709  11.807 -0.0042 -0.1978 -0.1998
 7718SOL    HW134616   4.714   2.737  11.885 -0.3700 -0.5997  0.1703
 7718SOL    HW234617   4.626   2.791  11.778 -2.7399 -0.8359  1.7623
 7719SOL     OW34618   0.369   3.945   3.015  0.5306 -0.2340 -0.7591
 7719SOL    HW134619   0.448   3.996   3.034  1.2901 -1.8364  0.3345
 7719SOL    HW234620   0.376   3.879   3.083  0.6054 -2.0901 -2.5761
 7720SOL     OW34621   1.091   4.037  13.684  0.1352  0.6298 -0.7630
 7720SOL    HW134622   1.011   4.001  13.646  1.2470 -2.6173 -0.0339
 7720SOL    HW234623   1.108   3.970  13.751  3.2564  3.1631  0.9562
 7721SOL     OW34624   2.690   0.871   9.206 -0.2345  0.1265  0.3568
 7721SOL    HW134625   2.664   0.791   9.161  1.7953  0.6928 -1.8074
 7721SOL    HW234626   2.702   0.940   9.140 -0.2552 -1.8680 -1.7262
 7722SOL     OW34627   4.202   3.458   9.271 -0.0573  0.1195 -0.5226
 7722SOL    HW134628   4.265   3.510   9.222 -2.4372  3.6775  0.1495
 7722SOL    HW234629   4.136   3.438   9.204  0.1286  0.2717 -0.7517
 7723SOL     OW34630   0.331   3.584  10.178 -0.2822 -0.1039  0.6151
 7723SOL    HW134631   0.360   3.499  10.144 -0.0127  0.2816 -0.1151
 7723SOL    HW234632   0.292   3.547  10.258  0.9933  0.7445  1.6284
 7724SOL     OW34633   2.051   2.655   2.243 -0.2326  0.2232 -0.0740
 7724SOL    HW134634   2.127   2.612   2.281 -1.5323 -0.6804  1.4898
 7724SOL    HW234635   2.009   2.688   2.323 -4.8202 -0.0592 -2.3483
 7725SOL     OW34636   0.091   4.188   5.816  0.3758  0.4967  0.5606
 7725SOL    HW134637   0.119   4.121   5.754 -0.5341  1.9875 -1.4762
 7725SOL    HW234638   4.722   4.172   5.835  0.2282  0.8223  0.1264
 7726SOL     OW34639   4.116   0.773   3.291 -0.1279  0.1185  0.8888
 7726SOL    HW134640   4.138   0.688   3.330  2.1703  1.0253  1.5683
 7726SOL    HW234641   4.197   0.819   3.311 -0.3582  0.0397  1.9849
 7727SOL     OW34642   3.587   1.989  13.006 -0.2594  0.6352  0.2731
 7727SOL    HW134643   3.623   1.973  12.919 -0.4290 -1.1421  0.5141
 7727SOL    HW234644   3.501   1.948  12.994  2.7292 -4.9676 -2.0317
 7728SOL     OW34645   4.716   2.174  15.968 -0.6181 -0.1598 -0.4859
 7728SOL    HW134646   0.040   2.217  15.897  0.2932 -0.8973 -0.3361
 7728SOL    HW234647   0.059   2.111  15.998 -0.1331  1.0132  0.9565
 7729SOL     OW34648   2.586   2.814  11.985  0.0814  0.5191  0.1232
 7729SOL    HW134649   2.656   2.847  12.042  0.9597  0.2648 -0.8089
 7729SOL    HW234650   2.519   2.840  12.048 -0.7400 -0.1192 -0.4805
 7730SOL     OW34651   0.615   3.912   9.950  0.3584  0.2961  0.3406
 7730SOL    HW134652   0.643   4.003   9.941  0.1908  0.2850 -0.3063
 7730SOL    HW234653   0.520   3.917   9.963  0.5248 -0.2639  1.7668
 7731SOL     OW34654   1.807   0.229  12.491 -0.4436  0.0716  0.5816
 7731SOL    HW134655   1.868   0.180  12.545  0.2969  1.1445  0.7253
 7731SOL    HW234656   1.849   0.315  12.485  0.3710 -0.5045 -1.9952
 7732SOL     OW34657   2.557   3.302   4.730  1.0239  0.0637 -0.2886
 7732SOL    HW134658   2.573   3.272   4.640 -1.1118 -1.0321 -0.3099
 7732SOL    HW234659   2.591   3.391   4.728 -1.0408  0.9025  2.8882
 7733SOL     OW34660   3.729   0.429   6.048 -0.0925 -0.0012 -0.6102
 7733SOL    HW134661   3.727   0.468   6.135  3.4704  0.7656 -0.8702
 7733SOL    HW234662   3.765   0.343   6.072 -0.5913 -0.3737 -1.2056
 7734SOL     OW34663   3.191   1.996   6.946 -0.1580  0.2257 -0.0879
 7734SOL    HW134664   3.217   1.937   7.017 -1.2504 -1.0012 -0.7003
 7734SOL    HW234665   3.254   1.966   6.881  1.7471  2.0701  0.9004
 7735SOL     OW34666   0.298   2.637   8.419  1.2052 -0.4180  0.7271
 7735SOL    HW134667   0.209   2.603   8.417  0.6418  1.0903 -0.9868
 7735SOL    HW234668   0.279   2.729   8.437 -1.6703 -1.2146  1.7529
 7736SOL     OW34669   1.976   0.610  14.276  0.3435  0.1020  0.1809
 7736SOL    HW134670   1.884   0.600  14.253  0.1693 -2.2335  1.8206
 7736SOL    HW234671   2.014   0.550  14.212  1.2886  1.4221 -0.4926
 7737SOL     OW34672   2.482   1.115  14.829  0.3722 -0.0964  0.0274
 7737SOL    HW134673   2.455   1.034  14.785  1.0004 -0.0337 -0.4888
 7737SOL    HW234674   2.576   1.110  14.812  0.1109 -0.4934 -1.3673
 7738SOL     OW34675   2.113   2.532   8.401 -0.8607 -0.2251 -0.2654
 7738SOL    HW134676   2.134   2.451   8.447  0.4154  0.5848  0.5969
 7738SOL    HW234677   2.148   2.516   8.314  2.0925 -0.3761  0.9447
 7739SOL     OW34678   2.453   1.309   3.829  0.2474 -0.3940 -0.4671
 7739SOL    HW134679   2.388   1.367   3.789  0.1274 -0.3833 -0.2532
 7739SOL    HW234680   2.414   1.222   3.822  0.5677 -0.6735  1.4611
 7740SOL     OW34681   0.570   0.019   5.119 -0.1988 -0.3762 -0.2998
 7740SOL    HW134682   0.626   4.672   5.152 -0.4270 -0.1577  0.5667
 7740SOL    HW234683   0.494   4.697   5.083  0.8284 -0.6382 -2.1113
 7741SOL     OW34684   0.394   4.276   8.995  0.3858  0.3248 -0.6248
 7741SOL    HW134685   0.480   4.234   8.998  0.5577  0.6968 -0.1740
 7741SOL    HW234686   0.415   4.368   9.015  0.8366  0.2474 -0.7516
 7742SOL     OW34687   4.320   0.476   4.240  0.8018  0.4544 -0.6813
 7742SOL    HW134688   4.415   0.482   4.248  1.0533  0.1040 -3.5245
 7742SOL    HW234689   4.312   0.448   4.149  1.4180 -0.8479 -0.3364
 7743SOL     OW34690   3.477   2.877   4.450 -0.2405  0.2102 -0.1960
 7743SOL    HW134691   3.410   2.932   4.490  2.2665  1.0056  2.8919
 7743SOL    HW234692   3.500   2.929   4.372 -0.2273  1.3376  0.5584
 7744SOL     OW34693   2.508   0.089  16.068  0.2132  0.2388 -0.0539
 7744SOL    HW134694   2.599   0.064  16.086  0.1949 -0.0013 -0.2910
 7744SOL    HW234695   2.524   0.181  16.051 -1.1751  0.3280 -0.8526
 7745SOL     OW34696   3.092   0.580   4.572 -0.1942 -0.4810  0.2663
 7745SOL    HW134697   3.148   0.638   4.624 -2.7363 -1.0786  3.6384
 7745SOL    HW234698   3.150   0.508   4.548 -0.2384 -0.5880  0.4880
 7746SOL     OW34699   1.873   1.398   9.333 -0.0612 -0.6880 -0.0950
 7746SOL    HW134700   1.924   1.374   9.256 -0.5739 -0.3379 -0.5465
 7746SOL    HW234701   1.911   1.481   9.360 -1.6999 -0.1098  0.4474
 7747SOL     OW34702   3.138   2.547   8.754 -0.3418 -0.5561 -0.0616
 7747SOL    HW134703   3.143   2.599   8.673 -1.3254 -1.3081 -0.5967
 7747SOL    HW234704   3.161   2.457   8.730  0.2264 -0.3076 -0.4599
 7748SOL     OW34705   2.440   4.665   0.452  0.7066 -0.3173 -0.1355
 7748SOL    HW134706   2.418   4.598   0.516  1.6290 -2.1348 -1.6927
 7748SOL    HW234707   2.373   4.638   0.389  1.0596  0.2797 -0.7678
 7749SOL     OW34708   2.934   0.599  11.682  0.2605 -0.3495  0.0845
 7749SOL    HW134709   2.965   0.509  11.682 -0.7214 -0.6805 -2.1482
 7749SOL    HW234710   2.893   0.613  11.767  0.4920 -3.1350  0.6237
 7750SOL     OW34711   2.333   1.254   5.704  0.5314 -0.4032  0.2480
 7750SOL    HW134712   2.286   1.254   5.621  0.4494 -1.7392  0.2917
 7750SOL    HW234713   2.412   1.306   5.686  1.6020 -1.1966  2.5962
 7751SOL     OW34714   0.785   2.513   8.643 -0.0491  0.1949 -0.2076
 7751SOL    HW134715   0.698   2.548   8.658  0.3009  0.9714  0.0139
 7751SOL    HW234716   0.762   2.446   8.579 -1.6972  0.1091  0.4766
 7752SOL     OW34717   0.548   1.180   7.493 -0.1750 -0.3778 -0.1399
 7752SOL    HW134718   0.587   1.094   7.513 -0.6648 -0.6875 -0.5071
 7752SOL    HW234719   0.587   1.197   7.407  0.3853 -0.2051  0.1498
 7753SOL     OW34720   3.100   4.464  14.312 -0.7158 -0.0448  0.1257
 7753SOL    HW134721   3.179   4.493  14.265 -1.4599 -0.0820 -1.1521
 7753SOL    HW234722   3.129   4.447  14.401 -0.2977 -1.1048 -0.2056
 7754SOL     OW34723   3.385   3.687   7.867 -0.7329 -0.7034 -0.2078
 7754SOL    HW134724   3.326   3.645   7.804 -1.0340  0.5209 -0.7270
 7754SOL    HW234725   3.361   3.779   7.856 -0.8292 -0.4726  1.9491
 7755SOL     OW34726   4.201   4.486   8.632  0.0328  0.1067  0.3845
 7755SOL    HW134727   4.247   4.570   8.640  0.8624 -0.3453  0.3551
 7755SOL    HW234728   4.194   4.484   8.536 -4.2073  0.9463  0.6731
 7756SOL     OW34729   0.285   0.464   2.326 -0.4503 -0.1999  0.5104
 7756SOL    HW134730   0.325   0.403   2.264 -0.3561  2.2940 -1.8838
 7756SOL    HW234731   0.194   0.462   2.297  0.3647 -0.2078 -2.0500
 7757SOL     OW34732   0.117   1.473   6.804 -0.5480 -0.0598 -0.0047
 7757SOL    HW134733   0.127   1.399   6.862  0.9664  0.8489  0.8898
 7757SOL    HW234734   0.027   1.455   6.776 -0.5087  0.3784 -0.4235
 7758SOL     OW34735   3.944   4.146  16.673 -0.7243 -0.6522 -0.0699
 7758SOL    HW134736   3.881   4.211  16.640  1.1013  1.3961  0.4347
 7758SOL    HW234737   4.025   4.195  16.692  0.3059 -1.9323 -1.1943
 7759SOL     OW34738   4.697   1.196   5.390 -0.5625  0.1157  0.4453
 7759SOL    HW134739   0.008   1.273   5.437  0.1215 -0.5060  0.9715
 7759SOL    HW234740   4.665   1.236   5.309  1.0390  0.7533  0.1163
 7760SOL     OW34741   1.232   0.934   1.351 -0.1648  0.3234 -0.2922
 7760SOL    HW134742   1.215   0.841   1.341  1.8782 -0.0571 -0.1785
 7760SOL    HW234743   1.326   0.942   1.335 -0.3965  2.6392 -0.5274
 7761SOL     OW34744   3.301   2.445   3.524 -0.1452 -0.2245 -0.3246
 7761SOL    HW134745   3.224   2.443   3.581 -0.5975  1.5117 -0.8688
 7761SOL    HW234746   3.274   2.389   3.452 -0.2978  2.2609 -2.1802
 7762SOL     OW34747   0.959   4.155   0.491 -0.4692 -0.7701 -0.3990
 7762SOL    HW134748   0.925   4.235   0.531 -2.0217  0.1201 -3.5036
 7762SOL    HW234749   0.999   4.117   0.569 -3.9485  1.6871  2.5897
 7763SOL     OW34750   1.961   1.409   6.033  0.4357  0.7518 -0.4464
 7763SOL    HW134751   2.018   1.405   5.956 -0.2434 -1.4664 -0.8213
 7763SOL    HW234752   1.992   1.330   6.076 -0.8068  1.4509  1.7777
 7764SOL     OW34753   0.807   1.865   8.976  0.6986  0.7889 -0.3779
 7764SOL    HW134754   0.883   1.834   9.024 -1.3168 -1.4859  1.3233
 7764SOL    HW234755   0.847   1.951   8.968  1.3914  0.6125  1.3450
 7765SOL     OW34756   2.029   0.201   3.999 -0.4595  0.5649  0.0212
 7765SOL    HW134757   2.029   0.254   3.919  0.6461 -1.7804 -1.5747
 7765SOL    HW234758   2.113   0.210   4.045 -0.9477 -2.7258  1.5282
 7766SOL     OW34759   3.611   1.967  10.621 -0.5444 -0.0217 -0.5089
 7766SOL    HW134760   3.590   2.050  10.663 -0.5208 -0.6092  0.6556
 7766SOL    HW234761   3.545   1.907  10.655  1.1090 -0.1524  2.4473
 7767SOL     OW34762   2.667   1.114   6.475  0.4400  0.2399 -0.1423
 7767SOL    HW134763   2.599   1.181   6.467 -1.4937 -1.6679  0.4143
 7767SOL    HW234764   2.609   1.040   6.455  1.0057 -0.5112  1.0297
 7768SOL     OW34765   1.527   2.361  15.392 -0.4222  0.1162 -0.3683
 7768SOL    HW134766   1.443   2.329  15.360  0.1895  0.0188 -1.8860
 7768SOL    HW234767   1.581   2.352  15.313 -2.1851 -1.9743 -1.3222
 7769SOL     OW34768   4.662   1.353   8.124 -0.0450  0.1048 -0.3296
 7769SOL    HW134769   4.717   1.276   8.110  0.2067  0.2375 -0.0686
 7769SOL    HW234770   4.629   1.356   8.034  0.1649 -0.8195 -0.4394
 7770SOL     OW34771   0.911   0.556  10.988  0.0933 -0.8509 -0.3376
 7770SOL    HW134772   0.958   0.513  11.060 -0.3236 -0.0125  0.4278
 7770SOL    HW234773   0.839   0.493  10.992 -2.0081  1.5838  0.0546
 7771SOL     OW34774   3.316   0.576  12.745  0.3482 -0.3687  0.1052
 7771SOL    HW134775   3.298   0.631  12.669  2.3132  1.6506  1.0897
 7771SOL    HW234776   3.354   0.639  12.807  0.2008  1.2701 -1.4795
 7772SOL     OW34777   0.986   3.453  14.573  0.1736  0.1658 -0.3352
 7772SOL    HW134778   0.969   3.362  14.598  2.3893  0.2682  1.6087
 7772SOL    HW234779   1.074   3.458  14.611  0.9768 -1.1978 -2.0537
 7773SOL     OW34780   2.934   4.025   1.423 -0.0379  0.1796  0.0068
 7773SOL    HW134781   2.864   4.080   1.388 -0.4813  1.8224  3.4633
 7773SOL    HW234782   2.959   4.083   1.495 -4.1752 -0.3412  1.8802
 7774SOL     OW34783   0.143   4.111  15.644  0.1719  0.0351  0.2960
 7774SOL    HW134784   0.237   4.096  15.640 -0.0301 -0.4554 -2.6344
 7774SOL    HW234785   0.109   4.023  15.631 -1.7998  0.8601 -0.0674
 7775SOL     OW34786   0.021   1.293   5.021 -0.2390 -0.4079 -0.3459
 7775SOL    HW134787   0.008   1.388   5.021 -0.6477 -0.4627  0.1497
 7775SOL    HW234788   4.685   1.277   4.947 -0.6398 -0.0026 -0.1151
 7776SOL     OW34789   4.653   3.214   2.283 -0.3877 -0.1014 -0.7124
 7776SOL    HW134790   0.000   3.197   2.345 -1.3316 -2.3425 -0.2739
 7776SOL    HW234791   4.663   3.307   2.261 -1.5307  0.0039 -0.8138
 7777SOL     OW34792   3.403   0.095   3.064  0.2389  0.0528 -0.7280
 7777SOL    HW134793   3.335   0.163   3.057  1.5168  1.8015  3.9071
 7777SOL    HW234794   3.367   0.056   3.144 -2.5071  2.6161 -0.7150
 7778SOL     OW34795   2.639   2.808   4.771  0.2772 -0.1870  0.2266
 7778SOL    HW134796   2.629   2.864   4.848  0.4517 -2.3319  1.8137
 7778SOL    HW234797   2.655   2.874   4.704 -3.0961 -1.3549 -1.7493
 7779SOL     OW34798   4.394   4.131  14.433 -0.0041 -0.3492 -0.0239
 7779SOL    HW134799   4.389   4.037  14.448  2.3687 -0.7780 -1.9675
 7779SOL    HW234800   4.312   4.136  14.383 -1.0012 -0.6639  1.5723
 7780SOL     OW34801   4.281   2.578   4.343 -0.1131  0.4735  0.5603
 7780SOL    HW134802   4.357   2.521   4.360  0.4691  0.7243 -1.2362
 7780SOL    HW234803   4.260   2.603   4.433  1.3025 -1.2215  1.3638
 7781SOL     OW34804   1.885   3.251   8.893  0.6412  0.0278 -0.0537
 7781SOL    HW134805   1.892   3.215   8.805 -0.0786  0.3029 -0.2235
 7781SOL    HW234806   1.959   3.212   8.941  0.2769 -1.2913 -0.5593
 7782SOL     OW34807   0.743   2.909   5.965  0.3594  0.1557  0.5587
 7782SOL    HW134808   0.773   2.953   6.045  1.9587 -1.9324  1.0807
 7782SOL    HW234809   0.719   2.822   5.997 -0.2435  0.5301  1.1340
 7783SOL     OW34810   2.413   2.197  11.829  0.5087  0.4970  0.3020
 7783SOL    HW134811   2.325   2.181  11.795  0.6580  1.1814 -0.4131
 7783SOL    HW234812   2.428   2.124  11.889 -1.1204 -1.1673 -1.3223
 7784SOL     OW34813   3.736   3.948  16.707 -0.1171  0.2071 -0.2949
 7784SOL    HW134814   3.827   3.950  16.736 -0.1980  1.8007 -0.1740
 7784SOL    HW234815   3.747   3.940  16.613  1.9231  2.1137 -0.2102
 7785SOL     OW34816   3.738   1.046   3.642  0.5001  0.4069  0.2948
 7785SOL    HW134817   3.758   0.972   3.701  0.4671 -0.5349 -0.8868
 7785SOL    HW234818   3.776   1.016   3.560 -0.4492  2.1566 -0.7670
 7786SOL     OW34819   0.291   4.675   4.106  0.0149  0.1221 -0.2813
 7786SOL    HW134820   0.202   4.707   4.093 -0.8026 -1.3321  1.7864
 7786SOL    HW234821   0.319   4.678   4.014 -0.8656  1.4847 -0.5043
 7787SOL     OW34822   2.060   4.131  14.416 -0.4102 -0.1753  0.1965
 7787SOL    HW134823   2.122   4.164  14.351 -0.5910 -1.2841 -0.5504
 7787SOL    HW234824   2.007   4.075  14.358  0.6991  1.0823 -2.0387
 7788SOL     OW34825   0.088   2.152   8.639  0.4435  0.1904 -0.2978
 7788SOL    HW134826   0.085   2.097   8.717  0.5483  1.2345  0.4398
 7788SOL    HW234827   0.079   2.237   8.683  1.2413  1.3413 -2.3366
 7789SOL     OW34828   0.145   4.240   9.748 -0.4047  0.4322 -0.3733
 7789SOL    HW134829   0.111   4.155   9.722  0.4734 -0.0200 -0.0537
 7789SOL    HW234830   0.109   4.290   9.675 -0.6490 -0.3514 -0.7883
 7790SOL     OW34831   2.411   2.909  13.062 -0.3304  0.2476 -0.2164
 7790SOL    HW134832   2.325   2.892  13.025 -2.2273 -0.5320  4.5440
 7790SOL    HW234833   2.429   3.002  13.045 -0.8812  0.1648 -1.2419
 7791SOL     OW34834   3.729   1.702   4.270 -0.1082 -0.1862  0.2078
 7791SOL    HW134835   3.781   1.713   4.190  2.1641 -0.5272  1.6501
 7791SOL    HW234836   3.645   1.716   4.227  0.2780  1.2187 -0.1096
 7792SOL     OW34837   1.822   1.839   3.653  0.3876  0.0411 -1.1648
 7792SOL    HW134838   1.727   1.849   3.658  0.4101 -0.3521  0.0546
 7792SOL    HW234839   1.832   1.746   3.672  3.5264  0.5290 -0.4964
 7793SOL     OW34840   2.185   4.517   0.369  0.8033 -0.5916 -0.0209
 7793SOL    HW134841   2.223   4.481   0.449 -2.6914 -2.5031  0.7786
 7793SOL    HW234842   2.206   4.453   0.301  0.5495 -0.7610  0.0606
 7794SOL     OW34843   2.933   0.275  15.330  0.2720  0.0640 -0.1316
 7794SOL    HW134844   2.918   0.247  15.420 -1.5764 -1.3862 -0.9144
 7794SOL    HW234845   2.842   0.296  15.312  0.2326 -1.3831 -1.5811
 7795SOL     OW34846   4.132   3.636   2.588 -0.5146  0.2113  0.0491
 7795SOL    HW134847   4.131   3.684   2.671 -1.5378 -1.2031  0.8495
 7795SOL    HW234848   4.066   3.684   2.538 -0.6079  1.4307  1.3685
 7796SOL     OW34849   3.781   1.744   5.402  0.1611  0.4087 -0.3951
 7796SOL    HW134850   3.826   1.754   5.319  1.0313 -2.5552 -0.2893
 7796SOL    HW234851   3.689   1.761   5.383 -0.4041 -0.4282  1.5965
 7797SOL     OW34852   0.157   3.369   9.765  0.0026 -0.1698  0.1234
 7797SOL    HW134853   0.220   3.425   9.809 -1.1473  0.4976  0.9337
 7797SOL    HW234854   0.076   3.417   9.783  1.7289  2.1587  1.5534
 7798SOL     OW34855   1.990   3.276   8.259  0.2433 -0.4521  0.1585
 7798SOL    HW134856   1.927   3.220   8.306 -1.5135 -0.7399 -2.5350
 7798SOL    HW234857   1.930   3.323   8.201 -0.0872 -0.9245  0.1210
 7799SOL     OW34858   0.145   4.687   7.112  0.0487 -0.6178  0.0588
 7799SOL    HW134859   0.096   0.045   7.098  0.4916  0.2944  3.9531
 7799SOL    HW234860   0.200   4.706   7.188 -0.8773  0.2288  0.5236
 7800SOL     OW34861   1.660   2.360  11.772 -0.1697  0.4830  0.2941
 7800SOL    HW134862   1.596   2.336  11.840 -0.5033 -0.6231 -0.4171
 7800SOL    HW234863   1.601   2.374  11.699 -2.0997 -0.6812  1.6057
 7801SOL     OW34864   3.429   1.277   9.724 -0.7998 -0.0450 -0.0654
 7801SOL    HW134865   3.477   1.274   9.806 -1.1159 -0.1871  0.1129
 7801SOL    HW234866   3.478   1.213   9.672 -2.4563 -0.1282 -1.5153
 7802SOL     OW34867   0.673   2.972  13.311  0.0684 -0.3089 -0.0149
 7802SOL    HW134868   0.602   3.029  13.341  0.6229 -1.1320  2.8219
 7802SOL    HW234869   0.744   3.026  13.346 -0.7115  3.0343 -3.5807
 7803SOL     OW34870   3.392   1.105   4.090  0.4025  0.1003 -0.0389
 7803SOL    HW134871   3.303   1.071   4.098 -0.1631  0.8535 -3.0557
 7803SOL    HW234872   3.386   1.198   4.109 -0.6619  0.2276 -0.9890
 7804SOL     OW34873   3.483   1.658  14.097  0.1852  0.1109  0.4833
 7804SOL    HW134874   3.568   1.622  14.123 -0.8020 -1.7230  1.0987
 7804SOL    HW234875   3.491   1.643  14.003 -0.5469 -1.5873  0.7012
 7805SOL     OW34876   1.295   3.608  16.148  0.1097  0.6748 -0.4637
 7805SOL    HW134877   1.218   3.589  16.094 -0.6311  0.7609  0.5832
 7805SOL    HW234878   1.329   3.689  16.111  0.2845  0.3294 -1.0588
 7806SOL     OW34879   3.047   3.964   2.435 -0.2651  0.2769 -0.4647
 7806SOL    HW134880   3.000   3.881   2.423  2.5275 -1.7470  2.6787
 7806SOL    HW234881   2.980   4.014   2.482 -1.6984 -3.2697  1.3000
 7807SOL     OW34882   4.126   3.784   7.510  0.1344  0.0848  0.2354
 7807SOL    HW134883   4.214   3.801   7.542  0.6968  1.3181 -1.9674
 7807SOL    HW234884   4.114   3.691   7.528  2.2655 -0.1097  0.6020
 7808SOL     OW34885   2.540   2.484   0.558  0.6776 -0.3674 -0.2140
 7808SOL    HW134886   2.465   2.528   0.599  0.6206 -1.2415  0.6254
 7808SOL    HW234887   2.552   2.425   0.632  0.5349  1.5936  1.3630
 7809SOL     OW34888   3.831   4.636   5.485  0.8441 -0.3631  0.6225
 7809SOL    HW134889   3.852   4.552   5.444 -1.0817 -0.1754 -0.7780
 7809SOL    HW234890   3.904   4.687   5.451  0.3599  0.2118  0.4461
 7810SOL     OW34891   1.206   3.482   0.676  0.1638  0.0896  0.2647
 7810SOL    HW134892   1.228   3.542   0.605  1.7720  2.3468  2.6463
 7810SOL    HW234893   1.292   3.455   0.706 -0.4951 -2.0336  0.2252
 7811SOL     OW34894   3.390   0.597  13.849 -0.0392  0.9275 -0.2800
 7811SOL    HW134895   3.332   0.642  13.911 -0.2021  0.6097 -0.2008
 7811SOL    HW234896   3.341   0.572  13.771 -2.2185 -1.0508  1.7376
 7812SOL     OW34897   2.987   4.662   8.757 -0.4888 -0.3663 -0.0358
 7812SOL    HW134898   2.994   4.597   8.688 -0.1711 -0.5248  0.1457
 7812SOL    HW234899   3.061   4.642   8.814  0.0081  0.4554 -0.3902
 7813SOL     OW34900   1.830   1.810   1.330  0.3252 -0.5421 -0.2324
 7813SOL    HW134901   1.840   1.820   1.235  1.3910 -2.3245 -0.2935
 7813SOL    HW234902   1.766   1.879   1.349  1.2197  0.6731 -1.5559
 7814SOL     OW34903   2.010   0.236   9.269  0.3842 -0.0898  0.2048
 7814SOL    HW134904   1.991   0.270   9.357 -0.7060  0.3890 -0.2254
 7814SOL    HW234905   2.073   0.297   9.231  0.1220  0.1743  0.1993
 7815SOL     OW34906   1.879   1.129   5.615 -0.4143  0.1359 -0.1882
 7815SOL    HW134907   1.787   1.105   5.601 -0.5470  0.9281 -0.6657
 7815SOL    HW234908   1.937   1.053   5.625 -0.6071 -0.1513 -1.2705
 7816SOL     OW34909   1.619   2.138   6.198  0.7034 -0.4347 -0.2219
 7816SOL    HW134910   1.525   2.152   6.191  0.9397  0.9014 -0.7450
 7816SOL    HW234911   1.628   2.050   6.162 -0.6002 -0.9866  0.8040
 7817SOL     OW34912   3.120   2.899   5.227 -0.0890 -0.3890 -0.0755
 7817SOL    HW134913   3.078   2.978   5.192 -2.2346 -0.1099  3.1557
 7817SOL    HW234914   3.064   2.835   5.182  0.0316 -2.0074  2.0920
 7818SOL     OW34915   4.691   1.890   6.705  0.2134  0.5836  0.3168
 7818SOL    HW134916   0.003   1.879   6.617 -1.3692 -2.0925  0.0144
 7818SOL    HW234917   4.608   1.843   6.699  0.7323 -0.5336  1.7734
 7819SOL     OW34918   0.053   1.073  16.705 -0.1678  0.2785 -0.2574
 7819SOL    HW134919   0.065   1.010  16.634 -0.8512  1.2835 -1.2770
 7819SOL    HW234920   0.019   1.142  16.648  1.2496  0.8092 -0.4448
 7820SOL     OW34921   2.916   2.082   7.019  0.1518  0.6701 -0.6353
 7820SOL    HW134922   2.912   2.038   7.105  0.4493 -2.3219 -2.1410
 7820SOL    HW234923   3.011   2.076   7.005 -0.2751 -1.4839 -2.5523
 7821SOL     OW34924   0.880   0.274   1.240 -0.1069 -0.5575 -0.7888
 7821SOL    HW134925   0.856   0.363   1.215 -0.6741 -0.7260 -0.8513
 7821SOL    HW234926   0.936   0.251   1.166 -2.0304  0.0546 -2.4140
 7822SOL     OW34927   0.730   3.136   0.537 -0.0413  0.2088 -0.4433
 7822SOL    HW134928   0.779   3.077   0.478 -0.4485 -1.2881  0.7337
 7822SOL    HW234929   0.734   3.090   0.620 -3.0197  1.5461  0.4026
 7823SOL     OW34930   1.707   3.791   4.579 -0.1488  0.2756  0.4047
 7823SOL    HW134931   1.617   3.792   4.610 -0.6865 -0.1907 -1.1613
 7823SOL    HW234932   1.721   3.700   4.553 -1.7927  0.4151 -0.9498
 7824SOL     OW34933   4.135   4.720   3.620 -0.2579  0.7304 -0.1077
 7824SOL    HW134934   4.161   4.655   3.685  0.4622  0.0555 -1.0822
 7824SOL    HW234935   4.128   4.661   3.546  0.3624  1.8632 -1.0727
 7825SOL     OW34936   0.492   2.038   5.969 -0.3271 -0.3736  0.4171
 7825SOL    HW134937   0.459   1.951   5.946 -0.9829  0.0696 -0.2902
 7825SOL    HW234938   0.494   2.038   6.065  1.1154  0.9254  0.3771
 7826SOL     OW34939   2.060   1.386  10.199  0.7496  0.6171 -0.2946
 7826SOL    HW134940   2.066   1.446  10.124  1.5639  1.6809  0.6360
 7826SOL    HW234941   1.966   1.367  10.199  0.9941 -0.6332  0.0436
 7827SOL     OW34942   2.796   1.614   7.324  0.5151 -0.1134 -0.4237
 7827SOL    HW134943   2.845   1.534   7.345  0.0039 -0.8265 -1.9984
 7827SOL    HW234944   2.789   1.655   7.411  1.1436  0.3189 -0.5845
 7828SOL     OW34945   1.495   4.054   6.709  0.0858  0.2002 -0.1752
 7828SOL    HW134946   1.481   4.091   6.622  0.9784 -0.8724 -0.7806
 7828SOL    HW234947   1.424   3.990   6.718  0.4097 -0.3026 -1.2486
 7829SOL     OW34948   4.183   1.880   4.172 -0.1242  0.3331 -0.3747
 7829SOL    HW134949   4.116   1.920   4.116 -1.2865  1.4322  1.7851
 7829SOL    HW234950   4.129   1.851   4.245 -1.8137 -1.0661 -2.1958
 7830SOL     OW34951   3.417   2.677   3.636  0.0434 -0.5826 -0.0042
 7830SOL    HW134952   3.507   2.703   3.614 -0.9802  0.6285 -2.8941
 7830SOL    HW234953   3.413   2.596   3.586 -2.7564 -0.6448  0.3279
 7831SOL     OW34954   2.449   0.972   6.413  0.2081 -0.2140 -0.0561
 7831SOL    HW134955   2.464   0.884   6.448  1.2889  0.3435  0.9104
 7831SOL    HW234956   2.372   0.968   6.358 -0.9864  0.8144  1.5190
 7832SOL     OW34957   2.591   2.022   5.020  0.1813 -0.3226 -0.1998
 7832SOL    HW134958   2.599   2.105   4.975  1.1613  0.0563  0.6723
 7832SOL    HW234959   2.680   1.987   5.011  0.4130 -0.4011  2.3942
 7833SOL     OW34960   1.174   1.020   3.001 -0.3655  0.2596  0.3243
 7833SOL    HW134961   1.169   0.979   2.914  2.5155 -1.3269  0.8922
 7833SOL    HW234962   1.155   0.943   3.055  0.7490  0.6505  1.2839
 7834SOL     OW34963   3.322   0.401   8.212 -0.5456  0.3569 -0.6235
 7834SOL    HW134964   3.373   0.357   8.144 -3.1810 -2.0418 -1.0560
 7834SOL    HW234965   3.307   0.487   8.173  1.6264  0.2791 -1.5892
 7835SOL     OW34966   1.118   4.438   8.894  0.0527  0.0145  0.3230
 7835SOL    HW134967   1.129   4.392   8.977 -0.0270 -2.9540 -1.3089
 7835SOL    HW234968   1.051   4.382   8.856  1.2501 -1.3575  0.2243
 7836SOL     OW34969   3.758   2.177   4.252 -0.0461 -0.0653 -0.0123
 7836SOL    HW134970   3.666   2.203   4.247 -0.5233 -2.0504 -1.3729
 7836SOL    HW234971   3.789   2.115   4.187 -2.0680  0.1798 -1.2050
 7837SOL     OW34972   3.623   4.483   8.827  0.0940  0.2402  0.7143
 7837SOL    HW134973   3.599   4.412   8.887 -0.1525  0.2230  0.5959
 7837SOL    HW234974   3.718   4.487   8.818 -0.1595 -0.0139 -1.9401
 7838SOL     OW34975   3.100   0.923  15.649  0.0068  0.3128  0.1687
 7838SOL    HW134976   3.178   0.894  15.697  0.2779  0.2010 -0.3360
 7838SOL    HW234977   3.032   0.885  15.705 -1.0931  1.8042 -0.1558
 7839SOL     OW34978   1.890   3.978   4.614  0.3231  0.6532  0.5153
 7839SOL    HW134979   1.853   4.049   4.562  0.6069 -0.0876 -0.6903
 7839SOL    HW234980   1.829   3.905   4.602  2.4777 -1.2117  0.6921
 7840SOL     OW34981   2.855   1.838   6.577 -0.1329  0.2337  0.0777
 7840SOL    HW134982   2.941   1.879   6.589 -0.1709 -0.1414  1.5849
 7840SOL    HW234983   2.875   1.753   6.537  0.1363 -0.4977  1.7638
 7841SOL     OW34984   3.747   1.519   8.395  0.0810 -0.4463 -0.2063
 7841SOL    HW134985   3.696   1.599   8.381  1.4696  0.9684  2.6964
 7841SOL    HW234986   3.776   1.530   8.485 -2.2725  1.0085  0.3667
 7842SOL     OW34987   3.185   2.553  17.577  0.3677  0.0420  0.4095
 7842SOL    HW134988   3.229   2.606  17.511 -1.5790  0.4031 -0.5936
 7842SOL    HW234989   3.195   2.615  17.649 -1.3932 -0.3146  0.9569
 7843SOL     OW34990   0.746   2.824   8.271 -0.0169  0.1290  0.2563
 7843SOL    HW134991   0.715   2.826   8.361 -0.1687 -0.6497  0.2246
 7843SOL    HW234992   0.667   2.779   8.239  1.0882 -0.6810 -1.3643
 7844SOL     OW34993   4.545   2.672   4.655 -0.3808  0.1614  0.5205
 7844SOL    HW134994   4.576   2.721   4.732 -1.7342  1.3571  0.3020
 7844SOL    HW234995   4.457   2.637   4.667 -0.3366 -0.3744 -0.7353
 7845SOL     OW34996   1.716   3.616   1.174  0.7217  0.2543 -0.0681
 7845SOL    HW134997   1.672   3.593   1.256 -2.3475  1.7486 -1.3024
 7845SOL    HW234998   1.806   3.610   1.206  0.8743  2.6117 -0.0372
 7846SOL     OW34999   4.160   1.587   7.863 -0.4799  0.4030 -0.0730
 7846SOL    HW135000   4.155   1.663   7.922  1.2755 -0.6200  1.4130
 7846SOL    HW235001   4.080   1.540   7.887 -0.3620  0.8941  1.2776
 7847SOL     OW35002   2.557   1.824   3.023 -0.7934  0.1065  0.0528
 7847SOL    HW135003   2.532   1.884   2.953  0.7270 -0.3732 -0.8994
 7847SOL    HW235004   2.473   1.783   3.045 -1.2478  0.4250 -1.1077
 7848SOL     OW35005   3.124   4.681  10.223  0.0604 -0.5515 -0.1893
 7848SOL    HW135006   3.195   4.665  10.161 -1.3550  0.1647 -2.0188
 7848SOL    HW235007   3.125   4.600  10.274 -0.2798  1.3578  2.8577
 7849SOL     OW35008   0.898   1.351   7.928 -0.9518  0.1295 -0.1577
 7849SOL    HW135009   0.842   1.310   7.993  0.1672  1.8601  1.8915
 7849SOL    HW235010   0.839   1.415   7.888  0.3960  0.4560 -1.6320
 7850SOL     OW35011   3.825   4.251   4.364 -0.4310 -0.8503  0.3186
 7850SOL    HW135012   3.864   4.289   4.285 -0.1640  0.5115  1.1008
 7850SOL    HW235013   3.791   4.168   4.331  1.1504 -1.2215 -0.3724
 7851SOL     OW35014   0.914   3.623   9.859 -0.0830 -0.4838 -0.0290
 7851SOL    HW135015   0.950   3.683   9.793  1.2850  0.0935  1.2396
 7851SOL    HW235016   0.993   3.608   9.912 -0.4909 -1.0097  0.4242
 7852SOL     OW35017   4.299   1.323   6.610  0.2804 -0.4128  0.8705
 7852SOL    HW135018   4.221   1.378   6.617  0.0257 -0.6979  0.2324
 7852SOL    HW235019   4.275   1.265   6.538 -0.5946  2.0114 -0.7393
 7853SOL     OW35020   4.685   3.807  16.823  0.3965  0.5333 -0.2648
 7853SOL    HW135021   4.685   3.827  16.729 -1.1129  1.5959 -0.0496
 7853SOL    HW235022   4.701   3.713  16.827 -0.5227  0.3881 -0.0262
 7854SOL     OW35023   2.125   0.753   4.832  0.1435  0.7159 -0.5089
 7854SOL    HW135024   2.042   0.789   4.864  0.6454  1.3858  0.0310
 7854SOL    HW235025   2.174   0.773   4.911  0.9082  1.3557 -1.1507
 7855SOL     OW35026   3.135   3.944   7.727 -0.4513  0.0227 -0.1448
 7855SOL    HW135027   3.127   4.013   7.794 -1.4426 -0.6859  0.4682
 7855SOL    HW235028   3.077   3.989   7.666 -1.4475 -1.3309 -0.1748
 7856SOL     OW35029   2.985   1.992   3.257 -0.2003 -0.0583  0.3520
 7856SOL    HW135030   3.072   2.017   3.225 -0.1411 -1.6498 -0.7377
 7856SOL    HW235031   2.927   2.009   3.183 -0.3759 -0.7833  0.3239
 7857SOL     OW35032   1.658   2.915   1.927 -0.0518  0.2153 -0.2259
 7857SOL    HW135033   1.693   2.917   1.838 -1.6079  0.5992 -0.8325
 7857SOL    HW235034   1.609   2.833   1.924  1.2775 -0.5550 -1.4504
 7858SOL     OW35035   1.401   4.406   6.349 -0.0346 -0.4752 -0.5003
 7858SOL    HW135036   1.354   4.358   6.417 -0.9478 -0.2143 -0.9509
 7858SOL    HW235037   1.440   4.469   6.410  0.4591 -0.0757 -1.2210
 7859SOL     OW35038   2.979   1.774  10.424 -0.6113 -0.3125  0.0939
 7859SOL    HW135039   3.037   1.812  10.490 -2.0172  0.9835  0.5558
 7859SOL    HW235040   3.002   1.815  10.341 -0.3694  0.9676  0.8026
 7860SOL     OW35041   1.113   1.291  12.649  0.7774 -0.5855  0.1708
 7860SOL    HW135042   1.153   1.264  12.566  1.3990 -0.7485  0.5265
 7860SOL    HW235043   1.021   1.275  12.627  0.3724  1.5575  0.3427
 7861SOL     OW35044   1.986   2.105   8.778 -0.0951 -0.1049 -0.2803
 7861SOL    HW135045   1.979   2.198   8.755  2.8178  0.6399  1.8637
 7861SOL    HW235046   1.973   2.108   8.873  0.2259 -1.1942 -0.2128
 7862SOL     OW35047   0.921   0.088   6.999  0.1577  0.5901  0.0665
 7862SOL    HW135048   0.980   0.086   6.924  1.1569  0.0455  0.8594
 7862SOL    HW235049   0.852   0.028   6.971  1.3510 -1.0939  0.6768
 7863SOL     OW35050   2.416   0.033   9.302  0.2199 -1.1004 -0.0179
 7863SOL    HW135051   2.477   0.004   9.233  2.4886  0.1837  1.4504
 7863SOL    HW235052   2.366   4.674   9.308 -2.5888  0.7281  1.3086
 7864SOL     OW35053   4.214   2.195   9.076  0.0265 -0.3715 -0.0732
 7864SOL    HW135054   4.276   2.266   9.094  0.7616 -0.6659 -1.5143
 7864SOL    HW235055   4.130   2.242   9.073 -0.1814 -0.4602  4.1864
 7865SOL     OW35056   4.668   4.035  15.851 -0.0438 -0.3080 -0.0183
 7865SOL    HW135057   4.576   4.033  15.824  0.0256 -1.4982 -0.1683
 7865SOL    HW235058   4.704   4.000  15.769 -1.3637 -1.6659 -0.0190
 7866SOL     OW35059   3.686   0.343   7.556  0.3375  0.0577  0.0800
 7866SOL    HW135060   3.717   0.257   7.529  1.0457  1.3256 -3.0956
 7866SOL    HW235061   3.749   0.362   7.626 -0.1997  0.9262  0.3290
 7867SOL     OW35062   2.902   1.744   2.025  0.3776  0.1501 -0.1978
 7867SOL    HW135063   2.891   1.802   1.950 -0.1830 -0.1930 -0.3781
 7867SOL    HW235064   2.811   1.737   2.055  0.1348  1.7841 -0.5265
 7868SOL     OW35065   3.214   2.234  14.982 -0.2395 -0.4287  0.0793
 7868SOL    HW135066   3.171   2.159  15.022  1.0939 -0.0922  2.1797
 7868SOL    HW235067   3.143   2.279  14.936 -1.7439 -2.4335  0.4673
 7869SOL     OW35068   1.556   2.861   6.187 -0.2478  0.3806  0.0109
 7869SOL    HW135069   1.618   2.859   6.260 -0.5424  0.4130  0.2620
 7869SOL    HW235070   1.510   2.778   6.201  0.4355 -0.2817 -1.6872
 7870SOL     OW35071   1.989   2.657   3.087  0.5250 -0.1367  0.2395
 7870SOL    HW135072   2.075   2.640   3.048  0.4096 -0.3634  0.0817
 7870SOL    HW235073   2.003   2.621   3.175  1.3046 -2.7695 -0.9471
 7871SOL     OW35074   1.593   0.465   9.816  0.2354  0.6902 -0.1366
 7871SOL    HW135075   1.587   0.427   9.728 -0.4610  0.4296  0.0164
 7871SOL    HW235076   1.562   0.384   9.858  0.1397 -0.0316 -1.6125
 7872SOL     OW35077   0.343   3.490  15.449  0.1518 -0.2571 -0.0030
 7872SOL    HW135078   0.308   3.431  15.383  0.3643  0.6072 -0.8893
 7872SOL    HW235079   0.282   3.561  15.428 -0.0427 -0.0618  1.2183
 7873SOL     OW35080   4.034   0.425  10.367 -0.5387 -0.0643 -0.5509
 7873SOL    HW135081   4.031   0.426  10.271 -0.9601 -1.6279 -0.5446
 7873SOL    HW235082   4.007   0.335  10.382  1.0186 -0.5618 -0.7080
 7874SOL     OW35083   3.072   1.251   4.207 -0.3853 -0.1941  0.0727
 7874SOL    HW135084   2.993   1.252   4.259 -1.4600 -1.7774 -1.5263
 7874SOL    HW235085   3.138   1.263   4.275 -1.5947  0.1708  1.1695
 7875SOL     OW35086   2.771   2.061   9.639  0.5185  0.1014 -0.2184
 7875SOL    HW135087   2.692   2.116   9.645  2.0018  2.0122  1.7521
 7875SOL    HW235088   2.736   1.978   9.673  1.4174 -0.6350 -1.0939
 7876SOL     OW35089   0.619   4.249  17.575  0.2656  0.1546  0.4801
 7876SOL    HW135090   0.569   4.210  17.503 -0.8448 -0.0510  1.3724
 7876SOL    HW235091   0.574   4.213  17.651  0.5277  0.7884  0.9355
 7877SOL     OW35092   1.419   4.063   7.028  0.7493  0.0159  0.4636
 7877SOL    HW135093   1.329   4.093   7.031  1.1236  0.8465  2.9997
 7877SOL    HW235094   1.434   4.076   6.934  0.2537  0.9130  0.5146
 7878SOL     OW35095   2.839   1.290  14.582 -0.6243  0.1769 -0.3938
 7878SOL    HW135096   2.840   1.237  14.662 -0.4065  1.2299  0.2985
 7878SOL    HW235097   2.772   1.357  14.592  1.8326  2.6703 -0.7107
 7879SOL     OW35098   4.237   1.031   4.202  0.2499  0.1095  0.1661
 7879SOL    HW135099   4.154   1.018   4.156  0.7812 -0.3313 -0.6749
 7879SOL    HW235100   4.285   1.079   4.134  0.4288 -1.0822 -0.5524
 7880SOL     OW35101   3.064   3.438   1.199 -0.3897 -0.2556 -0.2351
 7880SOL    HW135102   2.997   3.402   1.257  0.8123 -0.8146  0.8208
 7880SOL    HW235103   3.092   3.354   1.164 -1.0514 -0.8726  0.7011
 7881SOL     OW35104   1.416   2.016   7.330  0.6076  0.2090  0.2877
 7881SOL    HW135105   1.346   2.078   7.352 -0.1283 -0.3568 -0.4741
 7881SOL    HW235106   1.488   2.031   7.392  0.5760 -1.6130  0.7796
 7882SOL     OW35107   2.785   0.408   3.733 -0.1593  0.0622  0.2339
 7882SOL    HW135108   2.706   0.418   3.787 -2.3472 -0.8095 -2.7717
 7882SOL    HW235109   2.849   0.433   3.799 -0.5625 -0.3834  0.8030
 7883SOL     OW35110   0.168   3.860   1.990 -0.6107  0.3466 -0.2179
 7883SOL    HW135111   0.077   3.845   1.965 -1.4116  2.0826  1.6206
 7883SOL    HW235112   0.170   3.842   2.084 -0.1066  1.4355 -0.0110
 7884SOL     OW35113   1.209   3.013   5.001  0.1768 -0.5103  0.1562
 7884SOL    HW135114   1.168   2.949   4.942  1.4290 -0.3590 -0.8591
 7884SOL    HW235115   1.300   2.983   5.008 -0.1069 -1.8553 -1.8638
 7885SOL     OW35116   3.399   2.600   8.340 -0.0529  0.0764 -0.4252
 7885SOL    HW135117   3.459   2.653   8.287  0.3765 -2.1492 -2.1802
 7885SOL    HW235118   3.457   2.587   8.414 -3.1852 -2.1439  1.6577
 7886SOL     OW35119   3.583   0.726   1.336 -0.2609 -0.4611  0.8546
 7886SOL    HW135120   3.636   0.665   1.388 -0.2071 -0.6229  0.6114
 7886SOL    HW235121   3.501   0.679   1.325 -2.0712  2.3626  2.3268
 7887SOL     OW35122   1.839   3.570  17.235  0.0191  0.4360  0.1429
 7887SOL    HW135123   1.834   3.588  17.329  0.5852  1.4472 -0.0133
 7887SOL    HW235124   1.778   3.497  17.225 -0.5134  1.1091 -1.5983
 7888SOL     OW35125   4.664   4.641   8.150  0.4113 -0.0587  0.3436
 7888SOL    HW135126   4.669   0.014   8.151 -4.3665  0.1915 -0.0350
 7888SOL    HW235127   4.697   4.609   8.234  2.5177  0.1028 -0.4116
 7889SOL     OW35128   3.305   0.283  14.166 -0.0323  0.0779 -0.0472
 7889SOL    HW135129   3.398   0.305  14.162  0.0319 -0.1678  0.0910
 7889SOL    HW235130   3.283   0.320  14.252  1.6177  1.3116 -0.1484
 7890SOL     OW35131   1.288   0.567   0.477 -0.3235  0.5023 -0.5462
 7890SOL    HW135132   1.273   0.478   0.511  1.9219 -1.1009 -3.7210
 7890SOL    HW235133   1.367   0.599   0.521  0.6923  0.2528 -2.1958
 7891SOL     OW35134   2.752   3.289   1.104 -0.3288  0.2886 -0.3571
 7891SOL    HW135135   2.824   3.309   1.164  0.2401  0.4582 -1.0951
 7891SOL    HW235136   2.771   3.207   1.058  0.2119 -0.3828  1.0541
 7892SOL     OW35137   4.460   3.951   8.660  0.0641  0.5156  0.3792
 7892SOL    HW135138   4.489   4.016   8.725  0.0890 -0.1773  1.0633
 7892SOL    HW235139   4.505   3.984   8.583 -0.3639 -1.1839 -0.6023
 7893SOL     OW35140   3.150   3.285  12.765  0.2324  0.2209 -0.2290
 7893SOL    HW135141   3.072   3.288  12.821  0.3428 -1.3626  0.0098
 7893SOL    HW235142   3.217   3.243  12.818  0.7128  0.4014 -0.6935
 7894SOL     OW35143   1.928   3.455   5.243 -0.0354  0.4091  0.1306
 7894SOL    HW135144   2.009   3.404   5.253  0.4633  1.7023  2.6494
 7894SOL    HW235145   1.912   3.447   5.149  5.0084 -2.8725 -0.4757
 7895SOL     OW35146   0.548   3.368   9.593  0.2819 -0.3542  0.1068
 7895SOL    HW135147   0.625   3.352   9.648 -0.7550  1.9532  2.1971
 7895SOL    HW235148   0.485   3.299   9.613 -1.7710  1.6897  0.6219
 7896SOL     OW35149   0.860   2.830   7.476  0.6134 -0.3256 -0.2896
 7896SOL    HW135150   0.813   2.901   7.432  1.3482  1.2134  1.4050
 7896SOL    HW235151   0.937   2.882   7.499  1.6779 -1.7385 -0.6576
 7897SOL     OW35152   3.312   0.228   0.461 -0.0740 -0.3972  0.0103
 7897SOL    HW135153   3.382   0.283   0.496 -0.2984 -0.7775  1.0819
 7897SOL    HW235154   3.327   0.137   0.487 -0.5054 -0.1262  1.2179
 7898SOL     OW35155   3.456   0.568   3.971 -0.4965  0.6301  0.0298
 7898SOL    HW135156   3.443   0.550   3.878  0.8667 -0.6338  0.0919
 7898SOL    HW235157   3.396   0.641   3.984 -0.0675  1.5199 -2.9875
 7899SOL     OW35158   2.389   3.319  12.808  0.2203 -0.2373  0.1536
 7899SOL    HW135159   2.437   3.396  12.776  1.1361 -0.6087  0.6421
 7899SOL    HW235160   2.429   3.248  12.758  1.4585 -1.3194  2.6516
 7900SOL     OW35161   1.638   0.993   5.539 -0.2526  0.2641 -0.4792
 7900SOL    HW135162   1.637   1.036   5.453 -0.3296  0.2338 -0.4931
 7900SOL    HW235163   1.544   0.988   5.558 -0.5137 -1.2711 -2.2185
 7901SOL     OW35164   2.833   0.196   8.727  0.0777 -0.1896 -0.4356
 7901SOL    HW135165   2.825   0.119   8.670  1.3039 -2.2972  2.2392
 7901SOL    HW235166   2.884   0.254   8.670 -0.0029 -1.2803 -1.6260
 7902SOL     OW35167   2.390   1.694   4.596  0.1037 -0.3025 -0.3499
 7902SOL    HW135168   2.437   1.756   4.651 -1.0875 -0.5064  0.9048
 7902SOL    HW235169   2.351   1.752   4.530  1.4594 -0.6181 -1.4330
 7903SOL     OW35170   1.454   3.926   4.369  0.4521 -0.9026  0.0557
 7903SOL    HW135171   1.408   4.010   4.370 -0.5871 -1.4662 -0.4589
 7903SOL    HW235172   1.467   3.904   4.277  0.1924  1.0709 -0.4700
 7904SOL     OW35173   2.746   3.320   7.249 -0.3623  0.1871  0.2159
 7904SOL    HW135174   2.714   3.258   7.315 -0.4984 -0.0386 -0.0628
 7904SOL    HW235175   2.669   3.316   7.192  0.0975  1.0524 -0.4645
 7905SOL     OW35176   3.913   4.063   4.083  0.0024  0.1318  0.6706
 7905SOL    HW135177   3.865   4.140   4.051  2.4963  1.2279 -0.4326
 7905SOL    HW235178   3.892   3.996   4.018 -0.8782  2.2742 -1.2486
 7906SOL     OW35179   4.583   3.664   3.242  0.5388  0.0538  0.6503
 7906SOL    HW135180   4.643   3.683   3.314  0.5838 -0.7987  0.8386
 7906SOL    HW235181   4.646   3.658   3.170 -1.2730  2.7549 -1.1631
 7907SOL     OW35182   3.026   0.259   8.193 -0.2165  0.5871  0.0489
 7907SOL    HW135183   3.096   0.294   8.248 -1.5370 -1.8969  3.2749
 7907SOL    HW235184   3.084   0.203   8.141 -1.6656 -0.0525 -0.8808
 7908SOL     OW35185   4.047   2.501   4.120 -0.2353 -0.1338 -0.3257
 7908SOL    HW135186   4.128   2.496   4.171 -0.9598  0.1537  0.8407
 7908SOL    HW235187   3.996   2.432   4.162  1.6966 -1.9332 -0.9055
 7909SOL     OW35188   1.937   0.676   6.265 -0.1554  0.1940  0.0184
 7909SOL    HW135189   1.938   0.697   6.172 -1.9547 -1.0850 -0.2796
 7909SOL    HW235190   1.842   0.683   6.271 -0.0670  1.1427  0.4016
 7910SOL     OW35191   3.106   0.656   9.705 -0.2508  0.4127  0.3503
 7910SOL    HW135192   3.119   0.602   9.627 -1.1917 -0.0961  0.5437
 7910SOL    HW235193   3.019   0.627   9.734 -0.6465 -0.3260 -1.5486
 7911SOL     OW35194   4.422   4.608   8.471  0.1709 -0.4578  0.2936
 7911SOL    HW135195   4.415   4.594   8.377 -0.8116 -1.1171  0.4689
 7911SOL    HW235196   4.416   4.703   8.474 -3.1917 -0.6616 -0.5152
 7912SOL     OW35197   2.015   2.755   0.983 -0.0165  0.5212 -0.4474
 7912SOL    HW135198   2.028   2.710   1.066 -0.4746 -1.4746 -1.4548
 7912SOL    HW235199   1.936   2.807   0.998 -0.8323 -0.5373 -1.0407
 7913SOL     OW35200   4.506   2.663  13.903 -0.1682 -0.4071 -0.3219
 7913SOL    HW135201   4.513   2.711  13.986  0.8006  0.1730 -0.7453
 7913SOL    HW235202   4.595   2.665  13.870 -0.4576 -0.2690 -1.0881
 7914SOL     OW35203   4.255   1.959  14.833  0.1049 -0.1308  0.6804
 7914SOL    HW135204   4.242   2.020  14.761  2.6001 -2.0964 -1.4106
 7914SOL    HW235205   4.165   1.948  14.865 -0.6166  0.7840 -1.0228
 7915SOL     OW35206   4.597   4.705   2.704  0.2289  0.3228 -0.2152
 7915SOL    HW135207   4.548   4.699   2.622  0.4034 -0.2655 -0.2826
 7915SOL    HW235208   4.685   4.691   2.670  1.2759  1.1139  2.1740
 7916SOL     OW35209   4.452   0.776   6.672 -0.2528 -0.3937 -0.2964
 7916SOL    HW135210   4.450   0.707   6.740  0.0968  0.7374  0.8594
 7916SOL    HW235211   4.481   0.717   6.602  2.1678  0.1455  0.2573
 7917SOL     OW35212   2.537   0.856   1.166  0.3610 -0.3796 -0.0030
 7917SOL    HW135213   2.453   0.899   1.181  0.4123 -0.2632 -0.0517
 7917SOL    HW235214   2.517   0.806   1.088 -1.9590  2.3942 -1.1909
 7918SOL     OW35215   3.859   1.820   4.046  0.2924  0.4861 -0.0220
 7918SOL    HW135216   3.827   1.897   3.999  1.6144  0.3398 -1.1984
 7918SOL    HW235217   3.900   1.769   3.976 -0.0397 -1.1696  0.9995
 7919SOL     OW35218   3.368   3.612  16.888 -0.3808  1.0473 -0.4954
 7919SOL    HW135219   3.373   3.701  16.854  2.3743 -0.4986 -4.1339
 7919SOL    HW235220   3.443   3.568  16.849 -1.1284 -1.5667  0.9942
 7920SOL     OW35221   0.985   0.472  11.998  0.0041  0.2702  0.3459
 7920SOL    HW135222   0.944   0.459  11.912  0.8517 -1.7947  0.2492
 7920SOL    HW235223   1.004   0.382  12.025  0.8522 -0.9621 -4.3875
 7921SOL     OW35224   0.971   0.722   3.748  0.1467  0.0988 -0.5994
 7921SOL    HW135225   0.909   0.788   3.718  0.6329  1.1773  0.7652
 7921SOL    HW235226   0.970   0.663   3.673  2.1906 -0.7106  0.0063
 7922SOL     OW35227   1.432   2.775   7.147 -0.0009  0.0352 -0.1544
 7922SOL    HW135228   1.487   2.839   7.102 -2.0865  1.1101 -1.1722
 7922SOL    HW235229   1.435   2.791   7.241  2.1597  1.0783 -0.4146
 7923SOL     OW35230   2.689   3.546  16.146  0.0036 -0.3039  0.5569
 7923SOL    HW135231   2.698   3.641  16.145  1.3739 -0.4315  0.9517
 7923SOL    HW235232   2.620   3.537  16.212 -0.6890  0.2045 -0.0901
 7924SOL     OW35233   3.858   4.409   8.349 -0.0930 -0.2138  0.3618
 7924SOL    HW135234   3.810   4.491   8.363  2.9987  1.3723  1.5774
 7924SOL    HW235235   3.940   4.437   8.389  0.1433 -2.1136  1.1649
 7925SOL     OW35236   0.742   2.387   5.309 -0.0586  0.2823  0.0353
 7925SOL    HW135237   0.708   2.356   5.225  0.3696  1.7738 -0.6761
 7925SOL    HW235238   0.825   2.340   5.309  0.7119  1.6485  1.2694
 7926SOL     OW35239   2.204   0.557   9.330  0.1944 -0.0008 -0.5679
 7926SOL    HW135240   2.221   0.574   9.423  0.7828 -0.3211 -0.6163
 7926SOL    HW235241   2.206   0.644   9.290  3.4924 -0.7609 -2.0344
 7927SOL     OW35242   2.909   2.696   5.809  0.3235 -0.0861  0.3031
 7927SOL    HW135243   2.920   2.790   5.821 -0.7983  0.0399  0.3074
 7927SOL    HW235244   2.848   2.673   5.878  0.9887  0.3456  1.0344
 7928SOL     OW35245   3.429   4.490   0.614  0.3589 -0.8867 -0.5173
 7928SOL    HW135246   3.509   4.438   0.608  0.9397  0.0448 -0.8436
 7928SOL    HW235247   3.473   4.575   0.615 -0.2275 -0.5571 -2.4581
 7929SOL     OW35248   3.470   1.776  11.303  0.1736 -0.0847 -0.0183
 7929SOL    HW135249   3.440   1.850  11.251 -1.5766  0.9518  2.4691
 7929SOL    HW235250   3.510   1.720  11.236  1.9263 -2.4959  3.0431
 7930SOL     OW35251   3.549   3.932   6.983 -0.1730  0.1647 -0.2324
 7930SOL    HW135252   3.614   3.934   6.913 -0.7458 -4.7470 -0.8935
 7930SOL    HW235253   3.610   3.927   7.057 -0.7102 -1.1914  0.1151
 7931SOL     OW35254   1.016   0.077   4.914  0.1096 -0.6605 -1.4369
 7931SOL    HW135255   1.080   0.007   4.919  1.7966  1.1638  2.4277
 7931SOL    HW235256   1.082   0.146   4.911 -0.6382 -0.0144 -3.3095
 7932SOL     OW35257   4.256   3.227   8.991  0.2310 -0.2357  0.6567
 7932SOL    HW135258   4.221   3.176   9.064  0.6434 -0.9092  0.3851
 7932SOL    HW235259   4.335   3.268   9.029 -0.4033  0.6938  0.9759
 7933SOL     OW35260   4.407   4.220  15.318 -0.0363  0.0098  0.5583
 7933SOL    HW135261   4.341   4.151  15.314  0.8370 -0.8009 -0.1488
 7933SOL    HW235262   4.351   4.293  15.292 -0.5640  0.1049  1.9450
 7934SOL     OW35263   2.681   1.363   3.379 -0.3842  0.0977  0.0521
 7934SOL    HW135264   2.653   1.455   3.377 -2.1106 -0.4807 -1.9772
 7934SOL    HW235265   2.690   1.362   3.474 -1.3828  0.5825  0.1552
 7935SOL     OW35266   1.337   0.331   6.395  0.2718  0.5261  0.8865
 7935SOL    HW135267   1.354   0.389   6.321 -2.8942  0.4913  0.1312
 7935SOL    HW235268   1.426   0.306   6.420 -0.1694 -0.8319  1.1164
 7936SOL     OW35269   1.705   1.372  12.959  0.0001  0.2986  0.2130
 7936SOL    HW135270   1.641   1.331  13.017  0.2095  2.1598  1.7803
 7936SOL    HW235271   1.687   1.464  12.981 -2.3114 -0.4113  1.3567
 7937SOL     OW35272   2.971   1.927  16.201  0.2090  0.0305 -0.3465
 7937SOL    HW135273   2.899   1.917  16.262  0.6481  1.3526  0.3986
 7937SOL    HW235274   3.010   2.013  16.217  1.4496 -0.3825 -1.1286
 7938SOL     OW35275   0.377   3.372  15.813  0.0043 -0.1432 -0.0416
 7938SOL    HW135276   0.425   3.449  15.781  0.6833  0.3301  2.1096
 7938SOL    HW235277   0.369   3.325  15.731  0.3000 -1.3066  0.5960
 7939SOL     OW35278   4.413   1.298  14.522  0.3817 -0.0683 -0.2535
 7939SOL    HW135279   4.488   1.255  14.480 -0.3172 -1.9266  0.3752
 7939SOL    HW235280   4.345   1.241  14.486 -0.9880  1.2294  0.3397
 7940SOL     OW35281   0.607   2.642   6.454  0.3468  0.0380  0.7252
 7940SOL    HW135282   0.512   2.630   6.452  0.1336  1.6514  1.9867
 7940SOL    HW235283   0.629   2.580   6.383  2.5043  2.0454 -0.3592
 7941SOL     OW35284   0.098   2.830  16.862 -0.2532  0.0141 -0.3185
 7941SOL    HW135285   0.142   2.757  16.905  2.6045  1.2585 -1.1336
 7941SOL    HW235286   0.170   2.857  16.804 -0.4245  0.2057 -0.4409
 7942SOL     OW35287   1.882   4.404   9.019 -0.2471 -0.2261 -0.0275
 7942SOL    HW135288   1.973   4.384   9.040  0.3553  2.7525  0.1635
 7942SOL    HW235289   1.879   4.499   9.011  2.2360 -0.1360 -0.0284
 7943SOL     OW35290   1.912   2.315   4.370  0.1817  0.1608 -0.5806
 7943SOL    HW135291   1.957   2.341   4.290  0.2718  0.4220 -0.4477
 7943SOL    HW235292   1.987   2.272   4.411 -0.2236 -0.6253 -0.6547
 7944SOL     OW35293   1.837   2.898   3.613  0.4844  0.1780  0.4860
 7944SOL    HW135294   1.917   2.941   3.582  0.5276  1.1536  1.9016
 7944SOL    HW235295   1.780   2.900   3.537  1.7578  2.3426 -0.4025
 7945SOL     OW35296   4.126   2.208   2.259  0.3232  0.2421 -0.2796
 7945SOL    HW135297   4.114   2.272   2.329 -3.1989 -0.2488 -0.4284
 7945SOL    HW235298   4.201   2.155   2.286  0.9391  2.2200  1.8474
 7946SOL     OW35299   2.368   3.957   7.734  0.4130 -0.6190 -0.4316
 7946SOL    HW135300   2.353   4.033   7.790  1.3245 -2.5821  2.4642
 7946SOL    HW235301   2.285   3.956   7.686  0.4855  1.6665 -0.6068
 7947SOL     OW35302   2.717   0.299   0.879  0.1060  0.3811  0.1662
 7947SOL    HW135303   2.662   0.224   0.902 -1.7295  1.0556 -2.0441
 7947SOL    HW235304   2.802   0.276   0.918 -0.4965  0.2208  1.3960
 7948SOL     OW35305   2.356   2.819   7.212  0.0352  0.0223  0.1488
 7948SOL    HW135306   2.425   2.815   7.146 -0.5241  0.8889 -0.4930
 7948SOL    HW235307   2.308   2.898   7.187  1.6588  2.2000  4.0809
 7949SOL     OW35308   3.938   0.303   6.854  0.1551 -0.3671  0.3474
 7949SOL    HW135309   3.899   0.216   6.858 -1.1690  0.2383  0.5238
 7949SOL    HW235310   3.933   0.334   6.944 -2.1329 -0.1060  0.1298
 7950SOL     OW35311   3.486   4.204   0.270  0.3993  0.0693  0.4585
 7950SOL    HW135312   3.462   4.294   0.250 -1.1366 -0.4990 -0.2152
 7950SOL    HW235313   3.557   4.210   0.335  1.7007 -0.8596 -0.8655
 7951SOL     OW35314   1.928   4.721   7.427  0.1189 -0.2533 -0.4948
 7951SOL    HW135315   1.962   0.059   7.361  0.4044  1.0708  0.8797
 7951SOL    HW235316   1.875   4.666   7.370 -0.0102 -1.0093  0.3650
 7952SOL     OW35317   2.211   4.083  12.082  0.4217 -0.2807 -0.0729
 7952SOL    HW135318   2.220   4.017  12.150 -2.7315  2.4358  2.9613
 7952SOL    HW235319   2.295   4.086  12.037  0.8221 -1.5941  0.6014
 7953SOL     OW35320   1.833   3.828   4.990  0.3420 -0.2007 -0.2338
 7953SOL    HW135321   1.796   3.747   5.024  0.0206  0.1305  0.2069
 7953SOL    HW235322   1.771   3.864   4.928 -1.6463 -1.5041  1.0169
 7954SOL     OW35323   2.312   3.867   0.106  0.4545 -0.0596  0.0658
 7954SOL    HW135324   2.334   3.933   0.040  2.3134  0.6058  1.3597
 7954SOL    HW235325   2.384   3.875   0.169 -0.2875  3.0693  0.4860
 7955SOL     OW35326   1.501   2.022   6.689  0.6192 -0.2180 -0.1676
 7955SOL    HW135327   1.556   2.076   6.633  0.2604 -0.8066 -1.0778
 7955SOL    HW235328   1.419   2.020   6.639  1.3795 -0.8760 -1.3903
 7956SOL     OW35329   2.130   0.383   5.038  0.4540 -0.4936 -0.3376
 7956SOL    HW135330   2.212   0.341   5.064 -0.4772 -1.8963  0.3396
 7956SOL    HW235331   2.139   0.470   5.077  0.0653 -1.4346  1.8401
 7957SOL     OW35332   0.949   2.237   0.827 -0.2293 -0.4151 -0.3934
 7957SOL    HW135333   0.917   2.288   0.752 -2.0406 -2.9320 -1.3670
 7957SOL    HW235334   0.877   2.244   0.889  0.4613 -0.0726  0.3611
 7958SOL     OW35335   3.943   3.875   0.691  0.1529  0.4206  0.0394
 7958SOL    HW135336   4.032   3.838   0.694 -1.0723 -2.4772  0.3134
 7958SOL    HW235337   3.902   3.830   0.617 -0.7623 -1.4763  1.7180
 7959SOL     OW35338   0.509   2.801   4.203 -0.0275  0.1851 -0.1787
 7959SOL    HW135339   0.517   2.874   4.142  0.9017 -0.4177 -0.7679
 7959SOL    HW235340   0.524   2.732   4.139  2.2384  0.8627 -0.3747
 7960SOL     OW35341   3.411   3.493  12.620 -0.5040  0.5593 -0.1070
 7960SOL    HW135342   3.345   3.520  12.684 -0.7983 -0.0059 -0.1685
 7960SOL    HW235343   3.483   3.549  12.649  0.9401 -1.2457 -0.1509
 7961SOL     OW35344   1.635   3.304  16.872 -0.5000 -0.2918  0.0103
 7961SOL    HW135345   1.596   3.368  16.931  5.1166  0.8595  2.5175
 7961SOL    HW235346   1.639   3.226  16.928 -0.0712  0.8089  1.5126
 7962SOL     OW35347   4.453   1.935   2.034  0.3513  0.1340 -0.0220
 7962SOL    HW135348   4.537   1.891   2.049 -0.6759 -1.3992  1.2984
 7962SOL    HW235349   4.417   1.937   2.123 -1.1928 -0.3422 -0.6498
 7963SOL     OW35350   2.430   2.530   8.219 -0.1032 -0.0971  0.0287
 7963SOL    HW135351   2.344   2.546   8.179 -0.6331 -1.2888  0.6872
 7963SOL    HW235352   2.447   2.444   8.181 -0.2249 -0.0677 -0.0949
 7964SOL     OW35353   0.667   1.038   6.987  0.1328  0.9772  0.3926
 7964SOL    HW135354   0.730   1.063   6.919  0.2116  0.6402  0.3447
 7964SOL    HW235355   0.718   1.064   7.063 -0.6311  0.1094  1.1965
 7965SOL     OW35356   3.955   0.709   4.973 -0.4444  0.5094 -0.3019
 7965SOL    HW135357   4.001   0.642   5.023  0.1589  1.1768  0.0317
 7965SOL    HW235358   4.022   0.771   4.946 -1.2140  1.8595  0.8746
 7966SOL     OW35359   0.494   0.203  15.457 -0.4491  0.6400 -0.4174
 7966SOL    HW135360   0.513   0.121  15.503  1.9524  0.4742 -1.6553
 7966SOL    HW235361   0.561   0.205  15.388  2.5307  0.3171  2.4559
 7967SOL     OW35362   0.914   4.013   3.021  0.1598  0.3374 -0.5336
 7967SOL    HW135363   0.959   4.047   2.944 -0.4806  0.0409 -1.0332
 7967SOL    HW235364   0.957   4.065   3.089 -0.2326 -0.5189  0.3802
 7968SOL     OW35365   3.326   1.842   2.287  0.2077  0.0062  0.5051
 7968SOL    HW135366   3.271   1.781   2.236 -0.1316  0.0671  0.7957
 7968SOL    HW235367   3.412   1.845   2.246  0.2982 -1.8415  0.5393
 7969SOL     OW35368   4.552   2.816   0.617 -0.4784  0.0265  0.4872
 7969SOL    HW135369   4.473   2.801   0.669  0.0346 -0.1338  1.2248
 7969SOL    HW235370   4.550   2.733   0.571 -1.4065  0.7110 -0.6942
 7970SOL     OW35371   0.954   1.055   3.309 -0.0410 -0.0158 -0.6061
 7970SOL    HW135372   0.870   1.072   3.267  0.4088  3.5079 -0.0451
 7970SOL    HW235373   0.937   0.974   3.357 -1.8577  0.2913 -0.7315
 7971SOL     OW35374   3.425   1.022   3.572  0.3038 -0.1849 -0.3895
 7971SOL    HW135375   3.507   0.992   3.611 -0.2757 -1.8947 -0.4869
 7971SOL    HW235376   3.452   1.106   3.535 -1.6317 -0.5191 -2.5468
 7972SOL     OW35377   1.221   0.058   1.580  0.0062  0.5622 -0.6826
 7972SOL    HW135378   1.228   0.152   1.568 -2.9826  0.8667 -0.0487
 7972SOL    HW235379   1.217   0.055   1.676 -0.4602 -0.9749 -0.7523
 7973SOL     OW35380   2.088   4.250   3.659 -0.1226 -0.6158  0.1428
 7973SOL    HW135381   2.179   4.222   3.649 -0.3104 -0.4932 -1.8981
 7973SOL    HW235382   2.097   4.345   3.658  0.4200 -0.7117 -2.5349
 7974SOL     OW35383   1.443   2.736   5.270 -0.1050  0.3427 -0.2426
 7974SOL    HW135384   1.354   2.769   5.286  0.1705  0.1146  1.6677
 7974SOL    HW235385   1.503   2.794   5.315  0.6425  1.3551 -2.5350
 7975SOL     OW35386   3.706   1.956  17.399  0.3924 -0.4084 -0.1628
 7975SOL    HW135387   3.680   1.919  17.483  0.7264 -0.7176 -0.1912
 7975SOL    HW235388   3.623   2.001  17.382  0.3559 -0.1054  0.8474
 7976SOL     OW35389   2.190   3.494   2.828 -0.6158  0.0371  0.2594
 7976SOL    HW135390   2.123   3.515   2.894 -0.6545 -0.9952  0.5589
 7976SOL    HW235391   2.134   3.476   2.752  0.2602  0.0489 -0.3860
 7977SOL     OW35392   3.763   0.477   5.688 -0.5735 -0.1238  0.2241
 7977SOL    HW135393   3.712   0.535   5.744 -0.5185  1.6050 -1.5152
 7977SOL    HW235394   3.775   0.534   5.611 -0.2900 -0.8614 -0.2828
 7978SOL     OW35395   1.276   3.309   4.937 -0.0195  0.2373  0.2508
 7978SOL    HW135396   1.237   3.231   4.975  2.8533 -1.8283 -0.9805
 7978SOL    HW235397   1.299   3.366   5.010 -1.2849  1.2011 -0.1126
 7979SOL     OW35398   1.773   2.684   8.468 -0.1919 -0.4733  0.1581
 7979SOL    HW135399   1.840   2.710   8.405 -0.0172  0.3694  0.6943
 7979SOL    HW235400   1.740   2.615   8.411 -0.0710 -2.2991  2.3005
 7980SOL     OW35401   2.240   1.633   6.557 -0.5357 -0.0400  0.8002
 7980SOL    HW135402   2.253   1.561   6.495 -2.2921  0.8966 -0.6384
 7980SOL    HW235403   2.169   1.603   6.613 -0.2445 -1.1854  0.5495
 7981SOL     OW35404   0.871   1.527   8.587 -0.5253 -0.2803  0.0610
 7981SOL    HW135405   0.872   1.559   8.678  0.0088  2.3653 -0.8892
 7981SOL    HW235406   0.934   1.590   8.553 -1.6107  0.9358  0.3164
 7982SOL     OW35407   1.813   2.381   9.310 -0.4831  0.8184  0.4511
 7982SOL    HW135408   1.815   2.352   9.401  1.1367 -0.6195 -0.0273
 7982SOL    HW235409   1.867   2.460   9.316  0.9174 -0.1488  0.8405
 7983SOL     OW35410   4.401   3.731   0.570  0.0096  0.0760  0.6574
 7983SOL    HW135411   4.401   3.729   0.474 -2.1801  1.6596  0.6073
 7983SOL    HW235412   4.488   3.764   0.589 -0.0988  2.8254 -3.5744
 7984SOL     OW35413   0.424   2.245   4.847 -0.0112  0.4216  0.9095
 7984SOL    HW135414   0.469   2.289   4.775 -1.1887  0.6324  0.2996
 7984SOL    HW235415   0.346   2.301   4.847 -0.9876 -0.9508 -1.3484
 7985SOL     OW35416   2.833   0.522  10.683 -0.1180  0.3709  0.0592
 7985SOL    HW135417   2.807   0.614  10.683 -1.1772  0.0705  0.1950
 7985SOL    HW235418   2.862   0.500  10.772 -0.0642 -1.0950 -0.3157
 7986SOL     OW35419   4.487   0.372   0.564  0.4789 -0.0961  0.2486
 7986SOL    HW135420   4.501   0.278   0.555  0.6700 -0.2611  2.3821
 7986SOL    HW235421   4.485   0.379   0.659 -0.4609  1.0067  0.1471
 7987SOL     OW35422   1.818   3.546   0.560  0.3755  0.3249 -0.1231
 7987SOL    HW135423   1.891   3.503   0.517 -0.3675 -0.8779 -0.1896
 7987SOL    HW235424   1.861   3.622   0.600  0.9284  0.1895 -0.4733
 7988SOL     OW35425   0.730   1.819  13.214 -0.2787  0.1055 -0.6763
 7988SOL    HW135426   0.658   1.804  13.154 -2.0403  0.4805  1.3418
 7988SOL    HW235427   0.753   1.910  13.195 -0.2424  0.1136 -0.5962
 7989SOL     OW35428   4.644   2.846   2.618 -0.7046  0.2927 -0.0638
 7989SOL    HW135429   4.624   2.899   2.541 -3.3511  1.7847  1.6537
 7989SOL    HW235430   4.570   2.787   2.632  0.3878 -1.2432 -0.7626
 7990SOL     OW35431   4.488   0.168  12.947 -0.1398  0.6316  0.3934
 7990SOL    HW135432   4.490   0.203  12.858 -1.8096 -2.0477 -0.6677
 7990SOL    HW235433   4.567   0.212  12.980 -1.3297  3.5607 -0.6018
 7991SOL     OW35434   0.031   0.759   5.201 -0.4911 -0.7190 -0.4355
 7991SOL    HW135435   4.722   0.705   5.128 -2.7495  1.0611 -0.7550
 7991SOL    HW235436   4.674   0.806   5.224  0.2740 -0.1697  1.0755
 7992SOL     OW35437   4.678   2.572   6.225  0.2848  0.6230 -0.0998
 7992SOL    HW135438   4.700   2.663   6.203  1.4724  0.5689  0.9391
 7992SOL    HW235439   4.593   2.567   6.180  1.6348 -3.5691 -2.1425
 7993SOL     OW35440   0.970   2.559   5.020 -0.1816  0.2023  0.4574
 7993SOL    HW135441   0.964   2.465   5.002  0.0226  0.3131 -0.1692
 7993SOL    HW235442   1.064   2.576   5.014  0.0780 -1.5331 -0.2709
 7994SOL     OW35443   4.182   3.751  11.928 -0.3149 -0.9570 -0.2462
 7994SOL    HW135444   4.126   3.826  11.910 -0.0623  0.0684  3.2177
 7994SOL    HW235445   4.150   3.740  12.018  1.6318  0.0836  0.5892
 7995SOL     OW35446   0.342   1.791  15.247  0.3007  0.0903  0.2907
 7995SOL    HW135447   0.280   1.852  15.207  1.6858  2.6654  2.0923
 7995SOL    HW235448   0.310   1.779  15.336 -0.9078 -0.2599 -0.1886
 7996SOL     OW35449   1.854   3.547   5.472  0.2019 -0.4749  0.1191
 7996SOL    HW135450   1.881   3.513   5.387  1.4195  1.0995 -0.1135
 7996SOL    HW235451   1.791   3.616   5.452 -1.4332 -2.2626 -0.8866
 7997SOL     OW35452   1.216   0.801   7.288 -0.1921 -0.0325  0.1133
 7997SOL    HW135453   1.292   0.844   7.328 -0.3927 -0.2670  0.7410
 7997SOL    HW235454   1.197   0.723   7.340 -0.6310  0.9007  1.3578
 7998SOL     OW35455   2.069   3.243   2.474 -0.3917  0.2850  0.8453
 7998SOL    HW135456   2.096   3.152   2.469 -3.4951 -0.5497 -0.9454
 7998SOL    HW235457   1.981   3.235   2.437  0.2929  1.4359 -1.0196
 7999SOL     OW35458   2.793   3.845   1.646 -0.2807  0.2214 -0.2645
 7999SOL    HW135459   2.816   3.781   1.714 -1.2863  1.8884  1.6194
 7999SOL    HW235460   2.876   3.871   1.606 -0.1740 -1.9089 -1.4186
 8000SOL     OW35461   4.224   0.104  14.819  0.1722 -0.6139  0.2070
 8000SOL    HW135462   4.293   0.063  14.767 -0.4865 -2.2369  0.6243
 8000SOL    HW235463   4.251   0.196  14.825  0.3489 -0.6882  0.5317
 8001SOL     OW35464   2.695   3.055  17.567 -0.2106  0.0003  0.3475
 8001SOL    HW135465   2.647   2.973  17.551 -1.5744  0.6203  1.2435
 8001SOL    HW235466   2.776   3.020  17.531 -1.4802 -3.2892  0.6766
 8002SOL     OW35467   0.410   1.950   4.320 -0.1823 -0.0435  0.0181
 8002SOL    HW135468   0.407   1.915   4.409 -0.0295  1.1585  0.5052
 8002SOL    HW235469   0.331   1.912   4.283 -0.3034 -0.7081  0.9623
 8003SOL     OW35470   4.312   1.541   8.381 -0.5621 -0.3015 -0.5056
 8003SOL    HW135471   4.342   1.600   8.450  0.4687 -0.6633 -0.6487
 8003SOL    HW235472   4.379   1.473   8.380 -0.7797 -0.5315  1.3806
 8004SOL     OW35473   2.339   2.189   9.045 -0.2736 -1.0343  0.3120
 8004SOL    HW135474   2.429   2.165   9.069 -0.2086 -2.1416 -1.0537
 8004SOL    HW235475   2.340   2.283   9.026 -0.1031 -0.7832  1.5012
 8005SOL     OW35476   4.536   0.598   6.882 -0.0003  0.1924 -0.1317
 8005SOL    HW135477   4.571   0.534   6.944  1.4817  2.4292  1.3324
 8005SOL    HW235478   4.546   0.544   6.804 -0.1270  1.0979 -0.7783
 8006SOL     OW35479   3.799   1.471  15.696  0.2688 -0.1470 -0.5678
 8006SOL    HW135480   3.816   1.494  15.788 -0.3290  0.0468 -0.5049
 8006SOL    HW235481   3.885   1.441  15.666 -0.0165 -3.1297  1.6284
 8007SOL     OW35482   1.422   1.047   3.695  0.5254  0.1536 -0.2896
 8007SOL    HW135483   1.330   1.068   3.675 -0.0789 -0.8161  1.5082
 8007SOL    HW235484   1.435   1.096   3.776  0.5387  1.8051 -1.2707
 8008SOL     OW35485   4.163   0.911   6.696  0.6081  0.3915  0.3067
 8008SOL    HW135486   4.232   0.906   6.762 -0.3635  1.1708  1.3727
 8008SOL    HW235487   4.130   0.997   6.723 -1.2166  0.2020 -1.3003
 8009SOL     OW35488   0.801   0.165   6.585 -0.4603 -0.3855  0.7102
 8009SOL    HW135489   0.827   0.087   6.634 -3.3613 -0.8249  1.5979
 8009SOL    HW235490   0.882   0.173   6.535 -0.3444  0.1934  0.9883
 8010SOL     OW35491   0.219   3.304   0.730 -0.0837  0.6036  0.0628
 8010SOL    HW135492   0.157   3.232   0.743 -0.3090  0.8950  0.6082
 8010SOL    HW235493   0.224   3.299   0.635  1.3722 -3.1872  0.3385
 8011SOL     OW35494   0.389   4.344   7.727  0.4793 -0.4140  0.8502
 8011SOL    HW135495   0.335   4.268   7.705 -0.1642 -0.1782  1.6270
 8011SOL    HW235496   0.471   4.301   7.702  0.2095  0.2491 -1.1286
 8012SOL     OW35497   1.694   4.659   0.143  0.3083 -0.1140 -0.0326
 8012SOL    HW135498   1.783   4.630   0.127  0.4745  0.3974 -0.0440
 8012SOL    HW235499   1.644   4.578   0.158 -2.6826  2.2092  2.6341
 8013SOL     OW35500   2.817   1.827   2.768  0.1313  0.1037 -0.2403
 8013SOL    HW135501   2.793   1.837   2.860 -0.4129 -1.4377 -0.2187
 8013SOL    HW235502   2.776   1.743   2.751  1.2218 -0.6939  1.0835
 8014SOL     OW35503   0.970   1.463  15.652 -0.0486  0.6424 -0.0979
 8014SOL    HW135504   0.901   1.520  15.618 -1.6648 -0.8216  0.6903
 8014SOL    HW235505   0.973   1.393  15.587 -2.9853  2.3359 -2.0691
 8015SOL     OW35506   3.994   0.328  12.253  0.4727 -0.6396 -0.1551
 8015SOL    HW135507   4.036   0.306  12.336 -1.0117  1.4222  1.1543
 8015SOL    HW235508   3.903   0.309  12.277  0.1918 -0.6270 -1.2172
 8016SOL     OW35509   2.903   3.285   6.892 -0.0320 -0.2054 -0.5203
 8016SOL    HW135510   2.895   3.205   6.944 -0.7112  1.1914  1.5239
 8016SOL    HW235511   2.930   3.344   6.961 -2.4123 -0.3935  0.5571
 8017SOL     OW35512   3.700   2.552   5.033 -0.4543  0.2970 -0.1016
 8017SOL    HW135513   3.607   2.561   5.012 -0.2262 -1.8645 -2.0219
 8017SOL    HW235514   3.722   2.497   4.959  1.3359 -1.3089  1.6219
 8018SOL     OW35515   4.567   1.939   4.746  0.5510 -0.1620 -0.4586
 8018SOL    HW135516   4.612   1.942   4.830 -1.1436  0.9236  0.4154
 8018SOL    HW235517   4.613   1.871   4.696  2.0365  0.0953  0.5523
 8019SOL     OW35518   0.289   4.294   4.179 -0.2064  0.9495 -0.2436
 8019SOL    HW135519   0.239   4.350   4.238 -1.0048 -1.7973  1.6882
 8019SOL    HW235520   0.262   4.211   4.219 -2.1932  1.7611  0.1153
 8020SOL     OW35521   2.475   0.912   4.162  0.3472  0.1644  0.5692
 8020SOL    HW135522   2.515   0.825   4.156  1.2740  0.6646 -0.5788
 8020SOL    HW235523   2.408   0.908   4.095  2.2531  1.8068 -1.4467
 8021SOL     OW35524   0.111   2.597  12.303 -0.7848  0.4492 -0.2092
 8021SOL    HW135525   0.048   2.592  12.376  1.1609  0.1101  1.4452
 8021SOL    HW235526   0.136   2.505  12.302  0.0696  0.6842 -0.0867
 8022SOL     OW35527   0.617   1.837   4.188 -0.2708 -0.5307 -0.0042
 8022SOL    HW135528   0.549   1.885   4.236  0.2044  0.0317  0.1031
 8022SOL    HW235529   0.573   1.769   4.137  1.0453 -1.4289  0.0601
 8023SOL     OW35530   2.687   1.008   7.825  0.1852  0.2464  0.4756
 8023SOL    HW135531   2.690   0.935   7.886  0.2798  0.0791  0.2735
 8023SOL    HW235532   2.637   0.965   7.756  0.7072  0.9629 -0.3681
 8024SOL     OW35533   4.067   2.763   4.265 -1.3723 -0.0168 -0.3539
 8024SOL    HW135534   4.128   2.696   4.296  0.5699  1.4557 -0.9958
 8024SOL    HW235535   4.052   2.719   4.181 -0.2557 -0.1474 -0.4957
 8025SOL     OW35536   1.876   2.367   2.461  0.4674  0.6779 -0.3116
 8025SOL    HW135537   1.857   2.376   2.555 -0.4100 -0.3607 -0.3844
 8025SOL    HW235538   1.797   2.411   2.430  0.4341 -0.5124 -1.9198
 8026SOL     OW35539   0.443   0.596   3.288  0.3476 -0.1652 -0.5912
 8026SOL    HW135540   0.444   0.658   3.361  1.3042 -0.6449 -0.1989
 8026SOL    HW235541   0.410   0.655   3.221  0.5927  1.6391  0.8949
 8027SOL     OW35542   4.487   3.844   6.260 -0.6615  0.1100  0.8333
 8027SOL    HW135543   4.541   3.907   6.307  2.8959 -1.6480 -0.8419
 8027SOL    HW235544   4.542   3.834   6.182 -0.9354 -1.2125  0.8145
 8028SOL     OW35545   4.430   4.545   8.208  0.0096  0.0197 -0.0489
 8028SOL    HW135546   4.405   4.632   8.177 -0.6134 -0.6923 -1.5489
 8028SOL    HW235547   4.518   4.548   8.172  0.0001  0.9015  0.0098
 8029SOL     OW35548   3.483   4.165  11.658 -0.3138 -0.0256 -0.1623
 8029SOL    HW135549   3.445   4.146  11.573  1.0664 -1.2016 -0.5246
 8029SOL    HW235550   3.506   4.258  11.655 -1.1927  0.2069  0.3240
 8030SOL     OW35551   1.014   1.808  17.309  0.3946 -0.4750 -0.5444
 8030SOL    HW135552   0.981   1.875  17.250 -1.1520 -0.3885  0.4127
 8030SOL    HW235553   0.947   1.807  17.378  1.0168 -1.7442  0.0438
 8031SOL     OW35554   4.052   0.188  10.973  0.2919  0.2651 -0.2064
 8031SOL    HW135555   4.063   0.258  11.038 -0.5379 -1.5671  1.8903
 8031SOL    HW235556   4.082   0.111  11.022 -2.4211 -2.2726 -2.5948
 8032SOL     OW35557   0.341   3.094  15.427  0.4787 -0.0139 -0.3844
 8032SOL    HW135558   0.397   3.019  15.407 -0.6529 -0.9769  0.0567
 8032SOL    HW235559   0.353   3.141  15.345 -1.1217  0.5748 -0.2709
 8033SOL     OW35560   0.062   4.037  13.023  0.5390 -0.2771  0.0140
 8033SOL    HW135561   0.044   4.040  13.117  0.4174 -1.2792  0.0262
 8033SOL    HW235562   4.697   4.011  12.994  0.7461 -0.8355 -0.1196
 8034SOL     OW35563   4.443   3.862   9.008 -0.4717 -0.3304  0.1468
 8034SOL    HW135564   4.379   3.880   8.939  1.9121  1.7644 -1.4964
 8034SOL    HW235565   4.522   3.881   8.958 -0.4467  0.7692  0.6063
 8035SOL     OW35566   4.130   1.648   1.107 -0.1363 -0.2645  0.3124
 8035SOL    HW135567   4.218   1.682   1.090  0.4516 -1.2358  1.4747
 8035SOL    HW235568   4.088   1.679   1.026 -1.7110  1.5254  1.8298
 8036SOL     OW35569   4.151   4.627   2.662 -0.9985  0.1633  0.6841
 8036SOL    HW135570   4.138   4.712   2.620 -1.7068  0.1902  0.9592
 8036SOL    HW235571   4.164   4.570   2.586 -0.5969 -0.0556  0.9203
 8037SOL     OW35572   0.649   4.406   3.501 -0.3317  0.1402 -0.3578
 8037SOL    HW135573   0.579   4.408   3.566  0.0378  2.3169 -0.0229
 8037SOL    HW235574   0.618   4.489   3.464 -2.9554 -0.8002 -0.2425
 8038SOL     OW35575   1.953   3.001  17.203 -0.1583  0.4338  0.3021
 8038SOL    HW135576   1.978   3.081  17.158  1.7440 -0.3006  0.0821
 8038SOL    HW235577   1.860   3.014  17.223 -0.4915  1.1348 -1.7015
 8039SOL     OW35578   3.839   2.186   3.989 -0.6322 -0.1807 -0.7464
 8039SOL    HW135579   3.911   2.203   3.928  2.7741  0.8718  3.5732
 8039SOL    HW235580   3.812   2.271   4.024  1.0339  0.8787 -2.0937
 8040SOL     OW35581   3.555   2.594   4.707 -0.3735 -0.2208  0.1473
 8040SOL    HW135582   3.516   2.568   4.790 -0.1032  1.3268  0.7444
 8040SOL    HW235583   3.570   2.686   4.724  0.9807 -0.5344  0.6623
 8041SOL     OW35584   1.077   2.872  10.164 -0.0109  0.5040  0.5500
 8041SOL    HW135585   1.073   2.920  10.247 -1.9633 -1.4059  1.5686
 8041SOL    HW235586   1.023   2.794  10.177 -0.5771  0.8223  0.1734
 8042SOL     OW35587   2.656   1.398  14.953 -0.1859  0.5020  0.2031
 8042SOL    HW135588   2.745   1.418  14.924  0.3179 -0.9079  0.7839
 8042SOL    HW235589   2.605   1.426  14.877  0.4983  0.3438 -0.3088
 8043SOL     OW35590   0.948   0.741   7.906  0.4004 -0.5453 -0.0313
 8043SOL    HW135591   0.969   0.736   8.000  0.1417  1.1255  0.1295
 8043SOL    HW235592   0.998   0.667   7.874 -0.3344 -0.7479 -0.7069
 8044SOL     OW35593   1.218   0.027  16.519 -0.5017  0.1177  0.2727
 8044SOL    HW135594   1.273   0.101  16.545 -0.2071  0.8616 -2.4879
 8044SOL    HW235595   1.245   4.685  16.583 -1.8640 -0.8507 -0.1332
 8045SOL     OW35596   2.752   0.341   4.672 -0.5206 -0.2192 -0.1494
 8045SOL    HW135597   2.672   0.329   4.620 -2.9023  1.3826  3.1596
 8045SOL    HW235598   2.785   0.252   4.688  0.7709  0.5415  1.4049
 8046SOL     OW35599   3.902   3.624   5.566 -0.0719  0.2612  0.0077
 8046SOL    HW135600   3.828   3.650   5.621 -0.5358 -0.8092 -0.1216
 8046SOL    HW235601   3.943   3.708   5.546  1.3602 -0.8321 -1.5855
 8047SOL     OW35602   4.528   4.172   2.711  0.1847  0.1618  0.0687
 8047SOL    HW135603   4.576   4.196   2.790  0.2044  0.3359  0.0039
 8047SOL    HW235604   4.482   4.256   2.703  1.4207  0.8904  0.7128
 8048SOL     OW35605   1.465   0.236   1.494 -0.5917  0.5588  0.1288
 8048SOL    HW135606   1.452   0.312   1.437  2.8158  1.2621  0.3430
 8048SOL    HW235607   1.426   0.168   1.440  1.2933  0.2924 -0.8697
 8049SOL     OW35608   4.072   4.081   4.390 -0.9234 -0.3429 -0.1860
 8049SOL    HW135609   4.049   3.988   4.385 -1.6368 -0.1744 -0.0412
 8049SOL    HW235610   4.006   4.131   4.439 -0.0031 -0.8359  1.5642
 8050SOL     OW35611   1.687   4.310   6.340 -0.0325  0.2925  0.0765
 8050SOL    HW135612   1.592   4.315   6.330  0.2873  1.9496 -1.9675
 8050SOL    HW235613   1.717   4.400   6.325  0.2278 -0.2064 -2.2909
 8051SOL     OW35614   3.147   1.907  17.551 -0.3986 -0.0032 -0.0423
 8051SOL    HW135615   3.132   1.823  17.507  0.5838 -0.5573  0.6842
 8051SOL    HW235616   3.119   1.975  17.490  1.9941  1.8770  0.9810
 8052SOL     OW35617   4.410   0.509   2.190 -0.0652  0.1213  0.0485
 8052SOL    HW135618   4.417   0.604   2.185 -0.8912  0.1666 -0.3851
 8052SOL    HW235619   4.487   0.466   2.152 -0.3658 -0.3113 -0.0768
 8053SOL     OW35620   1.048   0.089  13.190  0.7386  0.1197 -0.0655
 8053SOL    HW135621   1.019   0.019  13.248  1.6147 -0.3175 -0.1506
 8053SOL    HW235622   1.049   0.151  13.262 -2.7620 -0.9089  0.8711
 8054SOL     OW35623   1.988   4.242  14.098 -0.6785 -0.1921 -0.4830
 8054SOL    HW135624   1.994   4.338  14.102  1.1193 -0.3920  1.6061
 8054SOL    HW235625   1.980   4.240  14.003 -0.9193  2.7743 -0.5397
 8055SOL     OW35626   1.325   3.633   8.316 -0.9514  0.3290 -0.0647
 8055SOL    HW135627   1.316   3.629   8.411  1.8441 -1.6046  0.1158
 8055SOL    HW235628   1.301   3.544   8.292  0.9158 -0.3542  0.6012
 8056SOL     OW35629   0.891   3.171   7.331 -0.3073 -0.2407 -0.4069
 8056SOL    HW135630   0.804   3.131   7.336 -0.0824 -0.7150 -0.3264
 8056SOL    HW235631   0.894   3.167   7.236 -0.5233  0.2997 -0.4353
 8057SOL     OW35632   3.528   2.896   8.800 -0.0931 -0.1315  0.0237
 8057SOL    HW135633   3.452   2.842   8.821  0.4126  0.2799  2.9023
 8057SOL    HW235634   3.530   2.892   8.704 -0.6751 -2.8692  0.1153
 8058SOL     OW35635   1.813   0.985   0.244  0.7812 -0.1171  0.4251
 8058SOL    HW135636   1.788   1.055   0.182 -2.0251  0.0101  1.6951
 8058SOL    HW235637   1.898   0.957   0.210  1.0682 -0.5803  1.5391
 8059SOL     OW35638   4.236   3.815   8.343  0.8064  0.2731  0.1261
 8059SOL    HW135639   4.254   3.882   8.278 -1.6037 -0.6083 -1.4770
 8059SOL    HW235640   4.278   3.742   8.297 -1.3887  0.5784 -2.3172
 8060SOL     OW35641   1.375   3.482  16.767 -0.0008 -0.0261 -0.1021
 8060SOL    HW135642   1.294   3.454  16.725 -0.9617  0.9488  1.1075
 8060SOL    HW235643   1.448   3.459  16.709 -3.0515 -4.2523 -2.2674
 8061SOL     OW35644   0.958   1.602   6.076  0.0526  0.0219 -0.1446
 8061SOL    HW135645   0.930   1.614   6.167  0.6168  1.0155 -0.0984
 8061SOL    HW235646   1.042   1.563   6.099  1.8495  2.1269 -3.0681
 8062SOL     OW35647   2.282   1.616   2.510  0.3004  0.1502  0.5287
 8062SOL    HW135648   2.237   1.618   2.594  0.0890 -0.1167  0.4256
 8062SOL    HW235649   2.221   1.666   2.456  0.2119 -0.7759 -0.2379
 8063SOL     OW35650   2.754   4.593   2.207  0.2154  0.2042 -0.0405
 8063SOL    HW135651   2.776   4.515   2.259  1.5654 -0.0515 -1.0096
 8063SOL    HW235652   2.733   4.556   2.121  2.9990  1.6637 -1.3492
 8064SOL     OW35653   1.230   0.226  13.770  0.0534  0.5673 -0.4326
 8064SOL    HW135654   1.245   0.211  13.864  0.7331  1.4683 -0.3915
 8064SOL    HW235655   1.141   0.260  13.767  0.9427  2.8332 -1.4691
 8065SOL     OW35656   0.075   1.638   1.475 -0.6825 -0.4327 -0.3685
 8065SOL    HW135657   4.720   1.687   1.449 -2.2168 -2.5163  0.3402
 8065SOL    HW235658   0.139   1.679   1.417 -0.2982 -0.1562  0.2465
 8066SOL     OW35659   1.497   4.572   7.989  0.3795  0.4325  0.0038
 8066SOL    HW135660   1.506   4.478   8.006  0.7887  0.4679 -0.0339
 8066SOL    HW235661   1.481   4.620   8.071 -1.2574 -0.0185 -0.0403
 8067SOL     OW35662   3.363   2.294   1.915  0.3382  0.4649 -0.5478
 8067SOL    HW135663   3.429   2.363   1.915 -0.0775  0.8649 -1.0688
 8067SOL    HW235664   3.421   2.218   1.925  1.8145  1.7848  0.8591
 8068SOL     OW35665   1.004   3.062   3.065 -0.1703  0.1722 -0.5576
 8068SOL    HW135666   1.059   3.002   3.114 -1.6232  0.6275  1.6398
 8068SOL    HW235667   1.073   3.118   3.029 -1.7940  0.4598 -3.2802
 8069SOL     OW35668   3.713   0.137   8.129 -0.0483 -0.0081  0.4470
 8069SOL    HW135669   3.721   0.200   8.058  2.0006  0.6575  1.2603
 8069SOL    HW235670   3.808   0.128   8.136  0.0637  1.0269  0.2389
 8070SOL     OW35671   3.947   2.491   2.773  0.0392 -0.6876 -0.3762
 8070SOL    HW135672   3.954   2.400   2.802 -0.2885 -0.9333 -1.0523
 8070SOL    HW235673   3.893   2.474   2.695 -1.2642  0.0388  0.3811
 8071SOL     OW35674   2.316   2.839   2.257  0.0242  0.0796 -0.2558
 8071SOL    HW135675   2.352   2.761   2.299 -1.0669 -0.0756  0.4035
 8071SOL    HW235676   2.286   2.796   2.177  0.6598 -2.3160  0.7898
 8072SOL     OW35677   1.957   2.374   8.719 -0.4152 -0.5016  0.0468
 8072SOL    HW135678   1.881   2.338   8.673 -0.9894  3.0098 -1.8067
 8072SOL    HW235679   2.017   2.394   8.647  0.6167 -0.9696  0.7922
 8073SOL     OW35680   3.556   0.606  10.706  0.7931 -0.3322 -0.2290
 8073SOL    HW135681   3.631   0.547  10.716  1.6604  0.6025 -1.0971
 8073SOL    HW235682   3.558   0.668  10.780 -0.4884  0.1475 -0.5955
 8074SOL     OW35683   1.688   1.871   4.789  0.6794 -0.0905 -0.2806
 8074SOL    HW135684   1.602   1.905   4.764  0.6835 -0.6998 -1.1063
 8074SOL    HW235685   1.736   1.953   4.776 -0.0488  0.3636 -0.1057
 8075SOL     OW35686   4.662   4.180   7.155 -0.1278  0.4150 -0.8652
 8075SOL    HW135687   4.626   4.269   7.148  1.2243  1.1120  1.2230
 8075SOL    HW235688   0.014   4.174   7.097 -0.1135 -0.5834 -0.7378
 8076SOL     OW35689   0.645   1.289  12.830  0.0222 -0.2526 -0.1776
 8076SOL    HW135690   0.610   1.228  12.765 -0.3960  1.7301 -1.8114
 8076SOL    HW235691   0.579   1.280  12.899 -0.6793 -0.9228 -0.9300
 8077SOL     OW35692   3.205   4.428   1.027  0.0296  0.0123  0.4815
 8077SOL    HW135693   3.220   4.495   0.961 -0.6998 -1.4659 -1.1682
 8077SOL    HW235694   3.285   4.423   1.080 -0.1156 -0.8543  0.6310
 8078SOL     OW35695   0.055   2.110   2.515  0.3359 -0.0722  0.2013
 8078SOL    HW135696   4.715   2.121   2.444  0.2419  0.4872  0.3774
 8078SOL    HW235697   0.141   2.112   2.473  1.2516  0.6985  2.0971
 8079SOL     OW35698   4.598   0.739   4.009 -0.2925 -0.2099 -0.0015
 8079SOL    HW135699   4.602   0.767   4.101 -0.4922  0.8020 -0.2988
 8079SOL    HW235700   4.664   0.670   4.018 -0.4581 -0.0720  2.2947
 8080SOL     OW35701   3.067   2.813   4.393 -0.0934 -0.1202 -0.2657
 8080SOL    HW135702   3.005   2.763   4.447  1.6141  0.0581  1.8469
 8080SOL    HW235703   3.021   2.802   4.309  2.9484 -4.3725 -1.3797
 8081SOL     OW35704   2.328   2.369  13.573 -0.1621  0.6448 -0.0274
 8081SOL    HW135705   2.374   2.444  13.535 -1.3310  0.8748 -0.9983
 8081SOL    HW235706   2.252   2.414  13.610  1.8042  1.6726  2.7386
 8082SOL     OW35707   0.952   3.655   8.657 -0.9527 -0.0135 -0.2018
 8082SOL    HW135708   1.017   3.620   8.718 -2.5171 -0.8599  0.9823
 8082SOL    HW235709   0.998   3.731   8.621 -0.4392 -0.9403 -1.4765
 8083SOL     OW35710   2.195   1.196   5.487  0.4493  1.1523  0.4031
 8083SOL    HW135711   2.254   1.123   5.506  1.5236  1.6129 -1.2248
 8083SOL    HW235712   2.167   1.168   5.400 -0.6414 -0.3077  1.2239
 8084SOL     OW35713   1.498   4.304   5.218 -0.9222 -0.1563 -0.0420
 8084SOL    HW135714   1.460   4.297   5.306  2.3161 -2.9613  1.1329
 8084SOL    HW235715   1.496   4.398   5.200 -0.5796 -0.1741 -0.1592
 8085SOL     OW35716   2.762   1.025  10.816 -0.9713 -0.0107 -0.9135
 8085SOL    HW135717   2.852   1.014  10.848 -1.2567  2.9806  0.9141
 8085SOL    HW235718   2.715   0.970  10.878 -2.2735  3.2123  0.9693
 8086SOL     OW35719   3.652   2.866   5.454 -0.2837 -0.1972 -0.1143
 8086SOL    HW135720   3.735   2.873   5.501  1.3258 -0.3703 -2.9443
 8086SOL    HW235721   3.676   2.810   5.380  1.4062 -0.5483  0.6957
 8087SOL     OW35722   0.206   0.403  12.912 -0.0217  0.1324  0.0244
 8087SOL    HW135723   0.223   0.317  12.953  3.3183  0.5144 -0.5643
 8087SOL    HW235724   0.177   0.373  12.826  0.4627 -0.2975  0.0117
 8088SOL     OW35725   0.159   2.522   4.272 -0.6836 -0.3268  0.6586
 8088SOL    HW135726   0.123   2.468   4.202  1.3885  0.4018 -0.9762
 8088SOL    HW235727   0.183   2.459   4.340  0.8043 -0.6755 -0.1819
 8089SOL     OW35728   0.348   0.495   5.130  0.2870 -0.5487 -0.5766
 8089SOL    HW135729   0.328   0.495   5.036  2.2395  1.0534 -0.9931
 8089SOL    HW235730   0.276   0.449   5.172  0.8109  1.2334  2.2680
 8090SOL     OW35731   3.599   3.569   4.665 -0.0097 -0.0592 -0.2529
 8090SOL    HW135732   3.574   3.490   4.714 -0.9761  0.3219 -0.1387
 8090SOL    HW235733   3.680   3.602   4.703 -0.3996  1.9559 -1.1706
 8091SOL     OW35734   1.348   1.201   8.957  0.1693 -0.1941 -0.1139
 8091SOL    HW135735   1.384   1.133   8.901 -1.9282 -1.5270  0.1957
 8091SOL    HW235736   1.285   1.150   9.007  0.0575 -0.1037 -0.1619
 8092SOL     OW35737   3.168   4.377   6.796 -0.1049 -0.1762  0.1160
 8092SOL    HW135738   3.172   4.406   6.887 -0.5267  0.0399  0.0662
 8092SOL    HW235739   3.245   4.321   6.784  0.0909  0.1312 -0.0596
 8093SOL     OW35740   3.981   3.856  13.545  0.2244  0.0511  0.2625
 8093SOL    HW135741   4.046   3.893  13.485  1.3643  2.2151  2.8486
 8093SOL    HW235742   3.902   3.908  13.531 -1.3937 -2.7176 -0.7905
 8094SOL     OW35743   1.033   0.965  15.720  0.2843  0.0076 -0.8128
 8094SOL    HW135744   1.039   0.905  15.794  0.8082  1.8347  0.6259
 8094SOL    HW235745   1.063   0.905  15.651 -0.9647 -0.8441 -0.5973
 8095SOL     OW35746   1.070   4.489   3.778  0.1707  0.2386  0.0802
 8095SOL    HW135747   1.006   4.516   3.844  1.4169  0.9421  0.9975
 8095SOL    HW235748   1.142   4.450   3.827  0.5137 -0.5107 -1.0216
 8096SOL     OW35749   2.846   2.229   5.380 -0.8657  0.1140 -0.2114
 8096SOL    HW135750   2.839   2.295   5.311  1.0176  0.1656 -0.3434
 8096SOL    HW235751   2.905   2.278   5.436 -1.0481 -1.0189  0.9731
 8097SOL     OW35752   3.917   4.154  11.657  0.2138 -0.7712  0.2734
 8097SOL    HW135753   3.912   4.199  11.573 -0.3639  1.0579  1.2953
 8097SOL    HW235754   3.849   4.088  11.642  0.7463 -0.7494 -2.2047
 8098SOL     OW35755   3.592   0.581  13.453  0.6435 -0.0925 -0.1711
 8098SOL    HW135756   3.575   0.540  13.368 -1.6833 -2.1214  1.2832
 8098SOL    HW235757   3.537   0.528  13.511  0.7676  1.5491  1.4369
 8099SOL     OW35758   4.217   2.274   7.864 -0.8880 -0.3950  0.1934
 8099SOL    HW135759   4.165   2.296   7.787  0.4943  2.3234  0.0299
 8099SOL    HW235760   4.210   2.358   7.910 -0.7079  0.0761 -0.6392
 8100SOL     OW35761   1.415   2.300   0.984  0.0072  1.1048 -0.2438
 8100SOL    HW135762   1.334   2.349   0.998 -0.3977 -0.0646  1.4410
 8100SOL    HW235763   1.385   2.226   1.037 -0.4229  2.9533  2.0579
 8101SOL     OW35764   3.173   3.284  12.493 -0.4557  0.1597  0.3173
 8101SOL    HW135765   3.085   3.256  12.467 -0.1051 -1.5815  0.9696
 8101SOL    HW235766   3.163   3.272  12.588 -1.7030 -0.5500  0.0969
 8102SOL     OW35767   0.757   4.342   8.504 -0.0582 -0.2900 -0.5817
 8102SOL    HW135768   0.839   4.391   8.501  0.2753 -0.8859 -1.1084
 8102SOL    HW235769   0.724   4.384   8.583 -2.9683 -3.6866  0.0190
 8103SOL     OW35770   1.162   2.054   0.817  0.8281 -0.4020 -0.6967
 8103SOL    HW135771   1.095   2.098   0.869  0.6696 -0.9781 -0.4085
 8103SOL    HW235772   1.189   2.136   0.777  0.9749 -0.4373 -0.6706
 8104SOL     OW35773   2.896   4.620   3.285 -0.0270 -0.5219 -0.9269
 8104SOL    HW135774   2.942   4.566   3.348 -1.3205  0.9621  1.2909
 8104SOL    HW235775   2.893   4.553   3.216  1.9797  0.1277 -1.6423
 8105SOL     OW35776   2.979   1.566   7.957 -0.0677  0.3342  0.3213
 8105SOL    HW135777   2.986   1.601   8.046 -3.0045 -0.7102  0.9457
 8105SOL    HW235778   2.909   1.620   7.921 -1.1097 -0.2976  1.4007
 8106SOL     OW35779   4.193   3.467   7.031 -0.3633 -0.0324  0.0208
 8106SOL    HW135780   4.181   3.554   7.070  1.7352 -1.0230  2.8853
 8106SOL    HW235781   4.201   3.412   7.109 -2.0062  0.3184  0.4544
 8107SOL     OW35782   0.163   1.822   9.018  0.1442  0.0057 -0.4049
 8107SOL    HW135783   0.198   1.752   8.963  2.3468  0.4571  0.4280
 8107SOL    HW235784   0.071   1.796   9.011 -0.5585  1.8517  1.8563
 8108SOL     OW35785   2.276   4.278   5.452  0.3052 -0.1275  0.3694
 8108SOL    HW135786   2.309   4.196   5.416 -0.2334 -0.9801  1.8634
 8108SOL    HW235787   2.182   4.263   5.462  0.8533 -2.9773  1.1996
 8109SOL     OW35788   0.862   1.501   8.237  0.1135 -0.3950  0.6749
 8109SOL    HW135789   0.792   1.566   8.230  0.4062  0.0914  2.2243
 8109SOL    HW235790   0.936   1.546   8.276 -1.5868 -0.2816  3.7486
 8110SOL     OW35791   4.145   3.162   2.829 -0.1597 -0.3461 -0.0124
 8110SOL    HW135792   4.169   3.171   2.922  1.8496  1.8277 -0.7328
 8110SOL    HW235793   4.079   3.231   2.823 -0.5666 -0.7987 -0.6679
 8111SOL     OW35794   2.679   1.063   2.713 -0.8464  0.0334 -0.5031
 8111SOL    HW135795   2.610   1.118   2.676 -1.0008 -0.3674 -0.8131
 8111SOL    HW235796   2.729   1.131   2.758 -2.3243  0.2072  0.8880
 8112SOL     OW35797   1.357   0.980   7.437 -0.0282 -0.3421  0.1788
 8112SOL    HW135798   1.311   0.947   7.515  2.5418 -0.4751  1.6175
 8112SOL    HW235799   1.320   1.068   7.433 -3.7726 -1.8555  1.1648
 8113SOL     OW35800   0.443   3.159   1.213 -0.3901 -0.2448  0.7740
 8113SOL    HW135801   0.366   3.211   1.190 -0.9637 -0.9263  1.1642
 8113SOL    HW235802   0.440   3.094   1.143  0.0511 -0.3842  0.8840
 8114SOL     OW35803   2.448   2.085   5.718  0.0680 -0.3848  0.1276
 8114SOL    HW135804   2.362   2.051   5.696 -1.1428  2.7717 -0.0079
 8114SOL    HW235805   2.490   2.092   5.632  1.2377 -3.7752  0.4091
 8115SOL     OW35806   1.754   1.320  11.860 -0.5855 -0.1422  0.2605
 8115SOL    HW135807   1.807   1.241  11.850 -0.6962  0.1987 -3.0810
 8115SOL    HW235808   1.676   1.273  11.889 -0.3658  0.5095  1.9000
 8116SOL     OW35809   3.000   2.207  10.765 -0.0167 -0.1416  0.5296
 8116SOL    HW135810   3.072   2.216  10.828  0.8682 -0.3323 -0.4603
 8116SOL    HW235811   3.017   2.271  10.696  1.4451 -0.4630  0.5844
 8117SOL     OW35812   0.886   1.469   4.832 -0.2807  1.1945  0.2491
 8117SOL    HW135813   0.847   1.510   4.909 -1.6790 -1.2660  0.8518
 8117SOL    HW235814   0.975   1.448   4.861 -0.7598 -0.6839  0.3336
 8118SOL     OW35815   0.416   2.932   2.668 -0.4116  0.6749  0.1871
 8118SOL    HW135816   0.448   2.992   2.601  0.3958 -0.9822 -0.8992
 8118SOL    HW235817   0.328   2.920   2.632 -0.5867 -2.6175  1.6710
 8119SOL     OW35818   2.644   2.263   9.017 -0.2998 -0.6058 -0.4777
 8119SOL    HW135819   2.711   2.294   9.077 -0.9795  0.3866 -0.2204
 8119SOL    HW235820   2.683   2.186   8.976  1.6064  0.7947 -1.3114
 8120SOL     OW35821   3.972   1.704   3.528 -0.2652  0.2500 -0.0850
 8120SOL    HW135822   3.881   1.691   3.500 -0.3190 -0.2534  0.3391
 8120SOL    HW235823   3.970   1.797   3.551 -2.9842 -0.4353  2.3555
 8121SOL     OW35824   0.092   2.024   4.403  0.2271 -0.4476  0.0890
 8121SOL    HW135825   0.023   1.957   4.406 -0.1760  0.0649  2.5836
 8121SOL    HW235826   0.158   1.981   4.458 -1.0848 -0.4265  1.6640
 8122SOL     OW35827   3.165   1.048   6.178 -0.2524 -0.0038 -0.0942
 8122SOL    HW135828   3.158   1.123   6.119 -1.7171 -0.4300 -0.4702
 8122SOL    HW235829   3.178   1.100   6.257 -2.4470  1.6560 -0.8224
 8123SOL     OW35830   3.260   4.007   6.889  0.1564 -0.5200  0.1446
 8123SOL    HW135831   3.278   3.969   6.975  1.3777 -0.3815 -0.0438
 8123SOL    HW235832   3.312   4.088   6.885 -1.6207  0.6782  1.4159
 8124SOL     OW35833   4.604   3.956   7.374 -0.2376  0.4272 -0.2688
 8124SOL    HW135834   4.610   4.011   7.296 -0.0868 -2.4982 -2.3147
 8124SOL    HW235835   4.690   3.965   7.413 -0.1539 -3.0278  0.3680
 8125SOL     OW35836   1.275   3.919   6.768 -0.1131 -0.3319  0.3677
 8125SOL    HW135837   1.201   3.875   6.809 -0.2385  1.4240  2.0107
 8125SOL    HW235838   1.232   3.972   6.702 -0.2097  1.5678  1.9452
 8126SOL     OW35839   0.807   1.138   2.106  0.1791  0.0084  0.2012
 8126SOL    HW135840   0.794   1.219   2.057  0.7195 -0.3219 -0.4898
 8126SOL    HW235841   0.792   1.173   2.193  0.3504 -0.8543  0.5768
 8127SOL     OW35842   1.044   4.232  13.936 -0.4079  0.3728 -0.2613
 8127SOL    HW135843   1.116   4.291  13.914 -0.9395  1.7847  1.8140
 8127SOL    HW235844   0.973   4.267  13.883 -0.6236 -0.0491 -0.2455
 8128SOL     OW35845   4.701   3.890   6.945  0.1811  0.3735 -0.1033
 8128SOL    HW135846   0.010   3.973   6.980 -0.2302  0.1348  0.8411
 8128SOL    HW235847   4.608   3.903   6.961 -0.1151 -2.6335  0.6393
 8129SOL     OW35848   2.292   1.442   6.856  0.0915  0.7191 -0.3210
 8129SOL    HW135849   2.353   1.412   6.924  1.5692  0.5951 -1.7037
 8129SOL    HW235850   2.360   1.488   6.807 -0.0016 -0.3045 -1.4108
 8130SOL     OW35851   2.231   0.446   1.066  0.5483 -0.2118 -0.5474
 8130SOL    HW135852   2.308   0.461   1.010  0.2719  0.5207 -0.7322
 8130SOL    HW235853   2.159   0.443   1.003  0.4851 -2.3651 -0.3604
 8131SOL     OW35854   2.370   1.598   7.284  0.1689  0.4516  0.3464
 8131SOL    HW135855   2.295   1.651   7.311 -0.7520  0.6908 -2.7382
 8131SOL    HW235856   2.340   1.510   7.304  0.2175  0.1270 -1.0083
 8132SOL     OW35857   0.842   0.639   8.462  0.9873  0.2307 -0.3012
 8132SOL    HW135858   0.833   0.734   8.454 -2.7789 -0.0415  0.4852
 8132SOL    HW235859   0.936   0.625   8.468  1.2399  2.0506  0.1326
 8133SOL     OW35860   1.708   3.766   5.380  0.0736 -0.8141  0.2927
 8133SOL    HW135861   1.636   3.826   5.402  1.5163  2.2646 -3.4073
 8133SOL    HW235862   1.782   3.818   5.410 -0.9645  0.0518  1.3412
 8134SOL     OW35863   3.885   1.852  10.877 -0.0953  0.0991  0.1274
 8134SOL    HW135864   3.868   1.947  10.875 -2.0681 -0.2508  0.3795
 8134SOL    HW235865   3.817   1.808  10.928 -1.5677  1.9182 -0.2589
 8135SOL     OW35866   2.857   1.359   6.362  0.5263  0.3842 -0.4279
 8135SOL    HW135867   2.783   1.372   6.302 -1.6464  1.7898  2.5242
 8135SOL    HW235868   2.821   1.282   6.407  0.6451  0.4606 -0.2021
 8136SOL     OW35869   1.609   1.164  17.646 -0.6587  0.5364  0.2455
 8136SOL    HW135870   1.578   1.168  17.556  0.3703  1.6021 -0.0557
 8136SOL    HW235871   1.534   1.137   0.006 -0.9761 -2.0998 -1.5637
 8137SOL     OW35872   2.094   4.089  15.697 -0.1889  0.2122 -0.6095
 8137SOL    HW135873   2.069   4.109  15.607  1.2899 -1.2830 -1.3430
 8137SOL    HW235874   2.076   4.174  15.736  0.8837  0.6746 -1.1325
 8138SOL     OW35875   3.771   3.528  14.837 -0.5559  0.3171 -0.1346
 8138SOL    HW135876   3.687   3.573  14.834 -0.9155 -0.2594  1.0491
 8138SOL    HW235877   3.821   3.600  14.876  0.1843 -0.0643 -0.3785
 8139SOL     OW35878   3.308   0.664   0.721  0.8327 -0.1486 -0.1458
 8139SOL    HW135879   3.327   0.748   0.680 -1.2129 -0.3431 -1.4988
 8139SOL    HW235880   3.332   0.606   0.650  1.5545 -1.4434  1.1547
 8140SOL     OW35881   0.750   3.180  15.007  0.1457  0.1382 -0.1644
 8140SOL    HW135882   0.740   3.271  14.980 -0.5563  0.4776  1.2166
 8140SOL    HW235883   0.830   3.161  14.958  1.0811 -0.6635  1.6779
 8141SOL     OW35884   4.589   0.977   5.260  0.1604  0.1192 -0.3535
 8141SOL    HW135885   4.520   1.037   5.232  0.2475  0.7289  0.7209
 8141SOL    HW235886   4.649   1.041   5.298  1.9585  0.4119 -3.7387
 8142SOL     OW35887   3.117   1.808  11.847 -0.4845 -0.4306 -0.6613
 8142SOL    HW135888   3.074   1.723  11.835 -0.6997 -0.6113  1.4799
 8142SOL    HW235889   3.187   1.808  11.781 -1.5622 -0.3371 -1.8082
 8143SOL     OW35890   2.958   3.625   6.018  0.0733  0.0410 -0.2360
 8143SOL    HW135891   2.867   3.629   5.990 -0.4652 -0.6466  1.4337
 8143SOL    HW235892   3.011   3.673   5.954  1.5831 -2.1126 -0.5805
 8144SOL     OW35893   1.152   0.870   2.754 -0.0471  1.0478 -0.1538
 8144SOL    HW135894   1.222   0.917   2.708  0.8576 -0.9500 -0.8030
 8144SOL    HW235895   1.154   0.785   2.710 -1.9360  0.0111  1.8032
 8145SOL     OW35896   4.518   0.646  17.089 -0.4324 -0.1963 -0.2069
 8145SOL    HW135897   4.518   0.562  17.135 -0.7830  0.7541  1.5310
 8145SOL    HW235898   4.522   0.618  16.998  0.0123 -1.4236  0.1870
 8146SOL     OW35899   3.238   4.157   1.661 -0.0736  0.1482  0.1574
 8146SOL    HW135900   3.257   4.236   1.711  0.1510 -0.0076  0.3172
 8146SOL    HW235901   3.143   4.171   1.658 -0.0747 -0.1469 -1.3173
 8147SOL     OW35902   3.206   4.314  16.030 -0.4720  0.5017 -0.4742
 8147SOL    HW135903   3.163   4.257  16.094  0.2292  0.0816 -0.3716
 8147SOL    HW235904   3.195   4.401  16.068  1.8158  0.2576  0.7700
 8148SOL     OW35905   4.315   1.429   2.140  0.1219 -0.0435 -0.0397
 8148SOL    HW135906   4.404   1.400   2.121 -0.5266 -3.6041  2.3921
 8148SOL    HW235907   4.334   1.515   2.178  0.1351 -0.0889  0.0547
 8149SOL     OW35908   3.880   2.886   6.180  0.3675 -0.1225 -0.0204
 8149SOL    HW135909   3.924   2.827   6.241  0.5329  0.7865  0.7429
 8149SOL    HW235910   3.835   2.813   6.136  1.2475 -1.5641  1.4653
 8150SOL     OW35911   0.607   0.531   7.505 -0.1684  0.2117  0.0133
 8150SOL    HW135912   0.631   0.565   7.591  2.5352 -2.4661  0.3001
 8150SOL    HW235913   0.583   0.439   7.518  1.2951  0.3999  3.9130
 8151SOL     OW35914   3.231   3.940   3.778 -0.4031 -0.4550 -0.3001
 8151SOL    HW135915   3.281   3.980   3.706 -0.0495  2.0551  1.3421
 8151SOL    HW235916   3.150   3.991   3.779  0.2596  0.6075  0.5031
 8152SOL     OW35917   4.695   2.169  11.148  0.1583 -0.2922  0.2709
 8152SOL    HW135918   0.037   2.156  11.079 -1.2272  1.8797 -1.4583
 8152SOL    HW235919   4.709   2.257  11.183 -0.0423  0.0721 -0.5669
 8153SOL     OW35920   2.319   3.325   7.303 -0.4885  0.1350 -0.3635
 8153SOL    HW135921   2.251   3.353   7.243 -0.9430 -1.4610 -0.6010
 8153SOL    HW235922   2.328   3.407   7.351  1.9265 -0.4994  0.2964
 8154SOL     OW35923   3.942   3.210   1.933  0.1195  0.4298 -0.5048
 8154SOL    HW135924   3.918   3.241   1.846  0.6647  3.5885  0.4843
 8154SOL    HW235925   3.976   3.127   1.899  1.6416  1.3050 -1.1194
 8155SOL     OW35926   4.202   2.272  17.429 -0.1551 -0.4020 -0.4753
 8155SOL    HW135927   4.296   2.265  17.444  0.0793  1.8493 -0.8515
 8155SOL    HW235928   4.185   2.192  17.379 -3.2436  2.9451 -4.7310
 8156SOL     OW35929   1.772   3.594  15.968 -0.9492 -0.6151 -0.0667
 8156SOL    HW135930   1.765   3.685  15.938 -4.1282 -1.7556 -2.7250
 8156SOL    HW235931   1.694   3.554  15.929 -0.1450  0.3217 -2.5952
 8157SOL     OW35932   4.251   1.464   4.650  0.0823  0.2537 -0.3146
 8157SOL    HW135933   4.241   1.477   4.744  0.1178  0.0319 -0.2797
 8157SOL    HW235934   4.162   1.470   4.617  0.3559 -0.7517 -1.2421
 8158SOL     OW35935   1.421   2.363   3.891 -0.1066 -0.1496  0.0662
 8158SOL    HW135936   1.512   2.342   3.871  0.4349  0.8954  1.4215
 8158SOL    HW235937   1.432   2.375   3.986 -3.7279  1.4793  0.2813
 8159SOL     OW35938   3.813   1.758   1.249  0.1392  0.7075 -0.2709
 8159SOL    HW135939   3.733   1.809   1.263  0.6486  1.9794 -2.0432
 8159SOL    HW235940   3.834   1.768   1.157 -0.8652  1.6419 -0.3893
 8160SOL     OW35941   2.979   4.695   5.722  0.0893 -0.4174  0.0446
 8160SOL    HW135942   2.887   4.690   5.697 -0.3472  1.9282  1.2145
 8160SOL    HW235943   2.961   0.014   5.806  0.1077  1.1497 -0.7396
 8161SOL     OW35944   4.239   3.909   7.908  0.3826  0.3314  0.6084
 8161SOL    HW135945   4.178   3.859   7.854  0.8426 -1.6533  1.9464
 8161SOL    HW235946   4.310   3.845   7.913 -1.7052 -2.3092 -3.7054
 8162SOL     OW35947   4.152   3.753   2.859 -0.1750  0.2384  0.5426
 8162SOL    HW135948   4.201   3.725   2.936 -1.3364  0.7957  1.4956
 8162SOL    HW235949   4.201   3.832   2.837 -1.0869 -0.0528 -2.4709
 8163SOL     OW35950   1.024   1.595   0.064 -0.3023 -0.0292  0.3446
 8163SOL    HW135951   1.033   1.589   0.159  1.9890 -1.2330  0.0644
 8163SOL    HW235952   1.113   1.581   0.030 -0.9201  1.2135 -1.7769
 8164SOL     OW35953   2.102   3.057   7.148  0.2267 -0.5325 -0.1049
 8164SOL    HW135954   2.108   3.068   7.053  1.0733 -0.6015 -0.0617
 8164SOL    HW235955   2.006   3.064   7.148  0.1133 -2.1289  0.9936
 8165SOL     OW35956   1.999   2.662   5.435 -0.3674 -0.4353  0.5803
 8165SOL    HW135957   1.927   2.612   5.473 -0.2274  0.4522  2.0122
 8165SOL    HW235958   2.067   2.621   5.488  0.7217  0.8918  0.2171
 8166SOL     OW35959   2.554   2.998   4.332 -0.3394  0.0865 -0.3001
 8166SOL    HW135960   2.521   3.075   4.285 -0.6552  0.1140 -0.0386
 8166SOL    HW235961   2.633   2.980   4.282  0.0768  0.5122  0.2063
 8167SOL     OW35962   2.238   3.667   8.095 -0.0641 -0.1505 -0.4772
 8167SOL    HW135963   2.182   3.593   8.073  2.4586 -2.4304  0.7715
 8167SOL    HW235964   2.322   3.622   8.098 -0.3266 -0.7043 -1.4688
 8168SOL     OW35965   3.806   3.683   4.237 -0.1452  0.4462  0.1258
 8168SOL    HW135966   3.738   3.710   4.298  2.3129  0.2545  2.9477
 8168SOL    HW235967   3.781   3.731   4.157 -1.5727  2.0475  1.5329
 8169SOL     OW35968   3.043   2.538   5.333  0.0232 -0.6826 -0.0425
 8169SOL    HW135969   2.971   2.506   5.279 -0.0046  1.0869 -1.0412
 8169SOL    HW235970   3.022   2.500   5.418 -1.4414  0.4598  0.0939
 8170SOL     OW35971   2.713   3.374   6.713 -0.1961  0.1008 -0.3395
 8170SOL    HW135972   2.707   3.469   6.702  3.1025  0.1757 -1.4856
 8170SOL    HW235973   2.785   3.354   6.773 -1.7539 -0.1649  1.4500
 8171SOL     OW35974   3.220   3.610  12.380 -0.5024 -0.1808 -0.4035
 8171SOL    HW135975   3.264   3.696  12.375  1.6343 -1.2257  0.4423
 8171SOL    HW235976   3.140   3.646  12.418 -0.9604 -2.4664  0.7796
 8172SOL     OW35977   1.994   2.570  10.517 -0.7621 -0.2991 -0.2047
 8172SOL    HW135978   1.981   2.619  10.436  0.2763  1.6814  0.8028
 8172SOL    HW235979   1.965   2.484  10.489  0.4016 -0.6006 -0.4853
 8173SOL     OW35980   0.576   3.766   8.230  0.0703 -0.3173  0.1082
 8173SOL    HW135981   0.493   3.801   8.264  0.5358  0.7257  0.1644
 8173SOL    HW235982   0.624   3.845   8.207  0.8685 -0.7334  0.3401
 8174SOL     OW35983   3.493   1.148   2.728 -0.1962 -0.1388 -0.3389
 8174SOL    HW135984   3.437   1.173   2.654  0.9419  1.6109 -0.6048
 8174SOL    HW235985   3.439   1.165   2.805  1.8222 -1.7518  1.4018
 8175SOL     OW35986   1.374   0.487   6.196 -0.0635 -0.4177 -0.3662
 8175SOL    HW135987   1.353   0.411   6.142 -0.9167 -1.6086  1.6457
 8175SOL    HW235988   1.426   0.532   6.130  1.9368  2.9252  3.4639
 8176SOL     OW35989   4.422   3.235   8.573 -0.2458  0.4852  0.4682
 8176SOL    HW135990   4.409   3.149   8.613  2.5682  0.7220  1.8847
 8176SOL    HW235991   4.389   3.213   8.486  0.3380 -1.6711  0.8003
 8177SOL     OW35992   3.611   0.954   6.231 -0.0253 -0.0536  0.2439
 8177SOL    HW135993   3.688   0.897   6.237 -1.7148 -1.8152  4.9944
 8177SOL    HW235994   3.535   0.901   6.208 -2.0344  1.3916  3.4701
 8178SOL     OW35995   1.014   3.954   5.338  0.7075  0.0045  0.0911
 8178SOL    HW135996   1.079   4.021   5.359  1.2748 -0.1791 -1.0312
 8178SOL    HW235997   0.930   3.990   5.309  0.3910 -0.4003  0.5059
 8179SOL     OW35998   0.781   3.791   7.281 -0.3786 -0.7251  0.3977
 8179SOL    HW135999   0.721   3.851   7.236  2.0018  0.3690 -1.2827
 8179SOL    HW236000   0.856   3.850   7.288 -0.9614  0.1546 -0.7603
 8180SOL     OW36001   0.839   0.509   7.333  0.4862 -0.0938  0.6008
 8180SOL    HW136002   0.780   0.547   7.398 -0.0938  1.6710 -0.9588
 8180SOL    HW236003   0.814   0.569   7.263  0.8367 -0.6323  0.0115
 8181SOL     OW36004   4.174   3.021   1.698  0.1979 -0.2502 -0.2839
 8181SOL    HW136005   4.196   3.000   1.607  0.1675  0.6401 -0.4919
 8181SOL    HW236006   4.148   2.931   1.717  0.9095 -0.3054  0.4098
 8182SOL     OW36007   1.363   3.825   2.013  0.3908  0.5512 -0.4390
 8182SOL    HW136008   1.294   3.782   1.963  0.4189 -1.3115  1.0847
 8182SOL    HW236009   1.370   3.772   2.093  1.7009  3.9706  1.7309
 8183SOL     OW36010   4.391   2.324  10.620 -0.1478 -0.3015  0.1930
 8183SOL    HW136011   4.396   2.240  10.666  2.8562  0.6342  1.5452
 8183SOL    HW236012   4.432   2.384  10.682 -0.9583  2.6056 -2.0328
 8184SOL     OW36013   0.250   0.801   4.213 -0.8754  0.1937 -0.8240
 8184SOL    HW136014   0.262   0.731   4.277 -1.6541  0.2704 -0.5921
 8184SOL    HW236015   0.265   0.875   4.271 -0.9882 -0.8274  0.5208
 8185SOL     OW36016   4.546   1.968  17.121 -0.1567 -0.0287  0.3265
 8185SOL    HW136017   4.633   1.982  17.159  0.2826 -1.3885 -0.1927
 8185SOL    HW236018   4.552   1.877  17.093 -1.5662 -1.0276  3.2769
 8186SOL     OW36019   1.878   3.871   1.792 -0.3662  0.0249 -0.1436
 8186SOL    HW136020   1.962   3.839   1.825 -0.7621  0.2844  1.1187
 8186SOL    HW236021   1.819   3.801   1.818  0.5344 -0.3989  0.7787
 8187SOL     OW36022   3.631   1.580   2.799  0.0990 -0.1610  0.9433
 8187SOL    HW136023   3.601   1.602   2.711  1.3464 -0.9684  0.3173
 8187SOL    HW236024   3.544   1.558   2.832  0.2471 -1.5074  0.4384
 8188SOL     OW36025   2.336   0.552   7.744 -0.4345  0.0317  0.0763
 8188SOL    HW136026   2.295   0.622   7.794 -3.4161 -1.3158 -0.4596
 8188SOL    HW236027   2.385   0.592   7.672  1.0827 -0.3760  0.8772
 8189SOL     OW36028   0.251   4.456   6.380 -0.0794 -0.1150  0.2159
 8189SOL    HW136029   0.255   4.468   6.285  0.4498  0.2482  0.2824
 8189SOL    HW236030   0.257   4.550   6.399  0.0682 -0.0117 -0.3562
 8190SOL     OW36031   2.968   0.687   8.789  0.5907  0.4409 -0.3477
 8190SOL    HW136032   2.920   0.605   8.801  0.4799  0.4005 -1.0629
 8190SOL    HW236033   3.054   0.668   8.825  1.3357  0.4039 -2.1123
 8191SOL     OW36034   3.941   4.029   7.568  0.4015 -0.3309  0.2161
 8191SOL    HW136035   3.977   3.984   7.492  1.3177  1.0523 -0.1827
 8191SOL    HW236036   3.899   3.962   7.621  1.6575 -0.1580  1.4315
 8192SOL     OW36037   3.488   1.259   3.825  0.1788 -0.3726 -0.2732
 8192SOL    HW136038   3.397   1.261   3.796 -0.6440 -0.7703  2.2525
 8192SOL    HW236039   3.469   1.268   3.919 -1.0231  0.1483 -0.5663
 8193SOL     OW36040   0.494   2.510   8.037 -0.5453  0.0774 -0.7385
 8193SOL    HW136041   0.410   2.498   8.081 -0.8585 -0.9417 -1.6102
 8193SOL    HW236042   0.465   2.488   7.949  0.3117  0.2213 -1.0635
 8194SOL     OW36043   3.777   3.509   5.317 -0.3457  0.3207 -0.1551
 8194SOL    HW136044   3.821   3.541   5.396 -0.7205 -1.2236  0.6865
 8194SOL    HW236045   3.821   3.575   5.263  0.3411 -0.7953 -0.9642
 8195SOL     OW36046   0.837   3.839  14.827  0.1590 -0.3022 -0.3018
 8195SOL    HW136047   0.928   3.827  14.857  0.0406 -1.2986 -0.3415
 8195SOL    HW236048   0.806   3.879  14.908  2.1448  0.6756 -0.0217
 8196SOL     OW36049   2.312   1.793   2.169  0.0521 -0.4334  0.3055
 8196SOL    HW136050   2.250   1.735   2.126 -1.2767  3.2261 -2.6488
 8196SOL    HW236051   2.357   1.843   2.102  0.0660  0.2473  0.8209
 8197SOL     OW36052   4.521   3.580   5.648 -0.3863 -0.1706  0.0131
 8197SOL    HW136053   4.546   3.586   5.740  1.5459  0.5547 -0.5437
 8197SOL    HW236054   4.574   3.649   5.607 -0.6839 -0.1545 -0.3446
 8198SOL     OW36055   4.598   1.851   8.267  0.2286 -0.2374 -0.4229
 8198SOL    HW136056   4.527   1.874   8.326 -0.1783  1.5232 -1.5817
 8198SOL    HW236057   4.663   1.910   8.305  0.2621 -0.6763  0.1934
 8199SOL     OW36058   3.126   2.723   8.508  0.6396  0.0573 -0.3281
 8199SOL    HW136059   3.191   2.793   8.515  1.1381 -0.5837  1.3918
 8199SOL    HW236060   3.040   2.764   8.511  0.1576 -1.1215  2.2815
 8200SOL     OW36061   3.786   1.992  13.190 -0.5934 -0.3079  0.2666
 8200SOL    HW136062   3.786   1.903  13.225 -1.5817  0.2342  1.6284
 8200SOL    HW236063   3.710   1.983  13.133  0.3636 -0.1572 -1.0454
 8201SOL     OW36064   4.456   3.640  11.965 -0.4172  0.0926 -0.4103
 8201SOL    HW136065   4.440   3.550  11.937  0.0269  0.0971 -0.6780
 8201SOL    HW236066   4.373   3.676  11.935  0.0378  0.4503 -1.2322
 8202SOL     OW36067   4.400   0.087   6.887  0.1837  0.0228 -0.1943
 8202SOL    HW136068   4.331   0.035   6.928 -0.3666  0.8638 -0.0454
 8202SOL    HW236069   4.357   0.171   6.873  0.9854  0.3847 -0.5140
 8203SOL     OW36070   2.937   4.534   3.866  0.3509 -0.1175  0.6418
 8203SOL    HW136071   3.019   4.553   3.820  1.1257 -1.3308  1.5414
 8203SOL    HW236072   2.922   4.448   3.828 -0.9266 -0.0569  0.9959
 8204SOL     OW36073   4.392   2.005   5.312 -0.2679 -0.3622 -0.1509
 8204SOL    HW136074   4.484   2.021   5.331  0.5070 -0.7707 -3.5503
 8204SOL    HW236075   4.357   2.076   5.366  0.2380  0.2979 -0.6910
 8205SOL     OW36076   2.223   1.758   6.924 -0.3275  0.2017  0.5778
 8205SOL    HW136077   2.196   1.707   6.848 -1.0824  1.1019  0.2372
 8205SOL    HW236078   2.317   1.741   6.932 -0.5064 -0.8854  0.2910
 8206SOL     OW36079   1.050   3.407   6.656 -0.3543 -0.2150 -0.0683
 8206SOL    HW136080   1.027   3.318   6.629 -0.2222  0.2982 -1.8689
 8206SOL    HW236081   0.968   3.424   6.704 -1.4525  1.5350 -2.5402
 8207SOL     OW36082   3.073   4.298  15.536 -0.4949  0.4555  0.1872
 8207SOL    HW136083   2.999   4.254  15.494 -0.0598 -0.8762  0.8150
 8207SOL    HW236084   3.111   4.333  15.456 -0.6068  1.0102  0.3756
 8208SOL     OW36085   1.983   1.130   7.204 -0.1167 -0.4154  0.2356
 8208SOL    HW136086   1.890   1.153   7.203 -0.3020 -1.1383  1.3442
 8208SOL    HW236087   1.994   1.089   7.118 -1.4195 -1.4520  0.5519
 8209SOL     OW36088   1.817   1.079   3.519  0.5953 -0.3933 -0.0919
 8209SOL    HW136089   1.816   1.086   3.423 -2.6104  0.6631  0.0075
 8209SOL    HW236090   1.909   1.066   3.538  0.9007 -0.4949 -1.6419
 8210SOL     OW36091   0.705   2.824  17.246  0.1022  0.3668 -0.1334
 8210SOL    HW136092   0.726   2.918  17.239 -0.3186  0.1866 -4.0641
 8210SOL    HW236093   0.758   2.791  17.172 -0.0415  0.4757 -0.2844
 8211SOL     OW36094   4.065   0.213   7.235 -0.4942  0.3561 -0.3415
 8211SOL    HW136095   4.016   0.287   7.201  0.8721  0.9732 -0.9502
 8211SOL    HW236096   4.121   0.266   7.292  0.1212  0.7824 -1.3391
 8212SOL     OW36097   2.048   1.693   4.506  0.2555 -0.7061  0.2238
 8212SOL    HW136098   2.086   1.610   4.535  2.5016  0.2909  0.1642
 8212SOL    HW236099   1.957   1.684   4.533  0.0799  0.2985 -0.0206
 8213SOL     OW36100   3.398   1.776   4.821 -0.1832  0.0555  0.5362
 8213SOL    HW136101   3.372   1.866   4.844 -1.6713  0.2374 -1.8734
 8213SOL    HW236102   3.492   1.782   4.808 -0.1612  0.2706  0.7857
 8214SOL     OW36103   0.461   3.897   9.179 -0.3061  0.1433  0.2202
 8214SOL    HW136104   0.409   3.977   9.173  0.2142  0.3610 -1.3527
 8214SOL    HW236105   0.445   3.867   9.269 -1.3102 -1.1199 -0.3891
 8215SOL     OW36106   4.513   4.306  11.054 -0.6044 -0.1901 -0.1596
 8215SOL    HW136107   4.489   4.381  11.109  1.4929  0.8624 -0.6635
 8215SOL    HW236108   4.591   4.347  11.017  0.4664  0.1430  2.4259
 8216SOL     OW36109   0.381   3.271   0.443  0.0331 -0.2406 -0.0380
 8216SOL    HW136110   0.372   3.367   0.441  1.3390 -0.0820  1.3848
 8216SOL    HW236111   0.313   3.251   0.378 -2.8021  2.4666  2.0358
 8217SOL     OW36112   3.093   0.348   0.601  0.2615  0.0570  0.1170
 8217SOL    HW136113   3.168   0.344   0.542 -0.0805  0.4006 -0.3371
 8217SOL    HW236114   3.114   0.275   0.659 -0.0999  0.1744  0.3984
 8218SOL     OW36115   0.600   0.637   4.545 -0.3329  0.4756 -0.0783
 8218SOL    HW136116   0.636   0.726   4.543  2.6029 -0.7317 -1.6442
 8218SOL    HW236117   0.636   0.593   4.623  0.6098 -1.0818 -1.3886
 8219SOL     OW36118   0.738   1.721  13.472  0.1091  0.8091 -0.0750
 8219SOL    HW136119   0.759   1.757  13.386  0.6098 -2.3409 -1.2661
 8219SOL    HW236120   0.779   1.636  13.459 -1.1817  0.3729 -1.3359
 8220SOL     OW36121   2.882   0.325   5.284  0.1111 -0.5149 -0.6337
 8220SOL    HW136122   2.961   0.357   5.329  0.0887  1.5498 -2.0685
 8220SOL    HW236123   2.880   0.398   5.222  1.2638  0.3745  0.3709
 8221SOL     OW36124   2.916   0.303   3.075 -0.4253 -0.1495  0.0464
 8221SOL    HW136125   2.866   0.222   3.090 -3.1380  1.1929 -1.6977
 8221SOL    HW236126   2.866   0.343   3.003 -0.1551  0.1475  0.0263
 8222SOL     OW36127   1.921   4.151  10.429  0.0613 -0.6647  0.2810
 8222SOL    HW136128   1.932   4.104  10.512  3.2195 -2.3680 -1.1080
 8222SOL    HW236129   1.874   4.228  10.461  2.4564  0.5122  0.9092
 8223SOL     OW36130   0.021   0.304   3.643  0.1532 -0.3595  0.4846
 8223SOL    HW136131   0.091   0.243   3.620  1.7829  0.0207  4.4216
 8223SOL    HW236132   4.668   0.253   3.617  0.8473 -1.6742  1.0541
 8224SOL     OW36133   1.712   4.045   3.319 -0.0363 -0.2716  0.2815
 8224SOL    HW136134   1.655   4.111   3.358  0.2664  0.1077  0.0895
 8224SOL    HW236135   1.790   4.061   3.371 -1.1406  2.6930  1.0267
 8225SOL     OW36136   2.726   1.019   5.797 -0.1319 -0.4605  0.3645
 8225SOL    HW136137   2.718   1.022   5.701  0.6247  2.1768  0.3895
 8225SOL    HW236138   2.805   1.068   5.818 -1.8521  2.0187  1.0451
 8226SOL     OW36139   0.911   0.753  11.790  0.4470  0.5220 -0.2666
 8226SOL    HW136140   0.842   0.692  11.814 -0.2603  0.8232 -1.5873
 8226SOL    HW236141   0.883   0.759  11.699 -1.2507 -0.3522  0.2058
 8227SOL     OW36142   4.127   0.472   3.066 -0.1496 -0.2481  0.1797
 8227SOL    HW136143   4.203   0.440   3.116 -0.4005 -1.1112  0.0058
 8227SOL    HW236144   4.057   0.474   3.130  1.0455 -1.7096  1.5522
 8228SOL     OW36145   2.476   2.974   3.895  0.0143 -0.2619 -0.2651
 8228SOL    HW136146   2.446   2.929   3.816  0.3275  0.2517 -0.6752
 8228SOL    HW236147   2.495   3.060   3.858 -2.9637  0.5170  0.0225
 8229SOL     OW36148   2.841   0.207   6.197  0.1850  0.0345 -0.0832
 8229SOL    HW136149   2.761   0.158   6.179  0.6455 -0.3313 -1.1511
 8229SOL    HW236150   2.807   0.293   6.170 -1.9376 -0.6195  0.5779
 8230SOL     OW36151   0.460   3.668   2.317 -0.0523  0.1205  0.3775
 8230SOL    HW136152   0.525   3.661   2.247 -1.0620  2.1758 -0.7732
 8230SOL    HW236153   0.508   3.722   2.379  0.2224 -1.3834  1.4879
 8231SOL     OW36154   0.539   0.231   9.752 -0.1708 -0.0685 -0.0116
 8231SOL    HW136155   0.544   0.308   9.809  0.2197  0.0965 -0.2672
 8231SOL    HW236156   0.483   0.264   9.681 -2.0090 -2.2544  0.4359
 8232SOL     OW36157   2.936   1.874   7.258 -0.3420 -0.1578 -0.0389
 8232SOL    HW136158   2.971   1.819   7.188 -1.1356 -0.4468 -0.2097
 8232SOL    HW236159   2.884   1.809   7.306  0.9431 -0.0557  1.4818
 8233SOL     OW36160   2.208   3.654   0.199 -0.2368 -0.1362  0.2903
 8233SOL    HW136161   2.283   3.601   0.172 -1.3632 -2.1020  1.0275
 8233SOL    HW236162   2.242   3.737   0.165  2.5585 -1.3513  0.0892
 8234SOL     OW36163   1.970   0.401   3.805  0.2938 -0.0109  0.2625
 8234SOL    HW136164   1.926   0.483   3.784  1.2146  0.1117 -1.1320
 8234SOL    HW236165   1.988   0.369   3.717  0.3617 -0.0045  0.2745
 8235SOL     OW36166   0.837   1.819   5.952  0.2600 -0.1044  0.1741
 8235SOL    HW136167   0.754   1.818   5.904  0.5179 -1.1020 -0.2452
 8235SOL    HW236168   0.865   1.728   5.947  0.5892  0.1669 -3.3658
 8236SOL     OW36169   1.988   3.127   3.915 -0.1717  0.0919 -0.2006
 8236SOL    HW136170   1.909   3.109   3.863 -0.9643  0.8781  0.7362
 8236SOL    HW236171   2.029   3.040   3.916  1.9776  1.0887 -1.6836
 8237SOL     OW36172   2.405   0.375   8.445  0.5443  0.0519  0.0533
 8237SOL    HW136173   2.469   0.394   8.377  1.5818 -3.0371  0.1526
 8237SOL    HW236174   2.378   0.466   8.456  0.3415  0.0068 -0.0828
 8238SOL     OW36175   4.600   2.211   8.043 -0.2347 -0.6554 -0.7741
 8238SOL    HW136176   4.671   2.167   7.996  0.1834  0.7889 -1.5098
 8238SOL    HW236177   4.606   2.297   8.001 -0.4304  0.6387  1.8870
 8239SOL     OW36178   0.113   3.703   4.587  0.4741 -0.2648  0.4490
 8239SOL    HW136179   0.037   3.645   4.583 -0.2275  0.7566 -1.1787
 8239SOL    HW236180   0.111   3.749   4.502 -1.2325  0.2696  0.7713
 8240SOL     OW36181   1.132   2.495   6.011  0.3833  0.5780  0.2228
 8240SOL    HW136182   1.165   2.457   5.930 -1.7216 -0.9745  0.0919
 8240SOL    HW236183   1.046   2.502   5.969 -0.2817 -0.0177  1.4777
 8241SOL     OW36184   2.698   0.532   3.502  0.2560 -0.0197  0.1626
 8241SOL    HW136185   2.708   0.468   3.431 -1.0216  1.5725 -1.4575
 8241SOL    HW236186   2.730   0.472   3.569 -1.5130  0.0091  1.0429
 8242SOL     OW36187   4.049   1.229   3.906  0.4357 -0.7706 -0.2810
 8242SOL    HW136188   4.030   1.151   3.958 -1.2331 -0.0937  0.1305
 8242SOL    HW236189   3.958   1.243   3.882 -0.0190  0.5364  2.1365
 8243SOL     OW36190   0.771   4.567  12.995 -0.0748 -0.2272  0.2777
 8243SOL    HW136191   0.743   4.506  13.063  1.3158 -1.5179 -0.3016
 8243SOL    HW236192   0.692   4.573  12.941 -0.3054  0.9204  0.7271
 8244SOL     OW36193   4.022   2.589   5.926  0.0215  0.2046  0.1243
 8244SOL    HW136194   3.969   2.636   5.862  0.3063  1.0094  0.4755
 8244SOL    HW236195   4.090   2.653   5.948 -0.8421  0.1120  3.0503
 8245SOL     OW36196   0.647   1.010  17.547 -0.1393 -0.1600 -0.2715
 8245SOL    HW136197   0.673   1.087  17.597 -0.9414  0.9689 -1.6250
 8245SOL    HW236198   0.685   1.025  17.461 -0.9388  1.7567 -0.2806
 8246SOL     OW36199   0.967   0.701   0.842  0.2915  0.0538 -0.5715
 8246SOL    HW136200   0.876   0.724   0.861  0.4179  0.4763 -0.4648
 8246SOL    HW236201   0.956   0.696   0.747  0.4461  1.6119 -0.6777
 8247SOL     OW36202   1.234   1.535  10.630  0.4345 -0.3314 -0.2458
 8247SOL    HW136203   1.267   1.445  10.631 -0.0916 -0.5306 -0.7457
 8247SOL    HW236204   1.143   1.519  10.656  1.2199 -0.6770  2.2256
 8248SOL     OW36205   4.082   2.432   6.816 -0.8766  0.7260  0.2457
 8248SOL    HW136206   4.085   2.411   6.910 -4.1122 -1.4877 -0.1423
 8248SOL    HW236207   4.150   2.497   6.799 -1.3254  1.1727  0.1279
 8249SOL     OW36208   2.080   0.496   2.916 -0.3961 -0.2205  0.1855
 8249SOL    HW136209   2.140   0.460   2.850  1.3097  1.3013  0.9108
 8249SOL    HW236210   2.041   0.559   2.855  0.9021 -1.1001 -1.5883
 8250SOL     OW36211   4.459   1.642   9.235 -0.4576  0.6858 -0.9163
 8250SOL    HW136212   4.395   1.612   9.300 -0.5247  3.5956  0.3944
 8250SOL    HW236213   4.540   1.652   9.285 -1.5792 -1.2573  1.2688
 8251SOL     OW36214   0.835   3.023   6.178  0.3396  0.0073 -0.3554
 8251SOL    HW136215   0.925   2.992   6.185 -0.2075 -1.3018  0.8960
 8251SOL    HW236216   0.799   2.981   6.256 -0.4199  0.1166 -0.6443
 8252SOL     OW36217   4.502   0.131  12.042 -0.5027 -0.6278 -0.1332
 8252SOL    HW136218   4.437   0.140  12.112 -3.5533 -0.8226 -2.9557
 8252SOL    HW236219   4.494   0.036  12.036 -0.8163 -0.5654 -0.7132
 8253SOL     OW36220   2.091   2.065  13.724 -0.3524 -0.4726  0.8290
 8253SOL    HW136221   2.021   2.111  13.771  1.4670  1.9567  1.1661
 8253SOL    HW236222   2.041   2.003  13.670 -1.2009 -2.3298  3.7539
 8254SOL     OW36223   2.198   0.533   9.906  0.8382  0.0572  0.4835
 8254SOL    HW136224   2.164   0.459   9.856  1.0814 -0.3870  0.9686
 8254SOL    HW236225   2.289   0.505   9.905  0.2146 -1.9282  0.2907
 8255SOL     OW36226   2.339   3.074   6.707  0.3554  0.4174 -0.6942
 8255SOL    HW136227   2.394   3.045   6.634 -1.3893  0.9060 -2.1972
 8255SOL    HW236228   2.399   3.137   6.749 -0.9569  0.8775  0.4907
 8256SOL     OW36229   3.106   0.365   3.417 -0.0720  0.1579 -0.2380
 8256SOL    HW136230   3.111   0.402   3.330  3.2202 -0.0636 -0.1717
 8256SOL    HW236231   3.157   0.431   3.465  1.1685 -0.4557 -0.6956
 8257SOL     OW36232   3.558   1.290   2.406  0.6836  0.2573 -0.2939
 8257SOL    HW136233   3.613   1.217   2.434 -0.3333 -0.7753 -0.9765
 8257SOL    HW236234   3.590   1.308   2.318 -0.8137  2.8485 -0.3151
 8258SOL     OW36235   2.122   0.452   2.642  0.0234  0.3841 -0.2016
 8258SOL    HW136236   2.153   0.543   2.643  0.9025  0.0790  0.5983
 8258SOL    HW236237   2.114   0.430   2.549 -0.3484 -1.7167  0.3210
 8259SOL     OW36238   0.479   2.516   7.762 -0.7152 -0.4165  0.0899
 8259SOL    HW136239   0.501   2.458   7.690 -0.4806  0.1500 -0.2902
 8259SOL    HW236240   0.561   2.566   7.760  0.3953 -2.2294  0.6223
 8260SOL     OW36241   2.303   1.243   3.338 -0.4115  0.6380 -0.3301
 8260SOL    HW136242   2.341   1.165   3.296 -1.8315  0.6757 -1.6766
 8260SOL    HW236243   2.286   1.204   3.424  1.1020 -0.6062 -0.5788
 8261SOL     OW36244   2.429   2.435   3.915  0.0363 -0.3706  0.4022
 8261SOL    HW136245   2.485   2.491   3.862  0.4140  0.2702  1.4754
 8261SOL    HW236246   2.481   2.356   3.898 -1.0414 -0.6728 -1.4712
 8262SOL     OW36247   3.088   1.558  16.631 -0.1643  0.2698  0.0876
 8262SOL    HW136248   3.099   1.650  16.608  0.7927  0.7365  2.3154
 8262SOL    HW236249   3.084   1.510  16.549 -1.6391 -0.2117  0.4475
 8263SOL     OW36250   1.923   2.151   4.026  0.5879  0.2426 -0.0883
 8263SOL    HW136251   1.979   2.222   4.059  0.2703 -0.1194  1.2251
 8263SOL    HW236252   1.957   2.124   3.940  0.7062 -0.6112  0.2314
 8264SOL     OW36253   4.110   1.224  12.046  0.5673 -0.2187  1.0018
 8264SOL    HW136254   4.111   1.214  12.141  0.8181 -0.5645  0.9607
 8264SOL    HW236255   4.137   1.141  12.006 -0.6469  0.0598 -0.4067
 8265SOL     OW36256   1.218   2.174   0.491  0.6128  0.1840  0.1520
 8265SOL    HW136257   1.258   2.101   0.443  0.6303 -0.0452  0.5214
 8265SOL    HW236258   1.141   2.198   0.440 -0.8354 -1.2359  1.7043
 8266SOL     OW36259   2.646   2.563   7.804 -0.2108 -0.1449  0.0236
 8266SOL    HW136260   2.552   2.546   7.802 -0.5069  1.6159 -1.2731
 8266SOL    HW236261   2.669   2.510   7.880 -1.1518 -0.1878  0.2842
 8267SOL     OW36262   2.562   1.201  10.772 -0.5805  0.5244 -0.5035
 8267SOL    HW136263   2.635   1.145  10.796 -1.4687 -1.2121 -1.8839
 8267SOL    HW236264   2.615   1.267  10.726 -1.0884  0.9070 -0.5467
 8268SOL     OW36265   4.562   4.294  15.802 -0.3438 -0.3887 -0.5689
 8268SOL    HW136266   4.570   4.248  15.886  1.1836  3.8921  1.6519
 8268SOL    HW236267   4.561   4.226  15.735  3.4352 -0.7376 -0.2489
 8269SOL     OW36268   1.915   3.138   5.771  0.0862  0.4121 -0.1524
 8269SOL    HW136269   1.916   3.234   5.775  0.1365  0.4533 -1.3179
 8269SOL    HW236270   1.848   3.120   5.838  0.5099 -4.1957 -0.9736
 8270SOL     OW36271   0.646   4.054   3.723 -0.0151 -0.5073  0.4293
 8270SOL    HW136272   0.571   4.040   3.666  0.1317  2.7204 -0.5893
 8270SOL    HW236273   0.607   4.101   3.797  1.3979 -1.0491  1.4997
 8271SOL     OW36274   2.463   1.540   3.125 -0.1334  0.3188  0.4016
 8271SOL    HW136275   2.477   1.447   3.104 -2.0595  0.3004 -0.7791
 8271SOL    HW236276   2.548   1.562   3.164 -1.1004 -0.9836  3.2964
 8272SOL     OW36277   0.023   4.622   7.561 -0.9043 -0.2313 -0.5975
 8272SOL    HW136278   0.077   4.651   7.635 -0.3615 -0.4600 -0.9085
 8272SOL    HW236279   4.665   4.660   7.595 -0.1222  0.8893  0.0458
 8273SOL     OW36280   1.434   4.687   0.322  0.1362  0.0515 -0.0749
 8273SOL    HW136281   1.438   0.043   0.375 -1.6984  0.3538 -0.4048
 8273SOL    HW236282   1.441   4.619   0.390 -0.6664 -1.4707 -1.5161
 8274SOL     OW36283   0.968   2.235   5.304  0.0250 -0.4108  1.0075
 8274SOL    HW136284   1.017   2.180   5.242  0.1822  0.2405  0.5552
 8274SOL    HW236285   0.929   2.168   5.360  1.0357  0.6613  2.9931
 8275SOL     OW36286   3.193   2.570   9.868  0.6823  0.6468  0.0199
 8275SOL    HW136287   3.167   2.483   9.838 -1.0143 -0.0706  3.6786
 8275SOL    HW236288   3.151   2.626   9.802  1.6598 -0.2624 -1.3614
 8276SOL     OW36289   2.174   2.299   6.050  0.5951 -0.5292  0.2395
 8276SOL    HW136290   2.253   2.255   6.019  0.0477 -0.6490 -1.0065
 8276SOL    HW236291   2.127   2.298   5.966  1.7217  0.6419 -0.4073
 8277SOL     OW36292   1.905   4.578   0.997 -0.3078 -0.0796  0.0195
 8277SOL    HW136293   1.858   4.628   1.064 -1.1053 -0.1625 -0.4732
 8277SOL    HW236294   1.871   4.608   0.913 -2.0315 -1.8139  0.0709
 8278SOL     OW36295   2.815   4.445   5.121 -0.1504 -0.0847 -0.2842
 8278SOL    HW136296   2.798   4.538   5.133  0.6687 -0.2637  2.1032
 8278SOL    HW236297   2.875   4.451   5.046  1.2094  2.0247  0.9990
 8279SOL     OW36298   0.763   1.798   3.330 -0.1897  0.3621 -0.4303
 8279SOL    HW136299   0.836   1.828   3.277  0.0041 -0.1016 -0.4244
 8279SOL    HW236300   0.752   1.874   3.387 -3.4716 -0.5203  0.1218
 8280SOL     OW36301   2.286   4.354   1.156  0.2970  0.4263  0.1215
 8280SOL    HW136302   2.243   4.290   1.099 -1.5500 -0.4246  2.4583
 8280SOL    HW236303   2.379   4.343   1.139  0.5401  0.2409  1.5831
 8281SOL     OW36304   1.496   0.288   5.253  0.0212 -0.4629  0.2357
 8281SOL    HW136305   1.498   0.292   5.349 -0.3616 -0.4088  0.2413
 8281SOL    HW236306   1.572   0.230   5.250  1.8115  1.6706  3.3884
 8282SOL     OW36307   2.972   1.438   2.874 -0.5142 -0.1662  0.2658
 8282SOL    HW136308   2.921   1.511   2.909 -2.9757 -1.2996 -0.9769
 8282SOL    HW236309   2.907   1.368   2.875 -1.4405  0.6684 -0.4137
 8283SOL     OW36310   1.790   3.841   5.695  0.1481 -0.3528 -0.3504
 8283SOL    HW136311   1.752   3.911   5.747  1.9062  0.8113 -0.6204
 8283SOL    HW236312   1.828   3.876   5.615  0.4803  0.5547  0.2082
 8284SOL     OW36313   1.368   0.711  11.650 -0.0872  0.1312 -0.1367
 8284SOL    HW136314   1.336   0.799  11.629  0.4710  0.3333 -0.1301
 8284SOL    HW236315   1.461   0.733  11.652 -0.1098  0.0737  1.4068
 8285SOL     OW36316   2.782   2.397   8.341 -1.0810  0.4352 -0.5638
 8285SOL    HW136317   2.835   2.319   8.357 -0.3772  0.9653 -0.3172
 8285SOL    HW236318   2.706   2.376   8.395 -1.2622  1.2294 -0.5107
 8286SOL     OW36319   3.789   4.027   2.215 -0.4731  0.1064  0.0298
 8286SOL    HW136320   3.874   3.990   2.237 -0.1161  1.9785  1.7957
 8286SOL    HW236321   3.743   3.965   2.158  1.4587 -1.8023  0.5300
 8287SOL     OW36322   2.585   4.606  15.821  0.0536 -0.3096  0.3327
 8287SOL    HW136323   2.674   4.575  15.801  0.0170  0.8178 -1.6286
 8287SOL    HW236324   2.589   4.698  15.794 -2.2244 -0.3719 -0.1929
 8288SOL     OW36325   0.670   2.111   1.681  0.8432  0.1190 -0.3529
 8288SOL    HW136326   0.633   2.193   1.648  2.7188  0.2142 -2.3087
 8288SOL    HW236327   0.630   2.112   1.768  0.3196  1.3354 -0.6075
 8289SOL     OW36328   3.815   2.675  15.342  0.7099 -0.1121  0.8028
 8289SOL    HW136329   3.891   2.664  15.399  2.1159 -0.7309 -1.1995
 8289SOL    HW236330   3.811   2.768  15.319  1.2983 -0.3187 -0.1204
 8290SOL     OW36331   0.057   2.272  17.007 -1.0500 -0.4914 -0.0497
 8290SOL    HW136332   0.124   2.204  17.004 -1.7604 -1.1213 -1.7296
 8290SOL    HW236333   0.075   2.310  16.921  1.6813 -1.0909  0.2516
 8291SOL     OW36334   1.711   1.137   3.763 -0.1266  0.5917  0.0743
 8291SOL    HW136335   1.680   1.049   3.785 -0.8242  0.5998 -0.8925
 8291SOL    HW236336   1.755   1.120   3.680 -0.4734  0.2011 -0.0263
 8292SOL     OW36337   2.764   1.134   5.342  0.1272 -0.3477 -0.1225
 8292SOL    HW136338   2.857   1.134   5.319 -0.0817  2.1774 -1.0173
 8292SOL    HW236339   2.733   1.075   5.273  0.9360  0.9875 -1.6163
 8293SOL     OW36340   1.827   4.128   1.690  0.8277  0.7916  0.2312
 8293SOL    HW136341   1.815   4.035   1.709  1.0138  0.5180 -1.0148
 8293SOL    HW236342   1.917   4.125   1.722  0.6105  1.1733  0.8887
 8294SOL     OW36343   2.898   1.731   9.043  0.1445  0.2539 -0.1648
 8294SOL    HW136344   2.960   1.745   9.115 -0.1476  0.8074 -0.0151
 8294SOL    HW236345   2.950   1.695   8.971 -0.1091  0.1702 -0.3021
 8295SOL     OW36346   0.696   0.080  14.722  0.3414  0.0458  0.3178
 8295SOL    HW136347   0.632   0.045  14.660 -1.0395  0.1828  1.6677
 8295SOL    HW236348   0.754   0.140  14.675  0.3195 -0.1593  0.0269
 8296SOL     OW36349   2.212   4.299  11.011  0.5468  0.6511 -0.0374
 8296SOL    HW136350   2.182   4.389  11.020 -0.6920  0.1941  0.4180
 8296SOL    HW236351   2.222   4.283  11.105  1.6766 -0.6824 -0.3879
 8297SOL     OW36352   0.202   0.047   9.190 -0.0069  0.4499  0.8325
 8297SOL    HW136353   0.235   0.013   9.107 -3.5600 -2.4718  0.6201
 8297SOL    HW236354   0.157   0.130   9.170 -1.2597 -0.4239  0.0394
 8298SOL     OW36355   2.161   0.153   5.613  0.0019  0.3525  0.6268
 8298SOL    HW136356   2.141   0.135   5.521 -0.5773 -1.0154  1.0362
 8298SOL    HW236357   2.109   0.233   5.620 -0.9488 -0.3370  1.3099
 8299SOL     OW36358   3.692   3.171   4.445 -0.3084 -0.1415 -0.5934
 8299SOL    HW136359   3.735   3.237   4.499  1.2235 -1.1714 -0.5490
 8299SOL    HW236360   3.651   3.126   4.519 -0.7629  2.0354  0.4778
 8300SOL     OW36361   1.570   3.617   1.516  0.6275  0.1916 -0.6020
 8300SOL    HW136362   1.504   3.549   1.524  0.2753  0.5158 -0.7473
 8300SOL    HW236363   1.525   3.701   1.503 -2.5561 -1.1155  1.8008
 8301SOL     OW36364   2.676   4.156   1.381  0.1961  0.3592  0.1791
 8301SOL    HW136365   2.591   4.200   1.384 -0.3478 -0.8813  2.5908
 8301SOL    HW236366   2.676   4.131   1.473 -0.7983 -2.2644 -0.5240
 8302SOL     OW36367   3.365   2.450   5.669 -0.0131 -0.2404 -0.0220
 8302SOL    HW136368   3.432   2.501   5.624 -0.4619  0.7988  0.5046
 8302SOL    HW236369   3.293   2.512   5.673  1.4803  1.4551  0.4997
 8303SOL     OW36370   1.095   0.840   6.494 -0.1852  0.5215  0.7345
 8303SOL    HW136371   1.144   0.758   6.500 -0.8755  0.0529 -0.0785
 8303SOL    HW236372   1.057   0.842   6.582  0.3699 -0.1075  0.9866
 8304SOL     OW36373   4.545   4.578  12.112 -0.5451 -0.3052  0.3171
 8304SOL    HW136374   4.512   4.614  12.194  1.9102  0.2563  1.0410
 8304SOL    HW236375   4.634   4.554  12.139  0.0626  1.4255 -0.1599
 8305SOL     OW36376   3.648   3.323   5.195 -0.0032  0.2404 -0.5736
 8305SOL    HW136377   3.697   3.377   5.257  0.2584  0.0816 -0.6406
 8305SOL    HW236378   3.673   3.236   5.226 -1.3991  0.2268  0.4780
 8306SOL     OW36379   3.442   2.133   3.078  0.6884  0.1984 -0.0903
 8306SOL    HW136380   3.530   2.163   3.054  0.9293 -1.6096 -1.5243
 8306SOL    HW236381   3.392   2.122   2.997 -0.1470  1.3232  0.2827
 8307SOL     OW36382   1.841   0.886   9.951  0.5836  0.0430 -0.1697
 8307SOL    HW136383   1.917   0.841   9.987  1.0194 -0.1552 -1.3359
 8307SOL    HW236384   1.792   0.823   9.898 -0.2515 -0.4991  1.2509
 8308SOL     OW36385   4.655   2.461   7.936  0.2241 -0.2535  0.5178
 8308SOL    HW136386   4.706   2.536   7.969  2.4001 -0.9418 -1.3080
 8308SOL    HW236387   4.655   2.478   7.842 -0.2772 -1.1456  0.3601
 8309SOL     OW36388   2.076   3.167  16.795  0.8018 -0.2760 -0.0737
 8309SOL    HW136389   2.158   3.123  16.815  1.5434  0.6813 -0.9827
 8309SOL    HW236390   2.112   3.256  16.794 -1.0906  0.4513 -2.9037
 8310SOL     OW36391   1.659   1.436   3.370  0.3322 -0.0361  0.0726
 8310SOL    HW136392   1.627   1.417   3.458  1.5811 -0.3714  0.4493
 8310SOL    HW236393   1.575   1.434   3.324  1.1421 -0.9562 -1.3706
 8311SOL     OW36394   0.348   0.063   8.206 -0.1143  0.3744 -0.2172
 8311SOL    HW136395   0.388   0.149   8.219 -1.2750  0.6708  1.4195
 8311SOL    HW236396   0.390   0.014   8.277 -2.1261  0.9165  1.3646
 8312SOL     OW36397   2.406   2.322   6.399 -0.5108  0.4511  0.7318
 8312SOL    HW136398   2.336   2.385   6.414 -1.0731  0.3899 -1.6705
 8312SOL    HW236399   2.473   2.368   6.349 -0.2632 -1.4590 -0.7258
 8313SOL     OW36400   4.672   4.284   9.542  0.0075 -0.1059  0.0629
 8313SOL    HW136401   4.588   4.260   9.502  0.0244 -1.0651  0.5974
 8313SOL    HW236402   0.008   4.228   9.490 -0.6440 -1.9827  1.3331
 8314SOL     OW36403   1.044   2.939  13.622  0.0410 -0.6026  0.0959
 8314SOL    HW136404   1.055   3.034  13.618 -1.1070 -0.4635  0.2219
 8314SOL    HW236405   1.134   2.906  13.624  0.7166  1.2110 -0.4513
 8315SOL     OW36406   1.488   4.622   1.539  0.1342  0.1524 -0.5197
 8315SOL    HW136407   1.486   4.617   1.444 -2.0958  1.1002 -0.5210
 8315SOL    HW236408   1.398   4.608   1.569  0.1097  0.0502 -0.6410
 8316SOL     OW36409   0.705   3.319   0.849 -0.2147  0.0626 -0.0474
 8316SOL    HW136410   0.793   3.307   0.813 -0.3282 -0.6832 -0.0852
 8316SOL    HW236411   0.730   3.288   0.936  1.1379 -1.7796 -1.0802
 8317SOL     OW36412   3.779   4.171   8.314 -0.1714 -0.4551 -0.1406
 8317SOL    HW136413   3.807   4.258   8.344  0.8150 -0.4268 -1.1199
 8317SOL    HW236414   3.692   4.199   8.288 -0.8662 -0.4657  2.1630
 8318SOL     OW36415   1.221   0.315   1.762  0.6051 -0.4995  0.0146
 8318SOL    HW136416   1.141   0.360   1.733  1.0250  0.3360  0.1549
 8318SOL    HW236417   1.290   0.380   1.749  0.4493 -0.0845  1.2462
 8319SOL     OW36418   0.835   0.841   4.771 -0.2997  0.4072 -0.0283
 8319SOL    HW136419   0.861   0.811   4.685 -1.4942 -2.6340  0.6783
 8319SOL    HW236420   0.850   0.763   4.825 -0.8217  0.9669  0.9427
 8320SOL     OW36421   3.363   3.242   4.544 -0.4440  0.2101  0.4223
 8320SOL    HW136422   3.373   3.258   4.451 -1.3650 -0.4561  0.2003
 8320SOL    HW236423   3.294   3.175   4.548  0.6872 -1.1037 -2.4199
 8321SOL     OW36424   4.095   3.365   8.360  0.8366  0.3479  0.2448
 8321SOL    HW136425   4.097   3.437   8.422 -0.6789 -0.7113  1.5316
 8321SOL    HW236426   4.043   3.411   8.294  0.0066 -2.9605 -1.4302
 8322SOL     OW36427   2.144   2.766   6.839  0.6655  0.3860 -0.6439
 8322SOL    HW136428   2.236   2.741   6.833  1.1370  2.6214 -2.6213
 8322SOL    HW236429   2.160   2.858   6.859  0.5260  0.4526 -0.8414
 8323SOL     OW36430   2.574   1.932   3.316  0.1691 -0.0325 -0.3450
 8323SOL    HW136431   2.478   1.930   3.316  0.2337 -2.5175  2.3395
 8323SOL    HW236432   2.583   1.983   3.235  0.1967 -0.9404 -0.9207
 8324SOL     OW36433   1.417   1.001  12.744 -0.8802  0.5421  0.3590
 8324SOL    HW136434   1.323   1.001  12.762 -1.4408  1.0298 -2.5724
 8324SOL    HW236435   1.438   1.094  12.735 -0.1819  0.2462 -1.0462
 8325SOL     OW36436   0.621   0.593  17.118 -0.3754  0.2057  0.7024
 8325SOL    HW136437   0.624   0.523  17.183 -0.8117 -3.1097 -2.9119
 8325SOL    HW236438   0.584   0.553  17.040  0.3604 -0.3244  0.6274
 8326SOL     OW36439   3.528   3.324  10.347 -0.3168  0.1074  0.5821
 8326SOL    HW136440   3.595   3.284  10.293 -1.2360  0.3591 -0.7530
 8326SOL    HW236441   3.566   3.337  10.434 -2.0019 -0.6080  1.4196
 8327SOL     OW36442   0.939   1.049   5.972 -0.2912  0.3307 -0.0058
 8327SOL    HW136443   0.973   1.037   5.883  0.1615  1.1711  0.0587
 8327SOL    HW236444   0.883   0.971   5.972  0.9410 -0.5556 -4.2644
 8328SOL     OW36445   0.404   4.188  15.865 -0.4361 -0.3218  0.3519
 8328SOL    HW136446   0.419   4.094  15.855 -1.4041 -0.3799 -0.5805
 8328SOL    HW236447   0.345   4.202  15.791 -1.2033  0.3716  1.0988
 8329SOL     OW36448   4.618   2.985  11.964  0.4854 -0.3390 -0.1280
 8329SOL    HW136449   4.622   2.926  12.039  0.0541 -1.0648 -0.6671
 8329SOL    HW236450   4.602   3.076  11.988 -0.0662 -0.1091 -1.3505
 8330SOL     OW36451   1.215   1.537   5.663 -0.1684  0.6381  0.2069
 8330SOL    HW136452   1.225   1.629   5.688  0.0555  1.6358 -3.5637
 8330SOL    HW236453   1.138   1.504   5.709 -0.1308 -3.2128 -2.5400
 8331SOL     OW36454   3.012   2.445   1.324 -0.2535  0.6507  0.2002
 8331SOL    HW136455   2.956   2.382   1.370 -1.0706  2.6181  1.8597
 8331SOL    HW236456   3.082   2.387   1.294  0.2294  0.7544  1.1070
 8332SOL     OW36457   2.937   0.549  11.408 -0.7749  0.5382 -0.3099
 8332SOL    HW136458   2.924   0.644  11.408  0.8474  0.7661 -0.5570
 8332SOL    HW236459   2.934   0.538  11.503 -0.3104 -1.4720 -0.5423
 8333SOL     OW36460   2.420   1.063   7.293 -0.1938  0.2796  0.1966
 8333SOL    HW136461   2.422   0.969   7.310 -0.1562 -0.3700 -3.2765
 8333SOL    HW236462   2.391   1.090   7.380 -2.1445  1.1936 -0.7244
 8334SOL     OW36463   1.617   3.455   6.239  0.4548 -0.2803  0.2363
 8334SOL    HW136464   1.551   3.524   6.246 -0.2313 -1.0116  0.9623
 8334SOL    HW236465   1.691   3.511   6.216  0.0105  0.3509  0.3545
 8335SOL     OW36466   1.843   3.463  16.742 -0.0488 -0.2825  0.5945
 8335SOL    HW136467   1.930   3.427  16.760  0.6352  0.3445 -1.4648
 8335SOL    HW236468   1.784   3.401  16.784 -0.9162 -0.0801 -0.3450
 8336SOL     OW36469   3.338   0.264   5.650  0.1149 -0.0535  0.5999
 8336SOL    HW136470   3.406   0.229   5.593  0.2929 -0.5233  1.0996
 8336SOL    HW236471   3.372   0.353   5.652  0.9896 -0.3876  0.6692
 8337SOL     OW36472   2.581   4.539   7.488  0.6954 -0.2444  0.2996
 8337SOL    HW136473   2.629   4.620   7.475 -0.3257  0.7416  2.8739
 8337SOL    HW236474   2.595   4.527   7.582 -0.0942  0.7183  0.5367
 8338SOL     OW36475   4.643   2.323   5.200  0.5814 -0.2248  0.4865
 8338SOL    HW136476   4.676   2.311   5.288 -2.3752  0.0615  1.6411
 8338SOL    HW236477   4.584   2.398   5.208  0.1463 -0.2773 -2.0101
 8339SOL     OW36478   3.820   1.319   1.998 -0.3588 -0.4741 -0.0075
 8339SOL    HW136479   3.853   1.325   1.908  0.5479 -1.6432  0.2510
 8339SOL    HW236480   3.764   1.243   1.980  0.6806 -1.1687 -0.3067
 8340SOL     OW36481   1.948   0.459   7.258  0.0280  0.1086  0.1297
 8340SOL    HW136482   1.880   0.494   7.316 -1.1529  3.4203 -3.2586
 8340SOL    HW236483   2.011   0.428   7.323 -0.6466  1.3161  1.3810
 8341SOL     OW36484   4.438   3.095   0.036  0.0845  0.5121  0.4979
 8341SOL    HW136485   4.358   3.084   0.086 -0.8982 -2.2515 -1.7267
 8341SOL    HW236486   4.401   3.141  17.654 -0.3782  0.9631  1.0001
 8342SOL     OW36487   0.575   4.108   8.898 -0.1944 -0.0010 -0.1226
 8342SOL    HW136488   0.553   4.045   8.828  1.6074 -2.1011  1.2184
 8342SOL    HW236489   0.664   4.074   8.906  0.7975  2.4696 -0.7795
 8343SOL     OW36490   3.957   0.757   7.722 -0.2500 -0.0433 -0.4975
 8343SOL    HW136491   3.967   0.805   7.640  0.4474 -1.6698 -1.3473
 8343SOL    HW236492   4.045   0.752   7.760  0.2004  1.0199 -1.3942
 8344SOL     OW36493   4.531   4.588  13.890 -0.7669  0.0085 -0.0172
 8344SOL    HW136494   4.527   4.683  13.875 -0.0109 -0.0231 -0.4424
 8344SOL    HW236495   4.440   4.563  13.883 -0.7703 -0.3793  1.4708
 8345SOL     OW36496   1.520   1.242  12.741 -0.8602  0.3840 -0.3076
 8345SOL    HW136497   1.613   1.263  12.735 -0.4180 -1.4959  0.1628
 8345SOL    HW236498   1.490   1.329  12.767 -0.8251  0.0506  0.8346
 8346SOL     OW36499   1.445   0.830   0.112 -0.0967 -0.0277  0.0991
 8346SOL    HW136500   1.381   0.813   0.181 -2.3744 -2.1609 -2.5326
 8346SOL    HW236501   1.468   0.920   0.135 -0.8028  0.0173  0.6549
 8347SOL     OW36502   1.236   2.372   2.431  0.5105  0.6559 -0.0284
 8347SOL    HW136503   1.324   2.378   2.394  0.6406 -0.4275  0.1064
 8347SOL    HW236504   1.224   2.460   2.466  0.0404 -0.5943  2.9371
 8348SOL     OW36505   2.950   1.085   2.241  0.6267 -0.1731  0.3178
 8348SOL    HW136506   2.923   1.177   2.230 -0.1327 -0.1987  1.9511
 8348SOL    HW236507   2.867   1.042   2.222  0.7071  0.6369 -1.7939
 8349SOL     OW36508   0.026   4.287  17.452 -0.7559  0.1661  0.4565
 8349SOL    HW136509   0.034   4.247  17.365  0.0393  1.1149  0.0841
 8349SOL    HW236510   0.115   4.278  17.486 -0.7024  0.6811  0.4579
 8350SOL     OW36511   0.973   4.516   1.086  0.0500  0.2379  0.3892
 8350SOL    HW136512   1.004   4.450   1.149 -0.4523 -0.6231 -0.2633
 8350SOL    HW236513   0.949   4.587   1.145  1.3432  0.6760  0.4092
 8351SOL     OW36514   3.496   0.310   7.995 -0.5051 -0.2323 -0.1094
 8351SOL    HW136515   3.431   0.268   7.938 -1.5576 -0.4660  1.2484
 8351SOL    HW236516   3.576   0.274   7.958 -0.7879 -0.3926 -0.5681
 8352SOL     OW36517   2.685   1.983   3.606 -0.0923  0.0321  0.3347
 8352SOL    HW136518   2.772   1.954   3.576 -0.6890 -1.2397 -0.1795
 8352SOL    HW236519   2.720   2.019   3.688 -0.3493 -0.6980  0.7638
 8353SOL     OW36520   3.396   2.223   7.984  0.2965  0.3350 -0.0121
 8353SOL    HW136521   3.306   2.251   8.004 -0.5445 -2.8726  0.8255
 8353SOL    HW236522   3.382   2.134   7.950 -0.4897  0.4614 -0.0251
 8354SOL     OW36523   2.846   0.745   5.828  0.0397 -0.0907 -0.0763
 8354SOL    HW136524   2.789   0.818   5.801  1.1062  0.6442 -0.3568
 8354SOL    HW236525   2.927   0.796   5.832 -1.6004  2.6359 -1.0365
 8355SOL     OW36526   4.273   3.862  15.529 -0.7790  0.3504 -0.4594
 8355SOL    HW136527   4.242   3.820  15.449  3.1911  0.1938 -1.9411
 8355SOL    HW236528   4.368   3.870  15.515 -0.8666 -1.0647 -1.8487
 8356SOL     OW36529   3.471   4.555   2.992 -0.1247 -0.0813  0.3673
 8356SOL    HW136530   3.451   4.641   3.030 -0.7849 -0.0507 -0.0650
 8356SOL    HW236531   3.432   4.572   2.906  1.5450  2.4018  0.0878
 8357SOL     OW36532   1.616   0.428   4.148 -0.1447  0.3656  0.4882
 8357SOL    HW136533   1.583   0.425   4.058  1.4879  1.1552 -0.1241
 8357SOL    HW236534   1.672   0.351   4.153  0.2953  0.6035 -0.9423
 8358SOL     OW36535   3.501   3.818   5.838 -0.4056  0.0045 -0.4824
 8358SOL    HW136536   3.501   3.833   5.933  0.6946  0.3954 -0.5456
 8358SOL    HW236537   3.427   3.757   5.839 -0.3604 -0.0213  0.8862
 8359SOL     OW36538   2.766   2.468   4.625 -0.3399 -0.0354 -0.3187
 8359SOL    HW136539   2.680   2.445   4.590 -1.7569  3.1038  1.1004
 8359SOL    HW236540   2.812   2.385   4.614 -0.6891 -0.4004  0.9517
 8360SOL     OW36541   2.792   2.589   2.675  0.2945 -0.5671 -0.3743
 8360SOL    HW136542   2.865   2.650   2.689 -0.1862  0.2943 -1.6195
 8360SOL    HW236543   2.820   2.582   2.584  0.5300 -1.3594 -0.2410
 8361SOL     OW36544   1.362   3.373   2.800  0.3289 -0.1164  0.0555
 8361SOL    HW136545   1.436   3.313   2.794  0.6194  0.5076 -2.8787
 8361SOL    HW236546   1.326   3.375   2.711  0.6190  1.4736 -0.0383
 8362SOL     OW36547   3.006   2.920   7.516 -0.3970  0.7774 -0.0040
 8362SOL    HW136548   2.984   2.843   7.568  0.1929  0.7760  0.2526
 8362SOL    HW236549   2.985   2.988   7.581  1.5630 -0.3510  1.8413
 8363SOL     OW36550   3.788   0.085   6.865 -0.4546 -0.5016  0.3290
 8363SOL    HW136551   3.695   0.105   6.877  0.3628  2.2985  1.9440
 8363SOL    HW236552   3.778   0.004   6.816 -0.2031 -0.8377  0.8359
 8364SOL     OW36553   0.246   3.083   5.837  0.1792  0.0999  0.4009
 8364SOL    HW136554   0.246   3.146   5.909 -1.6543  0.6692 -0.0904
 8364SOL    HW236555   0.157   3.096   5.805  0.2654 -0.7954 -0.1946
 8365SOL     OW36556   1.471   3.128   2.816  0.3012 -0.8189 -0.4982
 8365SOL    HW136557   1.403   3.066   2.842 -1.0278  1.2736  0.9961
 8365SOL    HW236558   1.552   3.092   2.854  1.1030  1.9839  0.4810
 8366SOL     OW36559   0.979   2.328   7.380 -0.0396  0.1324  0.4738
 8366SOL    HW136560   1.009   2.418   7.387  0.0390  0.1394  0.0209
 8366SOL    HW236561   0.949   2.327   7.289 -1.3707 -0.8633  0.9145
 8367SOL     OW36562   1.931   3.725  17.055 -0.6545  0.1295  0.2943
 8367SOL    HW136563   1.898   3.669  17.125 -2.1616  1.1273  0.3719
 8367SOL    HW236564   1.938   3.808  17.102  2.1125  0.2659 -0.3659
 8368SOL     OW36565   4.511   1.662   6.691 -0.3742  0.0013  0.0008
 8368SOL    HW136566   4.561   1.580   6.693  0.3303  0.4163 -0.3076
 8368SOL    HW236567   4.461   1.652   6.772 -0.3089 -0.7340 -0.0513
 8369SOL     OW36568   3.443   0.172   7.174 -0.5796  0.3401  0.1948
 8369SOL    HW136569   3.469   0.238   7.238 -0.7275 -1.3409  1.9907
 8369SOL    HW236570   3.370   0.132   7.221 -1.6849  1.7705 -0.3426
 8370SOL     OW36571   2.286   0.327   6.340 -0.0905  0.4916 -0.2095
 8370SOL    HW136572   2.320   0.290   6.258  0.8860 -0.1923  0.5034
 8370SOL    HW236573   2.247   0.404   6.299  2.4679  1.9172 -0.0191
 8371SOL     OW36574   0.232   2.526   8.137  0.0710 -0.7105  0.0521
 8371SOL    HW136575   0.216   2.511   8.230 -0.8736 -1.0843 -0.1686
 8371SOL    HW236576   0.164   2.589   8.113 -1.0145 -1.8596  0.0781
 8372SOL     OW36577   4.629   4.074   8.455 -0.3986  0.4354 -0.0750
 8372SOL    HW136578   4.723   4.092   8.455 -0.4140  0.5346 -1.3078
 8372SOL    HW236579   4.607   4.148   8.397 -0.7811 -0.2968 -0.8703
 8373SOL     OW36580   2.864   0.059   7.939 -0.2147 -0.4073  0.2376
 8373SOL    HW136581   2.771   0.038   7.940 -0.2758 -0.1319  0.3698
 8373SOL    HW236582   2.877   0.049   8.033  2.0403  0.6431  0.0488
 8374SOL     OW36583   0.929   3.731  11.984 -0.6277 -0.4469  0.5771
 8374SOL    HW136584   0.959   3.754  11.897  0.3633  0.3899  1.1386
 8374SOL    HW236585   0.908   3.815  12.025 -0.0496 -0.4990  0.9841
 8375SOL     OW36586   2.168   4.032   5.073 -0.4266 -0.1333  0.1274
 8375SOL    HW136587   2.122   4.038   4.989  2.0185  1.2372 -1.1105
 8375SOL    HW236588   2.097   4.011   5.134 -1.8088 -0.9927 -1.7687
 8376SOL     OW36589   2.928   3.056   4.609 -0.0941 -0.2850  0.5421
 8376SOL    HW136590   2.834   3.052   4.625 -0.6302 -0.1994 -2.7786
 8376SOL    HW236591   2.949   2.985   4.550  0.3432  1.4995 -1.4311
 8377SOL     OW36592   1.825   1.830   5.563  1.0627 -0.2402  0.1065
 8377SOL    HW136593   1.841   1.923   5.549  3.7748 -0.8228 -0.8607
 8377SOL    HW236594   1.835   1.819   5.657 -0.2146  0.9575  0.3683
 8378SOL     OW36595   3.606   4.184   2.082  0.1079  0.4870  0.3995
 8378SOL    HW136596   3.691   4.142   2.098  0.7042  1.4789 -0.1572
 8378SOL    HW236597   3.549   4.160   2.155  0.3565  0.5212  0.6050
 8379SOL     OW36598   3.021   1.886  15.282 -0.2399  0.5502 -0.6184
 8379SOL    HW136599   3.034   1.830  15.359 -0.0732  2.0641  0.4551
 8379SOL    HW236600   2.979   1.955  15.333  0.4332 -0.6642  1.5800
 8380SOL     OW36601   1.542   3.191   7.578  0.1280  0.1065  0.4499
 8380SOL    HW136602   1.471   3.140   7.538 -0.5460 -0.8457  2.8497
 8380SOL    HW236603   1.554   3.154   7.665 -0.4479  1.8744  1.2809
 8381SOL     OW36604   2.626   4.670   8.013 -0.4529 -0.2879 -0.0854
 8381SOL    HW136605   2.607   4.596   8.072  1.3178  0.4170  1.3766
 8381SOL    HW236606   2.570   0.014   8.052 -0.8839 -1.5339  1.4103
 8382SOL     OW36607   0.688   3.126   8.993  0.0733  0.4008  0.1355
 8382SOL    HW136608   0.595   3.125   9.014  0.3436  1.5381  1.4321
 8382SOL    HW236609   0.723   3.213   9.015 -0.1669  0.4213  0.4479
 8383SOL     OW36610   3.917   2.270  12.014  0.0756  0.3031 -0.1700
 8383SOL    HW136611   3.951   2.360  12.016  2.2736 -0.5759  1.3133
 8383SOL    HW236612   3.899   2.257  11.921  0.0335  2.3987 -0.4702
 8384SOL     OW36613   3.676   3.296   6.431  0.6848 -0.0057  0.1088
 8384SOL    HW136614   3.707   3.348   6.357 -0.5026 -0.8017 -0.9439
 8384SOL    HW236615   3.721   3.213   6.416 -0.6469 -0.9698  1.3827
 8385SOL     OW36616   0.443   3.537   1.389 -0.4886 -0.5877  0.1832
 8385SOL    HW136617   0.460   3.599   1.318 -0.6168 -2.0966 -1.1801
 8385SOL    HW236618   0.531   3.510   1.415 -0.6101 -0.8214  0.3580
 8386SOL     OW36619   2.582   2.319   8.536  0.0808 -0.0894 -0.3709
 8386SOL    HW136620   2.638   2.277   8.601  1.8964 -0.0255 -1.9190
 8386SOL    HW236621   2.533   2.236   8.534 -1.7516  0.9707 -0.0998
 8387SOL     OW36622   3.848   2.914   3.226 -0.4205 -0.6578 -0.1259
 8387SOL    HW136623   3.924   2.921   3.283 -0.8217 -0.7910  0.4207
 8387SOL    HW236624   3.886   2.923   3.138  0.9256 -0.2300  0.5041
 8388SOL     OW36625   4.635   3.776  11.810 -0.1112 -0.0214 -0.3695
 8388SOL    HW136626   4.584   3.734  11.879  0.2123 -1.4204 -0.9973
 8388SOL    HW236627   4.593   3.860  11.789  0.2537  0.5686  1.2603
 8389SOL     OW36628   0.221   1.759   2.444 -0.3614 -0.0070  0.0883
 8389SOL    HW136629   0.308   1.798   2.445 -0.0854 -0.7219  3.3906
 8389SOL    HW236630   0.178   1.786   2.525  2.0729  2.2637  0.6369
 8390SOL     OW36631   0.095   1.828   6.198  0.2884 -0.0709  1.0123
 8390SOL    HW136632   0.181   1.833   6.157  0.2451 -0.0913  0.9176
 8390SOL    HW236633   0.046   1.879   6.134  0.2094 -1.0146  0.3146
 8391SOL     OW36634   1.417   4.440   3.768  0.1147  0.3522  0.0904
 8391SOL    HW136635   1.444   4.447   3.859 -3.3692 -1.2874  1.2465
 8391SOL    HW236636   1.426   4.347   3.745  0.5880  0.8248 -1.6790
 8392SOL     OW36637   4.372   4.549   4.951 -0.0735  0.5472 -0.6264
 8392SOL    HW136638   4.284   4.579   4.974 -0.8588 -2.2289 -0.0076
 8392SOL    HW236639   4.374   4.454   4.951 -2.0525  0.5031 -0.9980
 8393SOL     OW36640   0.830   3.416   5.458 -0.4723 -0.2089 -0.1840
 8393SOL    HW136641   0.738   3.394   5.447 -0.5747  1.0690 -1.8932
 8393SOL    HW236642   0.869   3.339   5.498 -1.0470  0.1695  1.0957
 8394SOL     OW36643   4.232   0.952   5.722 -0.4612  0.1057 -0.4025
 8394SOL    HW136644   4.139   0.958   5.699 -0.0864  1.9274 -1.4358
 8394SOL    HW236645   4.265   0.931   5.634  0.2827 -1.1767  0.1822
 8395SOL     OW36646   1.012   0.283   3.037  0.0142 -0.5012  0.3074
 8395SOL    HW136647   0.946   0.343   3.002  1.2303 -0.9764 -2.8431
 8395SOL    HW236648   1.096   0.320   3.010  0.4595 -1.2127  0.7237
 8396SOL     OW36649   1.819   1.758   2.882 -0.3428 -0.2436 -0.3866
 8396SOL    HW136650   1.771   1.686   2.923  0.4870 -1.0205 -0.7678
 8396SOL    HW236651   1.833   1.730   2.792 -1.0540  0.1105 -0.6048
 8397SOL     OW36652   0.394   2.327   0.803 -0.0385  0.2714 -0.4403
 8397SOL    HW136653   0.327   2.266   0.772 -1.0274  1.4757 -0.6536
 8397SOL    HW236654   0.356   2.408   0.768  0.8921  1.7323  1.9285
 8398SOL     OW36655   0.208   1.865   8.160 -0.0255 -0.0176  0.8441
 8398SOL    HW136656   0.270   1.808   8.115 -0.0021 -0.0256  0.8866
 8398SOL    HW236657   0.137   1.879   8.097 -1.0595  1.5465  2.3402
 8399SOL     OW36658   1.640   1.515   6.461 -0.6241 -0.6170 -0.7334
 8399SOL    HW136659   1.622   1.602   6.423 -0.6033  0.0907  0.8747
 8399SOL    HW236660   1.591   1.527   6.542 -1.3754 -1.1936 -1.1050
 8400SOL     OW36661   1.732   1.207   4.402  0.4474  0.3201  0.1689
 8400SOL    HW136662   1.804   1.243   4.350 -0.5820  1.1326 -0.6987
 8400SOL    HW236663   1.778   1.189   4.484 -0.2757 -0.9051  0.3129
 8401SOL     OW36664   2.054   3.331   3.521  0.2760  0.0047  0.0040
 8401SOL    HW136665   1.986   3.316   3.455 -0.4318  0.8755  0.5231
 8401SOL    HW236666   2.122   3.372   3.468 -0.4560  0.8549 -0.2759
 8402SOL     OW36667   1.850   1.230  12.796 -0.1252 -0.1246 -0.0604
 8402SOL    HW136668   1.930   1.283  12.795 -0.8134  0.9146 -1.9337
 8402SOL    HW236669   1.811   1.295  12.855 -2.9106 -1.1433 -0.7647
 8403SOL     OW36670   1.251   3.628  12.243  0.3736  0.2733 -0.3718
 8403SOL    HW136671   1.294   3.670  12.168  0.0127 -2.0779 -1.9183
 8403SOL    HW236672   1.291   3.666  12.321  0.4305  0.9450 -0.7265
 8404SOL     OW36673   1.463   2.354   5.069  0.2376 -0.4736 -0.1041
 8404SOL    HW136674   1.513   2.434   5.085 -1.6100  0.8650 -1.0287
 8404SOL    HW236675   1.489   2.334   4.980 -0.1197  3.0665 -1.0088
 8405SOL     OW36676   0.793   3.237   4.291 -0.0222  0.4614  0.0854
 8405SOL    HW136677   0.766   3.279   4.209 -0.7668 -0.8778 -0.3567
 8405SOL    HW236678   0.883   3.212   4.274  0.3911  2.5408 -0.7973
 8406SOL     OW36679   4.444   1.053   7.045 -0.3997 -0.5991  0.5608
 8406SOL    HW136680   4.526   1.080   7.086 -1.7808 -0.2879  3.1033
 8406SOL    HW236681   4.390   1.094   7.112 -0.5372  2.8863 -1.6880
 8407SOL     OW36682   2.993   3.679   2.391 -0.5616  0.0111  0.6827
 8407SOL    HW136683   2.935   3.604   2.407 -0.2231 -0.5530 -0.6822
 8407SOL    HW236684   3.066   3.650   2.446  0.7559  0.8057 -0.6608
 8408SOL     OW36685   3.122   3.353   0.137  0.5857  0.0675 -0.3896
 8408SOL    HW136686   3.115   3.422   0.202  0.6871 -2.0303  1.8341
 8408SOL    HW236687   3.032   3.336   0.109 -0.1516 -0.7889  2.5195
 8409SOL     OW36688   0.420   3.458  11.269 -0.4196 -0.3778 -0.3649
 8409SOL    HW136689   0.408   3.409  11.350  0.0726 -0.9214 -0.6223
 8409SOL    HW236690   0.504   3.504  11.277 -0.9555  0.8252 -1.6108
 8410SOL     OW36691   1.090   1.657   1.460  0.2657  0.3144 -0.0375
 8410SOL    HW136692   1.152   1.689   1.395  2.9926 -1.5319  1.6743
 8410SOL    HW236693   1.043   1.589   1.413 -1.4689  1.6707 -0.2697
 8411SOL     OW36694   3.237   2.792   0.043  0.0688 -0.2439 -0.1531
 8411SOL    HW136695   3.258   2.884   0.062 -0.5851  0.1258 -1.2254
 8411SOL    HW236696   3.322   2.747   0.049  0.5778  0.7699  0.1853
 8412SOL     OW36697   1.657   3.796  13.942  0.0167  0.1856  0.3401
 8412SOL    HW136698   1.717   3.731  13.979 -0.0979 -0.2451 -0.2360
 8412SOL    HW236699   1.704   3.877  13.963 -0.0389  0.1625  0.5509
 8413SOL     OW36700   3.183   3.099   6.868 -0.2194 -0.3609  0.1910
 8413SOL    HW136701   3.203   3.014   6.907 -0.2540 -0.5339 -0.1639
 8413SOL    HW236702   3.248   3.154   6.910 -2.3161  1.4430  1.1029
 8414SOL     OW36703   0.212   1.439  11.832  0.1302  0.1460  0.2251
 8414SOL    HW136704   0.236   1.371  11.894 -1.5122  0.1876  0.9126
 8414SOL    HW236705   0.121   1.449  11.862 -1.1039 -1.5433 -2.9696
 8415SOL     OW36706   4.142   4.050   1.965  0.4454 -0.2224 -0.6356
 8415SOL    HW136707   4.150   4.127   2.021  1.1804  0.8045 -2.1423
 8415SOL    HW236708   4.052   4.030   1.993  0.7993  1.3855  1.6662
 8416SOL     OW36709   3.662   1.578   4.789 -0.5147  0.1625 -0.3683
 8416SOL    HW136710   3.755   1.591   4.809 -1.1270  2.9809  0.6863
 8416SOL    HW236711   3.652   1.619   4.703 -0.7546  2.1549  0.6223
 8417SOL     OW36712   0.467   1.321   5.964 -0.2953  0.0209  0.0021
 8417SOL    HW136713   0.436   1.347   6.051 -0.6339  0.5186 -0.2690
 8417SOL    HW236714   0.554   1.291   5.991 -0.3197  0.0864  0.1551
 8418SOL     OW36715   0.011   1.627  15.685  0.2386  0.7408 -0.4771
 8418SOL    HW136716   4.701   1.619  15.774  0.7881 -0.1315 -0.3535
 8418SOL    HW236717   4.720   1.535  15.661  1.1132  0.2130  1.0884
 8419SOL     OW36718   4.659   4.288   3.643 -0.0232  0.6281 -0.2751
 8419SOL    HW136719   4.596   4.224   3.610  2.0462 -2.0728  1.0521
 8419SOL    HW236720   0.006   4.264   3.582 -1.3925 -0.4761 -1.4042
 8420SOL     OW36721   3.083   2.162   6.005 -0.1810 -0.2303 -0.6856
 8420SOL    HW136722   3.176   2.175   5.987 -0.2264 -0.3587 -1.0212
 8420SOL    HW236723   3.059   2.250   6.031 -0.7932 -0.3861 -0.7183
 8421SOL     OW36724   4.315   3.421   2.659  0.1841  0.0307 -0.5171
 8421SOL    HW136725   4.262   3.498   2.639  0.1442 -0.1684 -1.1970
 8421SOL    HW236726   4.404   3.446   2.635  0.7635 -1.9981 -0.5149
 8422SOL     OW36727   3.015   0.033  10.902  0.8277 -0.9630  0.4577
 8422SOL    HW136728   2.961   0.088  10.846  2.8212  0.0164 -0.4964
 8422SOL    HW236729   3.102   0.059  10.874  0.4075  2.0760  1.9345
 8423SOL     OW36730   4.170   0.771   9.262  0.7735 -0.2675  0.5368
 8423SOL    HW136731   4.249   0.809   9.302 -0.3789  0.7701  1.8267
 8423SOL    HW236732   4.129   0.735   9.341 -0.2522 -1.6169 -0.6031
 8424SOL     OW36733   2.015   1.065   2.597  0.3039  0.6163 -0.4950
 8424SOL    HW136734   1.936   1.011   2.610  2.1603 -1.2286  3.1016
 8424SOL    HW236735   2.072   1.003   2.553 -0.6027 -0.7925  0.2794
 8425SOL     OW36736   3.056   1.114   3.872 -0.3627 -1.0546 -0.3343
 8425SOL    HW136737   2.973   1.127   3.917 -0.9200 -2.8510 -0.8680
 8425SOL    HW236738   3.100   1.049   3.927  1.5924 -0.3534 -1.0485
 8426SOL     OW36739   4.370   4.283   6.135 -0.1298 -0.3686 -0.9894
 8426SOL    HW136740   4.387   4.373   6.161 -1.0981 -0.1225 -1.2198
 8426SOL    HW236741   4.275   4.281   6.151  0.4263  1.2720  2.4515
 8427SOL     OW36742   4.656   1.367  15.600  0.1334 -0.2455  0.0600
 8427SOL    HW136743   4.684   1.289  15.647  0.3684 -0.8288 -1.0431
 8427SOL    HW236744   4.570   1.330  15.582  0.2198 -1.4573  2.1603
 8428SOL     OW36745   4.108   2.131   7.513 -0.1642  0.2532  0.3775
 8428SOL    HW136746   4.110   2.035   7.510 -0.9681  0.1673  2.8478
 8428SOL    HW236747   4.038   2.138   7.577 -1.4637 -0.0373 -1.0136
 8429SOL     OW36748   2.402   1.989   2.406 -0.0191  0.1132 -0.2961
 8429SOL    HW136749   2.490   2.008   2.374  0.8547  0.0405  2.0942
 8429SOL    HW236750   2.367   1.949   2.326 -1.2701 -1.3350  0.9626
 8430SOL     OW36751   4.106   4.453   4.009 -0.1267  0.0953 -0.0973
 8430SOL    HW136752   4.139   4.456   4.099 -0.7213 -3.3565  0.2109
 8430SOL    HW236753   4.025   4.504   4.018 -0.7217 -0.6131 -1.5001
 8431SOL     OW36754   1.004   4.641   3.100 -0.7230  0.2716 -0.2851
 8431SOL    HW136755   1.044   4.668   3.017 -1.3052  0.3415 -0.5374
 8431SOL    HW236756   0.915   4.617   3.076 -1.2056  0.7600  1.0305
 8432SOL     OW36757   0.817   3.220  13.379  0.4038  0.1665  0.2186
 8432SOL    HW136758   0.874   3.275  13.432 -0.7655 -0.7553  2.4138
 8432SOL    HW236759   0.813   3.264  13.294 -3.5359  0.4581  0.5735
 8433SOL     OW36760   3.063   0.853   9.022  0.1718  0.9276 -0.4923
 8433SOL    HW136761   3.069   0.770   8.975  0.2943 -0.2134  1.5527
 8433SOL    HW236762   3.113   0.823   9.098 -0.5390 -0.9642 -0.7941
 8434SOL     OW36763   3.055   3.255  10.323  0.1797  0.1939 -0.5761
 8434SOL    HW136764   3.024   3.183  10.376  0.7526  1.7183  1.8247
 8434SOL    HW236765   3.145   3.225  10.309  0.3209  1.4946 -2.6044
 8435SOL     OW36766   2.318   2.121   3.940  0.3595 -0.7793  0.2325
 8435SOL    HW136767   2.352   2.115   3.850 -1.6258  1.2471 -0.6358
 8435SOL    HW236768   2.259   2.194   3.924  1.3410 -0.4992 -2.2303
 8436SOL     OW36769   1.964   2.957   1.424 -0.0411 -0.0910  0.1701
 8436SOL    HW136770   2.036   2.952   1.362 -2.3018  0.2995 -2.5232
 8436SOL    HW236771   1.980   2.879   1.476 -0.9794 -1.5716 -1.7849
 8437SOL     OW36772   0.922   4.603   6.378  0.2102  0.0512  0.3463
 8437SOL    HW136773   0.880   4.673   6.329 -1.7220 -0.9290  0.6101
 8437SOL    HW236774   0.998   4.579   6.324  0.3114 -0.1012  0.5576
 8438SOL     OW36775   1.057   1.490  16.198 -0.0126 -0.4197 -0.2348
 8438SOL    HW136776   1.132   1.432  16.187  2.4266  2.2258  2.2516
 8438SOL    HW236777   1.026   1.493  16.107  0.7898 -0.8259 -0.5213
 8439SOL     OW36778   2.471   1.542  12.174  0.2374 -0.8299  0.9802
 8439SOL    HW136779   2.532   1.608  12.144 -0.3502 -0.4675  0.5789
 8439SOL    HW236780   2.521   1.466  12.144 -2.6026 -2.0733 -0.6403
 8440SOL     OW36781   1.458   0.452  11.125  0.0645  0.5399 -0.8133
 8440SOL    HW136782   1.397   0.443  11.052  0.2793 -1.1165 -0.7737
 8440SOL    HW236783   1.415   0.516  11.182  1.6759 -0.4094  1.4780
 8441SOL     OW36784   4.409   2.453   6.142  0.0011 -0.0730 -0.0576
 8441SOL    HW136785   4.380   2.529   6.193  1.9842 -0.5671  1.7700
 8441SOL    HW236786   4.334   2.444   6.082 -1.1353  0.9970  1.1963
 8442SOL     OW36787   0.486   4.163   6.276  0.1558  0.0311  0.0568
 8442SOL    HW136788   0.471   4.194   6.187 -1.1579  2.4973  1.1408
 8442SOL    HW236789   0.581   4.167   6.285  0.2322 -1.0745 -0.2870
 8443SOL     OW36790   3.770   3.164   1.122  0.2601 -0.0192  0.3152
 8443SOL    HW136791   3.731   3.079   1.098  1.5295 -0.8830  1.3381
 8443SOL    HW236792   3.858   3.150   1.088  0.0899  1.6819 -0.8038
 8444SOL     OW36793   3.656   3.682  16.583  0.0770  0.2613 -0.5426
 8444SOL    HW136794   3.635   3.765  16.624 -0.2104  0.2030 -0.5699
 8444SOL    HW236795   3.721   3.704  16.516  1.3521  3.8729  1.9302
 8445SOL     OW36796   1.971   0.064   7.792  0.0195 -0.2437 -0.0542
 8445SOL    HW136797   1.882   0.089   7.816  0.2740  1.0011 -0.4248
 8445SOL    HW236798   2.003   0.032   7.876 -0.2842  1.7512  0.8093
 8446SOL     OW36799   3.529   0.171   8.346 -0.8394 -0.0816 -0.3555
 8446SOL    HW136800   3.481   0.219   8.279 -0.0112  1.9159  0.4996
 8446SOL    HW236801   3.594   0.140   8.283 -0.4715 -0.0909  0.0276
 8447SOL     OW36802   2.378   4.451   2.610 -0.2249  0.2899 -0.1233
 8447SOL    HW136803   2.429   4.519   2.654  0.4395 -0.6347  0.5277
 8447SOL    HW236804   2.293   4.491   2.633  0.2028  1.0313  0.1829
 8448SOL     OW36805   1.637   3.351   1.320 -0.1251  0.1239  0.3030
 8448SOL    HW136806   1.636   3.333   1.414  1.0586  0.4012  0.3617
 8448SOL    HW236807   1.553   3.396   1.310  1.5442  2.7011 -1.9156
 8449SOL     OW36808   0.357   4.285  14.074 -0.0281 -0.1061  0.4717
 8449SOL    HW136809   0.431   4.233  14.041 -0.3308  0.4538 -1.0846
 8449SOL    HW236810   0.281   4.238  14.038 -1.3240  1.1502  1.5720
 8450SOL     OW36811   3.807   0.554   3.149  0.1685  0.0555 -0.6626
 8450SOL    HW136812   3.715   0.578   3.139 -0.4114 -1.8811 -0.0120
 8450SOL    HW236813   3.861   0.624   3.111 -0.4833 -0.2031 -2.0785
 8451SOL     OW36814   2.105   2.734   7.383 -0.5963  0.2608 -0.1501
 8451SOL    HW136815   2.152   2.799   7.331 -1.5905  2.3054  1.4900
 8451SOL    HW236816   2.067   2.790   7.451  2.3093  1.3274  0.5822
 8452SOL     OW36817   0.155   0.251  10.302  0.1025 -0.1676  0.6847
 8452SOL    HW136818   0.071   0.231  10.343 -2.6571 -0.0606 -4.9985
 8452SOL    HW236819   0.123   0.313  10.237 -1.1967 -0.8403  0.6843
 8453SOL     OW36820   3.917   2.169   7.702  0.2181 -0.0952  0.2175
 8453SOL    HW136821   3.913   2.137   7.792  0.7338 -0.7327  0.0084
 8453SOL    HW236822   3.881   2.256   7.722  0.2034  0.2339 -1.2259
 8454SOL     OW36823   4.327   1.215  17.447 -0.1486 -0.6205  0.6567
 8454SOL    HW136824   4.308   1.122  17.438  2.4763 -1.1093  0.0191
 8454SOL    HW236825   4.396   1.205  17.514 -0.4528 -0.0829  1.0566
 8455SOL     OW36826   2.614   0.478  12.678 -0.0492  0.4941 -0.0158
 8455SOL    HW136827   2.661   0.558  12.699  0.5683  0.5163 -1.4519
 8455SOL    HW236828   2.538   0.516  12.633 -0.0598 -2.5245 -2.5441
 8456SOL     OW36829   0.492   4.119  17.369  0.1078  0.3061 -0.0997
 8456SOL    HW136830   0.516   4.026  17.361 -0.8956  0.0706 -0.3171
 8456SOL    HW236831   0.556   4.151  17.306 -0.7986  0.4178 -0.9622
 8457SOL     OW36832   2.824   1.133   4.631  0.1479 -0.1224  0.2573
 8457SOL    HW136833   2.838   1.061   4.692 -2.0819  0.9632  2.0666
 8457SOL    HW236834   2.731   1.127   4.609  0.5587  0.8593 -1.7402
 8458SOL     OW36835   1.156   0.249  11.471  0.2917 -0.1938 -0.4330
 8458SOL    HW136836   1.063   0.255  11.451  0.8203 -0.1422 -2.9404
 8458SOL    HW236837   1.159   0.239  11.566  1.3639  1.9782 -0.2470
 8459SOL     OW36838   4.350   2.012   4.521  0.3966  0.2074  0.0340
 8459SOL    HW136839   4.307   1.928   4.533  1.0599  0.0055  0.9433
 8459SOL    HW236840   4.429   1.997   4.572  1.2606  1.0733 -1.0440
 8460SOL     OW36841   1.193   1.193  17.295  0.0930  0.2331  0.0273
 8460SOL    HW136842   1.173   1.223  17.206  0.9172  2.0807  0.4687
 8460SOL    HW236843   1.113   1.214  17.343 -0.1983 -1.7384  0.3756
 8461SOL     OW36844   2.893   2.623   6.457 -0.1266 -0.7247 -0.0850
 8461SOL    HW136845   2.913   2.591   6.545 -0.4977 -0.3614  0.1311
 8461SOL    HW236846   2.875   2.539   6.414 -0.1655 -1.0336  0.5374
 8462SOL     OW36847   4.011   2.582   9.160 -0.1027 -0.1385 -0.5761
 8462SOL    HW136848   3.983   2.490   9.155  1.3616 -0.5302 -1.6816
 8462SOL    HW236849   4.099   2.569   9.123  0.1704 -0.1413  0.0868
 8463SOL     OW36850   2.750   3.327  17.526  0.4977 -0.3723 -0.1804
 8463SOL    HW136851   2.702   3.245  17.529 -0.3372  0.0910 -0.8903
 8463SOL    HW236852   2.801   3.334  17.606  0.5592 -0.8158 -0.1824
 8464SOL     OW36853   0.283   2.770  10.837 -0.1590 -0.2479  1.0767
 8464SOL    HW136854   0.206   2.720  10.812 -0.2307 -0.3216  1.4485
 8464SOL    HW236855   0.271   2.788  10.930 -2.0254  0.2447  0.7326
 8465SOL     OW36856   4.713   1.411  11.980  0.1917  0.1214 -0.0513
 8465SOL    HW136857   0.004   1.399  12.074 -0.7208  2.3542  0.3741
 8465SOL    HW236858   4.646   1.343  11.972 -0.6342  0.7738  1.3788
 8466SOL     OW36859   3.612   3.030  10.406  0.5708 -0.3157 -0.1529
 8466SOL    HW136860   3.631   3.099  10.470 -1.0932 -1.3819  1.4717
 8466SOL    HW236861   3.530   2.993  10.438 -0.0365  0.4689 -0.8136
 8467SOL     OW36862   1.892   4.591   6.842 -0.5303  0.1863  0.1891
 8467SOL    HW136863   1.967   4.650   6.854 -0.3365 -0.0230  0.0165
 8467SOL    HW236864   1.862   4.565   6.929 -0.9713 -1.1348 -0.3744
 8468SOL     OW36865   2.755   1.696   4.529  0.2940  0.2093  0.1381
 8468SOL    HW136866   2.681   1.739   4.487 -2.0762 -1.5557  2.4762
 8468SOL    HW236867   2.827   1.733   4.479 -0.9438  2.0486 -0.2632
 8469SOL     OW36868   1.951   1.279   2.138 -0.0005 -0.2038 -0.3804
 8469SOL    HW136869   1.975   1.277   2.230 -0.1308  0.6122 -0.3310
 8469SOL    HW236870   2.012   1.213   2.106  2.0137  3.8127 -4.8667
 8470SOL     OW36871   1.227   2.189   2.662 -0.7196 -0.3084 -0.1711
 8470SOL    HW136872   1.198   2.224   2.578 -2.6629 -1.8269 -0.1110
 8470SOL    HW236873   1.290   2.258   2.686 -1.0494 -0.7111  1.8400
 8471SOL     OW36874   0.998   4.243   5.142 -0.5540  0.3372 -0.1106
 8471SOL    HW136875   0.957   4.329   5.129 -2.6959 -0.6469  0.1619
 8471SOL    HW236876   0.953   4.196   5.072 -1.9365  1.2671  0.1559
 8472SOL     OW36877   0.858   2.755   3.337  0.0442  0.3253  0.4802
 8472SOL    HW136878   0.947   2.753   3.372 -0.2769  0.4556  1.3145
 8472SOL    HW236879   0.834   2.663   3.347 -0.6187  0.6309  1.6959
 8473SOL     OW36880   0.454   0.703   2.339  0.1310  0.3681 -0.1682
 8473SOL    HW136881   0.417   0.614   2.342 -0.7904  0.7936  1.1582
 8473SOL    HW236882   0.542   0.683   2.307 -0.2047 -1.8985  0.2683
 8474SOL     OW36883   4.365   4.329   3.466 -0.6879  0.0960 -0.1020
 8474SOL    HW136884   4.430   4.259   3.474 -1.4346 -0.6387 -0.5447
 8474SOL    HW236885   4.287   4.289   3.504 -0.6111 -1.3608 -1.4473
 8475SOL     OW36886   2.889   0.638   9.866  0.3910  0.3480 -0.0962
 8475SOL    HW136887   2.811   0.625   9.920  0.2521 -1.5899 -0.7476
 8475SOL    HW236888   2.908   0.727   9.893  0.4369 -0.3356  2.1372
 8476SOL     OW36889   3.631   2.311   9.032 -0.1715 -0.1551  0.6009
 8476SOL    HW136890   3.670   2.389   8.991  3.0048 -3.2142 -2.1933
 8476SOL    HW236891   3.537   2.331   9.032 -0.3161 -0.8464 -1.1546
 8477SOL     OW36892   0.408   4.227  15.399  0.1466  0.0647  0.2572
 8477SOL    HW136893   0.437   4.318  15.401  0.0230  0.1183 -0.3164
 8477SOL    HW236894   0.322   4.246  15.360  1.2085 -0.7962 -2.5377
 8478SOL     OW36895   1.308   0.392   8.371 -0.3596 -0.3773  0.0624
 8478SOL    HW136896   1.324   0.304   8.405 -0.2819 -0.6299 -0.6078
 8478SOL    HW236897   1.322   0.374   8.277 -0.9643 -0.9740  0.0914
 8479SOL     OW36898   2.181   0.470   6.062  0.3412  0.0687 -0.4191
 8479SOL    HW136899   2.213   0.468   5.971 -1.6655  2.8180 -1.1843
 8479SOL    HW236900   2.117   0.542   6.064 -0.0051 -0.2511 -0.0088
 8480SOL     OW36901   0.440   3.321   4.364 -0.1026 -0.1858 -0.0189
 8480SOL    HW136902   0.520   3.371   4.350 -1.1134  1.2637 -0.6196
 8480SOL    HW236903   0.476   3.233   4.374 -1.0734 -0.3548  1.9143
 8481SOL     OW36904   3.501   2.802   7.367 -0.2464 -0.2557  0.3488
 8481SOL    HW136905   3.550   2.805   7.449 -0.1854  1.4287  0.2555
 8481SOL    HW236906   3.563   2.781   7.297 -1.7509 -3.5450  0.0259
 8482SOL     OW36907   0.046   0.004  16.696 -0.6883  0.4333  0.1950
 8482SOL    HW136908   0.066   0.073  16.759 -0.1312 -0.5504  1.1127
 8482SOL    HW236909   0.090   0.025  16.614 -1.4806  0.9237 -0.1078
 8483SOL     OW36910   3.131   1.475  16.885  0.0056 -0.0266 -0.2041
 8483SOL    HW136911   3.124   1.500  16.793  1.1664 -2.2753 -0.9154
 8483SOL    HW236912   3.059   1.412  16.879 -0.4287  0.2630  2.1769
 8484SOL     OW36913   1.021   3.920  17.310  0.3294  0.1575 -0.0999
 8484SOL    HW136914   1.090   3.866  17.272 -0.6005  1.0653 -3.0783
 8484SOL    HW236915   0.946   3.861  17.302  2.2210 -2.1335 -0.8044
 8485SOL     OW36916   1.614   4.534   6.158 -0.6614  0.2806 -0.0593
 8485SOL    HW136917   1.686   4.582   6.198 -0.2938  2.0765 -2.8479
 8485SOL    HW236918   1.635   4.550   6.066  0.4446  0.0170  0.1519
 8486SOL     OW36919   4.002   4.271  12.700 -0.4944  0.5649  0.1569
 8486SOL    HW136920   4.070   4.216  12.661  0.0609  0.1247  1.7624
 8486SOL    HW236921   3.942   4.206  12.738  0.0146  0.4437  0.7430
 8487SOL     OW36922   2.481   2.069   8.595 -0.0068 -0.5118  0.1813
 8487SOL    HW136923   2.421   2.082   8.668  0.1233 -0.7059  0.3206
 8487SOL    HW236924   2.530   1.992   8.622 -0.6043 -0.9977 -0.1040
 8488SOL     OW36925   0.354   4.282   4.512  0.1036 -0.1862 -0.2414
 8488SOL    HW136926   0.436   4.293   4.560  0.3399 -0.4719 -0.5847
 8488SOL    HW236927   0.325   4.373   4.524 -2.0406 -0.9361  0.3313
 8489SOL     OW36928   3.739   4.646   8.428 -0.4883 -0.1977 -0.0783
 8489SOL    HW136929   3.667   4.624   8.486 -1.1407  0.4508 -0.6378
 8489SOL    HW236930   3.742   0.019   8.429 -0.0801 -0.1988 -1.1885
 8490SOL     OW36931   4.507   3.601   0.842 -0.6561 -0.1285  0.6569
 8490SOL    HW136932   4.429   3.573   0.794 -0.7359 -0.0128  0.7185
 8490SOL    HW236933   4.463   3.635   0.920  1.0135 -1.9511  2.3800
 8491SOL     OW36934   1.643   2.147   1.211  0.4655  0.2059 -0.2041
 8491SOL    HW136935   1.678   2.059   1.229 -4.2303 -1.2210  1.8948
 8491SOL    HW236936   1.723   2.199   1.216  1.4570 -1.3845  0.4833
 8492SOL     OW36937   2.257   3.512   0.439  0.2213  0.4446 -0.3121
 8492SOL    HW136938   2.165   3.489   0.451  0.2122  0.2359 -0.7991
 8492SOL    HW236939   2.250   3.561   0.357 -2.7825  0.3171 -0.1065
 8493SOL     OW36940   0.750   0.539   5.496  0.1090  0.3114  0.3064
 8493SOL    HW136941   0.723   0.570   5.410  0.8376 -2.2312 -0.8235
 8493SOL    HW236942   0.694   0.462   5.496  0.5629 -0.0190  0.5103
 8494SOL     OW36943   2.821   1.330  16.553 -0.4328 -0.7686  0.9239
 8494SOL    HW136944   2.813   1.408  16.608 -2.5362 -0.2843 -0.0828
 8494SOL    HW236945   2.914   1.309  16.557 -0.3709 -0.4709  1.0456
 8495SOL     OW36946   1.897   4.659   5.102 -0.6084  0.0098 -0.1654
 8495SOL    HW136947   1.978   4.686   5.060 -0.3844  0.9740  0.8689
 8495SOL    HW236948   1.843   4.660   5.024  1.0553  0.2353 -1.3058
 8496SOL     OW36949   2.357   4.672   3.355 -0.7415 -0.4797 -0.6150
 8496SOL    HW136950   2.309   4.600   3.315 -2.4762  1.4732 -2.0651
 8496SOL    HW236951   2.446   4.646   3.333 -0.2727  0.4973  0.1356
 8497SOL     OW36952   1.468   3.800   2.576 -0.2776 -0.6870 -0.0584
 8497SOL    HW136953   1.392   3.851   2.550  1.4589  1.1892 -1.4570
 8497SOL    HW236954   1.464   3.711   2.540 -1.4370 -0.3835 -0.6837
 8498SOL     OW36955   1.526   4.364   0.699  0.0354  0.0803 -0.6687
 8498SOL    HW136956   1.617   4.354   0.726 -0.0026  3.6950  0.6833
 8498SOL    HW236957   1.538   4.394   0.609 -0.7174  1.9295 -0.1387
 8499SOL     OW36958   1.036   3.396  13.466  0.8713 -0.1409 -0.5413
 8499SOL    HW136959   1.030   3.421  13.373 -2.5500  0.5143 -0.1399
 8499SOL    HW236960   1.000   3.478  13.499  3.5654  0.9191 -0.1945
 8500SOL     OW36961   0.609   0.735   7.322  0.1684  0.3202  0.2547
 8500SOL    HW136962   0.677   0.778   7.373 -0.0464 -0.5263  1.2710
 8500SOL    HW236963   0.572   0.677   7.389  0.4702 -0.5365 -0.3213
 8501SOL     OW36964   2.327   4.667   3.622  0.2047  0.4590  0.2429
 8501SOL    HW136965   2.349   4.700   3.535  1.7087  0.8486  0.7684
 8501SOL    HW236966   2.394   4.699   3.682  1.8963 -0.6282 -1.0438
 8502SOL     OW36967   1.620   3.895   4.839 -0.3179 -0.2779 -0.0833
 8502SOL    HW136968   1.593   3.905   4.747 -2.1854 -0.3304  0.4536
 8502SOL    HW236969   1.561   3.954   4.887  2.1243  2.7271 -0.7516
 8503SOL     OW36970   3.064   0.133   6.750  0.5759  0.1764  0.0925
 8503SOL    HW136971   2.970   0.143   6.761  0.3954 -1.1482 -0.2109
 8503SOL    HW236972   3.092   0.172   6.832  1.2157 -0.8275  0.3474
 8504SOL     OW36973   0.744   0.601  13.416 -0.1032  0.0431  0.7215
 8504SOL    HW136974   0.794   0.601  13.498 -0.2359  0.7444  0.8037
 8504SOL    HW236975   0.805   0.575  13.347  1.6597 -2.6458  3.2434
 8505SOL     OW36976   3.678   3.668   2.405 -0.1922 -0.1494 -0.2682
 8505SOL    HW136977   3.638   3.734   2.347  1.0423 -0.0730 -1.0229
 8505SOL    HW236978   3.730   3.611   2.349  0.4178 -0.3944  0.5472
 8506SOL     OW36979   2.129   1.135   6.145 -0.1443 -0.1231  0.6129
 8506SOL    HW136980   2.149   1.096   6.060 -3.1509 -1.5669  0.5534
 8506SOL    HW236981   2.210   1.180   6.167  0.3600 -0.7186 -0.0479
 8507SOL     OW36982   3.082   2.901  10.716 -0.3748 -0.3608 -0.9912
 8507SOL    HW136983   3.079   2.929  10.807 -0.9603 -0.0131 -1.1150
 8507SOL    HW236984   3.040   2.979  10.679  0.3574 -0.6777 -2.4818
 8508SOL     OW36985   1.210   0.597  12.057  0.0240 -0.5274 -0.1441
 8508SOL    HW136986   1.190   0.635  12.142  2.7981 -0.7738  0.6119
 8508SOL    HW236987   1.123   0.570  12.028  0.9550 -2.5069 -1.1164
 8509SOL     OW36988   0.539   0.393   7.045  0.3488  0.2569 -0.1200
 8509SOL    HW136989   0.459   0.353   7.009 -0.0258  1.0912 -0.2022
 8509SOL    HW236990   0.500   0.448   7.113 -0.1177 -3.1527  2.3985
 8510SOL     OW36991   0.626   2.090  16.011  0.3503  0.1948  0.5602
 8510SOL    HW136992   0.696   2.135  15.964 -0.6183  2.5421  1.3848
 8510SOL    HW236993   0.551   2.126  15.964  0.2711 -0.3541  0.2655
 8511SOL     OW36994   2.750   0.150   3.665 -0.0688 -0.1631  0.3467
 8511SOL    HW136995   2.759   0.244   3.679 -0.5681  0.1626 -1.5185
 8511SOL    HW236996   2.822   0.126   3.723  0.4871 -0.7675 -0.5792
 8512SOL     OW36997   4.288   4.443  14.732  0.1111 -0.5190 -0.5194
 8512SOL    HW136998   4.346   4.465  14.805  0.2065  0.2272 -0.8264
 8512SOL    HW236999   4.359   4.417  14.673  0.6753 -0.1712  0.0070
 8513SOL     OW37000   0.482   4.245   1.740  0.1502  0.2512 -0.3080
 8513SOL    HW137001   0.437   4.319   1.780  0.3619 -0.1495  0.6496
 8513SOL    HW237002   0.447   4.171   1.789  0.3342  0.6929  0.4841
 8514SOL     OW37003   2.984   4.068   3.763 -0.1651  0.3919  0.2453
 8514SOL    HW137004   2.988   4.035   3.853  0.4698 -2.6746 -0.9253
 8514SOL    HW237005   2.978   3.994   3.703 -0.4098  1.1067 -0.6063
 8515SOL     OW37006   3.591   0.712  15.738  0.4194 -0.5143 -0.0149
 8515SOL    HW137007   3.649   0.786  15.760 -0.9065  0.5489 -0.0855
 8515SOL    HW237008   3.599   0.718  15.642  0.1405 -0.2689 -0.0236
 8516SOL     OW37009   4.219   3.321   9.962 -0.3353 -0.0101 -0.1011
 8516SOL    HW137010   4.199   3.324   9.868  0.6369  1.0838 -0.2686
 8516SOL    HW237011   4.162   3.394   9.985 -1.5254 -1.4726  1.6435
 8517SOL     OW37012   0.160   3.021   1.012 -0.2275 -0.8493 -0.4714
 8517SOL    HW137013   0.246   2.979   1.016 -0.7003 -1.5738  2.3053
 8517SOL    HW237014   0.164   3.096   1.071 -1.9018  1.2046 -3.0168
 8518SOL     OW37015   1.402   4.536   3.244  0.4437  0.2474  0.1289
 8518SOL    HW137016   1.482   4.553   3.293  1.3288  0.5951 -1.4368
 8518SOL    HW237017   1.348   4.542   3.322 -0.2464  1.2472 -0.4239
 8519SOL     OW37018   3.908   0.047   4.541 -0.5185  0.6156  0.2522
 8519SOL    HW137019   4.002   0.063   4.533 -0.3862 -0.5155 -0.4114
 8519SOL    HW237020   3.891   4.706   4.472  1.8975  2.3491 -1.9099
 8520SOL     OW37021   1.901   2.386   2.788  0.3791  0.2126  0.4852
 8520SOL    HW137022   1.948   2.309   2.819  1.5387  0.5842 -0.3606
 8520SOL    HW237023   1.970   2.452   2.778  1.6971 -1.2280  0.0865
 8521SOL     OW37024   4.504   2.418   4.794  0.8580 -0.2445 -0.1172
 8521SOL    HW137025   4.525   2.467   4.874  0.3710  1.9349 -1.3242
 8521SOL    HW237026   4.562   2.456   4.728 -0.0907 -0.2283 -0.9474
 8522SOL     OW37027   3.978   4.428  12.963  0.4429  0.3538  0.0823
 8522SOL    HW137028   4.036   4.398  12.893  0.6828  0.5108  0.2141
 8522SOL    HW237029   4.040   4.480  13.014 -0.0463 -1.6313  2.7391
 8523SOL     OW37030   0.695   0.963   7.561  0.3079 -0.3305  0.8112
 8523SOL    HW137031   0.728   0.962   7.650  1.6652  1.2447  0.3107
 8523SOL    HW237032   0.771   0.988   7.509 -0.7776  1.1367 -0.0699
 8524SOL     OW37033   4.328   3.942   2.841 -0.1632 -0.2306  0.1423
 8524SOL    HW137034   4.418   3.910   2.846 -0.8185 -1.7484  2.3172
 8524SOL    HW237035   4.328   4.011   2.907  1.0124 -0.1077  0.0151
 8525SOL     OW37036   1.750   3.040   7.411  0.5447  0.4767 -0.5607
 8525SOL    HW137037   1.682   3.076   7.468  0.6884  1.0490 -0.7581
 8525SOL    HW237038   1.765   3.117   7.357  1.6729  0.2868 -0.5172
 8526SOL     OW37039   2.886   4.644  11.293  0.5640 -0.2910  0.0831
 8526SOL    HW137040   2.843   4.601  11.366  0.9628  0.1747  0.5959
 8526SOL    HW237041   2.909   0.008  11.328 -0.4244  0.6140 -1.5036
 8527SOL     OW37042   1.140   4.056   1.412  0.1673 -0.1106  0.1008
 8527SOL    HW137043   1.123   3.980   1.468 -4.0696  0.6022 -0.1858
 8527SOL    HW237044   1.067   4.113   1.437 -1.3048 -1.3065 -1.4391
 8528SOL     OW37045   2.870   4.401  15.223 -0.1101 -0.2926 -0.1646
 8528SOL    HW137046   2.850   4.309  15.239  0.0044  0.0138  1.7105
 8528SOL    HW237047   2.963   4.413  15.243 -0.2281 -0.0186  0.2027
 8529SOL     OW37048   2.993   4.559  15.001 -0.3226  0.2826 -0.0562
 8529SOL    HW137049   3.069   4.567  15.058 -0.3519 -2.0652  0.3464
 8529SOL    HW237050   2.988   4.645  14.960 -1.8352 -0.2237 -0.9407
 8530SOL     OW37051   1.000   2.045   9.533  0.0429  0.6459 -0.2935
 8530SOL    HW137052   0.932   2.029   9.599  0.2884 -0.0208 -0.2030
 8530SOL    HW237053   1.080   2.027   9.582 -0.6971 -0.5430  0.4874
 8531SOL     OW37054   4.538   1.379   8.384  0.0497  0.0053  0.2441
 8531SOL    HW137055   4.565   1.370   8.293  0.9627 -0.3743  0.5571
 8531SOL    HW237056   4.568   1.293   8.412 -1.6405 -0.9008 -0.7425
 8532SOL     OW37057   1.577   2.536   4.683  0.1271 -0.3544  0.1663
 8532SOL    HW137058   1.483   2.531   4.664  0.2549  0.0245 -0.5713
 8532SOL    HW237059   1.616   2.545   4.596 -0.2309  1.7105  0.2185
 8533SOL     OW37060   2.347   3.931  10.862 -0.4291  0.1668 -0.1112
 8533SOL    HW137061   2.286   3.860  10.841 -0.4467  0.1746 -0.0852
 8533SOL    HW237062   2.341   3.933  10.957  0.8791 -0.8551 -0.0115
 8534SOL     OW37063   0.709   0.838   6.001  0.2399 -0.3682 -0.0281
 8534SOL    HW137064   0.643   0.821   6.069  2.6689  1.5805  2.8151
 8534SOL    HW237065   0.652   0.893   5.946  0.5407  0.5450  0.5759
 8535SOL     OW37066   1.435   3.201   4.336  0.3002 -0.2775 -0.1372
 8535SOL    HW137067   1.369   3.210   4.405  1.5965  0.3654  1.0007
 8535SOL    HW237068   1.433   3.107   4.320  0.3225 -0.3669  0.3931
 8536SOL     OW37069   1.807   0.317   0.174  0.6327 -0.3399 -0.1786
 8536SOL    HW137070   1.851   0.383   0.121  0.3143 -0.2849 -0.3722
 8536SOL    HW237071   1.714   0.320   0.152  1.5206  0.9404 -3.6273
 8537SOL     OW37072   3.396   4.599  17.042 -0.0280  0.1576 -0.3425
 8537SOL    HW137073   3.396   4.529  16.977  0.2196  1.9951 -2.3280
 8537SOL    HW237074   3.373   4.672  16.986  0.3880  1.0998  0.7046
 8538SOL     OW37075   1.100   3.520   3.899  0.0174  0.2674 -0.1446
 8538SOL    HW137076   1.093   3.571   3.819 -1.4872  1.8499  1.0170
 8538SOL    HW237077   1.160   3.575   3.951  0.6501 -1.0349  0.5256
 8539SOL     OW37078   2.771   1.748   3.848  0.0525  0.4981  0.1597
 8539SOL    HW137079   2.814   1.672   3.809 -0.3045  0.2372  0.2822
 8539SOL    HW237080   2.698   1.750   3.787  1.6084 -1.3514 -1.7476
 8540SOL     OW37081   0.865   1.803   8.443  0.4965  0.5088 -0.5143
 8540SOL    HW137082   0.937   1.805   8.506  0.2504 -1.0353 -0.1800
 8540SOL    HW237083   0.805   1.871   8.475 -0.0636  0.8625 -2.3272
 8541SOL     OW37084   0.586   2.089  12.019 -0.4957 -0.0570 -0.3120
 8541SOL    HW137085   0.599   2.002  12.058  0.4112 -0.2769 -1.1108
 8541SOL    HW237086   0.573   2.135  12.102  0.2300 -0.5776  0.0932
 8542SOL     OW37087   3.478   2.040   1.995 -0.1660 -0.6973  0.3290
 8542SOL    HW137088   3.509   2.062   2.083  2.1236  0.6098 -0.8102
 8542SOL    HW237089   3.558   1.997   1.966 -0.6311 -1.2646 -0.1250
 8543SOL     OW37090   4.043   3.165   4.022  0.9817  0.1414 -0.7721
 8543SOL    HW137091   4.059   3.099   4.089 -1.1050  0.1519 -0.2624
 8543SOL    HW237092   4.087   3.242   4.059  1.2478 -0.0380 -0.7225
 8544SOL     OW37093   3.303   3.517   8.832  0.0381 -0.1460  0.4122
 8544SOL    HW137094   3.219   3.472   8.833  0.1445 -0.3623 -1.0656
 8544SOL    HW237095   3.307   3.567   8.751 -1.0370 -0.2309  0.3098
 8545SOL     OW37096   3.731   2.731   3.635 -0.2238 -0.0776 -0.3465
 8545SOL    HW137097   3.762   2.744   3.725  0.5425  0.5461 -0.6987
 8545SOL    HW237098   3.800   2.789   3.602  0.0401 -1.1505 -1.6976
 8546SOL     OW37099   2.006   3.904  16.074 -0.3256 -0.8589 -0.0617
 8546SOL    HW137100   1.995   3.986  16.122 -0.3989 -1.2565  0.6002
 8546SOL    HW237101   2.086   3.915  16.022 -0.0117 -1.2289  0.3350
 8547SOL     OW37102   3.965   4.248   2.881 -0.1325 -0.4170 -0.0315
 8547SOL    HW137103   3.947   4.273   2.790  0.3526 -0.2523 -0.0823
 8547SOL    HW237104   3.883   4.275   2.922 -0.1399 -0.3519 -0.0895
 8548SOL     OW37105   3.872   3.380   5.832 -0.0101 -0.5355 -0.4063
 8548SOL    HW137106   3.823   3.319   5.888 -0.3886  0.4445  0.3443
 8548SOL    HW237107   3.850   3.469   5.860  0.8961 -0.3198 -0.3700
 8549SOL     OW37108   0.147   3.557   7.634 -0.1637  0.2170  0.1890
 8549SOL    HW137109   0.242   3.562   7.644 -0.3046  1.8629  0.8510
 8549SOL    HW237110   0.126   3.484   7.692  0.1272  0.4107  0.5463
 8550SOL     OW37111   4.573   1.123   3.592  0.1426 -0.0182 -0.0862
 8550SOL    HW137112   4.536   1.040   3.623 -0.5739  0.4270  0.2226
 8550SOL    HW237113   4.497   1.180   3.588  0.1341 -0.0572 -0.4884
 8551SOL     OW37114   1.484   1.295   7.519  0.0050 -0.8756 -0.0870
 8551SOL    HW137115   1.399   1.254   7.533 -0.3494  0.2086  0.9667
 8551SOL    HW237116   1.506   1.339   7.601 -1.0194 -0.9771  0.2432
 8552SOL     OW37117   4.053   0.805   2.689 -0.2195 -0.1467 -0.4409
 8552SOL    HW137118   4.099   0.867   2.633 -0.0283 -0.5180 -0.7005
 8552SOL    HW237119   4.125   0.744   2.705 -1.0264 -0.3154  2.5648
 8553SOL     OW37120   2.426   3.182   7.731 -0.0242 -0.1834 -0.0296
 8553SOL    HW137121   2.489   3.197   7.801  0.3061 -2.4665  0.1600
 8553SOL    HW237122   2.458   3.248   7.669  2.5573 -0.4404  1.0092
 8554SOL     OW37123   3.223   3.847   8.517  1.0571 -0.1556  0.0125
 8554SOL    HW137124   3.171   3.818   8.443 -1.3694 -3.0286  2.8663
 8554SOL    HW237125   3.303   3.862   8.465  0.3175  1.2112 -0.7379
 8555SOL     OW37126   3.582   0.650   4.262  0.1056 -0.7712 -0.2978
 8555SOL    HW137127   3.535   0.724   4.225 -1.3834 -2.3808 -1.6261
 8555SOL    HW237128   3.652   0.694   4.310  1.6477 -0.7202 -2.5705
 8556SOL     OW37129   0.079   0.279  12.709  0.4124 -0.1027 -0.2854
 8556SOL    HW137130   0.091   0.284  12.615 -0.7285 -1.4761 -0.5075
 8556SOL    HW237131   4.708   0.271  12.728  0.4191  1.1358  0.2497
 8557SOL     OW37132   4.552   0.100  14.175 -0.1004  0.4418  0.4601
 8557SOL    HW137133   4.470   0.071  14.135 -1.9489  1.0990  3.7853
 8557SOL    HW237134   4.518   0.147  14.252 -0.7324  1.0603 -0.1985
 8558SOL     OW37135   4.333   3.616   1.908  0.3706  0.1618  0.0088
 8558SOL    HW137136   4.282   3.676   1.963  0.3669 -0.7792  1.0468
 8558SOL    HW237137   4.366   3.679   1.845 -0.9502  0.9766  0.1340
 8559SOL     OW37138   0.039   0.277  12.385  0.1114  0.1436  0.0643
 8559SOL    HW137139   4.673   0.252  12.407  1.5417 -3.1751  2.0397
 8559SOL    HW237140   0.045   0.229  12.302 -2.8150  0.5597 -0.3809
 8560SOL     OW37141   0.758   0.345   7.849  0.3890 -0.0683 -0.1733
 8560SOL    HW137142   0.845   0.365   7.884  0.0585 -1.3004  1.3936
 8560SOL    HW237143   0.728   0.306   7.932 -1.9846  1.1455 -0.4585
 8561SOL     OW37144   1.848   3.333   2.099  1.1506 -0.0761 -0.1892
 8561SOL    HW137145   1.896   3.381   2.031 -3.4575  0.5546 -2.9729
 8561SOL    HW237146   1.800   3.274   2.041  1.1079 -1.5693  1.3763
 8562SOL     OW37147   3.921   0.684   4.442  0.9042  0.2629  0.0948
 8562SOL    HW137148   3.885   0.657   4.527  0.5154  2.0060  0.4947
 8562SOL    HW237149   4.005   0.640   4.435  0.5993 -0.5687  1.6717
 8563SOL     OW37150   3.766   1.819   6.937  0.5172 -0.7368  0.0595
 8563SOL    HW137151   3.806   1.888   6.991  1.1025  1.6278 -3.4503
 8563SOL    HW237152   3.807   1.744   6.980  1.3405 -0.8758 -0.9951
 8564SOL     OW37153   0.971   1.521  15.930  0.2314  0.3324 -0.4150
 8564SOL    HW137154   0.965   1.615  15.910 -1.1717  0.0490 -1.3562
 8564SOL    HW237155   1.003   1.493  15.844 -0.5929  2.2910 -1.3624
 8565SOL     OW37156   2.195   3.878   6.431 -0.0043  0.3922  0.4712
 8565SOL    HW137157   2.151   3.818   6.491  0.8579 -0.5679  0.1451
 8565SOL    HW237158   2.282   3.843   6.412 -0.5134 -0.9413  0.6009
 8566SOL     OW37159   3.623   1.071   9.664  0.5488 -0.0538 -0.0034
 8566SOL    HW137160   3.702   1.124   9.652  0.9200 -0.1641  2.0197
 8566SOL    HW237161   3.653   1.017   9.736  0.6312 -0.7084 -0.5235
 8567SOL     OW37162   0.079   4.680  13.766 -0.1019  0.4152 -0.1525
 8567SOL    HW137163   0.096   4.677  13.672 -0.1989  0.9374 -0.1878
 8567SOL    HW237164   0.056   0.049  13.780  1.6619  0.2170  3.9101
 8568SOL     OW37165   1.589   1.914   8.807 -0.3823 -0.0142 -0.4521
 8568SOL    HW137166   1.497   1.900   8.831 -0.5749  0.5381 -0.8720
 8568SOL    HW237167   1.612   1.975   8.877  0.3329 -0.5563 -0.2129
 8569SOL     OW37168   0.790   4.600   3.686  0.0066  0.1686 -0.6081
 8569SOL    HW137169   0.809   4.583   3.778 -2.2245  1.9329  0.1753
 8569SOL    HW237170   0.804   4.510   3.657 -0.7060 -0.5022  1.1175
 8570SOL     OW37171   4.159   3.385   7.700  0.5608  0.0955 -0.1020
 8570SOL    HW137172   4.098   3.366   7.771  0.1765 -1.2863 -0.8056
 8570SOL    HW237173   4.219   3.311   7.708  2.8397  1.9312 -0.2996
 8571SOL     OW37174   2.160   0.598   8.264 -0.1169  0.0897 -0.6539
 8571SOL    HW137175   2.195   0.514   8.234  0.5673  0.2669 -0.3636
 8571SOL    HW237176   2.202   0.653   8.198  0.0548  1.1945  0.3898
 8572SOL     OW37177   1.191   2.387  13.412 -0.4461 -0.4309  1.2226
 8572SOL    HW137178   1.280   2.423  13.415 -0.9834  0.8724  1.5509
 8572SOL    HW237179   1.197   2.329  13.488  3.9299 -0.5013  0.8510
 8573SOL     OW37180   3.376   0.842   1.576 -0.0208 -0.2933 -0.7998
 8573SOL    HW137181   3.426   0.770   1.537 -1.7572 -1.1015 -1.5375
 8573SOL    HW237182   3.306   0.795   1.621  0.6042  0.5614  1.0941
 8574SOL     OW37183   4.441   3.426   7.352 -0.2876  0.1287 -0.3678
 8574SOL    HW137184   4.460   3.519   7.362 -0.1143 -0.1045  1.4745
 8574SOL    HW237185   4.506   3.405   7.285 -0.1346 -1.1415  0.1842
 8575SOL     OW37186   0.204   2.820   2.489  0.3720  0.4060 -0.7298
 8575SOL    HW137187   0.110   2.800   2.500 -0.0500  2.5246 -0.5631
 8575SOL    HW237188   0.226   2.816   2.396 -3.0026  1.0292 -1.5691
 8576SOL     OW37189   3.106   1.760  16.932  0.8793 -0.3442  0.3911
 8576SOL    HW137190   3.031   1.789  16.880  1.5977 -0.1504 -0.5377
 8576SOL    HW237191   3.082   1.668  16.949  2.6172 -0.8860 -0.0925
 8577SOL     OW37192   3.056   0.426   2.727 -0.1077 -0.4082 -0.2435
 8577SOL    HW137193   2.972   0.409   2.685 -0.1416 -0.4339 -0.1644
 8577SOL    HW237194   3.036   0.482   2.801 -0.7340  1.2563 -1.6699
 8578SOL     OW37195   1.991   3.451   7.483 -0.5080  0.6471 -0.1458
 8578SOL    HW137196   2.067   3.394   7.494 -0.3487  0.9540  0.3617
 8578SOL    HW237197   1.946   3.421   7.404  1.0565  0.7267 -1.0525
 8579SOL     OW37198   2.909   2.113   6.430  0.2935  0.0120  0.0767
 8579SOL    HW137199   2.859   2.057   6.371 -0.0341  1.0502 -0.6315
 8579SOL    HW237200   2.983   2.054   6.445 -0.7241 -1.1284  0.6516
 8580SOL     OW37201   2.386   1.088   1.641 -0.1610 -0.0361  0.3086
 8580SOL    HW137202   2.346   1.082   1.554 -0.6438  1.1077  0.4581
 8580SOL    HW237203   2.391   0.994   1.656 -0.9900 -0.2490 -0.7453
 8581SOL     OW37204   4.690   4.471   7.907 -0.2676  0.0116 -0.8335
 8581SOL    HW137205   4.648   4.547   7.947  0.5769 -0.0018  0.0985
 8581SOL    HW237206   0.056   4.491   7.938 -1.5050 -0.0454  2.7520
 8582SOL     OW37207   4.670   0.507   9.769 -0.4677 -0.0196 -0.3325
 8582SOL    HW137208   4.602   0.550   9.718 -0.3369  1.5222  0.7857
 8582SOL    HW237209   0.026   0.523   9.716 -1.2086  2.2062 -0.7288
 8583SOL     OW37210   3.700   1.197  11.932 -0.6405  0.2729 -0.0149
 8583SOL    HW137211   3.790   1.203  11.898 -1.9923  0.1967 -3.6883
 8583SOL    HW237212   3.685   1.108  11.900  0.1662 -0.4782  1.7285
 8584SOL     OW37213   3.219   0.688  10.485  0.7097  0.2215 -0.0175
 8584SOL    HW137214   3.239   0.780  10.502 -0.4824  0.0634  2.2607
 8584SOL    HW237215   3.134   0.708  10.446  0.2502  0.7889  1.2470
 8585SOL     OW37216   3.083   3.628   4.702 -0.0163  0.1021  0.0934
 8585SOL    HW137217   3.092   3.709   4.652 -0.9840 -0.5373 -1.1330
 8585SOL    HW237218   3.154   3.638   4.766 -1.3896  0.2317  1.6046
 8586SOL     OW37219   2.964   0.633  16.176  0.2017  0.2918  0.3756
 8586SOL    HW137220   2.989   0.551  16.219 -2.2049  1.1038  3.3508
 8586SOL    HW237221   2.870   0.636  16.160 -0.1176 -2.7943  1.5279
 8587SOL     OW37222   3.080   2.678   8.078 -0.3269 -0.7338  0.2244
 8587SOL    HW137223   3.076   2.612   8.147 -1.0487 -1.3354 -0.4017
 8587SOL    HW237224   3.039   2.622   8.012 -3.1433  1.9226 -0.2710
 8588SOL     OW37225   4.178   3.471   5.162 -0.0349  0.0338  0.2900
 8588SOL    HW137226   4.242   3.486   5.231 -2.1633 -0.8975  2.4802
 8588SOL    HW237227   4.224   3.437   5.085 -1.5580 -0.7517 -0.2781
 8589SOL     OW37228   4.530   3.968  12.933  0.2558 -1.2396  0.2504
 8589SOL    HW137229   4.461   3.967  12.867  1.1593  0.5887 -0.7283
 8589SOL    HW237230   4.489   3.931  13.011 -3.3891 -1.0765 -1.5949
 8590SOL     OW37231   3.932   2.533   5.196  0.0574  0.2200  0.1331
 8590SOL    HW137232   3.992   2.475   5.150 -0.3634  0.5382 -0.8166
 8590SOL    HW237233   3.863   2.556   5.133  0.1610 -0.9373 -0.4009
 8591SOL     OW37234   2.529   3.746   1.690 -0.1709 -0.3466 -0.5047
 8591SOL    HW137235   2.471   3.788   1.627  0.1070 -0.4504 -0.8297
 8591SOL    HW237236   2.615   3.769   1.653 -0.9441 -1.7714 -3.2402
 8592SOL     OW37237   3.442   1.831  13.228  0.2635  0.3374  0.2803
 8592SOL    HW137238   3.440   1.793  13.316  2.2358 -2.2936 -0.8057
 8592SOL    HW237239   3.354   1.807  13.201 -0.1366  2.1689 -0.0687
 8593SOL     OW37240   3.298   1.110   3.246 -0.2847  0.4641 -0.1250
 8593SOL    HW137241   3.266   1.158   3.322  0.0612  1.2414 -0.4706
 8593SOL    HW237242   3.393   1.111   3.260 -0.5662  0.8058  1.7483
 8594SOL     OW37243   3.946   4.176  13.639  0.0006  0.3121 -0.5550
 8594SOL    HW137244   3.939   4.101  13.699 -0.2780  0.0514 -0.9118
 8594SOL    HW237245   3.856   4.209  13.633 -0.1855  0.1087  1.0605
 8595SOL     OW37246   1.664   0.631   0.140 -0.3158  0.3503  0.0246
 8595SOL    HW137247   1.738   0.673   0.098  1.5728 -3.8141 -0.7908
 8595SOL    HW237248   1.593   0.695   0.143  0.3191  1.1175 -1.2169
 8596SOL     OW37249   3.742   0.439  15.309 -0.2064  0.3356  0.0328
 8596SOL    HW137250   3.817   0.414  15.255  0.4868 -2.7096  2.3428
 8596SOL    HW237251   3.767   0.405  15.395  0.9283  3.1200  0.8050
 8597SOL     OW37252   1.736   2.281   8.596  0.5066 -0.6373  0.0959
 8597SOL    HW137253   1.682   2.244   8.666  1.8096 -0.8433  0.9990
 8597SOL    HW237254   1.671   2.347   8.573  0.7947 -0.5323 -0.4080
 8598SOL     OW37255   3.954   1.866  12.425 -0.2396 -0.2064 -0.4343
 8598SOL    HW137256   4.037   1.898  12.462 -0.0095  1.9226 -2.7315
 8598SOL    HW237257   3.899   1.944  12.420  1.5415  1.0748 -0.2328
 8599SOL     OW37258   0.639   3.464   6.045  0.3536 -0.0011  0.1417
 8599SOL    HW137259   0.700   3.501   5.981 -0.4198 -1.4735 -1.4323
 8599SOL    HW237260   0.567   3.527   6.041  1.0723  0.9311  1.7720
 8600SOL     OW37261   1.851   1.962   4.463  0.2224 -0.5073 -0.5334
 8600SOL    HW137262   1.886   1.875   4.482  1.3911  0.6457  2.5388
 8600SOL    HW237263   1.839   1.997   4.551 -1.4585 -1.1301 -0.5194
 8601SOL     OW37264   2.802   3.337   4.229 -0.5642  0.2348 -0.1847
 8601SOL    HW137265   2.805   3.311   4.137  0.7940  2.2663 -0.6989
 8601SOL    HW237266   2.831   3.426   4.211  0.8696 -0.0211  0.7836
 8602SOL     OW37267   4.495   0.668  12.864  0.1398 -0.2098 -0.4743
 8602SOL    HW137268   4.459   0.580  12.874 -1.7769  0.5448 -0.7284
 8602SOL    HW237269   4.575   0.641  12.909  1.7417  2.0736 -1.9932
 8603SOL     OW37270   0.825   4.312   5.942  0.2216 -0.3640 -0.4727
 8603SOL    HW137271   0.784   4.304   6.028 -0.3641  1.6873 -0.5616
 8603SOL    HW237272   0.909   4.268   5.958  0.1392  0.2552  1.6144
 8604SOL     OW37273   3.582   2.804   2.161  0.4588 -0.2392 -0.4636
 8604SOL    HW137274   3.523   2.868   2.121  0.6904  0.0558 -0.3303
 8604SOL    HW237275   3.528   2.763   2.230 -0.3813  0.7754 -0.5153
 8605SOL     OW37276   3.229   1.984   3.148  0.1397  0.4200 -0.6560
 8605SOL    HW137277   3.256   1.929   3.074  0.4703 -0.6146  0.2347
 8605SOL    HW237278   3.307   2.040   3.145  0.8517 -0.4468  2.1090
 8606SOL     OW37279   0.996   2.927   5.793  0.6717  0.5027 -0.3390
 8606SOL    HW137280   0.965   2.923   5.883 -2.0552 -2.8073 -1.4494
 8606SOL    HW237281   1.063   2.995   5.789  0.1240  0.9834 -1.2797
 8607SOL     OW37282   3.532   1.088   5.909 -0.7294 -0.1955 -0.5574
 8607SOL    HW137283   3.545   1.181   5.927  1.4635 -0.8672  1.3011
 8607SOL    HW237284   3.584   1.042   5.974 -0.8347 -1.6408 -1.4937
 8608SOL     OW37285   0.096   3.817   5.276  0.2099 -0.1469 -0.4141
 8608SOL    HW137286   0.018   3.839   5.227 -0.6928 -0.9078  0.6688
 8608SOL    HW237287   0.141   3.758   5.216 -1.3397  0.4195 -2.0988
 8609SOL     OW37288   2.648   3.680   8.372 -0.0867  0.2650 -0.4069
 8609SOL    HW137289   2.674   3.622   8.443 -3.0038  0.0767  0.4926
 8609SOL    HW237290   2.664   3.614   8.304 -1.6140  1.2625 -1.7458
 8610SOL     OW37291   4.004   2.988   4.890  0.0466  0.6085 -0.5371
 8610SOL    HW137292   4.016   2.964   4.982 -0.9129  4.3111  0.5775
 8610SOL    HW237293   3.934   2.929   4.864  0.1508 -0.5358  1.8488
 8611SOL     OW37294   0.316   0.438   7.589  0.4593  0.3934  0.2568
 8611SOL    HW137295   0.368   0.432   7.669  1.5158  0.2499 -0.4401
 8611SOL    HW237296   0.315   0.343   7.574  0.8066  0.7159 -1.8518
 8612SOL     OW37297   2.849   1.021   1.102  0.3393  0.3481  0.2326
 8612SOL    HW137298   2.782   1.087   1.119 -1.5620 -1.1031 -1.5832
 8612SOL    HW237299   2.813   0.966   1.031  1.6529 -0.2408  0.0262
 8613SOL     OW37300   4.678   1.006   4.650 -0.3111 -0.1145 -0.2377
 8613SOL    HW137301   4.690   1.069   4.579 -0.7119 -0.8977 -1.0074
 8613SOL    HW237302   4.604   0.951   4.625  1.8670 -3.1212  0.0161
 8614SOL     OW37303   4.708   3.118   5.709 -0.5420  0.2128  0.9418
 8614SOL    HW137304   4.662   3.169   5.642 -1.1188 -3.4709 -1.4665
 8614SOL    HW237305   4.669   3.150   5.790 -3.5551 -2.8243  0.6486
 8615SOL     OW37306   3.530   1.733   5.280 -0.0527 -0.6446 -0.0033
 8615SOL    HW137307   3.469   1.687   5.338  1.0840  0.4026  2.0248
 8615SOL    HW237308   3.485   1.813   5.254 -1.3457 -0.9175  1.3724
 8616SOL     OW37309   0.914   4.409   9.687 -0.1208 -0.2275 -0.1318
 8616SOL    HW137310   0.836   4.450   9.725 -0.3959  0.7410 -1.7069
 8616SOL    HW237311   0.956   4.487   9.650 -2.5957  0.7857 -0.8275
 8617SOL     OW37312   3.357   0.263   3.571  0.5827 -0.2892 -0.4045
 8617SOL    HW137313   3.307   0.237   3.493 -0.0485  0.5624 -0.2948
 8617SOL    HW237314   3.435   0.300   3.529  0.9695 -0.6561 -0.0040
 8618SOL     OW37315   3.794   3.129   0.234 -0.1493  0.5506  0.2136
 8618SOL    HW137316   3.876   3.082   0.217 -0.9489 -0.1648 -1.5820
 8618SOL    HW237317   3.771   3.079   0.312 -1.2258 -1.7062 -1.5918
 8619SOL     OW37318   0.715   4.503   9.952  0.0640  0.5920  0.0879
 8619SOL    HW137319   0.643   4.504   9.889  0.4197  1.1912 -0.3180
 8619SOL    HW237320   0.715   4.580  10.008 -0.5363  1.1483 -0.6804
 8620SOL     OW37321   0.269   3.557   3.097  0.2912 -0.8883 -0.4230
 8620SOL    HW137322   0.356   3.558   3.057  0.6112 -2.3050  0.2826
 8620SOL    HW237323   0.249   3.464   3.087  0.0273 -1.1416  2.4298
 8621SOL     OW37324   0.960   3.958   5.644 -0.5917  0.0409  0.2373
 8621SOL    HW137325   1.021   3.945   5.716 -0.9128  0.5556  0.6067
 8621SOL    HW237326   1.011   3.939   5.566 -1.4197 -1.9198  0.1819
 8622SOL     OW37327   2.523   4.476   8.167 -0.6078  0.3447 -0.2270
 8622SOL    HW137328   2.542   4.390   8.203  0.4540  0.8224  0.3486
 8622SOL    HW237329   2.463   4.508   8.235  1.7803  1.0322  1.5621
 8623SOL     OW37330   4.090   4.156   8.104  0.0924 -0.1627 -0.3752
 8623SOL    HW137331   4.135   4.138   8.187 -0.2135 -1.9145 -0.5814
 8623SOL    HW237332   4.153   4.211   8.057 -1.0528  2.0138  0.6541
 8624SOL     OW37333   2.325   4.674  11.169 -0.1724 -0.2471 -0.3310
 8624SOL    HW137334   2.386   4.704  11.101  0.6713 -0.3332  0.3927
 8624SOL    HW237335   2.275   0.025  11.203 -1.8372 -1.2700 -0.5930
 8625SOL     OW37336   0.376   1.806   5.886  0.6918 -0.3743  0.7440
 8625SOL    HW137337   0.362   1.717   5.854 -1.2964  0.0344  0.4749
 8625SOL    HW237338   0.308   1.845   5.832 -0.1880 -0.3071  1.9010
 8626SOL     OW37339   0.890   2.440  12.024 -0.0143  0.0303  0.0901
 8626SOL    HW137340   0.881   2.391  11.942  1.0235 -0.8044  0.4686
 8626SOL    HW237341   0.937   2.370  12.069 -0.6152 -0.9244 -0.7568
 8627SOL     OW37342   0.530   3.650  16.052 -0.1623  0.7233  0.0714
 8627SOL    HW137343   0.576   3.613  15.977  0.1044 -1.3241  1.2546
 8627SOL    HW237344   0.572   3.735  16.068 -1.5913  1.6827 -1.2844
 8628SOL     OW37345   1.187   1.693   4.406  0.3982 -0.4821  0.0062
 8628SOL    HW137346   1.266   1.665   4.360  0.9396  1.9629 -0.5263
 8628SOL    HW237347   1.211   1.664   4.494 -0.5413 -3.2202 -0.6142
 8629SOL     OW37348   0.236   0.012   3.090 -0.4119  0.2270 -0.1016
 8629SOL    HW137349   0.203   4.690   3.168 -3.2957  2.4061 -0.0714
 8629SOL    HW237350   0.284   0.078   3.139 -1.6660  1.9629 -1.2394
 8630SOL     OW37351   2.428   3.901   2.916 -0.2417  0.2113 -0.2818
 8630SOL    HW137352   2.499   3.846   2.948 -0.3015 -0.1608 -0.8047
 8630SOL    HW237353   2.372   3.888   2.993  1.1215 -1.0395  0.4761
 8631SOL     OW37354   4.308   0.036  15.660  0.2779  0.0021  0.0459
 8631SOL    HW137355   4.294   0.079  15.744  0.5479  0.2737 -0.0482
 8631SOL    HW237356   4.326   4.671  15.694  1.3091  0.4787  0.7433
 8632SOL     OW37357   3.634   3.404   4.259 -0.0863  0.2328 -0.4214
 8632SOL    HW137358   3.648   3.324   4.310  0.7871  0.8918  0.3697
 8632SOL    HW237359   3.629   3.475   4.323  1.5409 -0.2940  0.3051
 8633SOL     OW37360   4.717   4.103  13.261 -0.6808 -0.1877  0.4066
 8633SOL    HW137361   4.639   4.157  13.263 -0.8506 -0.4601  1.6106
 8633SOL    HW237362   0.050   4.156  13.319 -1.5112 -0.1695  1.1903
 8634SOL     OW37363   0.766   0.420   3.734 -0.1766 -0.4209  0.0925
 8634SOL    HW137364   0.848   0.435   3.688 -0.5343  1.5806  0.0967
 8634SOL    HW237365   0.760   0.324   3.727  0.8683 -0.2690 -2.9219
 8635SOL     OW37366   0.129   1.472  15.389 -0.3044  0.2423 -0.2854
 8635SOL    HW137367   0.161   1.551  15.434 -0.8993 -0.2959  1.0705
 8635SOL    HW237368   0.049   1.455  15.437  0.6447 -1.3375  0.7283
 8636SOL     OW37369   2.978   3.309   7.481  0.7749 -0.2426 -0.1324
 8636SOL    HW137370   2.993   3.401   7.459  0.7151 -0.5550 -1.5158
 8636SOL    HW237371   3.020   3.270   7.404  0.0187  0.4401 -0.8944
 8637SOL     OW37372   2.145   4.386   0.781  0.6725 -0.2361 -0.2606
 8637SOL    HW137373   2.121   4.389   0.873  0.6650 -1.2378 -0.2245
 8637SOL    HW237374   2.071   4.341   0.740  1.9478 -1.4429 -1.2208
 8638SOL     OW37375   3.978   1.481   7.448 -0.0941  0.4617 -0.0805
 8638SOL    HW137376   4.055   1.522   7.487 -0.4220  1.0866 -0.0890
 8638SOL    HW237377   3.947   1.554   7.395 -0.4837 -0.2951 -0.9054
 8639SOL     OW37378   3.130   2.137  17.139 -0.1935 -0.3285  0.8782
 8639SOL    HW137379   3.100   2.227  17.134 -1.0548 -0.5981  1.1366
 8639SOL    HW237380   3.224   2.150  17.136 -0.1987 -0.5642 -0.5341
 8640SOL     OW37381   0.292   1.133   7.480 -0.3237  0.3537  0.5781
 8640SOL    HW137382   0.295   1.144   7.385 -0.8167  1.5142  0.6952
 8640SOL    HW237383   0.380   1.145   7.514 -0.9947 -0.1732  2.4963
 8641SOL     OW37384   0.786   1.254   8.793 -0.1919  0.7174  0.2202
 8641SOL    HW137385   0.715   1.282   8.849  0.8217  1.1947  1.2625
 8641SOL    HW237386   0.869   1.289   8.827  1.8124 -1.7474 -2.0708
 8642SOL     OW37387   3.010   3.927   6.470  0.8013  0.7644 -0.0719
 8642SOL    HW137388   3.080   3.985   6.441  2.6590 -0.5909  1.6921
 8642SOL    HW237389   2.992   3.873   6.394  0.4822  1.2152 -0.3216
 8643SOL     OW37390   3.324   2.618   9.385 -0.5655  0.1174 -0.0732
 8643SOL    HW137391   3.395   2.669   9.346  0.8054 -1.0457  0.9485
 8643SOL    HW237392   3.374   2.550   9.430  0.3104  0.4740 -0.5147
 8644SOL     OW37393   2.077   2.217   8.306  0.4086  0.0223 -0.0895
 8644SOL    HW137394   2.000   2.171   8.272 -0.3066  0.4625  0.9291
 8644SOL    HW237395   2.135   2.213   8.230  1.9854 -0.0195  1.1006
 8645SOL     OW37396   0.211   1.288   4.669  0.3285 -0.1537 -0.5991
 8645SOL    HW137397   0.242   1.377   4.688  0.2181 -0.2570  0.0430
 8645SOL    HW237398   0.279   1.255   4.609  0.6361  2.4042 -1.6470
 8646SOL     OW37399   2.244   1.815   3.613 -0.0842 -0.7749  0.2278
 8646SOL    HW137400   2.280   1.732   3.583  1.0999  0.3856 -1.5298
 8646SOL    HW237401   2.319   1.866   3.582  0.1345  0.1395  2.2483
 8647SOL     OW37402   1.853   1.816   5.839  0.1237  0.6667 -0.3946
 8647SOL    HW137403   1.924   1.807   5.902  0.3279 -2.3724 -1.0581
 8647SOL    HW237404   1.802   1.739   5.863 -0.0054  0.7033 -0.5492
 8648SOL     OW37405   1.244   0.991  11.067  0.2411 -0.0041  0.1582
 8648SOL    HW137406   1.254   1.047  10.990  0.7739 -0.1811  0.0924
 8648SOL    HW237407   1.170   0.941  11.033  0.0292 -0.6832  1.6097
 8649SOL     OW37408   3.564   1.277  17.544 -0.0493  0.6600 -0.4694
 8649SOL    HW137409   3.634   1.242  17.489  1.9386  1.1146  1.7548
 8649SOL    HW237410   3.553   1.199  17.598 -0.3753  2.0581  1.4738
 8650SOL     OW37411   3.233   2.869  12.418 -0.0210 -0.0598 -0.5680
 8650SOL    HW137412   3.265   2.785  12.452  3.5363  0.7148 -2.0093
 8650SOL    HW237413   3.155   2.876  12.473  0.4836  1.2708 -0.0303
 8651SOL     OW37414   2.516   0.339   9.042  0.0016 -0.6159  0.2675
 8651SOL    HW137415   2.435   0.304   9.078 -1.5373  2.3945 -0.2543
 8651SOL    HW237416   2.533   0.279   8.970 -2.5132  0.6045 -1.3307
 8652SOL     OW37417   0.095   4.537  12.164  0.1208  0.3934 -0.3813
 8652SOL    HW137418   0.155   4.575  12.100  0.3833 -0.8610 -0.8780
 8652SOL    HW237419   0.126   4.448  12.180 -1.0330 -0.1851 -1.3620
 8653SOL     OW37420   2.920   4.071  15.976  0.2579 -0.9683  0.2739
 8653SOL    HW137421   3.000   4.093  16.025 -1.1848 -0.1260  2.2805
 8653SOL    HW237422   2.933   4.129  15.901  2.6329 -0.0756  1.3581
 8654SOL     OW37423   2.821   0.987   9.402  0.1278  0.2841  0.5605
 8654SOL    HW137424   2.915   0.980   9.385  0.1694 -1.5304  1.5562
 8654SOL    HW237425   2.774   0.945   9.330 -3.6612  0.9813  2.5949
 8655SOL     OW37426   3.966   1.606   4.543  0.4228 -0.5561 -0.4054
 8655SOL    HW137427   3.957   1.645   4.630  1.9718  1.6978 -1.2422
 8655SOL    HW237428   3.875   1.611   4.513 -0.0772 -2.9156  0.7159
 8656SOL     OW37429   3.024   3.917   7.055 -0.1269 -0.5878  0.5263
 8656SOL    HW137430   3.017   3.912   6.960  2.4467 -2.1811  0.4324
 8656SOL    HW237431   2.997   4.007   7.078 -1.6641 -1.0064  0.3829
 8657SOL     OW37432   1.715   0.274  15.583 -0.2873 -0.2515 -0.0312
 8657SOL    HW137433   1.776   0.205  15.610  0.7604  0.3397 -0.8868
 8657SOL    HW237434   1.721   0.330  15.661  2.3188  1.9019 -1.7749
 8658SOL     OW37435   4.353   3.345   2.936  0.2683 -0.0861 -0.0726
 8658SOL    HW137436   4.308   3.384   2.860 -0.3814  2.6206  1.6964
 8658SOL    HW237437   4.312   3.388   3.011  2.7343  3.2349 -0.6318
 8659SOL     OW37438   2.648   3.542   5.074 -0.2075  0.3000  0.0942
 8659SOL    HW137439   2.706   3.602   5.029  1.5279 -1.7647 -0.4184
 8659SOL    HW237440   2.678   3.453   5.053  0.3617 -0.0263  2.3102
 8660SOL     OW37441   1.380   3.432   5.929  0.1372 -0.1607  0.3232
 8660SOL    HW137442   1.342   3.497   5.989 -1.0112 -0.5861  0.0634
 8660SOL    HW237443   1.311   3.415   5.865  0.3335  0.3891 -0.0357
 8661SOL     OW37444   0.353   1.297   8.665 -0.9765  0.2733  0.2904
 8661SOL    HW137445   0.428   1.255   8.622 -0.6655  1.6684 -0.5048
 8661SOL    HW237446   0.295   1.222   8.652  0.3432 -1.0708  2.0323
 8662SOL     OW37447   4.158   4.004  11.470  0.2944  0.0049 -0.1532
 8662SOL    HW137448   4.245   4.011  11.431 -0.5166 -1.0130 -2.1390
 8662SOL    HW237449   4.109   4.057  11.407  1.2206 -0.2975 -1.1117
 8663SOL     OW37450   3.263   0.333  10.908 -0.4868 -0.2337  0.6697
 8663SOL    HW137451   3.322   0.394  10.952  0.6237  0.1706 -1.3810
 8663SOL    HW237452   3.277   0.366  10.820 -0.6027  0.9207  1.0810
 8664SOL     OW37453   3.612   4.074   5.094  0.0905  0.1344 -0.6905
 8664SOL    HW137454   3.523   4.049   5.120 -1.4608  1.7554 -4.4081
 8664SOL    HW237455   3.618   4.030   5.009  3.4272  0.6874 -0.7221
 8665SOL     OW37456   0.450   1.170   3.582  0.3763  0.5887 -0.9071
 8665SOL    HW137457   0.444   1.201   3.672  2.6363 -0.1155 -0.5317
 8665SOL    HW237458   0.382   1.226   3.543 -0.3164  0.8520  0.6943
 8666SOL     OW37459   2.047   1.936   0.451 -1.1802  0.7150 -0.0099
 8666SOL    HW137460   1.966   1.900   0.488 -1.0661 -0.7031 -1.1258
 8666SOL    HW237461   2.016   1.992   0.380 -1.1951 -1.0282 -1.3841
 8667SOL     OW37462   3.073   0.878   5.894 -0.3292 -0.4989 -0.1231
 8667SOL    HW137463   3.109   0.967   5.895  1.3252 -1.1836  0.6740
 8667SOL    HW237464   3.149   0.821   5.891  0.4801  0.5905 -0.1438
 8668SOL     OW37465   2.939   4.409   3.477 -0.4526  0.0186  0.4905
 8668SOL    HW137466   2.886   4.334   3.450 -2.4793  1.3924  0.6587
 8668SOL    HW237467   2.989   4.365   3.546  1.6557 -0.8754 -1.6107
 8669SOL     OW37468   1.798   0.464   5.287  0.2659  0.5589 -0.2368
 8669SOL    HW137469   1.759   0.449   5.373  2.6679 -0.4351  0.6597
 8669SOL    HW237470   1.767   0.554   5.274 -1.2197 -0.0530 -0.9453
 8670SOL     OW37471   1.692   2.985  16.544 -0.2063 -0.1877 -0.0040
 8670SOL    HW137472   1.640   3.065  16.548 -0.8565 -0.6068 -0.1256
 8670SOL    HW237473   1.646   2.932  16.609 -2.7843 -0.6455 -2.1720
 8671SOL     OW37474   0.412   4.454  10.049 -0.4219 -0.6076 -0.5544
 8671SOL    HW137475   0.504   4.481  10.055 -0.8031  0.9416 -1.7212
 8671SOL    HW237476   0.404   4.423   9.959  2.0316 -1.2404 -0.5653
 8672SOL     OW37477   2.094   3.404   6.101 -0.0054  0.6710 -0.0113
 8672SOL    HW137478   2.010   3.360   6.109  0.5079 -0.2041  0.6499
 8672SOL    HW237479   2.135   3.365   6.178  1.5829  0.1306 -1.1136
 8673SOL     OW37480   2.383   2.537   7.784  0.8090  0.3192 -0.1816
 8673SOL    HW137481   2.369   2.559   7.692  1.5819  2.7565  0.2986
 8673SOL    HW237482   2.329   2.602   7.829  0.7826 -0.0024  0.2531
 8674SOL     OW37483   1.127   2.923   8.512  0.1928  0.2802 -0.4482
 8674SOL    HW137484   1.210   2.950   8.552 -0.9351 -0.4711  2.3488
 8674SOL    HW237485   1.155   2.895   8.424 -0.5060 -3.1702  0.4208
 8675SOL     OW37486   2.117   3.990  10.299  0.2591 -0.2120  0.1323
 8675SOL    HW137487   2.195   4.021  10.345  0.4902  0.8880 -1.0038
 8675SOL    HW237488   2.036   4.017  10.343  0.2034 -1.7746  0.9854
 8676SOL     OW37489   0.214   4.624   6.848  0.0545 -0.3981 -0.5760
 8676SOL    HW137490   0.186   4.646   6.937 -0.8936 -2.2158 -0.4326
 8676SOL    HW237491   0.293   4.673   6.825  1.3983 -2.2348  0.2037
 8677SOL     OW37492   1.102   3.157   8.248  0.0785 -0.0973 -0.1518
 8677SOL    HW137493   1.013   3.126   8.231  0.7347 -0.8963 -2.0120
 8677SOL    HW237494   1.146   3.079   8.282  1.0864  0.7814  0.5636
 8678SOL     OW37495   0.574   1.020   5.866  0.3597 -0.7117 -0.4577
 8678SOL    HW137496   0.480   1.040   5.860  0.8693  2.4291  1.7739
 8678SOL    HW237497   0.584   0.996   5.774  0.8453 -0.3835 -0.4924
 8679SOL     OW37498   0.924   4.248   5.600 -0.2135 -0.0536  0.9990
 8679SOL    HW137499   1.009   4.291   5.608 -1.3099  2.0490  1.3927
 8679SOL    HW237500   0.943   4.156   5.617  0.1116 -0.4488 -1.5734
 8680SOL     OW37501   2.104   2.248   2.283 -0.4468  0.7913 -0.1305
 8680SOL    HW137502   2.022   2.268   2.239 -1.4472  0.1050  1.3953
 8680SOL    HW237503   2.123   2.159   2.254 -1.3557  0.3398  0.6538
 8681SOL     OW37504   2.327   1.679   8.086  0.1571  0.0757  0.0357
 8681SOL    HW137505   2.396   1.694   8.152 -1.0040 -1.8056  1.6733
 8681SOL    HW237506   2.244   1.693   8.131 -0.2212 -0.9052 -0.3546
 8682SOL     OW37507   4.363   2.812   9.167 -0.1633 -0.5062  0.0575
 8682SOL    HW137508   4.420   2.743   9.200 -0.0007 -0.0479  0.7327
 8682SOL    HW237509   4.313   2.829   9.246 -0.4909 -2.9732  0.3718
 8683SOL     OW37510   1.599   3.586   3.817  0.6956  0.2336  0.2329
 8683SOL    HW137511   1.527   3.534   3.782  1.4378 -1.5689  1.3738
 8683SOL    HW237512   1.602   3.545   3.904  1.2865  0.1221  0.1610
 8684SOL     OW37513   3.437   0.480   4.894  0.2144 -0.0876  0.5014
 8684SOL    HW137514   3.472   0.485   4.805 -1.6036  0.1996 -0.1917
 8684SOL    HW237515   3.350   0.519   4.889 -0.1124 -0.8044  0.5991
 8685SOL     OW37516   4.457   4.043   9.952  0.1605 -0.5038  0.3571
 8685SOL    HW137517   4.476   4.101  10.026 -0.1808 -2.6013  2.0729
 8685SOL    HW237518   4.538   4.007   9.917  0.8140 -0.7483  2.1466
 8686SOL     OW37519   0.108   2.910   6.250 -0.8846 -0.0353  0.0218
 8686SOL    HW137520   0.057   2.871   6.179  1.2333  2.5096 -2.9084
 8686SOL    HW237521   0.100   3.002   6.225  0.5140  0.3444  0.9767
 8687SOL     OW37522   3.102   0.313   5.760 -0.6083 -0.4103 -0.4230
 8687SOL    HW137523   3.189   0.301   5.723 -0.8339 -0.5429 -0.9185
 8687SOL    HW237524   3.111   0.386   5.821 -2.0801 -1.0013  0.5161
 8688SOL     OW37525   2.393   4.622   5.007  0.9155  0.5802  0.6280
 8688SOL    HW137526   2.425   4.532   5.006 -1.0481 -0.1036 -0.1670
 8688SOL    HW237527   2.476   4.664   4.986  1.3909  0.2154  1.7983
 8689SOL     OW37528   1.722   3.170   4.534 -0.8000 -0.2824 -0.1185
 8689SOL    HW137529   1.685   3.127   4.456  1.9676  0.9020 -2.0792
 8689SOL    HW237530   1.674   3.253   4.532  0.0537  0.1872 -1.1475
 8690SOL     OW37531   1.306   0.097   3.507  0.3838  0.4977 -0.2755
 8690SOL    HW137532   1.286   0.146   3.427  1.5908  3.1192  1.0303
 8690SOL    HW237533   1.217   0.066   3.525  1.0877 -1.9894 -1.0597
 8691SOL     OW37534   2.733   0.412   0.628 -0.3502 -0.1295 -0.4876
 8691SOL    HW137535   2.747   0.375   0.715  0.2746 -0.0594 -0.5617
 8691SOL    HW237536   2.640   0.431   0.639 -0.4499 -0.8656 -0.1111
 8692SOL     OW37537   0.432   3.055   4.100 -0.1367  0.5568  0.1335
 8692SOL    HW137538   0.473   3.140   4.087  0.0629  0.0904 -2.2319
 8692SOL    HW237539   0.362   3.079   4.161 -1.3613 -0.4155 -0.9014
 8693SOL     OW37540   4.272   1.522   2.655  0.1843 -0.3593  0.0733
 8693SOL    HW137541   4.224   1.535   2.573 -0.9325 -2.3927  0.4028
 8693SOL    HW237542   4.359   1.508   2.619 -0.2712  0.5944 -1.4162
 8694SOL     OW37543   1.687   4.595   8.691 -0.0894 -0.0207  0.1525
 8694SOL    HW137544   1.646   4.524   8.741 -0.2341  0.2298  0.3924
 8694SOL    HW237545   1.705   4.652   8.766  1.2028  0.2480 -0.3530
 8695SOL     OW37546   0.726   4.249   6.712  0.2330 -0.2401 -0.1115
 8695SOL    HW137547   0.783   4.294   6.650 -1.0049  0.7092 -0.5501
 8695SOL    HW237548   0.645   4.223   6.668 -0.3052  0.0051  0.7327
 8696SOL     OW37549   2.955   3.230   3.500 -0.3030  0.1657 -0.8702
 8696SOL    HW137550   2.966   3.280   3.419  0.2306  2.3126  0.5350
 8696SOL    HW237551   2.990   3.145   3.475 -0.5534 -0.4794  0.9897
 8697SOL     OW37552   1.141   4.043   8.413 -0.8605  0.1981  0.2984
 8697SOL    HW137553   1.094   3.963   8.389 -2.8995  1.9202 -1.5219
 8697SOL    HW237554   1.124   4.110   8.347  0.4187  0.1337 -0.0950
 8698SOL     OW37555   3.589   3.905   2.789 -0.2229  0.3368  0.1387
 8698SOL    HW137556   3.640   3.961   2.730  0.1732  0.5837  0.7108
 8698SOL    HW237557   3.654   3.878   2.855  0.8292 -2.2231 -1.9216
 8699SOL     OW37558   0.061   0.465   6.304 -0.1810  0.8859  0.5014
 8699SOL    HW137559   0.095   0.384   6.341 -0.2322  0.5350 -0.2298
 8699SOL    HW237560   0.139   0.505   6.266  0.8083 -0.9757  0.6045
 8700SOL     OW37561   0.068   3.883   4.404 -0.5673 -0.4365  0.1569
 8700SOL    HW137562   0.057   3.978   4.395  0.0040 -0.3817 -0.0015
 8700SOL    HW237563   0.072   3.857   4.312  1.6310  0.0679  0.0951
 8701SOL     OW37564   1.337   4.006   7.511 -0.7600 -0.9138 -0.3509
 8701SOL    HW137565   1.316   3.917   7.481 -1.3834 -1.3747  1.4658
 8701SOL    HW237566   1.405   3.982   7.574 -2.2219 -2.1962  0.7400
 8702SOL     OW37567   1.159   0.865   7.606  0.1754 -0.3678  0.4422
 8702SOL    HW137568   1.144   0.772   7.588 -0.5334 -0.2841  0.5955
 8702SOL    HW237569   1.094   0.909   7.550  1.7791 -0.3711 -1.4465
 8703SOL     OW37570   2.162   2.979   2.458 -0.0510 -0.0311  0.5474
 8703SOL    HW137571   2.210   2.973   2.540 -0.3202  0.9346  0.7769
 8703SOL    HW237572   2.220   2.933   2.397  1.0718  0.1842  1.4574
 8704SOL     OW37573   3.986   3.652   8.318 -0.0759 -0.2553 -0.3211
 8704SOL    HW137574   3.937   3.731   8.297  2.9880  1.5364 -0.6052
 8704SOL    HW237575   4.069   3.689   8.347  0.5208 -1.4106 -0.5370
 8705SOL     OW37576   4.647   0.897   6.850  0.2411 -0.0659 -0.7074
 8705SOL    HW137577   4.688   0.837   6.912 -0.7758  0.4807  0.4958
 8705SOL    HW237578   4.575   0.844   6.816 -0.7746  0.0799  1.2073
 8706SOL     OW37579   3.684   2.454   8.217  0.1041 -0.3027  0.3017
 8706SOL    HW137580   3.690   2.521   8.149 -0.6063  3.7387  4.2658
 8706SOL    HW237581   3.777   2.438   8.229  0.6921  2.7458 -0.3205
 8707SOL     OW37582   2.874   2.935   8.858  0.3129 -0.0181  0.1630
 8707SOL    HW137583   2.791   2.965   8.895  0.3496 -0.4633  0.6094
 8707SOL    HW237584   2.860   2.840   8.857  0.5854 -0.0752  2.3146
 8708SOL     OW37585   1.005   3.523   7.614  0.0150 -0.5276  0.2793
 8708SOL    HW137586   1.039   3.606   7.578 -1.2417 -0.9278 -1.8587
 8708SOL    HW237587   1.051   3.502   7.694 -1.9749  0.7209  1.7620
 8709SOL     OW37588   1.804   0.448   3.257  0.2509  0.0967 -0.1664
 8709SOL    HW137589   1.826   0.537   3.230  3.5645 -0.3313  1.1176
 8709SOL    HW237590   1.889   0.405   3.250 -0.0892 -0.4518 -0.9321
 8710SOL     OW37591   1.407   3.106   3.815  0.2691 -0.4463  0.1977
 8710SOL    HW137592   1.421   3.042   3.885  1.1249  0.0491  0.4763
 8710SOL    HW237593   1.401   3.179   3.876  1.1923  1.2252 -1.7201
 8711SOL     OW37594   1.036   1.810   9.099 -0.0197  0.3420  0.0405
 8711SOL    HW137595   1.078   1.724   9.099 -0.6406  0.0391  0.3088
 8711SOL    HW237596   1.118   1.859   9.105 -0.4736  1.0256  0.5982
 8712SOL     OW37597   1.198   2.874   8.244  0.0849  0.5414 -0.1313
 8712SOL    HW137598   1.132   2.805   8.239 -0.6655  1.2288  0.4055
 8712SOL    HW237599   1.211   2.873   8.149  2.6337  2.5103  0.2048
 8713SOL     OW37600   1.400   0.906  16.389  0.7578 -0.9023 -0.4562
 8713SOL    HW137601   1.477   0.956  16.415  0.6582  0.0927 -2.0934
 8713SOL    HW237602   1.342   0.974  16.354  0.9478  0.0554  1.1089
 8714SOL     OW37603   1.808   2.921   6.060  0.1259  0.1189 -0.3224
 8714SOL    HW137604   1.839   2.907   6.150 -2.2956  0.3497  0.5556
 8714SOL    HW237605   1.720   2.884   6.067  0.6470 -1.1226 -0.4777
 8715SOL     OW37606   2.470   4.432  11.123 -1.2734  0.1785  0.2130
 8715SOL    HW137607   2.465   4.501  11.057 -2.7670 -1.6915 -1.6170
 8715SOL    HW237608   2.445   4.484  11.200 -1.1192  1.4220 -0.5788
 8716SOL     OW37609   0.763   3.661   6.833  0.4648  0.2177 -0.2149
 8716SOL    HW137610   0.719   3.577   6.820 -3.1422  2.1077 -0.0944
 8716SOL    HW237611   0.724   3.707   6.758 -0.2763 -1.1341 -0.6626
 8717SOL     OW37612   3.631   0.448  13.849  0.2770  0.4303 -0.0874
 8717SOL    HW137613   3.558   0.510  13.843  1.0459  1.3345 -0.0588
 8717SOL    HW237614   3.587   0.374  13.807  0.1267 -0.7524  2.1870
 8718SOL     OW37615   1.318   3.600   8.591  0.2828  0.3768 -0.1971
 8718SOL    HW137616   1.335   3.506   8.602  0.3404  0.2889 -1.0235
 8718SOL    HW237617   1.272   3.606   8.675 -0.0058 -0.3059 -0.3087
 8719SOL     OW37618   0.405   2.480   5.459 -0.1108  0.2508  0.5415
 8719SOL    HW137619   0.452   2.502   5.539 -1.4210 -3.2598  2.2924
 8719SOL    HW237620   0.434   2.390   5.446 -0.7610  0.0480  0.4917
 8720SOL     OW37621   0.464   4.200  16.135 -0.3796  0.6861 -0.2915
 8720SOL    HW137622   0.440   4.208  16.042 -0.5238 -2.2704 -0.4893
 8720SOL    HW237623   0.387   4.233  16.182 -0.1376 -0.1955  0.7053
 8721SOL     OW37624   1.819   0.070   8.250 -0.2472 -0.0532  0.3265
 8721SOL    HW137625   1.807   4.705   8.215  1.3659 -0.1910  0.1083
 8721SOL    HW237626   1.875   0.107   8.181  1.9416 -1.0014  1.6082
 8722SOL     OW37627   2.344   3.882  14.828 -0.3552  0.7544  0.2840
 8722SOL    HW137628   2.427   3.895  14.781 -0.4903  0.5338 -0.0175
 8722SOL    HW237629   2.276   3.904  14.764 -0.5132  2.9775  1.2049
 8723SOL     OW37630   3.307   3.776   7.582  0.3785  0.2389 -0.3328
 8723SOL    HW137631   3.249   3.836   7.629 -0.8048 -0.8254 -0.4388
 8723SOL    HW237632   3.269   3.790   7.495 -0.7143  0.4407  0.1788
 8724SOL     OW37633   2.998   4.649   8.176  0.3211  0.1508 -0.4629
 8724SOL    HW137634   3.080   4.673   8.219  0.2889  1.0812 -0.9139
 8724SOL    HW237635   3.024   4.643   8.084  0.1060 -1.9340 -0.3869
 8725SOL     OW37636   3.976   3.022   0.743 -0.5628  0.7137 -0.3802
 8725SOL    HW137637   4.047   3.003   0.683  1.3348 -0.0964  2.1225
 8725SOL    HW237638   3.996   2.971   0.821  0.0694  1.6384  0.0587
 8726SOL     OW37639   2.162   0.412   8.662  0.0888  0.0364  0.1947
 8726SOL    HW137640   2.164   0.467   8.584 -1.9363 -0.2027 -0.0214
 8726SOL    HW237641   2.094   0.461   8.708 -0.2898 -1.0266  0.7801
 8727SOL     OW37642   2.179   0.287   1.721  0.1578  0.1036 -0.6255
 8727SOL    HW137643   2.185   0.291   1.626 -0.5818  0.4621 -0.6619
 8727SOL    HW237644   2.211   0.198   1.735 -1.1043  0.0261  1.7009
 8728SOL     OW37645   4.276   2.955   1.048  0.6463 -0.5712 -0.0220
 8728SOL    HW137646   4.304   2.876   1.095 -0.6833 -1.4380 -0.6742
 8728SOL    HW237647   4.312   2.939   0.961  1.1145  1.0891 -0.1153
 8729SOL     OW37648   0.133   1.993   7.064  0.2267  0.0496  0.2987
 8729SOL    HW137649   0.223   1.969   7.087  0.3631  2.3260  2.1640
 8729SOL    HW237650   0.109   1.912   7.019 -1.2385  0.2886  0.6382
 8730SOL     OW37651   2.348   2.619   7.488 -0.0754 -0.1523  0.6956
 8730SOL    HW137652   2.329   2.542   7.434 -0.3197  0.2397  0.2202
 8730SOL    HW237653   2.261   2.659   7.486 -0.9062 -2.0582 -1.3296
 8731SOL     OW37654   0.756   1.464  14.988  0.0602 -0.4378 -0.3781
 8731SOL    HW137655   0.738   1.526  14.918  2.4171 -0.5255 -1.0505
 8731SOL    HW237656   0.666   1.443  15.013  0.2853 -1.9742 -0.8228
 8732SOL     OW37657   1.625   3.458   5.810 -0.8816  0.1403  0.2418
 8732SOL    HW137658   1.603   3.438   5.719 -0.1951 -0.9035  0.3172
 8732SOL    HW237659   1.537   3.467   5.848 -0.3957  0.5232  1.2857
 8733SOL     OW37660   2.279   1.843   0.540  0.8473  0.2583  0.5228
 8733SOL    HW137661   2.203   1.881   0.496  1.9628  0.8089 -0.8929
 8733SOL    HW237662   2.241   1.756   0.548  1.6957 -0.0669  1.0050
 8734SOL     OW37663   2.787   1.338   5.952  0.0325  0.0417 -0.3081
 8734SOL    HW137664   2.836   1.258   5.931 -1.5464 -1.9394  3.4847
 8734SOL    HW237665   2.753   1.353   5.863  1.6971  0.3038 -0.8944
 8735SOL     OW37666   3.020   2.434   6.062 -0.0212 -0.1425 -0.1259
 8735SOL    HW137667   3.051   2.501   6.122  1.0188  1.2161 -2.1831
 8735SOL    HW237668   2.989   2.490   5.991 -0.0136 -2.1850 -1.7598
 8736SOL     OW37669   2.334   3.550   6.140  0.1393 -0.4706 -0.1667
 8736SOL    HW137670   2.252   3.505   6.121 -0.3971  0.8746 -1.0633
 8736SOL    HW237671   2.333   3.632   6.089  2.2333 -0.1996  0.2002
 8737SOL     OW37672   2.865   2.305   4.948 -0.5689 -0.3742 -0.3893
 8737SOL    HW137673   2.927   2.313   4.876  0.5446 -1.4988  0.4656
 8737SOL    HW237674   2.830   2.216   4.944  1.9357 -1.3985  0.9648
 8738SOL     OW37675   3.263   1.547   3.407  0.0865  0.5232  0.2505
 8738SOL    HW137676   3.270   1.610   3.478  1.7319 -0.4204  0.9333
 8738SOL    HW237677   3.354   1.545   3.375 -0.3035  1.8406 -0.9075
 8739SOL     OW37678   3.600   0.963  11.824 -0.5058 -0.1650  0.0851
 8739SOL    HW137679   3.534   1.006  11.769 -0.7835 -0.8849 -0.1423
 8739SOL    HW237680   3.668   0.940  11.760 -1.3648  0.2966 -1.0018
 8740SOL     OW37681   4.618   2.185   4.091 -0.0064 -0.0042  0.0770
 8740SOL    HW137682   4.530   2.161   4.064 -0.1827 -0.4840  1.1252
 8740SOL    HW237683   4.599   2.243   4.164  0.9254  0.7510 -0.2700
 8741SOL     OW37684   1.596   1.202   5.049  0.5358 -0.4256 -0.2679
 8741SOL    HW137685   1.544   1.130   5.015 -0.8058 -0.7447  2.5282
 8741SOL    HW237686   1.533   1.257   5.094 -0.5223 -3.6709  2.1486
 8742SOL     OW37687   0.443   1.514  13.240  0.3384 -0.4301 -0.0909
 8742SOL    HW137688   0.421   1.583  13.303 -1.6420  1.2838 -2.6543
 8742SOL    HW237689   0.353   1.488  13.221 -0.2336 -0.0690  2.0902
 8743SOL     OW37690   4.238   2.751   5.295  0.1364  1.3040  0.3303
 8743SOL    HW137691   4.311   2.690   5.309  0.1207  0.9764 -1.0583
 8743SOL    HW237692   4.262   2.833   5.339 -0.4759  1.5620  0.1716
 8744SOL     OW37693   3.350   2.678   4.345 -0.3072 -0.1998  0.1300
 8744SOL    HW137694   3.266   2.724   4.346 -0.4945 -0.5654  1.1470
 8744SOL    HW237695   3.415   2.743   4.371 -0.2619 -0.3167  0.3115
 8745SOL     OW37696   1.946   0.470   0.018 -0.2557 -0.3640  0.2415
 8745SOL    HW137697   2.041   0.474   0.015 -0.3456 -0.3773 -2.8097
 8745SOL    HW237698   1.920   0.536  17.648  1.1603 -2.7031 -2.7669
 8746SOL     OW37699   1.349   0.340   6.717 -0.5395 -0.5344  0.1690
 8746SOL    HW137700   1.346   0.375   6.806 -1.2653 -0.0761 -0.0412
 8746SOL    HW237701   1.309   0.256   6.740 -4.1040 -0.0739 -4.3774
 8747SOL     OW37702   1.869   0.994  14.041 -0.4013 -0.0857 -0.0329
 8747SOL    HW137703   1.867   0.926  13.974  0.6554 -1.9613  1.8168
 8747SOL    HW237704   1.957   1.029  14.028 -0.3276 -0.7957 -1.4364
 8748SOL     OW37705   1.736   0.400   5.541 -0.4597  0.7898 -0.4647
 8748SOL    HW137706   1.664   0.337   5.539  1.2209 -1.1952  1.8793
 8748SOL    HW237707   1.701   0.480   5.579  0.4743  0.8654  0.2437
 8749SOL     OW37708   3.509   3.022   6.537  0.2746  0.0813 -0.5983
 8749SOL    HW137709   3.423   2.998   6.503 -0.2329  2.1060 -0.7597
 8749SOL    HW237710   3.562   2.979   6.470 -0.6364 -1.6949 -0.1756
 8750SOL     OW37711   0.618   2.695  12.398  0.0764 -0.8192  0.1749
 8750SOL    HW137712   0.673   2.727  12.327  0.5244 -1.1050  0.3915
 8750SOL    HW237713   0.527   2.705  12.369  0.2612 -0.6163 -0.3210
 8751SOL     OW37714   3.606   1.959   1.574  0.9634  0.5591  0.5284
 8751SOL    HW137715   3.606   2.019   1.649 -1.0591  2.1925 -0.7993
 8751SOL    HW237716   3.677   1.898   1.593 -0.2718 -1.5496 -1.5774
 8752SOL     OW37717   1.749   0.029   8.908 -0.1208 -0.6757  0.0040
 8752SOL    HW137718   1.812   0.020   8.980 -2.2023 -0.7784  1.7969
 8752SOL    HW237719   1.674   0.057   8.959  0.8394  0.4711  0.7859
 8753SOL     OW37720   4.390   3.370   8.265  0.0583  0.0556 -1.1244
 8753SOL    HW137721   4.390   3.463   8.244  1.7101  0.2501 -0.2773
 8753SOL    HW237722   4.298   3.352   8.281  0.0922  0.4411 -0.4952
 8754SOL     OW37723   3.279   0.474   9.095  0.2194  0.1351  0.1600
 8754SOL    HW137724   3.270   0.470   9.190  0.7797  0.8455  0.2414
 8754SOL    HW237725   3.372   0.456   9.079 -0.1287  0.4001 -2.2396
 8755SOL     OW37726   1.043   0.009   9.012 -0.2161  0.0572 -0.0951
 8755SOL    HW137727   0.998   4.659   8.969 -1.0470  0.9835 -0.7923
 8755SOL    HW237728   1.130   4.706   8.979 -0.3935  0.0852 -0.5880
 8756SOL     OW37729   1.493   1.964   3.235 -0.2041 -0.1478  0.0735
 8756SOL    HW137730   1.421   1.936   3.179 -1.2974  2.5190  0.1567
 8756SOL    HW237731   1.550   1.887   3.231  0.4966  0.4252 -1.2071
 8757SOL     OW37732   4.157   3.080  17.375  0.0458  0.1582  0.5048
 8757SOL    HW137733   4.194   3.141  17.439  4.1447  0.7847 -2.4788
 8757SOL    HW237734   4.171   3.117  17.288  0.5479  0.2359  0.6207
 8758SOL     OW37735   1.213   0.890  13.059  0.4693 -0.2626 -0.5516
 8758SOL    HW137736   1.253   0.970  13.094 -0.2534  0.3204 -1.0457
 8758SOL    HW237737   1.185   0.923  12.974 -1.3561  0.7509  0.4315
 8759SOL     OW37738   4.010   2.739   6.350 -0.3349  0.0494 -0.1030
 8759SOL    HW137739   4.009   2.771   6.440 -0.9540 -0.7859  0.1897
 8759SOL    HW237740   4.094   2.692   6.356 -0.3582  0.0371  0.1344
 8760SOL     OW37741   0.701   1.215   2.649 -0.3784  0.4000 -0.2247
 8760SOL    HW137742   0.749   1.290   2.684 -0.1279 -0.2888  0.8858
 8760SOL    HW237743   0.629   1.253   2.598  0.5684  0.5346 -1.4693
 8761SOL     OW37744   1.235   2.237   4.257 -0.4401 -0.3040 -0.2501
 8761SOL    HW137745   1.270   2.254   4.344  0.9245  1.7088 -1.2076
 8761SOL    HW237746   1.167   2.173   4.280 -0.7005  0.1775  0.3345
 8762SOL     OW37747   1.825   2.518  15.675 -0.0420  0.6039 -0.3150
 8762SOL    HW137748   1.825   2.522  15.771  0.2000 -0.6843 -0.2618
 8762SOL    HW237749   1.734   2.510  15.647 -0.3118 -0.1642  0.7576
 8763SOL     OW37750   3.912   0.970  12.764  0.6775  0.3833  0.0935
 8763SOL    HW137751   3.849   1.043  12.760 -0.5636 -0.5639  2.3358
 8763SOL    HW237752   3.912   0.962  12.859 -1.3724  0.4253  0.0976
 8764SOL     OW37753   3.690   2.605  16.946  0.1651  0.1205  0.0291
 8764SOL    HW137754   3.689   2.513  16.971 -3.2349  0.5594  1.6009
 8764SOL    HW237755   3.737   2.614  16.863  1.7955  2.8398  1.2294
 8765SOL     OW37756   3.968   1.577  14.828 -0.7651 -0.2149  0.1908
 8765SOL    HW137757   4.060   1.560  14.849 -0.9849 -0.2221  1.1843
 8765SOL    HW237758   3.980   1.658  14.778  2.1698  0.5998  2.1803
 8766SOL     OW37759   3.617   4.359   4.486 -0.3805 -0.4655  0.0182
 8766SOL    HW137760   3.694   4.330   4.437 -1.4676 -0.1854 -1.8282
 8766SOL    HW237761   3.550   4.304   4.446 -1.2623  0.7618 -0.1554
 8767SOL     OW37762   2.982   3.731  12.439  0.3773 -0.3626 -0.0965
 8767SOL    HW137763   2.933   3.747  12.358 -0.3740 -1.8466  0.0696
 8767SOL    HW237764   3.026   3.816  12.450 -0.2501 -0.1075  0.4761
 8768SOL     OW37765   1.909   1.857   3.140  0.5053 -0.4124 -0.0801
 8768SOL    HW137766   1.971   1.795   3.178 -1.9643 -0.4228  4.0025
 8768SOL    HW237767   1.855   1.808   3.078  2.2794  2.1814 -3.6371
 8769SOL     OW37768   0.229   1.141   6.076  0.8907  0.5679 -0.0245
 8769SOL    HW137769   0.266   1.213   6.128 -1.1326  1.0539  0.7768
 8769SOL    HW237770   0.256   1.165   5.987 -0.3823  2.3267  0.0586
 8770SOL     OW37771   4.393   2.794   8.632  0.1473 -0.0554 -0.2027
 8770SOL    HW137772   4.299   2.798   8.611 -0.1652 -2.8343  0.7306
 8770SOL    HW237773   4.392   2.807   8.726  2.9958 -1.3706 -0.0013
 8771SOL     OW37774   4.631   0.788  16.796 -0.8403 -0.2887 -0.1081
 8771SOL    HW137775   4.552   0.733  16.792 -0.3515 -0.9617 -0.3842
 8771SOL    HW237776   4.705   0.729  16.784 -0.6844 -0.2695  0.7705
 8772SOL     OW37777   1.138   1.521   1.824  0.9388  0.4494  0.1217
 8772SOL    HW137778   1.112   1.468   1.749  0.7144 -1.8053  1.7692
 8772SOL    HW237779   1.123   1.605   1.781 -1.2285 -0.3320 -0.6401
 8773SOL     OW37780   0.413   4.139   3.546 -0.2317 -0.4919  0.9070
 8773SOL    HW137781   0.342   4.083   3.515  0.6960 -2.2661  2.0116
 8773SOL    HW237782   0.444   4.165   3.459  1.0962 -0.0987  1.4907
 8774SOL     OW37783   2.360   4.343   1.655 -0.4006 -0.2239 -0.0988
 8774SOL    HW137784   2.385   4.270   1.598 -0.4648 -1.4042  1.4094
 8774SOL    HW237785   2.453   4.368   1.660 -0.6169  0.6142 -0.3462
 8775SOL     OW37786   1.555   0.206   4.660  0.3263  0.2207 -0.2709
 8775SOL    HW137787   1.584   0.294   4.681 -0.9888 -0.0366  2.6853
 8775SOL    HW237788   1.622   0.178   4.597 -0.3182 -3.1489  0.5138
 8776SOL     OW37789   2.731   1.889   1.638 -0.2188  0.2552 -0.5655
 8776SOL    HW137790   2.803   1.826   1.638 -0.4713 -0.0301  3.0168
 8776SOL    HW237791   2.775   1.962   1.681  0.2391  0.9620 -2.1973
 8777SOL     OW37792   0.501   0.779   6.203 -0.4651 -0.5524 -0.1128
 8777SOL    HW137793   0.422   0.828   6.184  0.8893  0.7157 -2.4295
 8777SOL    HW237794   0.495   0.780   6.299 -2.1696  1.7756 -0.2481
 8778SOL     OW37795   1.202   2.838   2.679  0.2110 -0.4090 -0.1598
 8778SOL    HW137796   1.146   2.761   2.687  0.9279 -1.1085 -1.7930
 8778SOL    HW237797   1.138   2.908   2.667  0.0947 -0.7611 -1.6198
 8779SOL     OW37798   3.144   3.975   0.775  0.0799 -0.0800  0.2840
 8779SOL    HW137799   3.137   4.071   0.777 -3.1808 -0.2597 -2.3483
 8779SOL    HW237800   3.138   3.959   0.869 -0.8830 -0.1976  0.2095
 8780SOL     OW37801   3.109   0.240  11.945  0.1872 -0.1806  0.3309
 8780SOL    HW137802   3.016   0.222  11.954  0.5018 -0.2211  3.7652
 8780SOL    HW237803   3.103   0.335  11.950 -0.9021 -0.1875 -0.8523
 8781SOL     OW37804   3.246   2.122  12.341 -0.6866  0.1319  0.8666
 8781SOL    HW137805   3.331   2.156  12.312  0.1472 -3.1866 -0.5453
 8781SOL    HW237806   3.234   2.047  12.283  0.8085 -0.3920  1.2250
 8782SOL     OW37807   3.503   1.999   8.676 -0.6785 -0.3885 -0.1499
 8782SOL    HW137808   3.437   2.059   8.640 -0.9246 -0.7627 -0.3162
 8782SOL    HW237809   3.579   2.042   8.636 -1.0687  1.2762  0.8764
 8783SOL     OW37810   4.029   2.360   3.365 -0.3245 -0.5760  0.8749
 8783SOL    HW137811   4.101   2.319   3.413  2.2893  1.7111 -1.1204
 8783SOL    HW237812   3.981   2.402   3.437 -0.0679 -1.0460  1.3193
 8784SOL     OW37813   3.602   2.463   6.219 -0.4458 -0.2757  0.5880
 8784SOL    HW137814   3.572   2.530   6.280  0.7727  2.3508 -1.7512
 8784SOL    HW237815   3.585   2.504   6.135  4.1465  0.3697 -0.0531
 8785SOL     OW37816   3.684   1.079   5.686  0.3026  0.3783 -0.0324
 8785SOL    HW137817   3.615   1.091   5.752  0.3655  0.2964  0.0488
 8785SOL    HW237818   3.744   1.149   5.710  0.2492  0.3202  0.2750
 8786SOL     OW37819   2.706   3.856   4.435 -0.1891  0.2484 -0.2090
 8786SOL    HW137820   2.780   3.881   4.490 -0.8162 -0.1039  0.8039
 8786SOL    HW237821   2.699   3.760   4.437 -1.2422  0.3626  1.9168
 8787SOL     OW37822   3.281   0.084  10.840  0.2015  0.1467 -0.4370
 8787SOL    HW137823   3.280   0.110  10.748 -0.2255  0.0398 -0.4643
 8787SOL    HW237824   3.308   0.165  10.884 -0.0132 -0.2131  0.3631
 8788SOL     OW37825   0.764   0.805   9.586 -0.3467  0.6117  0.1779
 8788SOL    HW137826   0.800   0.862   9.518  0.1808  3.2950  2.7213
 8788SOL    HW237827   0.718   0.874   9.633 -0.5052  1.2943 -0.9716
 8789SOL     OW37828   0.908   2.801  17.052 -0.1578  0.2637  0.0353
 8789SOL    HW137829   0.867   2.722  17.018 -0.4130 -0.4141  1.9158
 8789SOL    HW237830   0.994   2.786  17.013  0.1774  0.7211  0.5958
 8790SOL     OW37831   3.220   0.940  10.586  0.2915  0.2439  0.2813
 8790SOL    HW137832   3.291   0.976  10.640  0.3972 -0.0392  0.3312
 8790SOL    HW237833   3.145   0.972  10.636 -0.8749 -0.2742 -1.1462
 8791SOL     OW37834   0.350   3.338   7.400  0.1731  0.4062  0.3834
 8791SOL    HW137835   0.379   3.428   7.413  0.7390  0.7554 -3.3715
 8791SOL    HW237836   0.296   3.354   7.323 -2.4189 -2.7958  1.4992
 8792SOL     OW37837   2.849   3.903   2.220  1.0535 -0.5558  0.2131
 8792SOL    HW137838   2.815   3.883   2.307  2.9213  2.1709  1.5879
 8792SOL    HW237839   2.933   3.948   2.226 -1.0389  3.3500 -0.0381
 8793SOL     OW37840   0.522   0.811  17.375 -0.4247  0.2418 -0.5380
 8793SOL    HW137841   0.562   0.881  17.427 -4.2180  1.1419  1.1618
 8793SOL    HW237842   0.565   0.746  17.431 -0.0677  0.7414 -0.2306
 8794SOL     OW37843   3.020   1.580   2.370 -0.2085 -0.2963  0.0145
 8794SOL    HW137844   3.033   1.582   2.464  2.0856  0.4065 -0.3141
 8794SOL    HW237845   2.960   1.654   2.360  0.2645 -0.2073 -2.1331
 8795SOL     OW37846   2.703   2.325   3.609  0.0495  0.0108  0.5794
 8795SOL    HW137847   2.679   2.374   3.530 -0.0798  0.7914  1.1024
 8795SOL    HW237848   2.779   2.272   3.586 -1.1879 -1.3775 -0.3554
 8796SOL     OW37849   1.796   4.212   9.549 -0.0110  0.1806 -0.3118
 8796SOL    HW137850   1.815   4.141   9.610 -1.5145  1.2717  1.4428
 8796SOL    HW237851   1.703   4.225   9.568 -0.1222  0.3911 -1.0036
 8797SOL     OW37852   4.283   4.222   8.640 -0.2603  0.4360  0.3921
 8797SOL    HW137853   4.334   4.195   8.716  0.6915 -0.0289 -0.4175
 8797SOL    HW237854   4.250   4.305   8.676  2.3329  1.2966  0.7813
 8798SOL     OW37855   1.440   4.535   6.827  0.2226  0.5612  0.0764
 8798SOL    HW137856   1.513   4.554   6.886  1.6570  2.1687 -2.2265
 8798SOL    HW237857   1.463   4.443   6.815  1.4557  1.0224 -1.0918
 8799SOL     OW37858   0.592   3.415   3.299  0.6337 -0.0484  0.3554
 8799SOL    HW137859   0.551   3.328   3.290 -2.4945  1.2226  2.0748
 8799SOL    HW237860   0.672   3.391   3.253  0.4568 -0.5968  0.3287
 8800SOL     OW37861   3.706   2.378  12.244  0.2464 -0.0609 -0.1028
 8800SOL    HW137862   3.669   2.346  12.162  1.6216  0.6939 -1.0136
 8800SOL    HW237863   3.792   2.338  12.235 -0.5863 -1.6087 -1.0973
 8801SOL     OW37864   3.182   0.764   1.765  0.1789 -0.4181 -0.0158
 8801SOL    HW137865   3.114   0.697   1.762 -0.9515  0.7837 -0.9723
 8801SOL    HW237866   3.125   0.839   1.773 -0.1586 -0.6012 -0.6685
 8802SOL     OW37867   0.774   4.386   7.403  0.2402  0.3847 -0.4484
 8802SOL    HW137868   0.689   4.343   7.393  0.7798 -0.6556 -0.4706
 8802SOL    HW237869   0.822   4.352   7.328 -0.7524 -1.6404 -0.1487
 8803SOL     OW37870   2.885   2.265   4.490  0.1889  0.1328 -0.5443
 8803SOL    HW137871   2.979   2.283   4.491  0.1072  0.6549 -2.4288
 8803SOL    HW237872   2.863   2.280   4.398 -0.0259  0.3867 -0.4523
 8804SOL     OW37873   1.000   3.549  14.880  0.0798 -0.4284  1.0556
 8804SOL    HW137874   1.051   3.631  14.881 -0.3958 -0.1049 -1.5747
 8804SOL    HW237875   1.059   3.482  14.847 -0.0391  0.2936 -0.6288
 8805SOL     OW37876   3.334   3.522   5.551  0.8917  0.1273  0.3337
 8805SOL    HW137877   3.328   3.428   5.534 -1.1078  0.6562 -1.8965
 8805SOL    HW237878   3.402   3.555   5.493  0.6964 -0.4827 -0.2492
 8806SOL     OW37879   4.582   0.495   4.265 -0.5928  0.4448  0.2371
 8806SOL    HW137880   4.654   0.501   4.202 -1.0655  0.5659 -0.2954
 8806SOL    HW237881   4.627   0.528   4.343 -1.1948 -0.4075  0.9440
 8807SOL     OW37882   0.478   1.281   4.476 -0.3807  0.6997 -0.9463
 8807SOL    HW137883   0.557   1.318   4.517 -2.3393  0.7691  2.7241
 8807SOL    HW237884   0.519   1.223   4.411 -0.4504  1.2524 -1.4926
 8808SOL     OW37885   4.596   2.387   9.020 -0.5355 -0.5437 -0.2007
 8808SOL    HW137886   4.552   2.304   9.005  0.2449 -1.0052  0.0809
 8808SOL    HW237887   4.674   2.355   9.064  0.2525 -0.5794 -1.6045
 8809SOL     OW37888   4.516   4.173   4.403  0.3805 -0.4020 -0.4674
 8809SOL    HW137889   4.446   4.220   4.448 -1.5776 -4.2577  0.5534
 8809SOL    HW237890   4.459   4.130   4.340 -0.5303  0.9277 -0.5264
 8810SOL     OW37891   1.082   0.184  11.037 -0.0535 -0.2157 -0.5482
 8810SOL    HW137892   1.167   0.145  11.017 -0.8549 -1.3948 -1.6936
 8810SOL    HW237893   1.022   0.138  10.978  2.2166 -1.3454 -1.9700
 8811SOL     OW37894   0.735   2.395   8.045 -0.3257  0.1621  0.3082
 8811SOL    HW137895   0.718   2.302   8.054  0.0835  0.0795  0.2115
 8811SOL    HW237896   0.647   2.433   8.051 -0.0586  0.9528 -0.9939
 8812SOL     OW37897   3.689   3.216   1.450 -0.1505 -0.1941  0.0591
 8812SOL    HW137898   3.631   3.165   1.507  1.4734 -0.1492  1.7314
 8812SOL    HW237899   3.624   3.268   1.402 -0.0509  1.6501  1.8969
 8813SOL     OW37900   2.386   3.174   5.768 -0.2462 -0.1513  0.5194
 8813SOL    HW137901   2.409   3.143   5.855  1.3399 -0.2895  0.0447
 8813SOL    HW237902   2.307   3.124   5.746 -1.1364  1.7926 -0.7328
 8814SOL     OW37903   2.886   0.845   0.474  0.2689 -0.1360  0.8143
 8814SOL    HW137904   2.792   0.864   0.477  0.4652  1.0889 -1.0840
 8814SOL    HW237905   2.925   0.929   0.499 -0.9076  1.1369 -1.6530
 8815SOL     OW37906   0.703   3.257  15.764 -0.2161  0.0778  0.1870
 8815SOL    HW137907   0.677   3.305  15.685 -0.0490  0.3450  0.2929
 8815SOL    HW237908   0.780   3.205  15.741  1.6312  2.8713 -0.0328
 8816SOL     OW37909   2.447   0.720  16.495  0.5536 -0.4982  0.3807
 8816SOL    HW137910   2.453   0.638  16.543  1.4391 -0.3599  0.5074
 8816SOL    HW237911   2.446   0.789  16.562  2.4306 -0.2271  0.1073
 8817SOL     OW37912   0.199   0.655  11.984 -0.0301  0.1747 -0.2307
 8817SOL    HW137913   0.122   0.671  12.039 -1.2666 -3.3447 -0.9582
 8817SOL    HW237914   0.199   0.723  11.917 -0.2490  2.4885  2.1018
 8818SOL     OW37915   0.243   2.265   4.382 -0.6964 -0.1980  1.0260
 8818SOL    HW137916   0.288   2.207   4.320 -0.5591 -0.3306  1.2494
 8818SOL    HW237917   0.178   2.198   4.402 -1.4932  0.5433  0.9144
 8819SOL     OW37918   3.140   2.183   0.972  0.0296  0.2662  0.2329
 8819SOL    HW137919   3.073   2.116   0.978  0.1584 -0.0014 -1.3697
 8819SOL    HW237920   3.179   2.185   1.060 -2.4051  0.2048  1.3195
 8820SOL     OW37921   1.445   3.533  17.560  0.2746  0.0829  0.3310
 8820SOL    HW137922   1.472   3.578  17.480  0.9542 -0.5194  0.2262
 8820SOL    HW237923   1.352   3.555  17.551  0.4071 -0.6551 -2.8796
 8821SOL     OW37924   0.117   3.673  16.322  0.2094 -0.2903 -0.6863
 8821SOL    HW137925   0.116   3.748  16.264  0.8070  0.5417  0.3722
 8821SOL    HW237926   0.200   3.627  16.305  1.2432  0.6395  1.7174
 8822SOL     OW37927   0.356   3.223  10.569  0.1017 -0.5843  0.6015
 8822SOL    HW137928   0.349   3.236  10.664 -0.2643 -2.1364  0.7815
 8822SOL    HW237929   0.311   3.139  10.560 -0.6240 -0.4282  2.6721
 8823SOL     OW37930   2.650   4.094   1.653 -0.4172  1.0548  0.5374
 8823SOL    HW137931   2.710   4.024   1.678  0.9381  2.9568  2.6753
 8823SOL    HW237932   2.596   4.106   1.731 -0.2407 -2.8207  1.2538
 8824SOL     OW37933   2.622   1.205   8.129  0.0740 -0.5143 -0.1462
 8824SOL    HW137934   2.709   1.216   8.092 -0.0759 -3.9757 -1.5236
 8824SOL    HW237935   2.581   1.289   8.108 -1.2841 -0.8471  1.1577
 8825SOL     OW37936   2.606   3.799   5.346 -0.6899  0.2201 -1.0610
 8825SOL    HW137937   2.518   3.789   5.310 -0.4590 -0.6141 -1.3832
 8825SOL    HW237938   2.638   3.853   5.274  0.0903  1.8531  0.5074
 8826SOL     OW37939   2.994   4.674   1.451 -0.0158  0.0563 -0.3171
 8826SOL    HW137940   2.914   4.701   1.407  0.9929  1.9216 -1.0107
 8826SOL    HW237941   3.059   4.712   1.392  0.7703 -0.2732  0.3224
 8827SOL     OW37942   0.450   1.143   6.823 -0.2073  0.0242  0.1381
 8827SOL    HW137943   0.523   1.101   6.869  0.6468 -0.3905 -1.5883
 8827SOL    HW237944   0.407   1.070   6.780 -1.2908 -0.3985  1.9445
 8828SOL     OW37945   1.303   0.650   7.987  0.0385  0.1690  0.4687
 8828SOL    HW137946   1.263   0.605   8.061 -1.4305  1.8526  0.6786
 8828SOL    HW237947   1.375   0.591   7.967  0.9188  0.8533  1.6199
 8829SOL     OW37948   4.446   0.548   3.111 -0.1240 -0.1003  0.0513
 8829SOL    HW137949   4.527   0.598   3.122  1.4419 -2.7546  0.5565
 8829SOL    HW237950   4.482   0.470   3.070 -0.7591 -2.2869  3.7171
 8830SOL     OW37951   2.942   2.343   2.084  0.0573  0.2158  0.3770
 8830SOL    HW137952   2.855   2.343   2.124 -0.0049 -0.4460  0.2414
 8830SOL    HW237953   2.948   2.410   2.016  0.0767 -1.2128 -1.0306
 8831SOL     OW37954   3.331   2.332   0.678 -0.5951 -0.3921 -1.0404
 8831SOL    HW137955   3.334   2.383   0.597 -0.5325 -1.2828 -1.5983
 8831SOL    HW237956   3.381   2.397   0.727  0.9212 -1.0369 -1.7290
 8832SOL     OW37957   2.035   3.068  17.482  0.3413 -0.3137 -0.1439
 8832SOL    HW137958   2.019   3.040  17.392  1.2526 -1.3180  0.0099
 8832SOL    HW237959   1.946   3.092  17.508 -0.3447 -2.0768 -0.9173
 8833SOL     OW37960   4.024   3.491   0.977  0.3449  0.4103 -0.1293
 8833SOL    HW137961   4.001   3.583   0.978  0.6115  0.4947 -2.3954
 8833SOL    HW237962   3.939   3.446   0.976  0.0735  0.9669 -1.8660
 8834SOL     OW37963   1.021   2.730   7.218 -0.8970  0.6702 -0.1320
 8834SOL    HW137964   0.973   2.697   7.293 -0.5532 -0.3578 -0.3656
 8834SOL    HW237965   0.950   2.744   7.155 -0.0290 -0.9042 -1.4696
 8835SOL     OW37966   3.464   1.229   7.661 -0.0734 -0.3980  0.5222
 8835SOL    HW137967   3.429   1.280   7.589 -0.4057 -0.0092  0.9605
 8835SOL    HW237968   3.498   1.302   7.713 -3.5333  0.6303  1.3094
 8836SOL     OW37969   2.639   2.590   7.522 -0.0936 -0.0994  0.4841
 8836SOL    HW137970   2.632   2.592   7.618 -1.0416  0.6442  0.3981
 8836SOL    HW237971   2.546   2.591   7.500  0.5000 -2.0057 -2.0906
 8837SOL     OW37972   2.945   2.542   7.242 -1.0176 -0.3971 -0.1885
 8837SOL    HW137973   2.980   2.629   7.222  0.2599 -0.8173  0.2249
 8837SOL    HW237974   2.932   2.546   7.336  2.4840 -1.0598  0.3214
 8838SOL     OW37975   3.084   1.519  12.976 -0.3476 -0.2416  0.1478
 8838SOL    HW137976   3.004   1.564  13.003 -0.5192 -0.9063  0.7363
 8838SOL    HW237977   3.103   1.457  13.047 -2.8372 -3.1423 -1.7182
 8839SOL     OW37978   2.554   0.727   1.896  0.0489  0.1270 -0.0477
 8839SOL    HW137979   2.567   0.660   1.962 -0.3224  0.8115  0.7196
 8839SOL    HW237980   2.536   0.807   1.945 -0.5873 -0.1359  0.1441
 8840SOL     OW37981   3.312   3.960   5.064 -0.0083 -0.0980 -0.1193
 8840SOL    HW137982   3.358   3.930   5.143 -0.9658 -0.8012  0.1720
 8840SOL    HW237983   3.308   3.883   5.009  1.8076 -0.7388  0.6597
 8841SOL     OW37984   2.988   2.154   9.510 -0.4828  0.1734  0.3679
 8841SOL    HW137985   2.907   2.136   9.558  0.2134 -1.8898  0.7877
 8841SOL    HW237986   2.972   2.090   9.441 -1.4588  0.7373  0.0687
 8842SOL     OW37987   2.105   3.988   8.337  0.0508 -0.1352 -0.5533
 8842SOL    HW137988   2.048   3.959   8.408 -1.5436 -1.1978 -2.2593
 8842SOL    HW237989   2.041   4.030   8.280 -0.2379  2.0145  1.3859
 8843SOL     OW37990   3.623   3.299  15.148  0.3469  0.3374 -0.1374
 8843SOL    HW137991   3.569   3.371  15.179 -0.1386 -1.2036  2.5866
 8843SOL    HW237992   3.687   3.281  15.217  0.2036 -0.4917 -0.2191
 8844SOL     OW37993   1.548   2.073  13.265  0.3049  0.0423 -0.4918
 8844SOL    HW137994   1.501   2.148  13.227  1.0735  0.7449 -0.0613
 8844SOL    HW237995   1.625   2.119  13.299  0.6732 -1.4380  0.6657
 8845SOL     OW37996   0.622   0.224   3.236  0.4225  0.0955  0.0359
 8845SOL    HW137997   0.662   0.174   3.307 -0.4676  0.5779  0.8731
 8845SOL    HW237998   0.672   0.182   3.165  0.1585 -0.2442  0.0493
 8846SOL     OW37999   2.153   4.160  17.028  0.0652  0.9800  0.0922
 8846SOL    HW138000   2.228   4.218  17.038  0.3755  0.1398  2.6468
 8846SOL    HW238001   2.106   4.213  16.963 -1.2111  0.9441  0.9705
 8847SOL     OW38002   2.654   1.952  11.250  0.4051  0.1181  1.2110
 8847SOL    HW138003   2.710   1.918  11.180 -2.0284 -1.2073 -0.0960
 8847SOL    HW238004   2.717   1.971  11.319 -0.7201  2.6018  1.5685
 8848SOL     OW38005   3.183   0.636   5.182 -0.4519  0.3326  0.2704
 8848SOL    HW138006   3.114   0.582   5.222 -0.6516  0.7024  0.4208
 8848SOL    HW238007   3.177   0.612   5.090  0.1316 -0.6398  0.4792
 8849SOL     OW38008   4.499   4.243  13.276 -0.6186  0.7013 -0.1429
 8849SOL    HW138009   4.451   4.274  13.199 -2.9369 -1.2162  0.5173
 8849SOL    HW238010   4.469   4.298  13.348  0.0261  0.0933  0.5943
 8850SOL     OW38011   0.182   3.097   3.436 -0.3005  0.5763  0.2378
 8850SOL    HW138012   0.101   3.086   3.486 -1.1377 -0.1481 -1.2368
 8850SOL    HW238013   0.166   3.169   3.374 -3.9467 -1.5859 -1.3349
 8851SOL     OW38014   1.636   3.088   5.812 -0.4453 -0.0712  0.3952
 8851SOL    HW138015   1.645   3.159   5.876 -0.0617  0.3875 -0.1611
 8851SOL    HW238016   1.560   3.120   5.764  0.2419 -0.1566 -0.7443
 8852SOL     OW38017   3.563   2.137  13.787 -0.0299  0.4472  0.1560
 8852SOL    HW138018   3.583   2.092  13.704  1.3681 -3.0309  2.3880
 8852SOL    HW238019   3.549   2.229  13.767 -2.8453  0.1582  0.7638
 8853SOL     OW38020   2.671   2.722   1.837 -0.2716  0.4253 -0.1743
 8853SOL    HW138021   2.578   2.737   1.856 -0.4987  0.4018 -1.3025
 8853SOL    HW238022   2.666   2.680   1.752  0.4248  1.1091 -0.5512
 8854SOL     OW38023   0.825   4.296   3.209  0.0183 -0.4102  0.2418
 8854SOL    HW138024   0.744   4.244   3.219  0.4530 -1.3243 -0.9521
 8854SOL    HW238025   0.868   4.277   3.292 -0.5900  2.0416  1.1042
 8855SOL     OW38026   0.820   4.011   9.288 -0.2303 -0.2076 -0.0539
 8855SOL    HW138027   0.872   3.946   9.240 -0.5306  0.9957 -2.0062
 8855SOL    HW238028   0.884   4.054   9.344 -0.9711  1.6402 -0.6425
 8856SOL     OW38029   3.536   2.892   7.841  0.1833  0.0490  0.1610
 8856SOL    HW138030   3.522   2.800   7.817 -1.9361  0.3946  0.0417
 8856SOL    HW238031   3.465   2.911   7.903 -1.1149  1.5943 -1.7864
 8857SOL     OW38032   4.450   0.292   8.404 -0.1563 -0.4757  0.2228
 8857SOL    HW138033   4.459   0.355   8.333 -0.1875 -0.2415  0.4297
 8857SOL    HW238034   4.535   0.282   8.448  0.3799 -0.4667 -0.8015
 8858SOL     OW38035   1.557   0.370  12.496  0.3204  0.0538 -0.3803
 8858SOL    HW138036   1.637   0.321  12.480  1.4770  1.4671  1.0895
 8858SOL    HW238037   1.548   0.389  12.589  1.3252 -2.5135  0.2278
 8859SOL     OW38038   2.898   1.697   3.534  0.0825 -0.0527  0.4710
 8859SOL    HW138039   2.902   1.674   3.441 -0.8842 -0.5784  0.5496
 8859SOL    HW238040   2.914   1.618   3.586 -1.0108 -1.7973 -1.8221
 8860SOL     OW38041   4.564   0.917   4.927  0.0401 -0.1194  0.0339
 8860SOL    HW138042   4.583   0.912   4.833 -0.5179 -1.6927 -0.0017
 8860SOL    HW238043   4.616   0.839   4.948 -0.2824 -0.5644 -0.8168
 8861SOL     OW38044   2.882   3.517  12.597  0.2832  0.2597 -0.5984
 8861SOL    HW138045   2.937   3.580  12.549  0.6566 -0.3444 -0.9595
 8861SOL    HW238046   2.880   3.558  12.683  3.0790 -1.6917  0.3891
 8862SOL     OW38047   4.027   1.163  16.675 -0.2828 -0.0823 -0.1692
 8862SOL    HW138048   3.942   1.195  16.707  0.0172  0.4190  0.1286
 8862SOL    HW238049   3.998   1.073  16.684 -0.4395  0.0409  0.5075
 8863SOL     OW38050   0.977   4.281   0.927  0.6313  0.1863 -0.1006
 8863SOL    HW138051   1.054   4.233   0.958  0.7700 -0.2883 -1.1712
 8863SOL    HW238052   0.973   4.357   0.985  1.1426  2.2979 -2.8118
 8864SOL     OW38053   2.451   4.498  13.314  0.1724 -0.1087  0.0998
 8864SOL    HW138054   2.438   4.409  13.279  3.7248 -0.0893 -1.2670
 8864SOL    HW238055   2.362   4.534  13.312 -0.5761 -1.9535  0.1393
 8865SOL     OW38056   2.552   1.970   1.436  0.0977 -0.1661  0.0068
 8865SOL    HW138057   2.605   1.940   1.362 -2.0565 -0.8250 -1.2868
 8865SOL    HW238058   2.599   1.928   1.508 -2.6180 -0.4443  1.6056
 8866SOL     OW38059   4.126   2.987   7.660  0.2488 -0.0540  0.3032
 8866SOL    HW138060   4.153   2.991   7.568 -0.2970  0.1956  0.1557
 8866SOL    HW238061   4.042   2.944   7.644 -0.8092  2.4309 -0.8365
 8867SOL     OW38062   0.241   3.603   2.671  0.0052 -0.1055 -0.2423
 8867SOL    HW138063   0.243   3.696   2.653  1.4034 -0.4400 -1.7948
 8867SOL    HW238064   0.335   3.584   2.679  0.6543  2.7530 -1.3440
 8868SOL     OW38065   3.469   1.093  12.881 -1.0014  0.1099  0.4175
 8868SOL    HW138066   3.422   1.170  12.914 -1.0616 -0.2013  1.0437
 8868SOL    HW238067   3.401   1.025  12.887 -0.1310 -0.8305 -0.3623
 8869SOL     OW38068   0.796   1.042   5.135  0.3657 -0.2047 -0.4099
 8869SOL    HW138069   0.780   0.959   5.091  0.2731 -0.0411 -0.6830
 8869SOL    HW238070   0.710   1.068   5.168  0.2823 -0.7523 -0.2088
 8870SOL     OW38071   0.283   2.948   1.392  0.2825  0.4613  0.6495
 8870SOL    HW138072   0.274   3.021   1.454  0.6179  1.2603 -0.2364
 8870SOL    HW238073   0.315   2.990   1.313  1.8960 -2.8197 -0.4225
 8871SOL     OW38074   0.098   1.840   6.466  0.2245  0.0177 -0.0570
 8871SOL    HW138075   0.068   1.925   6.433 -0.0249 -0.0216  0.0657
 8871SOL    HW238076   0.128   1.812   6.379 -0.5054 -0.6873 -0.0796
 8872SOL     OW38077   4.303   2.810   8.232  0.0300 -0.0385 -0.6021
 8872SOL    HW138078   4.332   2.765   8.153 -0.1849 -0.8744 -0.2000
 8872SOL    HW238079   4.384   2.850   8.264 -0.0491 -0.0981 -0.3298
 8873SOL     OW38080   3.797   1.210  16.783 -0.0856  0.3717 -0.4083
 8873SOL    HW138081   3.731   1.279  16.783 -0.5576 -0.0759  0.8745
 8873SOL    HW238082   3.766   1.159  16.858 -2.8278 -1.6926 -2.9547
 8874SOL     OW38083   3.792   1.108   4.164  0.4482 -0.3901  0.1186
 8874SOL    HW138084   3.729   1.179   4.159  0.1634 -0.7360 -1.4677
 8874SOL    HW238085   3.820   1.106   4.255 -0.1446 -2.3098  0.2602
 8875SOL     OW38086   3.597   3.592   0.653 -0.0702 -0.2938  0.0708
 8875SOL    HW138087   3.615   3.518   0.710  1.3396 -0.3271 -0.4393
 8875SOL    HW238088   3.525   3.563   0.596  0.7286  1.2900 -1.7402
 8876SOL     OW38089   0.831   1.914   6.215  0.2229  0.2289  0.2230
 8876SOL    HW138090   0.891   1.861   6.269  0.2751 -2.0185 -2.0165
 8876SOL    HW238091   0.853   1.883   6.127  1.8782 -0.6133  0.9379
 8877SOL     OW38092   4.459   4.393  14.446 -0.0602 -0.2254 -0.2186
 8877SOL    HW138093   4.427   4.303  14.437 -0.9618 -0.2147  2.8723
 8877SOL    HW238094   4.466   4.432  14.359  1.6368 -1.3156 -0.5591
 8878SOL     OW38095   2.004   0.339   6.834 -0.4299  0.0641 -1.1744
 8878SOL    HW138096   2.042   0.411   6.783  0.5350 -1.4070 -2.5268
 8878SOL    HW238097   2.075   0.275   6.831  0.0242  0.6266 -2.4971
 8879SOL     OW38098   1.561   0.733   6.670  0.3708  0.2058 -0.2355
 8879SOL    HW138099   1.492   0.794   6.644  0.3615  1.0847  1.8227
 8879SOL    HW238100   1.560   0.755   6.763 -4.0553  0.8424 -0.4690
 8880SOL     OW38101   3.154   3.184  10.900 -0.3000  0.2729 -0.1043
 8880SOL    HW138102   3.118   3.174  10.812  1.5267  0.8833 -0.9216
 8880SOL    HW238103   3.244   3.154  10.891 -0.8601 -0.4394 -3.4687
 8881SOL     OW38104   0.334   3.607   8.697  0.4243 -0.8647 -0.2195
 8881SOL    HW138105   0.316   3.556   8.618 -2.3120 -0.2645  0.0101
 8881SOL    HW238106   0.420   3.570   8.714  0.5626 -1.0182 -1.2421
 8882SOL     OW38107   2.238   0.223  17.671  0.2189 -0.2374 -0.3357
 8882SOL    HW138108   2.245   0.314   0.006 -1.8776 -0.1894  0.0344
 8882SOL    HW238109   2.147   0.199  17.690  0.0283  0.0255 -0.8948
 8883SOL     OW38110   2.947   3.062   0.103 -0.1738  0.1732  0.2126
 8883SOL    HW138111   2.876   3.126   0.115  1.3628  1.9675 -0.2967
 8883SOL    HW238112   2.891   2.984   0.101  1.0026 -0.6815  0.8412
 8884SOL     OW38113   4.450   3.227   3.474 -0.0228 -0.0404 -0.3963
 8884SOL    HW138114   4.467   3.312   3.432 -1.1358  0.2173 -0.3384
 8884SOL    HW238115   4.355   3.217   3.461 -0.4370  1.9419  1.0592
 8885SOL     OW38116   0.697   4.184   9.878 -0.0802 -0.0106  0.7195
 8885SOL    HW138117   0.727   4.272   9.901 -1.3526  1.1718 -2.0124
 8885SOL    HW238118   0.605   4.203   9.858  0.0712  1.1921  1.1707
 8886SOL     OW38119   1.117   2.375   3.334 -0.0775 -0.0323  0.5446
 8886SOL    HW138120   1.087   2.336   3.253  1.1107  1.0673 -0.4374
 8886SOL    HW238121   1.212   2.365   3.333 -0.0503  0.1892  0.6887
 8887SOL     OW38122   2.008   1.892   8.359 -0.0601  0.1725  0.2314
 8887SOL    HW138123   2.040   1.879   8.448  0.1019  0.6858  0.2469
 8887SOL    HW238124   1.951   1.965   8.382 -0.3443 -0.4775  1.5966
 8888SOL     OW38125   0.589   1.546   8.774 -0.0064  0.4970  0.0813
 8888SOL    HW138126   0.655   1.481   8.749 -0.6464 -0.5787  1.2174
 8888SOL    HW238127   0.650   1.614   8.804 -1.4798  0.8475  2.2646
 8889SOL     OW38128   0.420   2.636  17.185 -0.0885 -0.5715 -0.8200
 8889SOL    HW138129   0.375   2.597  17.260  1.5385  1.4281  1.2104
 8889SOL    HW238130   0.405   2.728  17.210  0.4917 -0.5478 -0.5638
 8890SOL     OW38131   3.431   2.400   9.494 -0.2569 -0.3570  0.5353
 8890SOL    HW138132   3.344   2.360   9.489  0.9644 -2.9189  0.0283
 8890SOL    HW238133   3.465   2.351   9.568  0.0262  0.3012  0.8464
 8891SOL     OW38134   3.409   4.571  11.460 -0.0719  0.5476  0.0309
 8891SOL    HW138135   3.448   4.606  11.540 -1.3650 -1.4071  1.5226
 8891SOL    HW238136   3.338   4.635  11.452 -0.9435 -0.0437  2.9985
 8892SOL     OW38137   1.340   0.843   0.970 -0.5685 -0.5377 -0.1233
 8892SOL    HW138138   1.359   0.933   0.997 -0.5304  0.4524 -3.3291
 8892SOL    HW238139   1.397   0.840   0.892  0.9493 -4.4770  1.1466
 8893SOL     OW38140   0.360   2.727  12.319  0.4497  0.4781  0.0742
 8893SOL    HW138141   0.282   2.682  12.286  1.3447 -0.9111 -0.1379
 8893SOL    HW238142   0.334   2.723  12.412 -1.1691  2.6453 -0.2925
 8894SOL     OW38143   4.640   4.644   5.500  0.6339  0.2426  0.2387
 8894SOL    HW138144   4.705   4.611   5.562  0.1356  0.5176  0.9037
 8894SOL    HW238145   4.643   4.574   5.435  0.8019  1.1625 -0.7479
 8895SOL     OW38146   0.598   0.758   7.024  0.6170 -0.4019 -0.1329
 8895SOL    HW138147   0.614   0.749   7.118  1.5662  1.8478 -0.0811
 8895SOL    HW238148   0.604   0.854   7.021  2.1523 -0.4954 -0.3018
 8896SOL     OW38149   1.549   2.231   5.363 -0.9683 -0.0019  0.5920
 8896SOL    HW138150   1.550   2.162   5.430 -0.5543  0.3037  0.8967
 8896SOL    HW238151   1.507   2.184   5.291 -1.2882 -0.8512  1.3306
 8897SOL     OW38152   0.070   2.481   8.429 -0.0129  0.4723 -0.5192
 8897SOL    HW138153   4.699   2.500   8.425 -0.2204 -1.2036 -3.3461
 8897SOL    HW238154   0.065   2.389   8.403 -1.7593  1.0566 -2.2946
 8898SOL     OW38155   4.717   0.665  13.268  0.0026 -0.6954  0.5230
 8898SOL    HW138156   4.715   0.746  13.319 -2.4696 -0.1441 -0.4724
 8898SOL    HW238157   4.706   0.589  13.325  0.8659 -0.5355  0.9015
 8899SOL     OW38158   1.507   3.526  13.133 -0.2499  0.0515  0.0803
 8899SOL    HW138159   1.577   3.509  13.070 -0.1113  0.9994 -0.0231
 8899SOL    HW238160   1.470   3.609  13.104  1.2995  0.2453 -1.3664
 8900SOL     OW38161   3.600   0.214   4.493 -0.7144 -0.3240 -0.6638
 8900SOL    HW138162   3.609   0.133   4.543  2.3352  0.2237 -0.3716
 8900SOL    HW238163   3.540   0.179   4.427 -1.1915 -0.1033 -0.3557
 8901SOL     OW38164   0.749   4.572   5.801 -1.0140  0.3565  0.2120
 8901SOL    HW138165   0.806   4.497   5.785 -0.4226  0.7633  0.4449
 8901SOL    HW238166   0.738   4.565   5.896 -0.7602  1.6115  0.3299
 8902SOL     OW38167   2.992   1.755   6.994 -0.2852  0.0956 -0.1128
 8902SOL    HW138168   3.037   1.680   6.955 -0.3420  0.5712 -1.0987
 8902SOL    HW238169   3.025   1.836   6.956 -0.0547  0.1380  0.1790
 8903SOL     OW38170   2.443   2.973  11.533 -0.3294 -0.0151  0.1258
 8903SOL    HW138171   2.515   2.997  11.475 -0.2074 -1.6867 -0.4203
 8903SOL    HW238172   2.481   2.990  11.619  1.0846 -0.3927 -0.4302
 8904SOL     OW38173   1.389   3.799  12.082 -0.3589 -0.0734  0.2588
 8904SOL    HW138174   1.377   3.879  12.031 -0.4516  0.3938  1.0115
 8904SOL    HW238175   1.456   3.743  12.042 -0.0426 -0.9303  1.9817
 8905SOL     OW38176   1.494   4.368   8.316 -0.7073  0.1210  0.4828
 8905SOL    HW138177   1.485   4.274   8.298  2.2820 -0.1481  0.4580
 8905SOL    HW238178   1.456   4.407   8.237 -1.6729  0.6632  1.2109
 8906SOL     OW38179   0.758   2.441   6.238 -0.2491 -0.1888 -0.2144
 8906SOL    HW138180   0.726   2.478   6.155 -0.4838 -2.8857 -1.3354
 8906SOL    HW238181   0.838   2.399   6.207 -0.4752 -0.1295 -0.8888
 8907SOL     OW38182   2.433   0.374   3.575 -0.0061  0.4415  0.7241
 8907SOL    HW138183   2.522   0.364   3.542 -0.6808 -0.3175 -0.9013
 8907SOL    HW238184   2.390   0.329   3.501  0.0811 -1.4355  1.8159
 8908SOL     OW38185   2.787   1.239  10.219 -0.1893 -0.1541  0.3063
 8908SOL    HW138186   2.808   1.308  10.156  2.3764  0.6855  2.0768
 8908SOL    HW238187   2.731   1.287  10.281 -0.3158 -0.3141  0.3141
 8909SOL     OW38188   1.568   2.792   3.198 -0.5572 -0.0520 -0.1031
 8909SOL    HW138189   1.593   2.714   3.148  4.1597 -0.1043  2.3241
 8909SOL    HW238190   1.503   2.818   3.133  1.0767  1.6547 -1.0553
 8910SOL     OW38191   2.137   1.622   1.863  0.1314 -0.4118  0.3069
 8910SOL    HW138192   2.224   1.592   1.839 -0.6279 -1.8255 -0.6049
 8910SOL    HW238193   2.087   1.593   1.788 -0.0859 -0.1644  0.3546
 8911SOL     OW38194   3.638   3.628   6.816 -0.7391  0.3836  0.3545
 8911SOL    HW138195   3.719   3.647   6.864  0.3042 -0.6707 -0.9846
 8911SOL    HW238196   3.664   3.581   6.737 -0.3692 -1.9458  1.8461
 8912SOL     OW38197   0.513   1.640   9.437 -0.9016 -0.1010  0.0225
 8912SOL    HW138198   0.592   1.633   9.383  0.4201  0.1583  1.9074
 8912SOL    HW238199   0.522   1.565   9.495 -1.1168  1.4226  2.0097
 8913SOL     OW38200   4.049   2.819  13.441 -0.0109 -0.3536  0.0406
 8913SOL    HW138201   3.990   2.890  13.464  0.0624 -0.4210  0.4248
 8913SOL    HW238202   4.091   2.807  13.526 -1.3564  2.4921  1.1111
 8914SOL     OW38203   1.621   3.340   5.489  0.4153  0.0739 -0.1071
 8914SOL    HW138204   1.559   3.375   5.426  0.3271 -2.2076 -1.2871
 8914SOL    HW238205   1.698   3.395   5.479  0.0866  0.4192 -0.6971
 8915SOL     OW38206   1.678   0.087  14.498  0.0597  0.2137 -0.4644
 8915SOL    HW138207   1.770   0.081  14.525  0.8215 -0.7680 -3.3241
 8915SOL    HW238208   1.671   0.013  14.438  0.1167  0.1928 -0.4454
 8916SOL     OW38209   4.082   0.538   5.131  0.6135  0.0596  0.1650
 8916SOL    HW138210   4.126   0.484   5.065 -1.2622  0.1751 -1.1600
 8916SOL    HW238211   4.013   0.481   5.166  1.2502 -1.0636 -0.4168
 8917SOL     OW38212   3.666   3.470   8.326 -0.3214 -0.5817 -0.0504
 8917SOL    HW138213   3.668   3.421   8.243  0.1462  1.0805 -1.0147
 8917SOL    HW238214   3.693   3.555   8.291 -2.1155 -0.7832 -1.9311
 8918SOL     OW38215   1.179   1.225   5.477  0.1797 -0.0580  0.1864
 8918SOL    HW138216   1.251   1.184   5.429 -0.4408  1.2250 -1.8337
 8918SOL    HW238217   1.128   1.258   5.403  0.3299 -3.2179 -1.3259
 8919SOL     OW38218   3.895   4.520   0.308  0.4885 -0.0440 -0.9525
 8919SOL    HW138219   3.896   4.576   0.385  1.6164  0.3942 -1.2831
 8919SOL    HW238220   3.979   4.541   0.267 -0.2823  0.9889 -1.9827
 8920SOL     OW38221   0.381   1.248  12.954 -0.2226  0.2207 -0.3294
 8920SOL    HW138222   0.352   1.201  13.032  2.5950 -1.9592 -0.6278
 8920SOL    HW238223   0.335   1.332  12.965  0.1478  0.6578 -2.0930
 8921SOL     OW38224   1.406   4.425   9.052 -0.2666  0.0815  0.0849
 8921SOL    HW138225   1.464   4.384   8.988 -0.5927 -0.3257  0.0484
 8921SOL    HW238226   1.458   4.421   9.133  1.3233  1.6824 -0.8617
 8922SOL     OW38227   2.199   0.736   6.883 -0.1935 -0.3279  0.5841
 8922SOL    HW138228   2.257   0.784   6.943  2.0983  0.9338 -2.6239
 8922SOL    HW238229   2.124   0.711   6.937 -0.6065  0.8164  0.5469
 8923SOL     OW38230   2.466   3.823   7.302 -0.8196  0.3276  0.3543
 8923SOL    HW138231   2.478   3.762   7.229  0.2858 -1.5040  2.0674
 8923SOL    HW238232   2.382   3.860   7.275 -0.8882 -1.1123 -1.5059
 8924SOL     OW38233   4.584   2.582   5.657  0.3227 -0.1543  0.3590
 8924SOL    HW138234   4.501   2.555   5.696  0.0547  0.2715  0.1030
 8924SOL    HW238235   4.621   2.624   5.734  3.5470 -0.5673 -0.9663
 8925SOL     OW38236   4.466   1.020   1.334 -0.0821 -0.4606 -0.0495
 8925SOL    HW138237   4.406   0.950   1.310 -1.2034  1.1124 -1.8194
 8925SOL    HW238238   4.412   1.079   1.386  0.4421  0.5499 -0.6372
 8926SOL     OW38239   4.107   3.535  10.215  0.7090  0.3284  0.4275
 8926SOL    HW138240   4.135   3.595  10.146  0.8120 -1.1965 -0.8681
 8926SOL    HW238241   4.015   3.525  10.192  0.4369  0.4929  1.4568
 8927SOL     OW38242   2.168   2.756   5.792 -0.1820  0.0938  0.2579
 8927SOL    HW138243   2.088   2.705   5.804 -0.1742  0.2916  1.1822
 8927SOL    HW238244   2.177   2.743   5.698 -2.0440 -1.0050  0.2292
 8928SOL     OW38245   3.117   3.956  10.000 -0.1747  0.0391 -0.2961
 8928SOL    HW138246   3.202   3.982   9.964 -0.1326 -1.1697 -1.0720
 8928SOL    HW238247   3.138   3.891  10.066 -0.4269 -0.8669 -1.1099
 8929SOL     OW38248   2.791   3.816   2.890 -0.1767  0.1022 -0.1835
 8929SOL    HW138249   2.886   3.826   2.892 -0.2885  1.1297 -0.3836
 8929SOL    HW238250   2.775   3.754   2.819 -0.3871 -2.3980  2.0410
 8930SOL     OW38251   2.293   4.503   2.061 -0.0695 -0.0419 -0.0568
 8930SOL    HW138252   2.313   4.412   2.085 -0.1824 -0.0272  0.0876
 8930SOL    HW238253   2.253   4.487   1.975 -2.3571  2.1190  0.6186
 8931SOL     OW38254   1.744   2.387   6.052 -0.2921  0.2347  0.2271
 8931SOL    HW138255   1.834   2.394   6.084  0.0364 -2.1478 -0.1717
 8931SOL    HW238256   1.711   2.306   6.090  1.7087  0.1961  1.8915
 8932SOL     OW38257   0.495   2.488  12.157  0.4199 -0.2142  0.4936
 8932SOL    HW138258   0.561   2.555  12.139 -1.6615  1.7721  0.2722
 8932SOL    HW238259   0.480   2.463  12.065  3.5747 -2.6724  0.6635
 8933SOL     OW38260   1.850   0.837   5.470 -0.6342  0.2709 -0.5453
 8933SOL    HW138261   1.794   0.802   5.400 -0.6816  3.7415 -2.2564
 8933SOL    HW238262   1.780   0.896   5.498  0.0057  1.3299 -1.1696
 8934SOL     OW38263   2.971   0.856   5.542  0.5374 -0.0969  0.0107
 8934SOL    HW138264   3.065   0.871   5.534  0.5259 -0.0080  0.0433
 8934SOL    HW238265   2.961   0.762   5.528  2.1042 -0.3671  0.6259
 8935SOL     OW38266   0.105   0.552   7.186  0.6240 -0.4282  0.1655
 8935SOL    HW138267   0.089   0.526   7.276  0.0507 -0.5087  0.0418
 8935SOL    HW238268   0.180   0.496   7.168  0.1927 -0.5965 -1.1138
 8936SOL     OW38269   3.801   0.125   7.425 -0.1206 -0.3713 -0.3650
 8936SOL    HW138270   3.874   0.151   7.369  0.9061 -0.1436  1.0885
 8936SOL    HW238271   3.757   0.062   7.368 -0.5246 -0.1424 -0.3055
 8937SOL     OW38272   0.782   0.715   9.028 -0.2511 -0.4816  0.1461
 8937SOL    HW138273   0.878   0.717   9.021 -0.3923  2.2802 -0.9357
 8937SOL    HW238274   0.777   0.676   9.116  3.5836 -0.8321  0.2030
 8938SOL     OW38275   1.965   0.396   4.831  0.9263  0.1175 -0.3567
 8938SOL    HW138276   2.013   0.397   4.914  3.5632 -0.2768 -1.8847
 8938SOL    HW238277   2.016   0.459   4.781  1.3959  0.0212  0.0015
 8939SOL     OW38278   0.482   3.249  11.122  0.1750 -0.0927 -0.1539
 8939SOL    HW138279   0.498   3.339  11.152  0.2873 -0.5687  1.1999
 8939SOL    HW238280   0.389   3.241  11.145  0.4073 -1.4132  0.2767
 8940SOL     OW38281   2.337   4.021   5.361  0.1257  0.1968  0.0499
 8940SOL    HW138282   2.379   3.944   5.399  1.5916  1.3075  0.7033
 8940SOL    HW238283   2.322   3.989   5.272 -1.5424  1.4542 -0.1168
 8941SOL     OW38284   2.785   3.280   5.926 -0.2511  0.1481 -0.4333
 8941SOL    HW138285   2.764   3.335   5.851  1.0363  1.1406 -0.0649
 8941SOL    HW238286   2.874   3.251   5.907 -0.6068 -0.6507 -0.8652
 8942SOL     OW38287   0.879   2.577  11.284  0.3062  0.5706 -0.4352
 8942SOL    HW138288   0.940   2.504  11.276 -0.0381  0.3418 -0.9838
 8942SOL    HW238289   0.847   2.595  11.196 -0.5806  1.2526  0.0152
 8943SOL     OW38290   4.523   4.131   6.288  0.2206 -0.4172  0.4478
 8943SOL    HW138291   4.597   4.120   6.228 -0.6532 -1.2420 -0.4615
 8943SOL    HW238292   4.466   4.185   6.233  0.8030  0.8411  1.0735
 8944SOL     OW38293   2.922   0.361   3.965  0.5187  0.2427 -0.2200
 8944SOL    HW138294   3.017   0.364   3.952  0.4508  0.3069 -0.6903
 8944SOL    HW238295   2.915   0.270   3.991 -0.5414  0.7734  1.3899
 8945SOL     OW38296   4.081   2.976   3.356 -0.2502  0.4519  0.2577
 8945SOL    HW138297   4.133   2.923   3.296  2.8450  1.9963  1.5824
 8945SOL    HW238298   4.136   3.050   3.381  0.1184  0.3831 -0.3518
 8946SOL     OW38299   2.114   2.972  10.186 -0.4179 -0.0421  0.0805
 8946SOL    HW138300   2.114   2.876  10.191  0.3003 -0.0609 -0.2754
 8946SOL    HW238301   2.195   2.996  10.231 -1.3477  1.6460  0.8420
 8947SOL     OW38302   0.834   1.063  13.254 -0.3928 -0.0941  0.8656
 8947SOL    HW138303   0.886   0.987  13.227  2.4653  1.7938  0.9848
 8947SOL    HW238304   0.898   1.103  13.313  2.4701  0.0686 -2.3777
 8948SOL     OW38305   1.952   2.623   5.761  0.4536  0.2192 -0.0512
 8948SOL    HW138306   1.915   2.601   5.675  0.4098  0.4114 -0.0817
 8948SOL    HW238307   1.877   2.607   5.818 -1.0680  1.3569 -1.7195
 8949SOL     OW38308   3.840   2.465   3.571 -0.2426  0.1664 -0.0654
 8949SOL    HW138309   3.851   2.421   3.655 -1.2815  1.7672  0.9099
 8949SOL    HW238310   3.815   2.550   3.607 -0.6201  0.8092 -1.8418
 8950SOL     OW38311   1.257   1.854  12.770 -0.0155  0.5489  0.1137
 8950SOL    HW138312   1.187   1.804  12.729  1.8693 -0.7705 -1.4597
 8950SOL    HW238313   1.216   1.864  12.856 -1.6628  0.8993 -0.7158
 8951SOL     OW38314   0.911   0.190  17.434 -0.1632  0.2154 -0.3874
 8951SOL    HW138315   0.996   0.160  17.402 -0.5025  1.7630 -2.7333
 8951SOL    HW238316   0.883   0.128  17.501 -1.3813  0.1857 -0.9178
 8952SOL     OW38317   4.661   1.824   4.014 -0.3805  0.0417 -0.2590
 8952SOL    HW138318   4.690   1.853   3.928  0.7849  0.1646  0.1842
 8952SOL    HW238319   4.719   1.876   4.070  0.2515 -1.9814  0.9617
 8953SOL     OW38320   2.799   2.248   0.073 -0.2766 -0.2010  0.3796
 8953SOL    HW138321   2.884   2.208   0.055 -0.9002 -0.9689 -0.8767
 8953SOL    HW238322   2.762   2.229  17.680 -0.8519  1.0134  0.3573
 8954SOL     OW38323   1.316   0.300   8.113  0.3229  0.1858 -0.3144
 8954SOL    HW138324   1.260   0.239   8.066  1.1388 -1.7134  1.1866
 8954SOL    HW238325   1.356   0.349   8.041 -2.5450 -0.7051 -2.5260
 8955SOL     OW38326   3.859   1.827   8.655  0.6123  0.8212 -0.3810
 8955SOL    HW138327   3.880   1.877   8.576 -0.7118  0.4256 -0.9763
 8955SOL    HW238328   3.950   1.803   8.676  0.3794  1.0878  0.9525
 8956SOL     OW38329   1.207   1.034   4.250 -0.2605  0.4264 -0.0608
 8956SOL    HW138330   1.302   1.023   4.257 -0.4709 -0.9184  0.8169
 8956SOL    HW238331   1.178   0.983   4.174  1.9835 -0.6777 -0.1982
 8957SOL     OW38332   2.160   2.107   3.187  0.4092  0.2952 -0.0591
 8957SOL    HW138333   2.168   2.181   3.127  1.4180  0.4079  0.2161
 8957SOL    HW238334   2.067   2.086   3.182  0.5277 -0.5698  1.3913
 8958SOL     OW38335   4.032   0.614   9.722  0.0718  0.1651 -0.5606
 8958SOL    HW138336   3.965   0.553   9.752 -0.3546  1.0141  0.2282
 8958SOL    HW238337   4.008   0.697   9.764 -1.2938  0.6658 -2.3101
 8959SOL     OW38338   1.219   1.719   8.813  0.4296  0.5566  0.5487
 8959SOL    HW138339   1.308   1.693   8.791  0.1569  0.3544 -0.3111
 8959SOL    HW238340   1.209   1.673   8.896  0.6789 -1.6210 -0.6283
 8960SOL     OW38341   4.394   4.384   3.194  0.4470 -0.0376  0.1547
 8960SOL    HW138342   4.358   4.368   3.281  0.5321 -3.0702 -0.3732
 8960SOL    HW238343   4.311   4.411   3.154 -1.2737 -2.4855  2.0800
 8961SOL     OW38344   0.692   0.469   3.291 -0.4961  0.1333 -0.0986
 8961SOL    HW138345   0.641   0.389   3.278  1.1758 -1.0180  0.5796
 8961SOL    HW238346   0.628   0.537   3.272  2.1232  1.9277 -2.3997
 8962SOL     OW38347   4.381   0.378  13.887 -0.0943 -0.2483  0.5952
 8962SOL    HW138348   4.320   0.357  13.957  1.1323 -1.2132  1.3605
 8962SOL    HW238349   4.388   0.473  13.894 -1.8911 -0.1755  1.4243
 8963SOL     OW38350   1.356   3.248   8.975  0.2983 -0.1390  0.7198
 8963SOL    HW138351   1.261   3.243   8.965  0.2179  3.4199 -0.2505
 8963SOL    HW238352   1.369   3.156   8.999  0.3197 -0.2178  0.4042
 8964SOL     OW38353   4.037   2.509   1.763 -0.0743  0.5347 -0.0402
 8964SOL    HW138354   4.067   2.538   1.677 -1.4624 -1.5574 -1.2226
 8964SOL    HW238355   4.116   2.464   1.791 -0.8261 -0.0421  1.1752
 8965SOL     OW38356   0.006   1.604  11.048 -0.2387  0.2767  0.1095
 8965SOL    HW138357   0.078   1.581  10.989 -0.0199 -0.8025  0.7956
 8965SOL    HW238358   0.060   1.648  11.114 -0.2864 -1.7386  1.4936
 8966SOL     OW38359   3.373   3.231   8.638 -0.3022  0.3254  0.3536
 8966SOL    HW138360   3.327   3.268   8.713  0.2976  0.8468  0.4691
 8966SOL    HW238361   3.422   3.302   8.594  0.4698 -1.5511 -1.8459
 8967SOL     OW38362   3.624   0.644  17.025 -0.3329  0.6992 -0.2984
 8967SOL    HW138363   3.533   0.671  17.020 -0.5683 -0.0904 -0.1767
 8967SOL    HW238364   3.636   0.635  17.119 -0.3547 -1.1218 -0.4811
 8968SOL     OW38365   1.570   1.137  11.957  0.4102  0.0554  0.1609
 8968SOL    HW138366   1.548   1.098  12.041 -0.1474 -1.9593 -0.9104
 8968SOL    HW238367   1.578   1.058  11.903 -0.6721  1.2367 -1.7430
 8969SOL     OW38368   2.018   1.254   2.406  0.0690  0.3165  0.1927
 8969SOL    HW138369   1.953   1.324   2.415  1.5803  1.5089  1.7923
 8969SOL    HW238370   1.999   1.204   2.485  3.1996 -0.0273  0.7325
 8970SOL     OW38371   2.625   2.743   8.172 -0.2662 -0.6239 -0.0459
 8970SOL    HW138372   2.567   2.669   8.190 -1.8944  0.7611  0.4153
 8970SOL    HW238373   2.695   2.714   8.113  0.1327 -0.4799  0.3539
 8971SOL     OW38374   2.927   4.122   7.662  0.1050  0.3370 -0.4941
 8971SOL    HW138375   2.901   4.181   7.591  3.3246  0.9217 -1.1664
 8971SOL    HW238376   2.844   4.106   7.708  0.0431 -0.3774 -0.8456
 8972SOL     OW38377   3.088   1.991   9.755  0.3507  0.0172 -0.6749
 8972SOL    HW138378   3.093   1.964   9.846 -3.7645  0.9659 -0.1847
 8972SOL    HW238379   3.010   2.045   9.744  0.3146  0.0411 -0.2918
 8973SOL     OW38380   0.391   1.505   2.242 -0.5855 -0.1687 -0.0804
 8973SOL    HW138381   0.461   1.556   2.201 -1.1921 -0.1129 -1.0530
 8973SOL    HW238382   0.311   1.552   2.216 -2.0736 -0.9536  3.0690
 8974SOL     OW38383   0.085   0.834  13.611  0.1604  0.5990  0.8904
 8974SOL    HW138384   0.059   0.904  13.671 -3.0015 -1.3470  1.7534
 8974SOL    HW238385   0.169   0.808  13.650  0.5897  1.4347  0.5336
 8975SOL     OW38386   2.140   2.288   3.803 -0.2591 -0.2630  0.5880
 8975SOL    HW138387   2.207   2.356   3.814  1.0399 -1.0753 -2.2074
 8975SOL    HW238388   2.062   2.328   3.841 -0.9682 -2.0337  0.9960
 8976SOL     OW38389   0.963   0.651   1.421 -0.1457  0.2847  0.7638
 8976SOL    HW138390   0.935   0.737   1.391  3.3161  1.5131  1.1558
 8976SOL    HW238391   1.032   0.678   1.482  0.7582 -1.3803  0.4708
 8977SOL     OW38392   1.750   3.603   0.273 -0.1669 -0.3746  0.5181
 8977SOL    HW138393   1.667   3.622   0.229  0.6096 -0.4079 -0.9619
 8977SOL    HW238394   1.755   3.513   0.240 -1.2598 -0.2154 -0.1132
 8978SOL     OW38395   0.211   0.423  16.148 -0.1252  0.5496  0.2862
 8978SOL    HW138396   0.220   0.467  16.063  0.6806  3.1360  1.7256
 8978SOL    HW238397   0.185   0.496  16.204  4.6823  4.8162 -3.0874
 8979SOL     OW38398   2.438   1.774   6.700 -0.0146  0.3034 -0.4423
 8979SOL    HW138399   2.465   1.683   6.704  1.2551  0.5622 -3.7888
 8979SOL    HW238400   2.380   1.771   6.624  0.0029  0.3360 -0.4568
 8980SOL     OW38401   3.018   2.166  12.515 -0.0633  0.0913  0.2792
 8980SOL    HW138402   3.109   2.152  12.489 -0.2097 -0.4828  0.0970
 8980SOL    HW238403   2.971   2.156  12.432 -1.3947  0.1004  1.0231
 8981SOL     OW38404   4.119   1.916  11.021  0.0339  0.1817  0.3872
 8981SOL    HW138405   4.064   1.897  10.944  0.7007  3.3498 -0.8652
 8981SOL    HW238406   4.055   1.942  11.087 -0.1968 -1.5038  0.8286
 8982SOL     OW38407   0.616   2.583  14.685 -0.6848 -0.0386  0.1326
 8982SOL    HW138408   0.578   2.668  14.707  1.3672  0.9218 -0.0270
 8982SOL    HW238409   0.691   2.581  14.745 -0.6736  2.4134  0.2194
 8983SOL     OW38410   2.947   4.577  15.503 -0.0043 -0.2745  0.1140
 8983SOL    HW138411   2.996   4.497  15.484  1.2326  0.2905  0.8608
 8983SOL    HW238412   2.922   4.609  15.416 -0.3160  1.5334  0.8725
 8984SOL     OW38413   2.336   1.964  10.710 -0.4514 -1.0287  0.3823
 8984SOL    HW138414   2.414   1.961  10.766  0.8133  0.5389 -1.3121
 8984SOL    HW238415   2.289   2.028  10.762 -1.9989  0.4666 -2.8767
 8985SOL     OW38416   1.257   4.155   9.869 -0.0347 -0.3363 -0.2489
 8985SOL    HW138417   1.216   4.090   9.926  0.6302  0.0034  0.6243
 8985SOL    HW238418   1.311   4.102   9.811 -0.4341 -0.6294 -0.3468
 8986SOL     OW38419   2.506   0.387   7.848 -0.1130 -0.0240 -0.2155
 8986SOL    HW138420   2.438   0.449   7.824  0.0587  1.0154  1.9438
 8986SOL    HW238421   2.589   0.435   7.857  0.2598 -1.0880  2.0530
 8987SOL     OW38422   1.811   3.681  10.858 -0.4844 -0.2518  0.0624
 8987SOL    HW138423   1.769   3.601  10.889 -0.8632 -0.0831 -0.0132
 8987SOL    HW238424   1.833   3.640  10.775  0.4144  1.0276 -0.3232
 8988SOL     OW38425   2.904   0.647   6.395 -0.4414  0.1534 -0.1543
 8988SOL    HW138426   2.944   0.582   6.338 -0.6049 -0.5452  0.5217
 8988SOL    HW238427   2.964   0.719   6.376 -0.9438 -0.1744 -2.9612
 8989SOL     OW38428   3.479   0.539   6.408 -0.1172  0.1872 -0.0148
 8989SOL    HW138429   3.569   0.518   6.385 -1.3407 -1.6198 -3.2484
 8989SOL    HW238430   3.434   0.455   6.398  0.7350 -0.1162 -1.3265
 8990SOL     OW38431   3.163   4.152  14.034  0.2155  0.0568 -0.2214
 8990SOL    HW138432   3.248   4.193  14.016  0.5113 -0.0167  0.9919
 8990SOL    HW238433   3.160   4.134  14.128  0.8680  1.4985  0.0818
 8991SOL     OW38434   3.387   4.346   8.672  0.4927 -0.1007 -0.4618
 8991SOL    HW138435   3.412   4.267   8.719 -0.0603 -0.3443 -0.5721
 8991SOL    HW238436   3.471   4.361   8.629  0.9441 -0.3254  0.3470
 8992SOL     OW38437   3.234   2.274   7.024  0.4092 -0.0342 -0.3656
 8992SOL    HW138438   3.289   2.298   6.949  0.0265 -0.8388 -0.9028
 8992SOL    HW238439   3.223   2.183   6.997 -0.1954 -0.5058  1.4937
 8993SOL     OW38440   3.530   3.122   4.705 -0.3560 -0.0194 -0.0854
 8993SOL    HW138441   3.470   3.180   4.657 -1.1305 -0.7193  0.0423
 8993SOL    HW238442   3.553   3.166   4.787 -2.6513 -1.4078  1.2999
 8994SOL     OW38443   2.867   0.956   6.133  0.2264  0.0984 -0.0905
 8994SOL    HW138444   2.945   1.010   6.125  0.4632 -0.1481  0.5367
 8994SOL    HW238445   2.889   0.883   6.076 -1.2362  2.6922 -3.9767
 8995SOL     OW38446   0.176   1.458   5.691 -0.0659  0.2453  0.5256
 8995SOL    HW138447   0.105   1.420   5.639 -0.3871  2.0164 -0.3425
 8995SOL    HW238448   0.120   1.490   5.761 -1.3862  0.9404 -0.8382
 8996SOL     OW38449   1.689   1.159   2.483  0.2459  0.0965  0.1890
 8996SOL    HW138450   1.765   1.145   2.540  0.3104 -0.7890 -0.1238
 8996SOL    HW238451   1.655   1.070   2.476  1.9236 -0.5552  0.2598
 8997SOL     OW38452   1.039   4.070  14.155  0.8874 -0.2975 -0.4276
 8997SOL    HW138453   1.054   4.118  14.074 -1.7399 -1.2482 -1.4991
 8997SOL    HW238454   0.943   4.067  14.155  0.9164 -1.9913  1.9039
 8998SOL     OW38455   3.827   1.799   0.969 -0.5687  0.1382 -0.0381
 8998SOL    HW138456   3.841   1.713   0.931  1.0073 -0.8243  2.6898
 8998SOL    HW238457   3.826   1.862   0.897 -1.0155  1.5191  1.1671
 8999SOL     OW38458   3.661   4.119   3.443 -0.4702  0.8100 -0.3357
 8999SOL    HW138459   3.704   4.102   3.359  1.9235  0.0774  1.0505
 8999SOL    HW238460   3.585   4.062   3.430  0.8977 -1.2745  0.6831
 9000SOL     OW38461   1.077   2.690   4.202 -0.0784 -0.1571 -0.3054
 9000SOL    HW138462   1.125   2.614   4.170  0.5811  0.8060 -1.5922
 9000SOL    HW238463   0.993   2.644   4.195 -0.2812  0.1478  0.1144
 9001SOL     OW38464   4.443   2.338   2.259 -0.1603  0.1212  0.0464
 9001SOL    HW138465   4.367   2.385   2.295  0.2048  0.6293  0.1519
 9001SOL    HW238466   4.507   2.407   2.274 -1.8505  1.8966 -0.9045
 9002SOL     OW38467   0.593   0.965  13.897  0.4086 -0.7406 -0.1896
 9002SOL    HW138468   0.636   0.973  13.812 -0.0295 -2.2520 -0.5561
 9002SOL    HW238469   0.519   1.025  13.889  0.1650 -0.7249  2.3671
 9003SOL     OW38470   4.014   0.996   4.044  0.2118  0.0071  0.4852
 9003SOL    HW138471   3.929   1.030   4.073  0.2810 -0.5659  1.3564
 9003SOL    HW238472   3.997   0.902   4.050 -1.2737  0.1886 -0.9503
 9004SOL     OW38473   0.868   0.233   1.521 -0.3285 -0.0851 -0.0768
 9004SOL    HW138474   0.785   0.278   1.538 -0.4799 -0.4941  0.2456
 9004SOL    HW238475   0.864   0.232   1.425  0.0195 -0.7911 -0.0794
 9005SOL     OW38476   4.675   2.013   5.341 -0.0390 -0.2034  0.2202
 9005SOL    HW138477   4.700   2.095   5.298  0.3283  0.3992  1.5816
 9005SOL    HW238478   0.021   1.960   5.300  0.5014  0.0323  0.8154
 9006SOL     OW38479   0.056   2.021   8.874  0.4636 -0.7906 -0.1273
 9006SOL    HW138480   4.690   1.988   8.884 -0.2410  0.8994 -0.8011
 9006SOL    HW238481   0.096   1.956   8.932  0.1335  0.3561  1.3994
 9007SOL     OW38482   1.753   4.429  14.605 -0.7810  0.0140 -0.6649
 9007SOL    HW138483   1.731   4.444  14.513 -3.1792 -1.1960 -0.2757
 9007SOL    HW238484   1.730   4.339  14.624 -0.4809  0.2652  0.8609
 9008SOL     OW38485   1.625   0.789   5.049  0.8969  0.3384  0.6705
 9008SOL    HW138486   1.595   0.711   5.003  0.3778  0.2044  1.2380
 9008SOL    HW238487   1.548   0.845   5.036  2.4946  2.6177  0.9270
 9009SOL     OW38488   1.955   1.404  13.844  0.2267  0.4888 -0.0971
 9009SOL    HW138489   2.037   1.429  13.801  0.9075 -1.4408  0.0731
 9009SOL    HW238490   1.986   1.428  13.932 -0.5788 -1.4684  0.7264
 9010SOL     OW38491   0.664   3.051   7.436  0.1396 -0.3573 -0.3440
 9010SOL    HW138492   0.653   3.145   7.453 -0.3544 -1.0891  3.4351
 9010SOL    HW238493   0.581   3.014   7.468 -0.0885 -0.1329 -0.6826
 9011SOL     OW38494   0.545   3.414   7.758 -0.6038  0.0089  0.3767
 9011SOL    HW138495   0.532   3.319   7.748  3.0219 -0.3388 -0.9983
 9011SOL    HW238496   0.631   3.406   7.797 -0.5784  0.2979  0.3787
 9012SOL     OW38497   3.044   4.420   2.017 -0.0960 -0.7875  0.7717
 9012SOL    HW138498   3.125   4.471   2.030 -1.4262  1.3395  0.6952
 9012SOL    HW238499   3.061   4.380   1.932 -1.0331 -1.1357  0.7596
 9013SOL     OW38500   0.748   3.151   9.369  0.1777  0.2049 -0.4866
 9013SOL    HW138501   0.763   3.155   9.464  1.4056 -0.2040 -0.6634
 9013SOL    HW238502   0.653   3.142   9.369  0.3627 -1.7070 -0.9407
 9014SOL     OW38503   0.104   2.264   2.221  0.0761  1.0059 -0.0510
 9014SOL    HW138504   0.015   2.231   2.234  0.2410 -0.7426 -3.3136
 9014SOL    HW238505   0.087   2.344   2.172 -0.5176  2.0429  1.8244
 9015SOL     OW38506   0.786   1.720  16.569 -0.3646  0.6036  0.1774
 9015SOL    HW138507   0.822   1.751  16.653  1.3456 -0.5474 -0.1311
 9015SOL    HW238508   0.865   1.681  16.531 -2.2613 -2.0823 -0.9671
 9016SOL     OW38509   4.693   4.029  11.159 -0.3820  0.4339  0.1624
 9016SOL    HW138510   4.696   4.122  11.180 -1.2395  0.5642 -0.2920
 9016SOL    HW238511   0.044   4.002  11.214 -2.1259 -0.9253  1.8688
 9017SOL     OW38512   4.240   3.934   3.584  0.0152 -0.3413 -0.3514
 9017SOL    HW138513   4.335   3.939   3.573  0.1518  1.4070  1.5911
 9017SOL    HW238514   4.213   3.945   3.493 -0.8467  0.5830  0.0175
 9018SOL     OW38515   2.191   2.939   1.282  0.3482 -0.4166  0.3752
 9018SOL    HW138516   2.264   2.964   1.226 -0.7201  2.1315  0.1047
 9018SOL    HW238517   2.226   2.856   1.314  0.3024 -0.7327 -0.3896
 9019SOL     OW38518   0.070   3.659   8.957 -0.7802 -0.0468 -0.3876
 9019SOL    HW138519   0.041   3.685   9.044 -0.7193  2.3869 -1.0874
 9019SOL    HW238520   0.161   3.638   8.976 -0.1003  1.1103 -2.3349
 9020SOL     OW38521   1.663   0.341   9.309 -0.6467 -0.1094  0.0248
 9020SOL    HW138522   1.636   0.252   9.328  0.5310 -0.4601  0.0840
 9020SOL    HW238523   1.735   0.357   9.370 -0.2487  3.7640 -1.4363
 9021SOL     OW38524   4.370   1.452  10.953 -0.0180  0.1004 -0.0552
 9021SOL    HW138525   4.299   1.413  10.903  0.1391 -1.4616  0.9142
 9021SOL    HW238526   4.325   1.525  10.995 -0.0263 -0.3623  0.7557
 9022SOL     OW38527   2.061   2.933   8.427 -0.1429 -0.4176 -0.3904
 9022SOL    HW138528   2.055   2.840   8.449  1.6179 -0.0173  1.7776
 9022SOL    HW238529   2.050   2.937   8.332  0.2264 -0.4273 -0.4300
 9023SOL     OW38530   2.847   1.469   8.352 -0.5893 -0.2411  0.0251
 9023SOL    HW138531   2.825   1.426   8.435  1.6039  0.5046  0.9783
 9023SOL    HW238532   2.882   1.395   8.303 -3.3481 -0.4578 -1.6023
 9024SOL     OW38533   1.107   0.675   3.986  0.0809 -0.7193 -0.0703
 9024SOL    HW138534   1.060   0.696   3.905 -0.9049 -3.1519 -0.1423
 9024SOL    HW238535   1.157   0.754   4.005  0.5618 -0.9541 -0.3808
 9025SOL     OW38536   2.080   3.970  13.864  0.3516  0.0111  0.1294
 9025SOL    HW138537   2.107   3.894  13.916  2.6703  0.6458 -0.1448
 9025SOL    HW238538   2.169   4.000  13.848 -1.0541  2.7498 -2.4774
 9026SOL     OW38539   4.533   2.822  11.474 -0.4648 -0.4648  0.5048
 9026SOL    HW138540   4.458   2.872  11.443  0.2208 -0.4209 -1.0863
 9026SOL    HW238541   4.576   2.895  11.518  1.1362 -1.0189 -0.1330
 9027SOL     OW38542   3.909   2.482  13.463  0.6582 -0.0802 -0.0065
 9027SOL    HW138543   3.948   2.502  13.548  1.7756 -0.9870 -0.3079
 9027SOL    HW238544   3.974   2.420  13.431 -0.9841 -2.7211  1.7703
 9028SOL     OW38545   3.811   3.483   3.115  0.2296  0.1255 -0.2268
 9028SOL    HW138546   3.788   3.404   3.066  0.0843 -0.4306  0.7344
 9028SOL    HW238547   3.724   3.506   3.148  0.1303 -1.2070  0.4102
 9029SOL     OW38548   4.648   3.119   6.224 -0.3442 -0.4767  0.7674
 9029SOL    HW138549   4.562   3.098   6.189 -0.0792  0.9350 -0.7398
 9029SOL    HW238550   4.635   3.203   6.269  2.2353  1.3610 -1.9034
 9030SOL     OW38551   0.750   1.363   9.147 -0.2309 -0.3998  0.4886
 9030SOL    HW138552   0.731   1.447   9.189  1.6097  0.9346 -1.3619
 9030SOL    HW238553   0.671   1.347   9.095  0.7275  1.7661 -1.6027
 9031SOL     OW38554   2.154   3.306   5.127  0.1882  0.3761  0.5907
 9031SOL    HW138555   2.073   3.317   5.076 -0.5084  3.1360  2.2759
 9031SOL    HW238556   2.213   3.379   5.106  0.9172 -1.2278 -2.9501
 9032SOL     OW38557   1.838   1.437   6.882 -0.5648 -0.3078 -0.0213
 9032SOL    HW138558   1.782   1.373   6.926  0.2693  0.5483  2.2773
 9032SOL    HW238559   1.922   1.430   6.929 -0.5471  0.8797  0.1048
 9033SOL     OW38560   4.336   0.340  14.822  0.2230  0.1239 -0.1016
 9033SOL    HW138561   4.393   0.386  14.760  1.5598 -0.8524  0.3856
 9033SOL    HW238562   4.347   0.399  14.896 -1.5945 -2.9309  2.5706
 9034SOL     OW38563   3.752   3.867   7.804 -0.4563 -0.1642 -0.5885
 9034SOL    HW138564   3.834   3.911   7.827  1.0573 -2.6549 -1.1344
 9034SOL    HW238565   3.686   3.906   7.861  0.9142  1.6907 -0.2597
 9035SOL     OW38566   2.039   3.949  16.764  0.1957  0.3467 -0.3618
 9035SOL    HW138567   2.025   3.854  16.762  0.5066  0.3108 -0.8093
 9035SOL    HW238568   2.127   3.959  16.799  0.0322 -0.5292  0.3018
 9036SOL     OW38569   3.335   1.372   6.822  0.2704 -0.0006  0.5854
 9036SOL    HW138570   3.416   1.416   6.796  0.5798 -1.0871 -0.3216
 9036SOL    HW238571   3.338   1.292   6.768  2.2402  3.1555 -4.0401
 9037SOL     OW38572   3.622   4.333   4.969 -0.4163 -0.2760  0.2034
 9037SOL    HW138573   3.546   4.375   5.010  0.1036 -0.0339  0.9146
 9037SOL    HW238574   3.605   4.241   4.989 -0.7430 -0.4129 -0.7124
 9038SOL     OW38575   2.531   2.645   1.028  0.0629 -0.3073  0.3148
 9038SOL    HW138576   2.463   2.702   0.992 -0.0027  0.5744  1.8659
 9038SOL    HW238577   2.486   2.569   1.064  0.5949 -1.9944 -2.5430
 9039SOL     OW38578   0.946   4.141   4.906  0.0005 -0.2142  0.5613
 9039SOL    HW138579   0.928   4.207   4.839 -0.3661 -0.3408  0.5339
 9039SOL    HW238580   0.940   4.063   4.852  0.5961  1.1022 -1.4123
 9040SOL     OW38581   0.727   1.464  12.488  0.5883 -0.1806 -0.5967
 9040SOL    HW138582   0.747   1.483  12.579  0.7890  1.0294 -0.8861
 9040SOL    HW238583   0.718   1.551  12.449 -0.0122  0.8448  1.8623
 9041SOL     OW38584   2.747   1.728  17.603  0.3429  0.5622 -0.2778
 9041SOL    HW138585   2.776   1.781  17.529 -1.1875 -0.3243 -1.5159
 9041SOL    HW238586   2.825   1.682  17.635  0.3253  0.7905  0.0986
 9042SOL     OW38587   1.211   1.196  10.895 -0.3310  0.1714  0.5311
 9042SOL    HW138588   1.255   1.156  10.820 -1.0596  3.1453 -1.5294
 9042SOL    HW238589   1.127   1.233  10.865 -0.0533  0.1245 -0.2924
 9043SOL     OW38590   3.373   2.038   8.321 -0.2118  0.1818  0.2309
 9043SOL    HW138591   3.444   2.087   8.279 -0.4408 -0.7149 -1.1755
 9043SOL    HW238592   3.315   2.113   8.336  1.6652  1.4259  1.3439
 9044SOL     OW38593   0.942   4.603   0.826  0.0134 -0.7369  0.1313
 9044SOL    HW138594   0.900   4.583   0.909  2.2081 -0.3657  1.3268
 9044SOL    HW238595   0.923   4.696   0.819 -1.9703 -0.9554  3.0220
 9045SOL     OW38596   0.736   4.638   6.870  0.8866 -0.0191 -0.2397
 9045SOL    HW138597   0.707   4.557   6.911 -0.2748  1.5451  2.0970
 9045SOL    HW238598   0.795   4.598   6.807 -0.0727 -0.1393 -1.0628
 9046SOL     OW38599   4.492   1.510   7.706 -0.5042  0.5341 -0.0111
 9046SOL    HW138600   4.572   1.458   7.698 -1.3638 -0.2122 -3.8249
 9046SOL    HW238601   4.451   1.475   7.785 -1.1780 -0.4401 -0.7892
 9047SOL     OW38602   2.147   3.090  13.285  0.0057 -0.0670  0.0552
 9047SOL    HW138603   2.071   3.036  13.264  0.0692 -0.4062  0.7138
 9047SOL    HW238604   2.202   3.019  13.317 -0.1117 -0.0056  0.3918
 9048SOL     OW38605   4.236   2.272  12.106 -0.0857  0.1429 -0.1783
 9048SOL    HW138606   4.184   2.212  12.160  2.3110 -0.5057  1.3974
 9048SOL    HW238607   4.316   2.296  12.152  1.5160 -5.3238 -0.1677
 9049SOL     OW38608   2.539   0.797   2.779 -0.0579 -1.1668 -0.0448
 9049SOL    HW138609   2.463   0.787   2.836  0.0454 -1.6809  0.0057
 9049SOL    HW238610   2.565   0.889   2.779 -0.5486 -1.0262  1.3403
 9050SOL     OW38611   4.237   0.943   9.511 -0.2196  0.3271  0.2368
 9050SOL    HW138612   4.243   1.037   9.523 -0.2074  0.2063  1.1917
 9050SOL    HW238613   4.233   0.921   9.605  0.9296  2.7637  0.8643
 9051SOL     OW38614   4.657   2.959   3.145  0.2131  0.1080  0.2764
 9051SOL    HW138615   0.016   2.910   3.148  1.0066  1.3041 -1.6120
 9051SOL    HW238616   4.670   2.982   3.053  1.6497  0.0895  0.4781
 9052SOL     OW38617   3.381   2.856   3.033 -0.3812 -0.4704 -0.4729
 9052SOL    HW138618   3.372   2.907   3.114 -1.7782 -0.8186 -0.4215
 9052SOL    HW238619   3.375   2.768   3.070  2.4482 -0.1412  0.8172
 9053SOL     OW38620   2.589   1.051   6.043  0.3231  0.6139 -0.6242
 9053SOL    HW138621   2.663   1.031   6.101 -2.2291 -0.9652  2.0648
 9053SOL    HW238622   2.640   1.050   5.962  1.0188  0.8960 -0.1999
 9054SOL     OW38623   1.476   3.648   4.917 -0.2093 -0.8963  0.5200
 9054SOL    HW138624   1.538   3.720   4.909 -1.1849 -0.4084 -2.5465
 9054SOL    HW238625   1.399   3.685   4.874  0.5706  0.1980  0.0665
 9055SOL     OW38626   2.645   0.022   6.108 -0.0231  0.0548  0.0668
 9055SOL    HW138627   2.627   4.656   6.137 -0.1419 -0.5038 -1.6756
 9055SOL    HW238628   2.627   0.017   6.014 -0.2148  2.1631 -0.0047
 9056SOL     OW38629   0.318   2.419  15.657 -0.8438  0.4075  0.4117
 9056SOL    HW138630   0.274   2.453  15.578  1.3164  0.6592 -0.6889
 9056SOL    HW238631   0.372   2.488  15.694 -0.2493 -0.4299  1.1008
 9057SOL     OW38632   2.213   0.721   2.656 -0.0222 -0.1033 -0.1385
 9057SOL    HW138633   2.185   0.790   2.596  0.8702 -0.6111 -1.1392
 9057SOL    HW238634   2.149   0.725   2.727 -1.3992  1.8236 -1.4665
 9058SOL     OW38635   3.227   0.596   3.510 -0.0218  0.7915 -0.1350
 9058SOL    HW138636   3.231   0.683   3.550 -1.1074  1.0084 -0.4818
 9058SOL    HW238637   3.194   0.617   3.423 -1.9436  0.8685  0.5918
 9059SOL     OW38638   4.123   1.045  13.621  0.0692  0.7330 -0.0996
 9059SOL    HW138639   4.207   1.002  13.606  1.0096  2.4861  0.1921
 9059SOL    HW238640   4.070   0.969  13.597  2.1698 -0.5088 -0.8559
 9060SOL     OW38641   4.470   4.537  10.559 -0.0529  0.2962 -0.3462
 9060SOL    HW138642   4.476   4.475  10.632 -0.1332 -0.8796 -1.3529
 9060SOL    HW238643   4.507   4.615  10.601 -0.6971  0.9501 -0.9903
 9061SOL     OW38644   3.268   4.647   6.665  0.1972 -0.2252 -0.0989
 9061SOL    HW138645   3.209   4.717   6.692  1.6840  2.0020 -2.6840
 9061SOL    HW238646   3.230   4.563   6.691  1.8766  0.1483  3.5857
 9062SOL     OW38647   4.594   2.832   5.808  0.0315 -0.0974  0.7029
 9062SOL    HW138648   4.648   2.907   5.783 -0.1738 -0.1948 -0.0339
 9062SOL    HW238649   4.509   2.856   5.771 -0.7930  0.4578  2.9795
 9063SOL     OW38650   1.656   0.267   2.896 -0.0694 -0.0740 -0.0815
 9063SOL    HW138651   1.709   0.234   2.824 -0.5723  1.2984 -1.0707
 9063SOL    HW238652   1.683   0.206   2.965 -0.5694  0.8579  0.9337
 9064SOL     OW38653   0.403   4.626   7.782 -0.4270  0.6389 -0.1052
 9064SOL    HW138654   0.405   4.534   7.758  1.9355  1.1338 -1.9020
 9064SOL    HW238655   0.495   4.638   7.806 -0.3992  1.0932 -0.4335
 9065SOL     OW38656   4.306   2.351   2.710 -0.7976 -0.0098 -0.3601
 9065SOL    HW138657   4.359   2.405   2.769  0.4179 -2.0699  0.4173
 9065SOL    HW238658   4.217   2.361   2.744 -0.1323  0.8309  1.1372
 9066SOL     OW38659   4.279   4.292   4.492 -0.0649 -0.2859 -0.3713
 9066SOL    HW138660   4.232   4.357   4.544 -1.1669 -0.5170 -1.0596
 9066SOL    HW238661   4.269   4.209   4.539 -1.2155  0.6781  1.0982
 9067SOL     OW38662   2.513   1.510   4.046 -0.2347 -0.5790 -0.2295
 9067SOL    HW138663   2.472   1.504   3.959  0.9992 -0.6884 -0.8021
 9067SOL    HW238664   2.449   1.556   4.101 -0.0058  1.5111 -1.7088
 9068SOL     OW38665   2.526   2.879   2.493  0.0383  0.5773  0.2005
 9068SOL    HW138666   2.544   2.839   2.408  0.7405 -0.7539  0.9728
 9068SOL    HW238667   2.500   2.803   2.546 -0.2659  0.0685 -0.6772
 9069SOL     OW38668   3.771   2.187  15.657 -0.0848  0.1235 -0.3531
 9069SOL    HW138669   3.742   2.247  15.725 -0.0859  0.1039 -0.3363
 9069SOL    HW238670   3.758   2.247  15.584 -2.6121 -0.8948 -0.6996
 9070SOL     OW38671   3.773   0.954   8.149  0.1004  0.9326  0.2371
 9070SOL    HW138672   3.841   0.952   8.217  0.9582 -0.1310 -0.6566
 9070SOL    HW238673   3.729   1.030   8.187 -1.3464  1.1388 -1.8592
 9071SOL     OW38674   0.078   0.223  10.652 -0.6808 -0.2897  0.2192
 9071SOL    HW138675   0.079   0.299  10.594  0.3122 -1.2926 -1.0675
 9071SOL    HW238676   0.167   0.193  10.667 -0.5488  0.4402  0.9160
 9072SOL     OW38677   4.263   3.826   7.173 -0.9195 -0.2158  0.2762
 9072SOL    HW138678   4.327   3.765   7.211  0.0288  0.1274 -0.7600
 9072SOL    HW238679   4.186   3.780   7.205 -0.6291  0.5477  2.0866
 9073SOL     OW38680   1.174   4.084  14.916  0.2557 -0.1107 -0.6744
 9073SOL    HW138681   1.210   4.173  14.910 -0.3772  0.2247  0.5274
 9073SOL    HW238682   1.112   4.084  14.843 -1.8297 -0.3992  1.1131
 9074SOL     OW38683   2.281   2.927   5.214  0.1081  0.5286  0.3502
 9074SOL    HW138684   2.270   2.956   5.123  0.8866 -1.8952 -0.5166
 9074SOL    HW238685   2.224   2.851   5.204  0.1499  0.4503  0.7332
 9075SOL     OW38686   4.579   2.825  14.111 -0.0732  0.3489  0.3466
 9075SOL    HW138687   4.603   2.828  14.203 -2.3749 -0.0697  0.9709
 9075SOL    HW238688   4.494   2.869  14.114  0.7951  2.0720 -0.3500
 9076SOL     OW38689   3.418   1.823   1.153  0.0812  0.0838 -0.3948
 9076SOL    HW138690   3.436   1.894   1.091 -1.1642 -2.1905 -3.4009
 9076SOL    HW238691   3.474   1.857   1.222 -2.8645  1.6127  1.2435
 9077SOL     OW38692   1.789   3.177   9.662 -0.1838 -0.1090 -0.2687
 9077SOL    HW138693   1.720   3.237   9.689 -0.7871  0.5111 -3.1906
 9077SOL    HW238694   1.755   3.097   9.701  2.5226 -1.3026 -0.3850
 9078SOL     OW38695   1.502   3.315   8.321  0.3025 -0.2304  0.1284
 9078SOL    HW138696   1.521   3.407   8.341 -2.4832  0.5744 -0.9203
 9078SOL    HW238697   1.408   3.319   8.304 -0.4697 -0.4331  4.4819
 9079SOL     OW38698   4.229   1.214   5.297 -0.5270 -0.0062 -0.3648
 9079SOL    HW138699   4.190   1.190   5.213  0.7790 -0.7574 -0.7609
 9079SOL    HW238700   4.315   1.251   5.275  0.5961 -2.8048 -0.6118
 9080SOL     OW38701   0.279   0.404  11.096 -0.4852 -0.6203 -0.5591
 9080SOL    HW138702   0.208   0.445  11.145  0.9179  1.5040 -0.2750
 9080SOL    HW238703   0.250   0.432  11.009 -1.9795  0.9992  0.4854
 9081SOL     OW38704   0.079   3.569  17.281  0.3040 -0.1778  0.0454
 9081SOL    HW138705   0.021   3.542  17.352  0.6386 -0.9587  0.0154
 9081SOL    HW238706   0.036   3.645  17.241  0.6098  0.0688  0.1772
 9082SOL     OW38707   1.999   1.359  16.703  0.3105  0.0488  0.6925
 9082SOL    HW138708   2.066   1.417  16.667 -1.6747  2.7910  1.4133
 9082SOL    HW238709   1.928   1.421  16.716  1.8819  2.0683 -0.4616
 9083SOL     OW38710   4.717   3.694   8.116  0.6053 -0.8690  0.0789
 9083SOL    HW138711   4.694   3.744   8.195 -1.3162 -0.3710 -0.7986
 9083SOL    HW238712   4.693   3.605   8.143  2.3165 -1.6330 -0.9429
 9084SOL     OW38713   0.892   1.242   6.983  0.4679  0.1979 -0.0630
 9084SOL    HW138714   0.836   1.314   7.012  0.9970  0.8556 -0.6545
 9084SOL    HW238715   0.867   1.228   6.892 -0.0314  0.5946  0.0144
 9085SOL     OW38716   4.636   3.448   0.258 -0.2834  0.0918 -0.4670
 9085SOL    HW138717   4.718   3.407   0.284 -2.1643 -2.2573  1.8231
 9085SOL    HW238718   4.571   3.414   0.320  1.2572  0.1956  1.2300
 9086SOL     OW38719   3.404   1.433   0.457 -0.1685 -0.5251 -0.1485
 9086SOL    HW138720   3.323   1.485   0.454  1.4245  1.9344 -0.6014
 9086SOL    HW238721   3.422   1.431   0.363  3.3179 -0.1802  0.5291
 9087SOL     OW38722   0.108   1.144   7.976  0.4591  0.0611 -0.2463
 9087SOL    HW138723   0.038   1.094   7.934  0.5356  0.4378 -0.8262
 9087SOL    HW238724   0.112   1.117   8.067  0.6053  1.4283  0.1522
 9088SOL     OW38725   0.191   0.002  11.988 -1.0267  0.0822  0.3795
 9088SOL    HW138726   0.269   0.001  11.932 -0.8385 -0.7065  0.6657
 9088SOL    HW238727   0.121   4.687  11.934  0.7957 -0.8083 -1.3754
 9089SOL     OW38728   0.352   0.312  13.296  0.6383 -0.3983  0.1619
 9089SOL    HW138729   0.431   0.323  13.244  0.1144  0.5559 -0.4365
 9089SOL    HW238730   0.374   0.365  13.372  1.7615  1.0720 -1.1928
 9090SOL     OW38731   0.103   2.756  14.076 -0.6356  0.3632  0.0387
 9090SOL    HW138732   0.018   2.799  14.067 -1.5271 -1.3598  0.3564
 9090SOL    HW238733   0.116   2.698  14.001 -1.1548 -0.3575  0.5066
 9091SOL     OW38734   3.644   0.947   8.763 -0.4018 -0.1026 -0.9287
 9091SOL    HW138735   3.693   1.006   8.706 -0.6454 -0.7574 -1.8060
 9091SOL    HW238736   3.705   0.943   8.837 -1.2989 -0.6126 -0.2178
 9092SOL     OW38737   2.552   0.384  14.353  0.0813  0.1185 -0.1304
 9092SOL    HW138738   2.554   0.375  14.258  1.6963  0.1517 -0.1136
 9092SOL    HW238739   2.569   0.476  14.375 -0.0584 -0.1253  0.9859
 9093SOL     OW38740   0.037   1.641   7.124 -0.1508 -0.7893 -0.0672
 9093SOL    HW138741   4.697   1.699   7.167  2.2934  1.6769  0.2528
 9093SOL    HW238742   0.066   1.695   7.050 -0.7094 -0.1557  0.1714
 9094SOL     OW38743   4.105   2.337   0.471  0.0217 -0.3682 -0.0391
 9094SOL    HW138744   4.092   2.300   0.384 -0.5389 -1.1241  0.3694
 9094SOL    HW238745   4.190   2.299   0.494  0.4404 -0.1510 -1.1953
 9095SOL     OW38746   0.521   0.981   9.699  0.0006  0.4790  0.1366
 9095SOL    HW138747   0.559   1.045   9.640 -0.3886  0.0176 -0.6142
 9095SOL    HW238748   0.481   1.039   9.764 -0.0200 -1.5647  1.9802
 9096SOL     OW38749   0.600   0.959   4.668 -0.4641  0.4765 -0.7390
 9096SOL    HW138750   0.692   0.949   4.694 -1.4918 -0.4115  2.4467
 9096SOL    HW238751   0.561   0.974   4.754 -0.2333 -0.5936 -0.4526
 9097SOL     OW38752   4.324   3.073   8.367  0.0588 -0.2793 -0.0945
 9097SOL    HW138753   4.326   3.075   8.271 -1.1195  2.0952 -0.0626
 9097SOL    HW238754   4.391   3.007   8.382 -0.1589 -0.5868 -0.4587
 9098SOL     OW38755   0.167   1.842   5.397 -0.5578 -0.1356 -0.2038
 9098SOL    HW138756   0.243   1.814   5.345 -0.8152 -0.9161 -0.1663
 9098SOL    HW238757   0.197   1.921   5.441  0.4965 -0.8517  0.3750
 9099SOL     OW38758   1.292   1.242   1.933 -0.5503 -0.5750 -1.1013
 9099SOL    HW138759   1.346   1.271   1.860  0.4583  0.8793  0.2297
 9099SOL    HW238760   1.217   1.209   1.883 -1.8877  2.2313 -0.9074
 9100SOL     OW38761   0.829   2.114  11.727 -0.1925 -0.0890  0.5671
 9100SOL    HW138762   0.862   2.203  11.717 -0.9669  0.1745  0.3520
 9100SOL    HW238763   0.887   2.073  11.791  0.4345  2.6145  1.7452
 9101SOL     OW38764   1.418   3.752   5.945  0.1626 -0.0125 -0.0732
 9101SOL    HW138765   1.386   3.829   5.991 -0.8862  0.0173 -0.8510
 9101SOL    HW238766   1.507   3.755   5.980  0.5339 -0.3348 -0.9941
 9102SOL     OW38767   4.276   2.434   2.461  0.5597 -0.3922  0.2191
 9102SOL    HW138768   4.316   2.410   2.545  1.7619  2.7227  0.5511
 9102SOL    HW238769   4.259   2.528   2.469  1.4449 -0.1302 -0.9760
 9103SOL     OW38770   1.031   0.200   6.042  0.3075  0.3677  0.3941
 9103SOL    HW138771   1.005   0.290   6.060 -1.5852 -0.4429  1.6936
 9103SOL    HW238772   0.990   0.181   5.958  1.0487  2.2055 -0.3922
 9104SOL     OW38773   0.033   0.494  10.195 -0.3958 -0.4215  0.1919
 9104SOL    HW138774   0.032   0.434  10.120  0.5933 -0.2875  0.0717
 9104SOL    HW238775   4.701   0.566  10.161  0.5610 -0.6376 -1.8355
 9105SOL     OW38776   0.167   0.950   5.537 -0.2088 -0.1418  0.4363
 9105SOL    HW138777   0.084   0.996   5.543  1.4085  2.7692  0.2406
 9105SOL    HW238778   0.221   1.015   5.492 -2.1906  1.4201  0.3196
 9106SOL     OW38779   3.821   2.965  12.034 -0.5884 -0.3151 -0.2033
 9106SOL    HW138780   3.899   3.013  12.006 -0.2609 -0.8067 -0.1242
 9106SOL    HW238781   3.777   3.037  12.080 -1.5022 -1.2246  0.3433
 9107SOL     OW38782   1.980   3.572  11.446  0.0916 -0.0644 -0.3717
 9107SOL    HW138783   2.014   3.607  11.363  0.3001 -2.1879 -1.1937
 9107SOL    HW238784   2.057   3.519  11.471 -0.1367 -0.4114 -0.4033
 9108SOL     OW38785   3.414   1.372   9.160 -0.0489 -0.3307 -0.2992
 9108SOL    HW138786   3.406   1.277   9.175  3.7344 -0.9301 -1.9568
 9108SOL    HW238787   3.507   1.392   9.165 -0.4209  1.0577  0.9264
 9109SOL     OW38788   0.357   0.189   8.509  0.2999 -0.4213  0.1346
 9109SOL    HW138789   0.387   0.216   8.422  0.9076 -0.9339  0.1874
 9109SOL    HW238790   0.264   0.204   8.491  0.5716 -0.7390 -1.5279
 9110SOL     OW38791   0.010   2.258  16.447 -0.1552 -0.0095  0.7200
 9110SOL    HW138792   4.644   2.231  16.421  1.1244 -4.5650  1.2034
 9110SOL    HW238793   0.001   2.346  16.410 -1.2508 -0.8023 -0.9474
 9111SOL     OW38794   0.478   4.358   3.702 -0.4219  0.1321  0.3003
 9111SOL    HW138795   0.436   4.345   3.788 -5.2084 -0.1883 -2.0629
 9111SOL    HW238796   0.450   4.278   3.657 -1.1231 -1.2799  3.2458
 9112SOL     OW38797   2.884   4.539  11.012  0.4163  0.3016 -0.0441
 9112SOL    HW138798   2.939   4.591  10.953 -0.9364  0.2964 -1.3082
 9112SOL    HW238799   2.881   4.606  11.081  0.8089  0.3623 -0.0851
 9113SOL     OW38800   4.219   2.897  11.673 -0.1551 -0.1119 -0.1781
 9113SOL    HW138801   4.311   2.921  11.686 -0.8735  2.3021  0.5379
 9113SOL    HW238802   4.223   2.826  11.737 -0.6837 -0.4423 -0.5131
 9114SOL     OW38803   1.321   3.858  10.420  0.2196  0.2483 -0.1437
 9114SOL    HW138804   1.235   3.899  10.415 -1.0577 -2.1631  1.9877
 9114SOL    HW238805   1.367   3.893  10.344  2.5843  0.3392  1.3164
 9115SOL     OW38806   2.929   0.098  10.094  0.5222 -0.3634  0.0534
 9115SOL    HW138807   2.906   0.178  10.141  0.7164 -0.8495  0.9840
 9115SOL    HW238808   3.005   0.070  10.144 -1.8059  0.5656  4.0962
 9116SOL     OW38809   1.941   2.001   2.436 -0.4808 -0.3595 -0.5940
 9116SOL    HW138810   1.936   1.978   2.529  0.2689  0.6329 -0.3169
 9116SOL    HW238811   1.874   2.069   2.447 -0.7191 -0.5866 -0.6443
 9117SOL     OW38812   2.625   1.839   4.301 -0.5198 -0.0335  0.4067
 9117SOL    HW138813   2.557   1.857   4.236  0.9217 -0.6569 -1.2658
 9117SOL    HW238814   2.669   1.769   4.252  1.6313  0.6215  1.4190
 9118SOL     OW38815   3.805   1.041   6.792 -0.1652 -0.2069  0.3810
 9118SOL    HW138816   3.835   1.055   6.882  1.9294 -0.0960 -0.3157
 9118SOL    HW238817   3.836   1.115   6.740  1.9074  0.4216  2.4983
 9119SOL     OW38818   1.707   1.555  16.429  0.3073 -0.3583  0.2506
 9119SOL    HW138819   1.781   1.586  16.481 -0.9266 -0.9290  2.3368
 9119SOL    HW238820   1.743   1.521  16.347  1.6267 -1.0628  1.1289
 9120SOL     OW38821   3.880   2.529   8.002  0.2438  0.1139  0.3317
 9120SOL    HW138822   3.936   2.480   8.063  2.1409  0.6003 -1.0051
 9120SOL    HW238823   3.931   2.610   8.004 -0.1843  0.3524  1.5081
 9121SOL     OW38824   3.319   1.196   6.580  0.1204 -0.5342  0.5216
 9121SOL    HW138825   3.394   1.149   6.544  0.5344  0.4762  0.0626
 9121SOL    HW238826   3.267   1.219   6.503 -2.0968 -1.8653  1.6054
 9122SOL     OW38827   3.290   0.064  15.042  0.6105 -0.3905 -0.0314
 9122SOL    HW138828   3.208   0.113  15.037  1.3840  0.5672 -3.3648
 9122SOL    HW238829   3.246   4.708  15.071  0.1482  0.3853  1.4253
 9123SOL     OW38830   2.631   1.442   7.983  0.0695  0.0587  0.5891
 9123SOL    HW138831   2.658   1.446   7.891  1.2746 -0.1441  0.9399
 9123SOL    HW238832   2.656   1.529   8.014 -2.9756  1.9393 -2.1027
 9124SOL     OW38833   2.325   2.237  13.322  0.1046  0.2418  0.0789
 9124SOL    HW138834   2.335   2.286  13.404  1.4234  3.2455 -1.8693
 9124SOL    HW238835   2.230   2.231  13.323  0.1465 -0.1664  2.1155
 9125SOL     OW38836   0.761   1.547   2.542  0.1350 -0.1037  0.4494
 9125SOL    HW138837   0.728   1.637   2.545 -2.1459 -1.0074  2.4934
 9125SOL    HW238838   0.827   1.564   2.609  0.6590  2.0100 -0.6089
 9126SOL     OW38839   2.296   4.410   3.247 -0.0220  0.7653 -0.6679
 9126SOL    HW138840   2.326   4.366   3.326 -1.7953  1.0144  0.1230
 9126SOL    HW238841   2.270   4.334   3.195  0.2705 -1.0915  1.8920
 9127SOL     OW38842   1.869   0.768   0.007 -0.0909  0.2849 -0.0464
 9127SOL    HW138843   1.832   0.810  17.623 -1.3559  2.1454  1.5540
 9127SOL    HW238844   1.960   0.797   0.001  0.1459 -0.3259  0.5807
 9128SOL     OW38845   1.517   4.400   9.337  0.0438  0.5067  0.5998
 9128SOL    HW138846   1.452   4.459   9.376 -0.2996  0.1189  0.6143
 9128SOL    HW238847   1.582   4.464   9.309 -0.2617  0.6372  0.1900
 9129SOL     OW38848   2.942   4.290   6.620  0.2908  0.0813  0.4834
 9129SOL    HW138849   2.979   4.345   6.552 -1.0576  0.5953  0.1570
 9129SOL    HW238850   2.990   4.317   6.698 -0.8355  0.4805  1.0326
 9130SOL     OW38851   0.735   0.135  11.243 -0.7309  0.1337 -0.0208
 9130SOL    HW138852   0.777   0.049  11.240  0.1672  0.5703 -0.0879
 9130SOL    HW238853   0.659   0.118  11.298 -0.2650 -1.3725  0.1688
 9131SOL     OW38854   1.005   3.427   0.956  0.3153  0.6541 -0.1667
 9131SOL    HW138855   1.035   3.496   0.898  0.8265  0.1092 -0.5594
 9131SOL    HW238856   0.987   3.360   0.891 -2.6138  1.0232  0.2691
 9132SOL     OW38857   3.633   3.977   9.886  0.7578 -0.4533 -0.5995
 9132SOL    HW138858   3.680   4.014   9.961 -0.3974 -1.7124  0.7731
 9132SOL    HW238859   3.665   3.886   9.887  1.9184 -0.0414 -0.6761
 9133SOL     OW38860   1.062   4.056   0.734  0.2908  0.6778  0.1347
 9133SOL    HW138861   1.107   4.094   0.809  1.2263 -0.9669  0.4008
 9133SOL    HW238862   1.001   3.996   0.777  0.1606  1.6259  1.2499
 9134SOL     OW38863   1.842   3.226   6.330 -0.1718  0.4967 -0.3003
 9134SOL    HW138864   1.926   3.259   6.365 -1.3729  1.0934  2.0400
 9134SOL    HW238865   1.786   3.284   6.381 -0.3054  1.5938 -1.6889
 9135SOL     OW38866   3.998   1.268   7.254  0.0931 -0.0487 -0.4462
 9135SOL    HW138867   3.992   1.339   7.317 -0.4711 -1.5931  1.2515
 9135SOL    HW238868   3.913   1.224   7.255 -0.2486  0.6432  0.7722
 9136SOL     OW38869   1.859   4.580   6.278 -0.3187  0.4178  0.0948
 9136SOL    HW138870   1.921   4.523   6.325 -0.6086  0.1222  0.1202
 9136SOL    HW238871   1.878   4.666   6.316  1.0569  0.4656 -0.7228
 9137SOL     OW38872   2.957   2.770   3.861 -0.0530 -0.0188  0.4441
 9137SOL    HW138873   3.049   2.784   3.839 -0.1055  0.3415  0.4508
 9137SOL    HW238874   2.916   2.851   3.830 -0.9669 -0.2522  1.0379
 9138SOL     OW38875   1.054   2.621   4.587 -0.4579  0.3578  0.3010
 9138SOL    HW138876   1.005   2.591   4.510  0.3277 -0.4108  0.1080
 9138SOL    HW238877   1.002   2.695   4.618 -0.6405  0.0026  0.8365
 9139SOL     OW38878   3.088   1.461   4.958  0.3849  0.1312  0.7396
 9139SOL    HW138879   3.027   1.521   5.001 -0.6943 -0.7232  0.4093
 9139SOL    HW238880   3.049   1.430   4.876  2.2058  2.4543 -0.9930
 9140SOL     OW38881   0.894   1.387   1.969  0.3796 -0.1291  0.2481
 9140SOL    HW138882   0.854   1.394   1.882 -0.5698 -2.9215  0.4497
 9140SOL    HW238883   0.891   1.481   1.983  1.8340 -0.1850  0.9380
 9141SOL     OW38884   3.170   0.561   8.588 -0.2110  0.0180 -0.0115
 9141SOL    HW138885   3.220   0.637   8.558  1.1643 -1.2797 -1.0290
 9141SOL    HW238886   3.150   0.584   8.678 -2.4903  1.0168 -0.7627
 9142SOL     OW38887   2.847   2.914   6.972  0.5719 -0.0630  0.2390
 9142SOL    HW138888   2.864   2.964   7.052 -2.0411 -0.3555  0.9875
 9142SOL    HW238889   2.940   2.901   6.955  0.9343  1.8024  0.7907
 9143SOL     OW38890   0.887   2.166   6.147  0.2336 -0.1593 -0.1461
 9143SOL    HW138891   0.855   2.084   6.184 -3.7977  1.1882 -0.6700
 9143SOL    HW238892   0.906   2.135   6.059  2.5589  0.0165  0.2920
 9144SOL     OW38893   0.559   2.526   2.711 -0.0391 -0.4078 -0.4560
 9144SOL    HW138894   0.581   2.617   2.693  2.7311 -0.8828  0.4205
 9144SOL    HW238895   0.466   2.545   2.712 -0.1979 -1.2192  0.1307
 9145SOL     OW38896   2.248   2.518  15.785 -0.4028  0.3025 -0.0499
 9145SOL    HW138897   2.340   2.525  15.758  0.6155 -1.0399  3.0797
 9145SOL    HW238898   2.207   2.569  15.715 -0.2921  0.1032 -0.2587
 9146SOL     OW38899   2.034   4.559   3.614 -0.0499 -0.1401 -0.4923
 9146SOL    HW138900   2.120   4.586   3.583  0.8397 -3.2018 -0.6604
 9146SOL    HW238901   2.028   4.600   3.701  1.0272  1.3144 -1.1069
 9147SOL     OW38902   2.759   1.054   3.639  1.0103  0.0684  0.2896
 9147SOL    HW138903   2.826   1.024   3.700  0.9825 -0.5538  0.0156
 9147SOL    HW238904   2.691   0.989   3.655  1.9714 -0.4408  2.2518
 9148SOL     OW38905   0.813   4.049   6.929  0.3805 -0.0050  0.1374
 9148SOL    HW138906   0.742   4.066   6.989  0.9026  0.9971  0.4716
 9148SOL    HW238907   0.788   4.101   6.852  1.8640  1.0489  0.3575
 9149SOL     OW38908   3.803   0.547   7.781  0.5433  0.0542  0.4920
 9149SOL    HW138909   3.737   0.606   7.746 -0.7348 -0.7352  1.5496
 9149SOL    HW238910   3.872   0.613   7.780  0.1104  0.4898 -0.2861
 9150SOL     OW38911   2.483   2.367  13.127 -0.3453  0.6243 -0.5406
 9150SOL    HW138912   2.452   2.314  13.200  1.5330 -0.8786 -0.8178
 9150SOL    HW238913   2.431   2.342  13.050 -1.6286  2.0159 -0.1254
 9151SOL     OW38914   0.705   0.233   4.714 -0.1555  0.6164 -0.5394
 9151SOL    HW138915   0.776   0.295   4.731  0.0041  0.0216  0.9899
 9151SOL    HW238916   0.736   0.174   4.645  2.2589 -1.8885  2.6971
 9152SOL     OW38917   2.549   4.660   5.852 -0.4634  0.0925 -0.3352
 9152SOL    HW138918   2.594   4.682   5.770  1.7134  0.3394  0.9363
 9152SOL    HW238919   2.481   4.593   5.843 -0.5992  0.1099  0.5597
 9153SOL     OW38920   1.465   1.078   7.030 -0.7727 -0.1322  0.3466
 9153SOL    HW138921   1.413   1.099   7.108 -1.0591 -2.0791  0.6938
 9153SOL    HW238922   1.396   1.027   6.988 -0.2341 -2.4413  2.2138
 9154SOL     OW38923   2.669   2.784   2.268 -0.0583 -0.0974 -0.2277
 9154SOL    HW138924   2.753   2.758   2.306 -0.3906  0.1003  0.6531
 9154SOL    HW238925   2.685   2.827   2.184  1.4539  1.9046  1.0705
 9155SOL     OW38926   1.854   3.334   7.239 -0.8841  0.6840  0.3942
 9155SOL    HW138927   1.856   3.257   7.183 -1.3266  1.7055 -1.0413
 9155SOL    HW238928   1.761   3.351   7.258 -1.0514 -0.1720  0.3354
 9156SOL     OW38929   2.561   1.970  13.973 -0.2442  0.2439  0.3393
 9156SOL    HW138930   2.536   1.922  13.894  0.7107  1.2268 -0.5474
 9156SOL    HW238931   2.482   2.021  13.989 -0.5903 -0.4086  0.7169
 9157SOL     OW38932   2.634   0.050   9.535 -0.2239  0.0142 -0.5706
 9157SOL    HW138933   2.554   0.100   9.523 -2.5058 -3.6418 -0.7675
 9157SOL    HW238934   2.609   4.686   9.501 -0.5715  0.3316 -1.1200
 9158SOL     OW38935   1.877   2.539   7.875  0.4060  0.0570 -0.0800
 9158SOL    HW138936   1.856   2.579   7.960  1.6819  1.4510 -0.4326
 9158SOL    HW238937   1.789   2.544   7.838  0.6052 -0.0411 -0.5634
 9159SOL     OW38938   4.207   3.310   5.741 -0.1369 -0.4588  0.5357
 9159SOL    HW138939   4.128   3.282   5.789 -0.7880  0.8318  0.2196
 9159SOL    HW238940   4.165   3.355   5.667  0.0285 -1.4051 -0.1293
 9160SOL     OW38941   2.843   3.822   7.272 -0.6025 -0.4107 -0.1841
 9160SOL    HW138942   2.843   3.918   7.260  1.5139 -0.6900 -2.5113
 9160SOL    HW238943   2.820   3.812   7.364  1.9455  1.7952  0.6964
 9161SOL     OW38944   0.279   0.251   2.098  0.5456 -0.2798 -0.2064
 9161SOL    HW138945   0.245   0.169   2.132  0.4366  0.1968  0.8316
 9161SOL    HW238946   0.312   0.226   2.012  1.0864  1.1867 -0.4223
 9162SOL     OW38947   4.106   1.134   6.823 -0.1356  0.3204  0.3823
 9162SOL    HW138948   4.127   1.205   6.883 -2.3485  0.8656  0.5194
 9162SOL    HW238949   4.047   1.186   6.769  0.9686  0.9718 -0.1944
 9163SOL     OW38950   3.422   4.160   5.435 -0.4293  0.0496 -0.0829
 9163SOL    HW138951   3.372   4.083   5.463 -0.5510  0.3364  0.4764
 9163SOL    HW238952   3.417   4.206   5.518 -2.4685 -0.0501 -0.1711
 9164SOL     OW38953   3.385   4.063   4.658 -0.2144 -0.5657 -0.8334
 9164SOL    HW138954   3.440   4.098   4.727 -2.5315  1.9676 -0.2755
 9164SOL    HW238955   3.411   3.971   4.664  1.4519  0.0449  1.0640
 9165SOL     OW38956   2.641   2.178   7.359 -0.4788 -0.1560  0.5812
 9165SOL    HW138957   2.725   2.132   7.352  0.8071  1.7725  3.5371
 9165SOL    HW238958   2.572   2.115   7.379 -0.7850  0.3013  0.9694
 9166SOL     OW38959   0.115   0.306   9.079 -0.1114 -0.0528 -0.0195
 9166SOL    HW138960   0.043   0.369   9.082  0.6012  0.7040  1.1256
 9166SOL    HW238961   0.182   0.352   9.130 -1.1046  1.2126  0.1362
 9167SOL     OW38962   3.137   4.508  11.224  0.0961 -0.3571 -0.3949
 9167SOL    HW138963   3.053   4.555  11.220 -0.0214 -0.5325  0.0713
 9167SOL    HW238964   3.176   4.549  11.301 -1.7381 -0.9132  0.8214
 9168SOL     OW38965   3.566   4.067   7.585  0.8355  0.2855  0.9287
 9168SOL    HW138966   3.614   4.007   7.642 -1.4007 -1.4004  1.0378
 9168SOL    HW238967   3.479   4.072   7.626  0.0203  1.2100 -0.9305
 9169SOL     OW38968   0.444   2.024  12.758 -0.2334 -0.0351  0.7076
 9169SOL    HW138969   0.500   2.086  12.711 -1.7248  1.9970  1.6035
 9169SOL    HW238970   0.483   1.943  12.725  0.3735  1.5228 -2.5082
 9170SOL     OW38971   4.687   1.363   3.765 -0.0843 -0.4043  0.1852
 9170SOL    HW138972   0.001   1.432   3.820 -0.9517  3.1235 -3.6285
 9170SOL    HW238973   4.602   1.407   3.754  0.1021 -0.3818 -1.0928
 9171SOL     OW38974   0.798   0.145   0.858  0.0910  0.0811  0.1681
 9171SOL    HW138975   0.753   0.210   0.911  0.2227  0.7309 -0.5185
 9171SOL    HW238976   0.824   0.197   0.782 -1.3060 -0.8369 -0.9420
 9172SOL     OW38977   2.310   1.083   7.545 -0.4735  0.0991  0.1150
 9172SOL    HW138978   2.226   1.095   7.590 -0.2559 -1.4236  0.9162
 9172SOL    HW238979   2.341   1.004   7.588 -1.0458 -0.1538  0.0691
 9173SOL     OW38980   3.153   2.274  10.195 -0.2169  0.3313  0.3354
 9173SOL    HW138981   3.085   2.340  10.208  0.5996  1.7665 -2.8727
 9173SOL    HW238982   3.104   2.201  10.157 -0.6806  0.1227  1.3289
 9174SOL     OW38983   0.753   1.410   3.147  0.2010  0.5032 -0.2971
 9174SOL    HW138984   0.692   1.345   3.183 -0.7424  0.9330 -1.1246
 9174SOL    HW238985   0.811   1.345   3.106 -1.2850  0.3874 -2.1908
 9175SOL     OW38986   3.577   1.940   1.311 -0.0917 -0.6119 -0.2551
 9175SOL    HW138987   3.599   1.921   1.402  0.2908  0.8553 -0.0387
 9175SOL    HW238988   3.606   2.031   1.299 -0.0170 -0.3607  1.7320
 9176SOL     OW38989   0.870   3.944   4.665  0.1925  0.2257 -0.3461
 9176SOL    HW138990   0.916   3.892   4.599  0.6883  0.0582  0.1286
 9176SOL    HW238991   0.896   3.891   4.741 -2.0505 -0.4592 -0.0559
 9177SOL     OW38992   3.305   3.839  10.445  0.1690 -0.0056  0.2033
 9177SOL    HW138993   3.234   3.819  10.383 -1.2842  2.0251  1.2144
 9177SOL    HW238994   3.298   3.770  10.512  0.3099 -0.7375 -0.5270
 9178SOL     OW38995   3.894   2.896   7.561 -0.1692  0.8275 -0.4340
 9178SOL    HW138996   3.855   2.810   7.576  0.5254  0.4217 -0.9256
 9178SOL    HW238997   3.810   2.935   7.538 -0.6698  0.0406  0.0540
 9179SOL     OW38998   3.059   2.575  13.582 -0.3222  0.4166  0.4797
 9179SOL    HW138999   3.046   2.517  13.508 -0.9809  1.8701 -0.5297
 9179SOL    HW239000   3.142   2.613  13.552 -1.2114  2.5214  0.7223
 9180SOL     OW39001   1.210   3.088   1.296 -0.1235  0.0962 -0.6383
 9180SOL    HW139002   1.156   3.063   1.371  1.3359 -1.9661 -0.2883
 9180SOL    HW239003   1.169   3.170   1.271 -1.1249 -0.2613 -0.1653
 9181SOL     OW39004   1.839   2.104   3.016 -0.3435 -0.5027 -0.5997
 9181SOL    HW139005   1.885   2.020   3.024 -0.5216 -0.5540 -0.0906
 9181SOL    HW239006   1.762   2.090   2.961 -2.1590  2.3156  1.2322
 9182SOL     OW39007   0.667   3.463  12.052  0.2430  1.2049  0.0208
 9182SOL    HW139008   0.754   3.489  12.019  0.3488  1.5107  0.5370
 9182SOL    HW239009   0.650   3.534  12.114 -2.0773  0.3055  0.3854
 9183SOL     OW39010   2.201   2.260   4.817 -0.1488  0.2140  0.7611
 9183SOL    HW139011   2.157   2.345   4.808 -0.1629  0.1575  0.2504
 9183SOL    HW239012   2.279   2.268   4.762 -0.7345  1.7118  0.1392
 9184SOL     OW39013   0.407   4.016   3.926  0.1681 -0.0810  0.2242
 9184SOL    HW139014   0.335   4.070   3.892  1.2161 -0.0495 -1.9743
 9184SOL    HW239015   0.396   3.927   3.891  1.4756  0.2258 -0.9642
 9185SOL     OW39016   0.602   2.047   4.600 -0.3870 -0.2160 -0.5753
 9185SOL    HW139017   0.629   2.033   4.510  0.9874 -0.0918 -0.1782
 9185SOL    HW239018   0.608   2.141   4.619  0.2180 -0.3249 -0.2241
 9186SOL     OW39019   2.294   4.409   4.298 -0.3903 -0.1633  0.0682
 9186SOL    HW139020   2.224   4.473   4.316  0.6901  1.3988 -1.2917
 9186SOL    HW239021   2.351   4.446   4.231  0.7188 -0.2284  0.9784
 9187SOL     OW39022   3.779   4.437   6.415  0.8941 -0.3886  0.0990
 9187SOL    HW139023   3.724   4.502   6.371 -0.2542 -1.5501 -0.1766
 9187SOL    HW239024   3.853   4.440   6.354 -1.0154  4.9296 -1.9545
 9188SOL     OW39025   2.610   1.119   1.055  0.7750  0.2844  0.2971
 9188SOL    HW139026   2.581   1.032   1.083  1.1111 -0.6537 -2.2266
 9188SOL    HW239027   2.546   1.136   0.986  0.0426 -1.3995  0.5619
 9189SOL     OW39028   4.158   3.448  13.462  0.2307  0.3721  0.4858
 9189SOL    HW139029   4.164   3.358  13.430 -1.2990  0.3964  0.1000
 9189SOL    HW239030   4.172   3.500  13.383  1.2891 -2.7733 -1.3622
 9190SOL     OW39031   1.083   3.052  13.912 -0.0862 -0.4359 -0.6052
 9190SOL    HW139032   1.018   3.036  13.981 -0.0518 -0.4493 -0.5753
 9190SOL    HW239033   1.047   3.112  13.847 -2.0033 -0.1383  0.7301
 9191SOL     OW39034   0.895   4.147  17.589  0.3660  0.5420  0.5239
 9191SOL    HW139035   0.933   4.201  17.658 -1.4468  1.0389  1.1361
 9191SOL    HW239036   0.800   4.156  17.602  0.5625  0.2413  2.2101
 9192SOL     OW39037   4.701   4.195  12.812 -0.3063 -0.3022 -0.1149
 9192SOL    HW139038   4.652   4.125  12.769  1.3636 -1.1458 -0.6454
 9192SOL    HW239039   0.015   4.137  12.879  0.1728 -1.4866 -1.4298
 9193SOL     OW39040   0.859   3.484   9.545  0.5462  0.5138 -0.7518
 9193SOL    HW139041   0.852   3.571   9.585 -0.9565 -0.0093  0.1045
 9193SOL    HW239042   0.849   3.428   9.622 -1.2668 -1.7261 -2.6364
 9194SOL     OW39043   0.288   0.250   7.323  0.1854  0.2438  0.1284
 9194SOL    HW139044   0.269   0.172   7.374  1.1355  1.3377  2.1526
 9194SOL    HW239045   0.290   0.223   7.231  0.9818  0.9814 -0.0800
 9195SOL     OW39046   1.124   3.193   6.323 -0.9075 -0.3747 -0.1749
 9195SOL    HW139047   1.189   3.232   6.264 -1.2233 -1.9699 -1.5758
 9195SOL    HW239048   1.105   3.113   6.273 -0.9454 -0.2415 -0.3745
 9196SOL     OW39049   2.532   1.281   2.624 -0.2446  0.3583  0.7184
 9196SOL    HW139050   2.474   1.335   2.571  1.3163  0.2536 -1.0946
 9196SOL    HW239051   2.490   1.283   2.710 -0.2339 -1.2160  0.7702
 9197SOL     OW39052   1.433   4.495  10.451 -0.2791  0.2017 -0.0470
 9197SOL    HW139053   1.399   4.572  10.406 -0.8931  1.6275  2.9085
 9197SOL    HW239054   1.499   4.534  10.508 -0.6311 -1.0626  1.2229
 9198SOL     OW39055   0.150   2.719   1.081  0.2577  0.3402  0.6113
 9198SOL    HW139056   0.104   2.789   1.128 -1.3226 -0.3498  0.0844
 9198SOL    HW239057   0.089   2.697   1.011  0.5672 -1.6420  0.9844
 9199SOL     OW39058   3.894   1.812   2.271 -0.1929  0.4484 -0.2044
 9199SOL    HW139059   3.920   1.748   2.205  2.6038  1.2333  0.1462
 9199SOL    HW239060   3.976   1.856   2.292 -0.1411  0.5408 -0.6031
 9200SOL     OW39061   1.553   0.599   5.605  0.6885  0.4033  1.0102
 9200SOL    HW139062   1.480   0.582   5.664  0.5397 -0.5730  0.5303
 9200SOL    HW239063   1.515   0.659   5.541  0.2794 -1.1659 -0.1911
 9201SOL     OW39064   2.734   1.622   8.795  0.0434  0.8970  0.1649
 9201SOL    HW139065   2.824   1.614   8.826  0.0967 -1.7430 -0.6203
 9201SOL    HW239066   2.732   1.717   8.790 -0.8739  0.9428  1.2325
 9202SOL     OW39067   3.435   1.925  12.552  0.1895  0.0864 -0.3549
 9202SOL    HW139068   3.460   2.016  12.535  1.6427  0.1146  2.0407
 9202SOL    HW239069   3.417   1.926  12.646 -0.2359 -0.9809 -0.4304
 9203SOL     OW39070   4.057   2.971   8.872  0.0396 -0.6890  0.6320
 9203SOL    HW139071   4.134   2.932   8.914  0.2476 -1.6753 -0.6866
 9203SOL    HW239072   3.985   2.938   8.926 -1.2265 -1.1380 -1.3412
 9204SOL     OW39073   0.328   0.325   6.883 -0.3407 -0.1408 -0.2831
 9204SOL    HW139074   0.247   0.303   6.837 -0.3082 -1.9956  0.5787
 9204SOL    HW239075   0.368   0.390   6.825  0.8433 -0.3789  0.2704
 9205SOL     OW39076   2.828   0.323  15.072 -0.3322 -0.0943  0.0268
 9205SOL    HW139077   2.744   0.343  15.114 -1.7925 -1.4956 -2.1584
 9205SOL    HW239078   2.801   0.368  14.992 -0.9171 -0.8046 -0.1766
 9206SOL     OW39079   2.029   1.387   0.818  0.0896 -0.0899  0.5775
 9206SOL    HW139080   2.062   1.361   0.904  1.4981  1.7952  0.6267
 9206SOL    HW239081   2.103   1.362   0.763 -1.4006  1.4400 -2.1208
 9207SOL     OW39082   4.277   3.384   3.876  0.2807 -0.6922  0.1968
 9207SOL    HW139083   4.357   3.409   3.829 -0.1510 -0.7782 -0.5953
 9207SOL    HW239084   4.304   3.405   3.965 -1.6456 -1.4384  0.9493
 9208SOL     OW39085   3.856   2.298   7.321 -0.2955 -0.3054 -0.3772
 9208SOL    HW139086   3.775   2.344   7.301 -0.5030 -0.3293  0.4107
 9208SOL    HW239087   3.880   2.354   7.395 -1.9398  0.3241 -0.3253
 9209SOL     OW39088   1.697   1.086   6.746  0.3980 -0.2552 -0.3219
 9209SOL    HW139089   1.615   1.053   6.709  0.2567 -1.4181  0.9997
 9209SOL    HW239090   1.670   1.087   6.838  0.4714 -2.6425 -0.2984
 9210SOL     OW39091   1.337   0.491   7.685  0.6084  0.3095 -0.3131
 9210SOL    HW139092   1.248   0.525   7.679  0.3936  0.6271  4.8201
 9210SOL    HW239093   1.321   0.410   7.735 -1.0173 -1.1342 -3.1894
 9211SOL     OW39094   2.155   3.276   6.336 -0.2833 -0.5052 -0.5230
 9211SOL    HW139095   2.232   3.296   6.390 -2.0092  1.2732  1.2590
 9211SOL    HW239096   2.140   3.184   6.359  0.0592 -0.3803  0.2085
 9212SOL     OW39097   3.196   1.668   4.009 -0.2362 -0.1758  0.1465
 9212SOL    HW139098   3.176   1.742   4.067  0.4815  0.7000 -0.7214
 9212SOL    HW239099   3.122   1.612   4.033 -0.9777  0.7144 -0.0553
 9213SOL     OW39100   3.917   3.460   8.126  0.7475  1.1123  0.5090
 9213SOL    HW139101   3.830   3.434   8.097  1.7855  0.2817 -1.9281
 9213SOL    HW239102   3.915   3.532   8.189  0.5350  1.5968 -0.0534
 9214SOL     OW39103   3.707   3.052   8.250 -0.3704  0.6766 -0.0015
 9214SOL    HW139104   3.725   3.109   8.324 -0.7808 -0.4685  0.9866
 9214SOL    HW239105   3.744   2.972   8.287 -1.7139 -0.7855 -1.7442
 9215SOL     OW39106   4.629   1.456   4.832  0.2139  0.6007  0.8137
 9215SOL    HW139107   4.678   1.509   4.770  1.5075 -1.3081  0.2046
 9215SOL    HW239108   4.588   1.396   4.769  0.7954 -0.6932  1.6474
 9216SOL     OW39109   1.658   1.058   5.285 -0.3108  0.2723  0.3252
 9216SOL    HW139110   1.635   1.080   5.194  0.1952 -0.0881  0.1094
 9216SOL    HW239111   1.702   1.137   5.317  0.5256  0.4244 -1.1937
 9217SOL     OW39112   2.060   4.397   6.413 -0.8602  0.0805  0.0392
 9217SOL    HW139113   2.095   4.320   6.457 -0.8981 -0.9558 -1.7393
 9217SOL    HW239114   2.140   4.429   6.370 -1.6644  1.1606 -0.6865
 9218SOL     OW39115   3.693   2.204   6.269 -0.2361  0.0699  0.9387
 9218SOL    HW139116   3.673   2.297   6.257 -2.5581 -0.7301 -1.4648
 9218SOL    HW239117   3.704   2.164   6.183  0.8802  0.3506  0.9596
 9219SOL     OW39118   1.101   2.369  14.847  0.5424 -0.6501  0.3440
 9219SOL    HW139119   1.051   2.437  14.891  1.2281 -0.3199  0.6144
 9219SOL    HW239120   1.174   2.419  14.809 -0.6301 -1.4534 -2.9419
 9220SOL     OW39121   1.062   2.240   2.303 -0.5066  0.3511  0.6431
 9220SOL    HW139122   1.130   2.289   2.348  1.3926 -1.1250 -0.5752
 9220SOL    HW239123   1.039   2.298   2.230 -0.3039 -0.9774 -0.4981
 9221SOL     OW39124   0.460   4.202   2.075  0.4767 -0.4210  0.0849
 9221SOL    HW139125   0.394   4.172   2.013  0.4024  0.2424 -0.1650
 9221SOL    HW239126   0.511   4.124   2.095  1.0696 -0.3013 -0.9135
 9222SOL     OW39127   0.819   3.858   3.808  0.1760 -0.5518  0.5802
 9222SOL    HW139128   0.764   3.927   3.771  0.3084 -0.3506  0.7601
 9222SOL    HW239129   0.805   3.790   3.741 -0.3535 -0.6434  0.7878
 9223SOL     OW39130   3.487   1.647   6.062  0.1282 -0.2066  0.1241
 9223SOL    HW139131   3.417   1.697   6.104 -0.3216 -0.6005 -0.1616
 9223SOL    HW239132   3.540   1.628   6.140  1.3438  0.0192 -0.6422
 9224SOL     OW39133   1.269   0.069   5.986  0.1561  0.1562 -0.0262
 9224SOL    HW139134   1.181   0.102   6.005  0.2758 -0.1429  1.0882
 9224SOL    HW239135   1.292   0.022   6.067  1.0774  0.3891 -0.1491
 9225SOL     OW39136   1.547   0.670   3.494 -0.2425 -0.2548 -0.1615
 9225SOL    HW139137   1.537   0.764   3.481  0.9973 -0.3959 -2.0631
 9225SOL    HW239138   1.514   0.641   3.409 -1.5637  2.2642 -0.5113
 9226SOL     OW39139   0.793   1.966   6.779 -0.3888  0.0160 -0.1203
 9226SOL    HW139140   0.713   1.931   6.819 -0.7096  0.0921 -0.6967
 9226SOL    HW239141   0.846   1.987   6.856 -0.9197 -0.6113  0.4204
 9227SOL     OW39142   2.047   2.066  11.134 -0.1717 -0.1773 -0.6621
 9227SOL    HW139143   1.986   2.113  11.191  0.2841  1.1108 -1.2357
 9227SOL    HW239144   2.061   1.996  11.198  3.7804  1.1824 -0.1018
 9228SOL     OW39145   0.667   4.672   6.067 -0.3299 -0.2094 -0.0656
 9228SOL    HW139146   0.721   0.018   6.106  1.8514 -0.9468 -1.8302
 9228SOL    HW239147   0.581   4.703   6.096  0.1053  2.3664 -1.5431
 9229SOL     OW39148   3.487   3.126   2.667 -0.1717 -0.1174 -0.3370
 9229SOL    HW139149   3.450   3.195   2.722 -0.1447 -0.6627  0.3713
 9229SOL    HW239150   3.576   3.113   2.701 -0.7040 -0.5281  0.9079
 9230SOL     OW39151   4.172   2.169  11.184  0.1368 -0.7872  0.0266
 9230SOL    HW139152   4.224   2.113  11.241 -0.6859 -1.5276  0.0472
 9230SOL    HW239153   4.100   2.196  11.240  0.0084  2.6255 -1.7761
 9231SOL     OW39154   0.037   0.936   2.629 -0.5481  0.1434 -0.5642
 9231SOL    HW139155   4.696   0.940   2.558  1.5505  0.9301 -2.4137
 9231SOL    HW239156   0.113   0.901   2.582  0.3233  0.3504  0.6997
 9232SOL     OW39157   0.172   0.719  16.723  0.4574  0.2159 -0.1636
 9232SOL    HW139158   0.254   0.706  16.674  1.0260 -0.4797  0.9538
 9232SOL    HW239159   0.205   0.752  16.807 -4.5344  0.7652  1.5562
 9233SOL     OW39160   2.128   3.635   6.536  0.0435  0.2722 -0.4641
 9233SOL    HW139161   2.195   3.573   6.563 -1.1082 -1.2548 -1.0782
 9233SOL    HW239162   2.060   3.571   6.515 -0.2326  0.5741 -0.4879
 9234SOL     OW39163   3.872   0.313   3.982  0.6745 -0.1726  0.5913
 9234SOL    HW139164   3.925   0.292   3.905 -1.0755 -2.4895 -0.0001
 9234SOL    HW239165   3.817   0.236   3.993 -0.1690  0.2833 -0.4505
 9235SOL     OW39166   0.050   2.438  11.270 -0.8483  0.7916 -0.2448
 9235SOL    HW139167   0.144   2.417  11.272 -1.2516 -1.0499 -0.3845
 9235SOL    HW239168   0.050   2.524  11.312 -1.5426 -0.6778  2.7318
 9236SOL     OW39169   4.240   2.547   8.952  0.0869  0.8443 -0.5215
 9236SOL    HW139170   4.304   2.519   9.017 -0.7181 -0.3080 -0.2187
 9236SOL    HW239171   4.276   2.524   8.867 -0.0883  0.4556 -0.4905
 9237SOL     OW39172   1.368   3.551   2.116 -0.0771 -0.2018  0.0736
 9237SOL    HW139173   1.434   3.485   2.137 -0.7645  0.1217  3.3805
 9237SOL    HW239174   1.317   3.513   2.045 -3.1632  1.4577  1.4011
 9238SOL     OW39175   1.726   4.248  14.208 -0.1482 -0.4255  0.3919
 9238SOL    HW139176   1.745   4.318  14.270  3.2619 -0.3483 -0.7645
 9238SOL    HW239177   1.809   4.228  14.165 -0.1527  1.7228 -0.6215
 9239SOL     OW39178   0.758   0.344   8.390 -0.5106  0.5152 -0.2939
 9239SOL    HW139179   0.775   0.437   8.384  3.2842 -0.0501  2.0889
 9239SOL    HW239180   0.814   0.314   8.461  0.2335  3.2910  0.2679
 9240SOL     OW39181   2.971   4.247  11.355 -0.0217  0.6921 -0.6305
 9240SOL    HW139182   3.038   4.299  11.310 -0.2370 -1.3573 -3.3537
 9240SOL    HW239183   2.898   4.305  11.332  1.4011  2.6229 -0.2699
 9241SOL     OW39184   0.341   2.283  12.719 -0.1842 -0.2153  0.6242
 9241SOL    HW139185   0.357   2.194  12.751 -0.1570 -0.5097 -0.2052
 9241SOL    HW239186   0.254   2.294  12.759 -0.5891  2.1078 -0.8866
 9242SOL     OW39187   0.834   1.657   2.003  0.2204  0.3059 -0.0480
 9242SOL    HW139188   0.797   1.742   1.978 -2.5215 -0.6752  0.6169
 9242SOL    HW239189   0.925   1.683   2.012  0.3911 -0.3260  0.0084
 9243SOL     OW39190   2.739   1.581   1.251 -0.0705  0.0221 -0.0369
 9243SOL    HW139191   2.683   1.533   1.312  0.3001  1.4677  1.4350
 9243SOL    HW239192   2.712   1.535   1.172 -0.0234 -0.0157 -0.0313
 9244SOL     OW39193   1.175   3.943  10.028 -0.0356  0.0279  0.3185
 9244SOL    HW139194   1.205   3.892   9.953 -0.4748 -0.9586  0.8247
 9244SOL    HW239195   1.128   3.886  10.088 -0.7829 -0.6884 -0.9441
 9245SOL     OW39196   0.630   3.637  12.253 -0.3011  0.3769  0.5291
 9245SOL    HW139197   0.568   3.704  12.282 -0.9408 -0.3385  0.8169
 9245SOL    HW239198   0.707   3.652  12.307 -0.2482  0.4790  0.4242
 9246SOL     OW39199   2.072   2.908   0.542 -0.2023  0.4449 -0.0102
 9246SOL    HW139200   2.158   2.867   0.553 -0.0389  1.3123  1.9324
 9246SOL    HW239201   2.020   2.856   0.603  0.5271  0.7190  0.8474
 9247SOL     OW39202   0.947   1.863   3.121 -0.1776 -0.0868 -0.2441
 9247SOL    HW139203   0.897   1.870   3.040 -1.7526 -0.9836  0.6348
 9247SOL    HW239204   1.006   1.790   3.101  2.3685  2.0115 -0.2920
 9248SOL     OW39205   3.092   3.568  10.320  0.1649  0.0954 -0.4586
 9248SOL    HW139206   3.150   3.543  10.393  1.0957 -1.3933 -1.6930
 9248SOL    HW239207   3.016   3.510  10.326 -1.2912  1.7985 -2.5018
 9249SOL     OW39208   0.161   3.115   2.621  0.1299 -0.0475  0.0490
 9249SOL    HW139209   0.175   3.085   2.531 -1.9420 -0.5237 -0.1279
 9249SOL    HW239210   0.140   3.208   2.610  1.3922  0.4044  1.4697
 9250SOL     OW39211   0.956   0.772   8.181 -0.0722 -0.5327  0.0879
 9250SOL    HW139212   1.008   0.850   8.200  0.9240 -1.0050 -0.6781
 9250SOL    HW239213   0.867   0.786   8.213 -0.6983  0.7875 -2.2429
 9251SOL     OW39214   2.467   0.007   7.245  0.3373 -0.2350  0.5982
 9251SOL    HW139215   2.415   0.067   7.300 -0.5347 -0.9365  0.5296
 9251SOL    HW239216   2.548   0.006   7.296 -0.5204  0.6095  2.0024
 9252SOL     OW39217   0.646   3.751  14.178  0.0105 -0.2634 -0.3670
 9252SOL    HW139218   0.740   3.735  14.171 -0.0426 -0.3662 -0.8397
 9252SOL    HW239219   0.643   3.694  14.255  0.7308  2.1576  1.4863
 9253SOL     OW39220   2.824   2.343   6.927 -0.3047 -0.2929  0.0910
 9253SOL    HW139221   2.744   2.310   6.968 -0.0616 -1.0815 -0.0654
 9253SOL    HW239222   2.875   2.262   6.924  0.1211 -0.0762  1.5083
 9254SOL     OW39223   1.262   1.811   8.045 -0.2847 -0.2759 -0.0885
 9254SOL    HW139224   1.196   1.856   8.096 -0.6320 -1.3642  0.4329
 9254SOL    HW239225   1.233   1.821   7.954  1.3631 -2.0649 -0.8304
 9255SOL     OW39226   1.081   3.547   1.493  0.4081 -0.0495  0.0416
 9255SOL    HW139227   1.025   3.552   1.415 -0.7128  0.5312  0.8745
 9255SOL    HW239228   1.021   3.565   1.565 -0.5685 -0.5750 -0.6423
 9256SOL     OW39229   3.390   1.435   6.256 -0.1538 -0.6251  0.3856
 9256SOL    HW139230   3.397   1.446   6.351  1.6436  0.0925  0.1645
 9256SOL    HW239231   3.353   1.516   6.222  0.5833 -0.8167 -0.8621
 9257SOL     OW39232   4.581   0.509   0.333  0.7643 -0.6441  0.0434
 9257SOL    HW139233   4.540   0.446   0.393 -1.3931 -0.4960 -1.2749
 9257SOL    HW239234   4.526   0.499   0.255  2.0357 -3.0301 -0.5429
 9258SOL     OW39235   3.966   4.029   6.988 -0.1328 -0.0934  0.4827
 9258SOL    HW139236   4.008   3.986   7.063  0.0674 -0.2476  0.2846
 9258SOL    HW239237   3.895   4.073   7.035  0.4298 -1.4391  2.6243
 9259SOL     OW39238   0.063   0.284   6.707  0.0124 -0.3846 -0.0367
 9259SOL    HW139239   4.718   0.352   6.709  2.7483  2.2897  0.7096
 9259SOL    HW239240   0.012   0.203   6.714 -0.9757  0.5990  4.5965
 9260SOL     OW39241   1.247   1.718   7.194  0.4469 -0.2100 -0.5033
 9260SOL    HW139242   1.245   1.622   7.200  3.2042 -0.2082  0.1614
 9260SOL    HW239243   1.325   1.748   7.239  1.4827 -0.6003 -2.0296
 9261SOL     OW39244   2.430   0.974   8.894  0.2103 -0.3233  0.2028
 9261SOL    HW139245   2.522   0.994   8.878  0.2927  0.1513  1.2453
 9261SOL    HW239246   2.391   1.044   8.841 -1.6377 -0.9713  0.7121
 9262SOL     OW39247   1.324   3.513   5.102  0.4801  0.1256 -0.1829
 9262SOL    HW139248   1.391   3.562   5.055  0.8334  0.2437  0.4494
 9262SOL    HW239249   1.272   3.579   5.148  2.0588  0.3628  1.2758
 9263SOL     OW39250   2.808   3.891  11.614 -0.0886  0.3241 -0.5189
 9263SOL    HW139251   2.842   3.926  11.697  0.5084 -1.2924 -0.0747
 9263SOL    HW239252   2.782   3.977  11.580 -2.9058  0.3321  1.5578
 9264SOL     OW39253   0.304   0.758   5.239 -0.3210 -0.1295 -0.2161
 9264SOL    HW139254   0.226   0.757   5.184  0.0219 -1.5256 -0.6849
 9264SOL    HW239255   0.354   0.687   5.198 -0.0834  1.6475 -3.0132
 9265SOL     OW39256   2.002   0.142  11.167 -0.2879  0.3100 -0.6283
 9265SOL    HW139257   2.070   0.149  11.233 -0.2019  0.9138 -0.7754
 9265SOL    HW239258   1.979   0.050  11.176  0.4879  0.1734 -0.0932
 9266SOL     OW39259   0.873   0.734   2.731  0.1960  0.1767  0.0036
 9266SOL    HW139260   0.946   0.694   2.683 -0.9139 -0.0341 -1.5322
 9266SOL    HW239261   0.826   0.783   2.664  0.1887 -0.2555 -0.3087
 9267SOL     OW39262   1.799   0.808   4.529  0.6903  0.1900  0.0412
 9267SOL    HW139263   1.785   0.790   4.436  0.9863  1.6705 -0.2857
 9267SOL    HW239264   1.812   0.717   4.555 -2.0142 -0.0915  0.4009
 9268SOL     OW39265   0.521   3.071   1.756  0.1446  0.4017  0.7682
 9268SOL    HW139266   0.469   3.070   1.676  1.9801 -1.7492 -0.4039
 9268SOL    HW239267   0.474   3.130   1.814  0.3651  0.2212  1.1340
 9269SOL     OW39268   1.666   1.544   4.246 -0.1350  0.4388  0.2034
 9269SOL    HW139269   1.720   1.501   4.312 -0.1176  0.3693  0.1442
 9269SOL    HW239270   1.724   1.607   4.202 -0.7269 -0.5282 -1.9552
 9270SOL     OW39271   1.730   2.625   8.732  0.0927 -0.2686  0.0209
 9270SOL    HW139272   1.674   2.618   8.655  3.0197 -0.1316 -2.1425
 9270SOL    HW239273   1.819   2.607   8.701 -0.7480 -2.3215 -1.1538
 9271SOL     OW39274   4.166   1.607   5.246  0.2327 -0.1881 -0.0909
 9271SOL    HW139275   4.234   1.575   5.305 -0.3101  0.1677  0.7157
 9271SOL    HW239276   4.089   1.568   5.286  0.3847 -2.0876 -1.6188
 9272SOL     OW39277   4.355   1.994   6.806  0.5045 -0.7656  0.7326
 9272SOL    HW139278   4.313   2.050   6.871 -1.8361 -1.2547 -0.3378
 9272SOL    HW239279   4.395   1.938   6.873  2.7655 -2.2935 -1.8730
 9273SOL     OW39280   2.532   0.675  16.236  0.3036  0.4693  0.6737
 9273SOL    HW139281   2.441   0.680  16.209  0.5215  2.3219  0.2687
 9273SOL    HW239282   2.507   0.683  16.328  0.4466 -0.1638  0.7653
 9274SOL     OW39283   3.112   0.925   5.194 -0.6865 -0.1528  0.2038
 9274SOL    HW139284   3.097   0.833   5.171  0.5350 -0.4895  0.7814
 9274SOL    HW239285   3.184   0.918   5.257 -0.0092 -3.4677 -0.9419
 9275SOL     OW39286   4.164   1.285   7.038 -0.0933 -0.8561  0.4061
 9275SOL    HW139287   4.091   1.271   7.098  1.9863 -0.3876  3.0429
 9275SOL    HW239288   4.237   1.287   7.100 -0.1397 -1.2079  0.4723
 9276SOL     OW39289   3.632   3.565   2.660 -0.7567  0.1484  0.1773
 9276SOL    HW139290   3.624   3.563   2.565  1.0249 -1.9341  0.0813
 9276SOL    HW239291   3.720   3.602   2.668 -0.6878 -0.3283  1.5915
 9277SOL     OW39292   4.220   0.325   6.835  0.4747 -0.1139 -0.4813
 9277SOL    HW139293   4.128   0.309   6.858  0.9087 -1.4006  0.3631
 9277SOL    HW239294   4.227   0.321   6.740 -0.4924 -0.9729 -0.5144
 9278SOL     OW39295   2.113   1.503   2.698 -0.1493 -0.5481  0.2770
 9278SOL    HW139296   2.126   1.530   2.789 -1.5928  0.6006  0.1477
 9278SOL    HW239297   2.149   1.415   2.698  2.1020  0.3760  0.0193
 9279SOL     OW39298   1.426   4.634   2.991  0.6425 -0.0091 -0.0508
 9279SOL    HW139299   1.387   4.589   3.067 -0.2410  1.3133  0.2693
 9279SOL    HW239300   1.413   4.722   3.027 -0.6516 -1.1399  2.2785
 9280SOL     OW39301   2.624   3.460   8.175  0.0988  0.0968 -0.0185
 9280SOL    HW139302   2.643   3.394   8.242  0.5085  0.8990  0.6558
 9280SOL    HW239303   2.702   3.458   8.120 -1.0638 -0.2897 -1.6436
 9281SOL     OW39304   2.860   4.525   4.138  0.0071 -0.0644 -0.1021
 9281SOL    HW139305   2.877   4.518   4.044  0.1855 -0.1794 -0.0614
 9281SOL    HW239306   2.798   4.453   4.151 -3.1449  2.9508  1.4074
 9282SOL     OW39307   3.524   4.465   5.560  0.2122  0.0912  0.0959
 9282SOL    HW139308   3.612   4.427   5.561 -0.1178 -0.6129  2.0390
 9282SOL    HW239309   3.477   4.387   5.587  0.1445  0.8178  2.0634
 9283SOL     OW39310   1.876   4.044   7.064 -0.0896 -0.0623  0.2014
 9283SOL    HW139311   1.907   4.078   7.148 -1.0088  0.2044  0.4405
 9283SOL    HW239312   1.786   4.076   7.066 -0.0229  0.2552 -1.6647
 9284SOL     OW39313   1.714   4.546   9.251  0.1556  0.2856 -0.0930
 9284SOL    HW139314   1.728   4.612   9.182 -1.7150 -0.9637 -1.6725
 9284SOL    HW239315   1.802   4.526   9.283  0.4814 -0.5744 -1.5056
 9285SOL     OW39316   4.346   4.427   7.597  0.3266  0.0825  0.2327
 9285SOL    HW139317   4.290   4.350   7.605 -0.4344  0.6169  0.1004
 9285SOL    HW239318   4.426   4.381   7.574  1.2978  1.6851  0.3963
 9286SOL     OW39319   2.933   0.687  15.861  0.4113  0.3085 -0.5611
 9286SOL    HW139320   2.846   0.685  15.901  0.6170  0.2219 -0.1135
 9286SOL    HW239321   2.985   0.656  15.935  0.3908 -0.8205 -1.0239
 9287SOL     OW39322   3.045   3.275   4.783 -0.5969  0.1802 -1.0124
 9287SOL    HW139323   2.992   3.258   4.861  0.5600  1.5076  0.0434
 9287SOL    HW239324   3.020   3.199   4.729 -2.5440  1.7742 -2.3853
 9288SOL     OW39325   3.114   4.232   4.453 -0.0933 -0.4500  0.5806
 9288SOL    HW139326   3.076   4.194   4.533  0.0654 -0.8766  0.4573
 9288SOL    HW239327   3.092   4.324   4.458  2.5280  0.3311 -2.3958
 9289SOL     OW39328   3.373   2.560   7.485 -0.3176  0.5100 -0.0931
 9289SOL    HW139329   3.422   2.633   7.446 -0.6341  0.5554 -0.3977
 9289SOL    HW239330   3.308   2.534   7.420 -1.5007 -2.5210  2.2693
 9290SOL     OW39331   2.091   4.078   1.435  0.3791 -0.1186 -0.7499
 9290SOL    HW139332   2.040   4.088   1.355  2.0843 -2.3056 -2.0945
 9290SOL    HW239333   2.068   3.988   1.458 -2.5796  0.2769 -2.1182
 9291SOL     OW39334   0.308   2.949   7.891 -0.0837 -0.3443  0.0051
 9291SOL    HW139335   0.284   2.863   7.856 -0.5560 -0.4698  0.6236
 9291SOL    HW239336   0.236   3.009   7.872 -0.0949 -1.1027 -2.3558
 9292SOL     OW39337   2.733   4.405  11.293  0.4214  0.3307 -0.3232
 9292SOL    HW139338   2.719   4.500  11.285 -0.0314  0.4210  1.6064
 9292SOL    HW239339   2.665   4.379  11.355  1.2966  1.5572  1.1513
 9293SOL     OW39340   1.318   2.607  12.972 -0.0775 -0.5698 -0.7517
 9293SOL    HW139341   1.380   2.542  13.003  0.9705 -0.0248 -1.6861
 9293SOL    HW239342   1.362   2.687  13.001 -1.3834 -0.9419  2.2542
 9294SOL     OW39343   0.108   4.191   6.694 -0.4541 -0.0903 -0.2275
 9294SOL    HW139344   0.063   4.140   6.627  2.0651 -1.4399 -0.9169
 9294SOL    HW239345   0.092   4.281   6.666 -0.2402 -0.0494 -0.2172
 9295SOL     OW39346   3.881   3.728  11.761  0.2457 -0.1154  0.3879
 9295SOL    HW139347   3.907   3.688  11.679 -1.3746 -1.1286  0.3804
 9295SOL    HW239348   3.852   3.818  11.744  0.7397  0.2145  1.2866
 9296SOL     OW39349   4.530   3.041   9.212  0.3681 -0.3644 -0.8640
 9296SOL    HW139350   4.457   2.981   9.203  0.6387 -0.9535  0.9728
 9296SOL    HW239351   4.490   3.123   9.183 -0.6484  0.7010  3.5920
 9297SOL     OW39352   1.349   4.440  13.473  0.0752 -0.1728 -0.4330
 9297SOL    HW139353   1.299   4.373  13.519  1.1264  0.0651  1.0784
 9297SOL    HW239354   1.433   4.449  13.518  0.5205 -0.2601 -1.2429
 9298SOL     OW39355   1.942   3.936   0.639  0.4448 -0.6581 -0.8549
 9298SOL    HW139356   1.999   3.956   0.564  0.5861 -1.3125 -0.9177
 9298SOL    HW239357   1.860   3.916   0.593  0.2962  0.3946 -1.0556
 9299SOL     OW39358   2.525   3.178  13.000 -0.7107 -0.5953 -0.2336
 9299SOL    HW139359   2.585   3.211  12.933 -0.6874 -0.3972 -0.1152
 9299SOL    HW239360   2.442   3.212  12.967 -0.8165 -0.6668 -0.0416
 9300SOL     OW39361   2.582   4.562   4.573  0.5022  0.4083  0.1872
 9300SOL    HW139362   2.567   4.569   4.478 -0.2093 -1.8618  0.1066
 9300SOL    HW239363   2.496   4.594   4.599 -1.6139 -3.5490 -1.8373
 9301SOL     OW39364   1.295   0.247   7.831  0.3679 -0.2071  0.2515
 9301SOL    HW139365   1.249   0.165   7.813 -1.2074  0.7420 -0.0928
 9301SOL    HW239366   1.389   0.230   7.828  0.1218 -1.0291 -2.2362
 9302SOL     OW39367   0.899   1.858  14.201 -0.0084  0.6179 -0.5372
 9302SOL    HW139368   0.886   1.816  14.116  1.0314 -2.0276  0.6429
 9302SOL    HW239369   0.813   1.845  14.241 -0.2820  1.7605 -0.7401
 9303SOL     OW39370   0.211   3.840   8.721 -0.2804  0.6268  0.4754
 9303SOL    HW139371   0.249   3.752   8.725  1.5458  1.2813 -1.9546
 9303SOL    HW239372   0.124   3.826   8.685 -0.5747 -2.0142  2.2981
 9304SOL     OW39373   2.351   4.323   9.254 -0.0592 -0.5230  0.0862
 9304SOL    HW139374   2.366   4.239   9.298  1.4693  0.0618  0.6382
 9304SOL    HW239375   2.439   4.359   9.254 -0.6648  0.9198  1.0369
 9305SOL     OW39376   4.186   4.037   3.348  0.0785  0.0163 -0.0396
 9305SOL    HW139377   4.254   4.071   3.291  1.1378 -0.7748  0.7470
 9305SOL    HW239378   4.125   4.006   3.281  1.1420  0.0046 -0.9889
 9306SOL     OW39379   4.047   2.911   2.748 -0.1204 -0.5255  0.2543
 9306SOL    HW139380   4.034   2.931   2.655 -1.3256  3.0016  1.1573
 9306SOL    HW239381   4.082   2.997   2.774 -2.8815  0.1419  1.8738
 9307SOL     OW39382   1.192   0.855   4.610 -0.0269 -0.2790  0.1762
 9307SOL    HW139383   1.258   0.923   4.605 -1.3633  0.9702 -0.2997
 9307SOL    HW239384   1.248   0.777   4.619 -0.7988 -0.8175  0.3253
 9308SOL     OW39385   1.701   3.094  17.280 -0.2228  0.2095  0.3750
 9308SOL    HW139386   1.692   3.190  17.275  0.2109  0.1135 -2.6300
 9308SOL    HW239387   1.727   3.086  17.371 -0.3601  0.4881  0.4404
 9309SOL     OW39388   3.922   3.259   4.851  0.0128  0.0115  0.0400
 9309SOL    HW139389   4.015   3.235   4.852  0.0884  0.3032  0.6247
 9309SOL    HW239390   3.883   3.176   4.878  0.3656  0.1184  0.9055
 9310SOL     OW39391   2.888   3.644   6.625 -0.2791 -0.0003 -0.6159
 9310SOL    HW139392   2.902   3.719   6.683  0.3235  0.2791 -1.1242
 9310SOL    HW239393   2.793   3.644   6.630 -0.1756 -0.6972  1.3599
 9311SOL     OW39394   1.855   4.333   3.061 -0.0202  0.1057  0.0187
 9311SOL    HW139395   1.781   4.393   3.055 -0.7108 -0.6598  1.0236
 9311SOL    HW239396   1.854   4.274   2.986  1.6651 -0.6587  0.5967
 9312SOL     OW39397   0.021   2.471  11.681 -0.4837  0.4622  0.0345
 9312SOL    HW139398   0.069   2.430  11.609 -2.2865 -0.4156 -0.6595
 9312SOL    HW239399   0.059   2.559  11.682 -0.0657  0.2819 -0.2466
 9313SOL     OW39400   1.744   1.213   8.881  0.0235 -0.3958 -0.0710
 9313SOL    HW139401   1.677   1.265   8.837  0.6640  1.0715  0.6706
 9313SOL    HW239402   1.816   1.221   8.818 -0.6655 -0.7806 -0.8894
 9314SOL     OW39403   2.894   4.620   2.859  0.0089  0.4648 -0.5294
 9314SOL    HW139404   2.821   4.663   2.902  1.5405  4.0569 -1.5064
 9314SOL    HW239405   2.910   4.655   2.771 -2.1057  0.8724 -0.7455
 9315SOL     OW39406   0.747   2.372   7.535  0.1282  0.0348  0.5400
 9315SOL    HW139407   0.694   2.319   7.476 -0.3107  0.9660  0.1087
 9315SOL    HW239408   0.830   2.348   7.493 -1.3804 -0.4980 -2.1120
 9316SOL     OW39409   1.851   2.261   6.903  0.3008 -0.0567  0.6623
 9316SOL    HW139410   1.863   2.253   6.809  0.0914 -0.0339  0.6318
 9316SOL    HW239411   1.937   2.292   6.929 -0.3275  1.7490  0.5995
 9317SOL     OW39412   1.850   1.336   1.775 -0.0904 -0.0010  0.3841
 9317SOL    HW139413   1.885   1.351   1.687  2.2672  0.9856  1.4803
 9317SOL    HW239414   1.805   1.418   1.794  0.9739  0.2514  1.7934
 9318SOL     OW39415   2.072   1.994   4.279 -0.1332 -0.2255 -0.2359
 9318SOL    HW139416   1.991   2.029   4.315 -0.3915 -0.9283 -0.1238
 9318SOL    HW239417   2.050   1.944   4.200  1.5022  1.2537 -1.6117
 9319SOL     OW39418   0.146   0.202   7.991 -0.5710 -0.2463 -0.4713
 9319SOL    HW139419   0.175   0.153   8.069 -0.8702  1.8635  0.9574
 9319SOL    HW239420   0.133   0.291   8.022 -0.6592 -0.4769  0.1654
 9320SOL     OW39421   0.411   3.862   6.844  0.5348 -0.3715 -0.9129
 9320SOL    HW139422   0.335   3.805   6.859  1.0860 -0.5692  1.1052
 9320SOL    HW239423   0.446   3.805   6.776 -0.0861  0.1147 -1.6463
 9321SOL     OW39424   4.429   1.650   8.610  0.3843 -0.1104 -0.1132
 9321SOL    HW139425   4.507   1.687   8.569 -1.1423  1.5607 -1.4890
 9321SOL    HW239426   4.470   1.602   8.682  2.1259  1.5138 -0.0271
 9322SOL     OW39427   3.555   2.997   1.581 -0.4154 -0.2464  0.8935
 9322SOL    HW139428   3.640   2.962   1.608 -1.0177 -0.6414  2.2810
 9322SOL    HW239429   3.517   2.938   1.517  0.7807  0.2811 -0.3073
 9323SOL     OW39430   4.645   3.621   5.328  0.1210  0.2608 -0.3501
 9323SOL    HW139431   4.717   3.561   5.349 -0.0414 -0.3145 -1.4675
 9323SOL    HW239432   4.681   3.704   5.358  0.1565  0.3924 -0.7678
 9324SOL     OW39433   0.106   0.748   6.373  0.5384 -0.3623 -0.2793
 9324SOL    HW139434   0.102   0.655   6.349 -1.1298  0.1869 -2.0159
 9324SOL    HW239435   0.185   0.785   6.335 -0.6867  1.0885 -1.4030
 9325SOL     OW39436   1.163   0.268  16.694  0.1474 -0.4564 -0.0171
 9325SOL    HW139437   1.246   0.248  16.738  0.4561 -2.2921 -1.4316
 9325SOL    HW239438   1.187   0.327  16.624 -2.5577  1.0541  0.3098
 9326SOL     OW39439   0.985   1.840  16.197  0.4623 -0.3665  0.0936
 9326SOL    HW139440   0.939   1.857  16.114  1.0827 -0.4967 -0.2740
 9326SOL    HW239441   1.066   1.883  16.171  0.8232 -0.0888  1.7130
 9327SOL     OW39442   1.999   3.434   2.648 -0.3224 -0.0029  0.3707
 9327SOL    HW139443   1.908   3.443   2.621  0.2998  0.1829 -1.7083
 9327SOL    HW239444   2.022   3.358   2.593 -1.4259 -0.1143  0.0553
 9328SOL     OW39445   3.778   2.783   1.410 -0.1285  0.0997 -0.3318
 9328SOL    HW139446   3.699   2.819   1.370 -0.6555 -0.9431 -0.2425
 9328SOL    HW239447   3.839   2.855   1.397 -1.7181  1.6171  0.6139
 9329SOL     OW39448   2.035   3.859   2.695 -0.2320 -0.2868  0.5884
 9329SOL    HW139449   2.080   3.775   2.683  0.8319  0.0258  2.4743
 9329SOL    HW239450   2.082   3.918   2.636 -0.4977 -0.4475  0.2164
 9330SOL     OW39451   1.826   3.991  14.088 -0.6232 -0.0870  0.5947
 9330SOL    HW139452   1.882   4.024  14.018 -3.1577  0.7891 -1.0107
 9330SOL    HW239453   1.892   3.957  14.149  0.5669 -0.3248 -0.8114
 9331SOL     OW39454   3.579   2.034   9.064  0.0575  0.0768 -0.2938
 9331SOL    HW139455   3.653   1.998   9.113 -0.8615 -0.8622  0.4036
 9331SOL    HW239456   3.595   2.128   9.062 -0.3759  0.1030 -1.9034
 9332SOL     OW39457   4.299   4.344  13.121 -0.0519 -0.7202  0.3104
 9332SOL    HW139458   4.301   4.322  13.028 -0.5853  1.8793 -0.2976
 9332SOL    HW239459   4.285   4.438  13.118 -1.7466 -0.9561  0.4829
 9333SOL     OW39460   2.593   3.984  12.214  0.4230  0.4356  0.4475
 9333SOL    HW139461   2.514   3.953  12.258  0.7652  0.4632  1.0759
 9333SOL    HW239462   2.559   4.073  12.223  0.1014  0.3114  0.4885
 9334SOL     OW39463   4.174   0.303   1.206  0.1266  0.5518  0.6557
 9334SOL    HW139464   4.166   0.212   1.235 -2.2440 -0.2635 -2.5059
 9334SOL    HW239465   4.107   0.308   1.138  1.6252  1.0025 -0.7900
 9335SOL     OW39466   4.650   2.154  11.839 -0.3904  0.8471 -0.1155
 9335SOL    HW139467   0.004   2.212  11.839 -0.8598  1.4749  0.1314
 9335SOL    HW239468   4.687   2.066  11.847 -0.8744  0.6452 -0.0895
 9336SOL     OW39469   0.375   1.626   3.016 -0.0864 -0.0254 -0.1096
 9336SOL    HW139470   0.375   1.674   2.934 -0.7581  1.7221  0.8971
 9336SOL    HW239471   0.468   1.619   3.036 -0.8207  0.8306  3.7300
 9337SOL     OW39472   4.374   2.459  13.767  0.4567 -0.2467  0.0709
 9337SOL    HW139473   4.410   2.533  13.816 -1.2909  1.6398 -1.4616
 9337SOL    HW239474   4.321   2.416  13.834  1.1809 -2.8577 -1.0353
 9338SOL     OW39475   1.536   1.392   5.471  0.1727 -0.1663  0.2061
 9338SOL    HW139476   1.529   1.335   5.395  2.6483  1.4262 -1.2191
 9338SOL    HW239477   1.612   1.450   5.460 -0.4442  0.6671  0.3144
 9339SOL     OW39478   0.243   1.011  13.129 -0.1431 -0.0770 -0.3809
 9339SOL    HW139479   0.186   0.978  13.059  0.6186  2.2558 -2.1096
 9339SOL    HW239480   0.275   0.930  13.168 -0.7904 -0.0823  0.1456
 9340SOL     OW39481   3.198   3.569  12.766 -0.1094  0.1215  0.1013
 9340SOL    HW139482   3.124   3.606  12.816  0.0353 -0.1426  0.5123
 9340SOL    HW239483   3.171   3.478  12.773 -2.1462  0.6448 -0.9476
 9341SOL     OW39484   1.044   1.515  16.830  0.4733  0.6590  0.1846
 9341SOL    HW139485   1.023   1.604  16.800 -1.5484  0.0132 -0.3214
 9341SOL    HW239486   1.118   1.537  16.887  0.9060 -0.9526  0.2527
 9342SOL     OW39487   1.744   4.001   6.778 -0.4108  0.3790  0.1777
 9342SOL    HW139488   1.800   4.018   6.702 -0.6977 -4.0996 -1.0610
 9342SOL    HW239489   1.661   4.035   6.746 -1.0800 -0.7374  0.7281
 9343SOL     OW39490   3.845   0.379   3.348 -0.6756 -0.8036  0.0387
 9343SOL    HW139491   3.823   0.440   3.278 -0.2600 -1.4310 -0.6463
 9343SOL    HW239492   3.808   0.302   3.303  1.7479 -0.8734 -1.8288
 9344SOL     OW39493   1.200   0.072   0.824  0.4692 -0.5452 -0.2988
 9344SOL    HW139494   1.289   0.037   0.823  0.5342 -0.3689 -0.6293
 9344SOL    HW239495   1.148   0.003   0.867 -0.1831  0.3855  0.4052
 9345SOL     OW39496   2.041   1.596   5.699  1.1183 -0.2725 -0.0423
 9345SOL    HW139497   2.128   1.558   5.713  0.7759 -1.4297 -1.0928
 9345SOL    HW239498   1.995   1.531   5.646 -1.2263  1.5717 -0.2938
 9346SOL     OW39499   2.634   0.027   4.855  0.5244 -0.7262 -0.2587
 9346SOL    HW139500   2.632   4.657   4.831  0.8226 -1.0029  0.7697
 9346SOL    HW239501   2.715   0.053   4.811 -0.0349  1.5534  0.0454
 9347SOL     OW39502   3.750   1.233   7.121 -0.0536 -0.0817 -0.3518
 9347SOL    HW139503   3.692   1.199   7.052  1.8829 -0.6546 -1.7086
 9347SOL    HW239504   3.777   1.144   7.145 -0.2669  0.3703  1.5262
 9348SOL     OW39505   0.688   2.839   8.525  0.8777 -0.1505  0.1232
 9348SOL    HW139506   0.758   2.877   8.579 -0.1703  1.6936  0.2031
 9348SOL    HW239507   0.657   2.765   8.577 -0.9425  1.8317  1.8901
 9349SOL     OW39508   1.183   0.005  11.341  0.6651 -0.2007 -0.2475
 9349SOL    HW139509   1.175   0.100  11.345  3.0763 -0.0198  0.4422
 9349SOL    HW239510   1.267   0.000  11.388  1.5899  2.0585 -1.6634
 9350SOL     OW39511   2.212   3.450   4.427 -0.2643 -0.0594 -0.1409
 9350SOL    HW139512   2.228   3.388   4.498 -0.1346  1.0259  0.7632
 9350SOL    HW239513   2.118   3.462   4.440 -0.2209  0.0705  0.0467
 9351SOL     OW39514   0.763   2.503   5.944  0.1173  0.2302 -0.6392
 9351SOL    HW139515   0.771   2.527   5.851  1.8878  3.5684  0.3461
 9351SOL    HW239516   0.731   2.413   5.939 -0.5692  0.2001  4.7487
 9352SOL     OW39517   2.976   2.136  11.329 -0.0741 -0.2392  0.4367
 9352SOL    HW139518   2.919   2.173  11.261 -0.1587  1.1978  1.2916
 9352SOL    HW239519   2.913   2.094  11.388  1.2105 -0.1362  1.8606
 9353SOL     OW39520   1.737   1.454  13.522  0.0644 -0.0252  0.7294
 9353SOL    HW139521   1.731   1.550  13.526 -0.4993 -0.0180 -0.2192
 9353SOL    HW239522   1.747   1.448  13.427  1.6330 -0.2996  0.9180
 9354SOL     OW39523   2.511   1.684   8.621 -0.2150 -0.3023 -0.8053
 9354SOL    HW139524   2.556   1.761   8.656 -0.1586 -1.4367  1.6413
 9354SOL    HW239525   2.583   1.623   8.635 -0.1361 -0.8408 -3.5913
 9355SOL     OW39526   1.155   0.720   8.700 -0.3237  0.0548  0.3512
 9355SOL    HW139527   1.213   0.748   8.629 -4.2108 -0.1059 -2.9322
 9355SOL    HW239528   1.111   0.643   8.662 -0.4041  0.5787 -0.6183
 9356SOL     OW39529   0.519   3.224   8.421 -0.3636  0.0928  0.3253
 9356SOL    HW139530   0.445   3.284   8.421 -1.4292 -1.2362  1.0673
 9356SOL    HW239531   0.538   3.219   8.327  0.5934  0.7557  0.4832
 9357SOL     OW39532   3.638   3.344   2.107 -0.6346  0.5082 -0.6857
 9357SOL    HW139533   3.623   3.301   2.022  0.4604  0.5597 -0.8974
 9357SOL    HW239534   3.662   3.433   2.083  1.4623  0.0725 -0.1998
 9358SOL     OW39535   0.659   0.882  13.355 -0.4949 -0.1244 -0.0528
 9358SOL    HW139536   0.722   0.929  13.301 -0.9544 -0.3356 -0.7686
 9358SOL    HW239537   0.683   0.789  13.352 -0.7756 -0.1465 -1.8063
 9359SOL     OW39538   0.674   0.852   8.282  0.5736  0.4905 -0.1550
 9359SOL    HW139539   0.710   0.874   8.368 -0.6329  0.8262  0.2704
 9359SOL    HW239540   0.596   0.907   8.279  0.6598  0.4491 -2.5872
 9360SOL     OW39541   1.754   0.093   7.175  0.2185 -0.3589  0.1871
 9360SOL    HW139542   1.716   0.081   7.088  1.8320 -2.2198 -0.2859
 9360SOL    HW239543   1.709   0.022   7.221  1.6454 -1.5474 -0.2189
 9361SOL     OW39544   2.107   3.354  12.635  0.0750 -0.1528  0.0368
 9361SOL    HW139545   2.152   3.414  12.575  1.2139 -0.4557  0.5779
 9361SOL    HW239546   2.174   3.333  12.700 -1.1241 -1.7530  0.7723
 9362SOL     OW39547   2.554   2.539   5.076 -0.5793 -0.0926 -0.2117
 9362SOL    HW139548   2.493   2.609   5.102  2.4696  2.5839 -0.2420
 9362SOL    HW239549   2.570   2.565   4.985 -0.9486  1.4030  0.1369
 9363SOL     OW39550   3.760   2.111  10.338 -0.3168  0.1325  0.0448
 9363SOL    HW139551   3.757   2.200  10.374  1.1551  0.3347 -0.3336
 9363SOL    HW239552   3.819   2.127  10.264  1.4377 -0.1781  1.3793
 9364SOL     OW39553   1.886   4.349   4.143  0.2237  1.1961 -0.1117
 9364SOL    HW139554   1.905   4.257   4.127 -1.1539  0.8927 -0.0042
 9364SOL    HW239555   1.944   4.388   4.077  1.6313  0.6327  0.8042
 9365SOL     OW39556   3.796   1.813   1.673  0.1294  0.0750 -0.1886
 9365SOL    HW139557   3.841   1.816   1.758 -2.6889  0.3105  1.3034
 9365SOL    HW239558   3.768   1.722   1.682 -0.8953  0.3697 -0.4760
 9366SOL     OW39559   1.211   2.880  16.307  0.1244 -0.2290  0.1480
 9366SOL    HW139560   1.236   2.972  16.302 -1.7118  0.3151  0.9098
 9366SOL    HW239561   1.120   2.884  16.277  0.1199 -0.7786  0.0901
 9367SOL     OW39562   0.904   1.210   3.003  0.1234 -0.2591 -0.2940
 9367SOL    HW139563   0.987   1.171   2.975 -0.6895 -1.2553 -1.3063
 9367SOL    HW239564   0.866   1.133   3.045 -0.4414 -1.1155 -2.3656
 9368SOL     OW39565   1.684   2.496   6.831 -0.1194  0.4158 -0.1799
 9368SOL    HW139566   1.718   2.513   6.743 -1.0441 -0.3188 -0.6716
 9368SOL    HW239567   1.710   2.406   6.851 -0.2513  0.8982  2.1854
 9369SOL     OW39568   0.251   2.721   9.123 -0.0849 -0.2121 -0.0135
 9369SOL    HW139569   0.311   2.747   9.193  0.1616  0.3301 -0.4299
 9369SOL    HW239570   0.181   2.786   9.127  0.6176  0.7637 -3.5117
 9370SOL     OW39571   1.824   2.078   8.451  0.7802 -0.0815  0.0091
 9370SOL    HW139572   1.800   2.160   8.494 -0.7868  0.4074 -1.7984
 9370SOL    HW239573   1.782   2.016   8.511  2.7232 -0.7303  0.6745
 9371SOL     OW39574   4.688   0.161   2.276 -0.2386  0.9928  0.5611
 9371SOL    HW139575   0.003   0.249   2.280  0.7960  0.6395 -1.5350
 9371SOL    HW239576   4.671   0.152   2.370 -1.6159 -0.8367  0.1326
 9372SOL     OW39577   1.349   3.991   6.093 -0.2091 -0.2772  0.0423
 9372SOL    HW139578   1.358   4.084   6.112  0.3294 -0.6575  1.6215
 9372SOL    HW239579   1.303   3.958   6.169 -0.0025  0.9914  0.7211
 9373SOL     OW39580   4.335   2.032   5.050  0.6675  0.0132 -0.2757
 9373SOL    HW139581   4.335   2.009   5.143 -0.9007  1.2011  0.0315
 9373SOL    HW239582   4.429   2.048   5.038  0.6749 -0.6246 -1.0263
 9374SOL     OW39583   2.185   3.373  14.307  0.2657  0.7982 -0.5266
 9374SOL    HW139584   2.154   3.362  14.217 -1.6548  0.8989  0.1314
 9374SOL    HW239585   2.124   3.436  14.345  0.9839  0.5390  1.0225
 9375SOL     OW39586   3.876   3.431   0.019  0.3982 -0.7170 -0.4082
 9375SOL    HW139587   3.838   3.519   0.023 -0.3934 -1.1833  2.6675
 9375SOL    HW239588   3.834   3.405  17.630 -0.6907  1.0618 -0.4348
 9376SOL     OW39589   1.450   3.790  13.101  0.2582  0.2830 -0.2470
 9376SOL    HW139590   1.482   3.823  13.017  2.1132 -1.4374 -0.2322
 9376SOL    HW239591   1.453   3.867  13.158  1.6372 -0.1692  0.2928
 9377SOL     OW39592   3.964   2.837   4.500 -0.3669  0.4161 -0.4252
 9377SOL    HW139593   3.885   2.790   4.526 -0.1831  0.7123  0.6788
 9377SOL    HW239594   3.957   2.818   4.407  1.0335 -1.3128 -0.1764
 9378SOL     OW39595   1.151   3.069   3.651  0.0328  0.0515  0.2313
 9378SOL    HW139596   1.097   3.043   3.726 -1.6941  1.0611 -0.6780
 9378SOL    HW239597   1.226   3.117   3.687 -0.8476  0.3539  1.6348
 9379SOL     OW39598   3.969   3.909   7.984 -0.0020 -0.0636 -0.4300
 9379SOL    HW139599   4.017   3.827   7.970  1.6554  0.7079  0.8258
 9379SOL    HW239600   4.034   3.978   7.993  0.1573 -0.2889  0.1343
 9380SOL     OW39601   3.997   0.133   0.809 -0.1073  0.3396 -0.0468
 9380SOL    HW139602   4.030   0.045   0.793 -0.0732  0.0840  1.4150
 9380SOL    HW239603   4.062   0.200   0.788  0.5677 -0.0765  0.7231
 9381SOL     OW39604   1.615   0.203   5.768 -0.2561 -0.3131 -0.1467
 9381SOL    HW139605   1.685   0.138   5.772  0.4765  0.6078  2.2150
 9381SOL    HW239606   1.571   0.204   5.853 -0.7700  1.3319 -0.4248
 9382SOL     OW39607   0.624   1.822  17.229  0.2299 -0.1487 -0.4265
 9382SOL    HW139608   0.681   1.774  17.169 -1.7101 -3.6646  0.5333
 9382SOL    HW239609   0.662   1.810  17.316 -1.5644  2.4900  0.7051
 9383SOL     OW39610   2.104   3.355  17.319 -0.1356 -0.2311  0.0853
 9383SOL    HW139611   2.109   3.450  17.311 -0.9177 -0.3202 -1.3652
 9383SOL    HW239612   2.092   3.344  17.414 -1.0689  0.1100  0.0092
 9384SOL     OW39613   3.863   3.932   1.915  0.6712 -0.0676 -0.8493
 9384SOL    HW139614   3.792   3.908   1.973  2.6816 -2.3236  0.7013
 9384SOL    HW239615   3.899   3.846   1.890  0.8140  0.3242 -1.9963
 9385SOL     OW39616   1.904   3.184  12.490  0.3897 -0.3906 -0.3680
 9385SOL    HW139617   1.976   3.229  12.534 -1.3262  1.3701  0.6582
 9385SOL    HW239618   1.888   3.229  12.408  1.8771  0.2348 -0.3109
 9386SOL     OW39619   2.861   1.913  14.054 -0.0711 -0.5235  0.4064
 9386SOL    HW139620   2.793   1.931  13.989 -0.1434  0.8808  0.8640
 9386SOL    HW239621   2.881   1.820  14.043 -2.8667 -0.9004 -1.5656
 9387SOL     OW39622   0.534   1.587   4.049 -0.2751  0.2817 -0.6719
 9387SOL    HW139623   0.601   1.534   4.005  1.4130  2.2431 -0.4812
 9387SOL    HW239624   0.515   1.542   4.131  1.9156 -1.0463 -0.8780
 9388SOL     OW39625   2.792   0.420   2.852 -0.0645  0.1347  0.4502
 9388SOL    HW139626   2.713   0.470   2.873 -1.0134 -2.0188  2.0306
 9388SOL    HW239627   2.754   0.373   2.778 -0.8456 -0.0329  0.9533
 9389SOL     OW39628   0.507   1.768  12.637 -0.2906 -0.6422 -0.0405
 9389SOL    HW139629   0.476   1.678  12.643  1.0265 -1.0355  0.9490
 9389SOL    HW239630   0.446   1.809  12.577  1.1041  1.0844 -0.2914
 9390SOL     OW39631   1.559   0.265   9.654 -0.6079  0.1619  0.3740
 9390SOL    HW139632   1.591   0.202   9.591 -0.2107  0.7192  0.0167
 9390SOL    HW239633   1.492   0.211   9.697 -0.6231 -0.4082 -0.3817
 9391SOL     OW39634   4.069   0.451   4.706 -0.1707 -0.4248  0.7096
 9391SOL    HW139635   4.079   0.458   4.611 -3.7398 -1.4963  0.2475
 9391SOL    HW239636   4.076   0.543   4.733  0.3153 -0.0843 -0.5798
 9392SOL     OW39637   3.886   4.463   4.537  0.2431 -0.2648 -0.0301
 9392SOL    HW139638   3.877   4.378   4.493  0.1235 -0.6774  0.7976
 9392SOL    HW239639   3.804   4.509   4.520 -0.2735  0.1913  3.7491
 9393SOL     OW39640   2.211   1.473   3.558 -0.1485  0.0363  0.1045
 9393SOL    HW139641   2.122   1.451   3.530 -0.3420  1.1713 -0.2140
 9393SOL    HW239642   2.258   1.475   3.475  0.9248 -0.2909  0.7032
 9394SOL     OW39643   2.927   3.740   8.054 -0.3101 -0.4439 -0.1884
 9394SOL    HW139644   3.014   3.753   8.092  0.1108  0.0360 -1.3343
 9394SOL    HW239645   2.889   3.823   8.025 -0.6276 -1.4779 -2.7359
 9395SOL     OW39646   2.942   3.669   5.705 -0.1647 -0.2090 -0.0548
 9395SOL    HW139647   2.971   3.752   5.743  1.6236 -0.5596 -0.6426
 9395SOL    HW239648   2.856   3.689   5.668 -1.4137 -0.5017  2.6595
 9396SOL     OW39649   0.705   3.667  10.026  0.2186  0.2251 -0.2441
 9396SOL    HW139650   0.766   3.639   9.958 -0.9535 -1.0227 -0.8017
 9396SOL    HW239651   0.675   3.753   9.997 -0.1609  0.7420  1.6965
 9397SOL     OW39652   3.302   3.391   4.802  0.5522 -0.0617 -0.2039
 9397SOL    HW139653   3.329   3.374   4.712  2.5472  0.2300  0.3512
 9397SOL    HW239654   3.210   3.363   4.801  0.1408  1.2931 -0.6419
 9398SOL     OW39655   4.145   3.443   6.401  0.2039 -0.2598  0.0592
 9398SOL    HW139656   4.221   3.462   6.346  0.1283 -0.0927  0.0109
 9398SOL    HW239657   4.121   3.358   6.365  0.7167 -0.9166  1.2729
 9399SOL     OW39658   4.501   1.127  15.743 -0.5168 -0.7766 -0.0797
 9399SOL    HW139659   4.492   1.054  15.804  0.3998 -1.6451 -0.9842
 9399SOL    HW239660   4.594   1.110  15.727 -0.1908  0.0434  0.9023
 9400SOL     OW39661   1.279   2.233   9.420 -1.0088 -0.2060 -0.7074
 9400SOL    HW139662   1.271   2.308   9.480  2.2548  0.4777 -1.1247
 9400SOL    HW239663   1.375   2.234   9.423 -1.0142  0.1700 -0.6879
 9401SOL     OW39664   2.625   3.735  12.501 -0.8371  0.5651  0.5693
 9401SOL    HW139665   2.703   3.770  12.458 -0.5559 -1.5278 -0.6458
 9401SOL    HW239666   2.635   3.778  12.585  1.8009  0.1425  0.4535
 9402SOL     OW39667   3.778   2.443  13.840 -0.1388  0.2138  0.4237
 9402SOL    HW139668   3.686   2.463  13.825  0.2583  1.5119 -0.3518
 9402SOL    HW239669   3.817   2.413  13.758  0.4505  1.0992  0.3732
 9403SOL     OW39670   4.314   3.988   0.877  0.0614  0.4713 -0.2956
 9403SOL    HW139671   4.382   4.011   0.813  1.8820 -2.3940  0.5818
 9403SOL    HW239672   4.369   4.001   0.954 -0.5054 -1.0236  0.3705
 9404SOL     OW39673   0.101   3.801   9.199 -0.2662 -1.0341 -0.2563
 9404SOL    HW139674   0.010   3.826   9.218 -0.4893 -1.1356 -1.2036
 9404SOL    HW239675   0.115   3.754   9.281 -0.7131 -2.5218 -1.0267
 9405SOL     OW39676   0.184   2.276  11.854 -0.1987  0.0773  0.0254
 9405SOL    HW139677   0.164   2.350  11.796 -0.3462 -1.6406 -2.0984
 9405SOL    HW239678   0.272   2.245  11.831  0.6600  2.2429  0.3757
 9406SOL     OW39679   0.916   2.200   3.459 -0.2776 -0.0815  0.0428
 9406SOL    HW139680   0.986   2.181   3.521 -0.4334  0.4928  0.4003
 9406SOL    HW239681   0.962   2.165   3.383  2.0211  1.7047  0.6190
 9407SOL     OW39682   3.285   3.633   6.555 -0.0439 -0.4086 -0.9011
 9407SOL    HW139683   3.196   3.601   6.539 -0.3445  0.4716 -0.9753
 9407SOL    HW239684   3.325   3.547   6.560 -0.0225 -0.3839 -0.6135
 9408SOL     OW39685   2.412   3.045   4.735 -0.6363 -0.0934 -0.1944
 9408SOL    HW139686   2.460   2.978   4.686 -2.1391 -0.4022 -1.2437
 9408SOL    HW239687   2.485   3.098   4.768 -0.7920 -0.0224  0.0326
 9409SOL     OW39688   0.027   1.725   7.711  0.3633 -0.2159  0.1033
 9409SOL    HW139689   4.684   1.775   7.663  0.3432  0.2459  0.6131
 9409SOL    HW239690   4.713   1.717   7.799 -3.3705 -3.6235 -1.7693
 9410SOL     OW39691   2.327   3.031   7.970  0.4615  0.8725 -0.2359
 9410SOL    HW139692   2.320   3.082   7.889 -0.6716 -0.2377 -0.8417
 9410SOL    HW239693   2.420   3.007   7.975  0.6064  1.8488  1.6171
 9411SOL     OW39694   0.172   2.618   6.786 -0.4202  0.0234 -0.5991
 9411SOL    HW139695   0.253   2.666   6.768 -0.6815 -0.1014 -2.1117
 9411SOL    HW239696   0.168   2.556   6.713 -1.1670  1.5092 -1.8201
 9412SOL     OW39697   1.389   3.533   8.954  0.4046 -0.7453  0.8468
 9412SOL    HW139698   1.341   3.528   9.037  0.5623 -0.0796  0.9790
 9412SOL    HW239699   1.442   3.455   8.969  0.1567 -1.3976 -1.7192
 9413SOL     OW39700   2.739   1.390   9.583 -0.4680 -0.0526 -0.3148
 9413SOL    HW139701   2.653   1.430   9.593 -0.3359  0.3282 -0.6920
 9413SOL    HW239702   2.772   1.414   9.669  0.4644 -1.7026 -0.2048
 9414SOL     OW39703   0.542   1.279   3.293  0.0682 -0.3624 -0.2160
 9414SOL    HW139704   0.521   1.358   3.343 -1.0744 -0.9159  0.1859
 9414SOL    HW239705   0.452   1.250   3.278 -0.6367  1.9936 -0.5994
 9415SOL     OW39706   3.394   2.485   4.510 -0.3761 -0.0554 -0.7675
 9415SOL    HW139707   3.363   2.564   4.465 -0.9267  1.9158  3.0228
 9415SOL    HW239708   3.455   2.519   4.576 -0.0637  0.9792 -1.5842
 9416SOL     OW39709   4.364   3.099   7.070 -0.4616 -0.4860 -0.1171
 9416SOL    HW139710   4.281   3.067   7.105 -0.8499  0.0207 -0.5955
 9416SOL    HW239711   4.364   3.054   6.986  1.2615 -1.2372  0.2788
 9417SOL     OW39712   3.210   1.742   1.705 -0.5859 -0.4503 -0.6000
 9417SOL    HW139713   3.226   1.810   1.770  1.5218 -2.6019  1.1034
 9417SOL    HW239714   3.235   1.665   1.756 -2.5258 -0.0191  1.0045
 9418SOL     OW39715   2.943   1.705   1.406  0.0142 -0.1976 -0.1137
 9418SOL    HW139716   2.861   1.686   1.360 -0.3884 -1.5964  1.1653
 9418SOL    HW239717   2.975   1.781   1.357 -0.3128  0.6754  1.0142
 9419SOL     OW39718   0.548   1.969   6.244  0.1841 -0.0879  0.4638
 9419SOL    HW139719   0.542   1.925   6.328 -1.3151  1.5668  1.2282
 9419SOL    HW239720   0.640   1.954   6.223  0.3812 -1.6165  2.4360
 9420SOL     OW39721   2.195   2.299   8.526  0.1394  0.0766  0.2839
 9420SOL    HW139722   2.238   2.217   8.549 -1.1451 -1.0438 -1.3100
 9420SOL    HW239723   2.142   2.273   8.451 -2.0957  0.6209  1.6637
 9421SOL     OW39724   4.186   0.400   7.371 -0.3845 -0.5800  0.3058
 9421SOL    HW139725   4.277   0.427   7.375 -0.7221  0.4670  1.1787
 9421SOL    HW239726   4.141   0.437   7.447  0.8224  1.6330 -0.0491
 9422SOL     OW39727   1.221   0.447   4.642  0.3358  0.4516  0.4933
 9422SOL    HW139728   1.289   0.511   4.622  1.0873 -0.4938  0.0451
 9422SOL    HW239729   1.173   0.451   4.559 -0.8104 -1.3074  1.0683
 9423SOL     OW39730   4.632   0.009   1.440  0.7177 -0.4191  0.3352
 9423SOL    HW139731   4.615   0.101   1.417 -2.0918 -1.2820 -1.1171
 9423SOL    HW239732   4.594   4.684   1.366  2.2856  0.2971 -0.9273
 9424SOL     OW39733   3.812   0.573  14.136 -0.6967  0.2947  0.1999
 9424SOL    HW139734   3.722   0.606  14.139 -1.3497 -1.4965  0.1377
 9424SOL    HW239735   3.854   0.659  14.136  1.5009 -0.7990  1.9121
 9425SOL     OW39736   4.338   1.915   2.294  0.0161 -0.1206 -0.1097
 9425SOL    HW139737   4.320   1.821   2.288  2.3089 -0.7246  2.2921
 9425SOL    HW239738   4.255   1.935   2.336 -0.3077 -2.4983  0.4221
 9426SOL     OW39739   1.800   4.382  11.103 -0.2322 -0.4627  0.3377
 9426SOL    HW139740   1.721   4.348  11.060  0.0682 -1.4548  0.5597
 9426SOL    HW239741   1.815   4.306  11.160  0.3844 -0.7609 -0.2302
 9427SOL     OW39742   1.687   3.737   7.445 -0.0590 -0.4778 -0.4512
 9427SOL    HW139743   1.693   3.667   7.509  0.6407  3.0262  3.3125
 9427SOL    HW239744   1.666   3.688   7.365 -0.0848 -2.6181  0.8766
 9428SOL     OW39745   2.871   1.678  14.464 -0.1937  0.3702  0.7068
 9428SOL    HW139746   2.815   1.647  14.535 -3.8303  4.8586 -0.1970
 9428SOL    HW239747   2.960   1.663  14.496 -0.0901  0.1606  0.3238
 9429SOL     OW39748   3.058   2.410   0.206  0.0346 -0.3912  0.0404
 9429SOL    HW139749   3.112   2.478   0.246  0.5204 -1.4810  1.2759
 9429SOL    HW239750   3.111   2.332   0.224 -1.4798 -1.1777  1.1407
 9430SOL     OW39751   4.588   3.292   3.215  0.1397  0.5936  0.0684
 9430SOL    HW139752   4.576   3.205   3.175  0.0857  0.0711  1.2222
 9430SOL    HW239753   4.604   3.350   3.141  1.4878  1.2681  0.8935
 9431SOL     OW39754   3.911   3.637   4.576  0.0392 -0.1516  0.2584
 9431SOL    HW139755   3.993   3.667   4.617 -0.4339 -1.2127  1.9817
 9431SOL    HW239756   3.945   3.615   4.489 -4.7656 -1.1193 -1.3620
 9432SOL     OW39757   0.203   4.672  14.906 -0.3017 -0.5731  0.2666
 9432SOL    HW139758   0.265   0.020  14.888 -0.3299 -0.7215 -0.4194
 9432SOL    HW239759   0.135   4.678  14.838 -0.9461 -2.1775  0.7711
 9433SOL     OW39760   2.914   0.086   3.889 -0.1057  0.1601  0.1243
 9433SOL    HW139761   2.998   0.072   3.932  0.3948 -0.7793 -1.1590
 9433SOL    HW239762   2.888   4.717   3.879 -1.1204  0.4184  0.4173
 9434SOL     OW39763   2.313   3.268   2.734  0.0739  0.2956  0.4878
 9434SOL    HW139764   2.272   3.344   2.777 -0.2430  2.0719 -2.9652
 9434SOL    HW239765   2.330   3.305   2.647 -0.0468  0.9814  0.7562
 9435SOL     OW39766   4.065   1.860   7.762  0.5413  0.0834 -0.1425
 9435SOL    HW139767   4.136   1.905   7.809 -0.6276  2.9615 -1.1518
 9435SOL    HW239768   4.111   1.851   7.679 -3.7929 -0.0887 -2.5179
 9436SOL     OW39769   1.885   3.922  11.603  0.3717 -0.1541  0.1934
 9436SOL    HW139770   1.953   3.933  11.537 -1.4313  1.9037 -1.3039
 9436SOL    HW239771   1.824   3.869  11.551 -0.1185  1.7567 -1.1595
 9437SOL     OW39772   0.116   0.717   8.555  0.8257 -0.5219  0.1786
 9437SOL    HW139773   0.082   0.766   8.630 -1.0858  1.7976 -2.2008
 9437SOL    HW239774   0.036   0.671   8.527 -0.1679  0.6382  1.1055
 9438SOL     OW39775   3.034   0.710   7.737 -0.0526  0.4306  0.1540
 9438SOL    HW139776   2.975   0.636   7.723 -1.4912  1.3930  1.1298
 9438SOL    HW239777   2.991   0.773   7.795  2.8199  1.4126  1.2374
 9439SOL     OW39778   3.884   1.758   2.841 -0.0113  0.2443 -0.4930
 9439SOL    HW139779   3.948   1.719   2.900 -1.4700 -0.4772  0.5989
 9439SOL    HW239780   3.816   1.691   2.842 -1.0046  1.2513  0.4089
 9440SOL     OW39781   1.265   4.200   4.254  0.2438 -0.7131  0.2503
 9440SOL    HW139782   1.230   4.278   4.211 -0.5949  0.0285  2.2790
 9440SOL    HW239783   1.357   4.203   4.228 -0.1705  1.9272 -0.9754
 9441SOL     OW39784   3.505   0.340   5.912  0.4635  0.3483  0.5465
 9441SOL    HW139785   3.585   0.385   5.939  2.5903 -2.0876 -1.6502
 9441SOL    HW239786   3.536   0.260   5.869 -0.2892  0.2530  0.1683
 9442SOL     OW39787   4.131   2.004  15.197  0.4609  0.1831 -0.2563
 9442SOL    HW139788   4.040   1.989  15.222  0.9881 -2.7799 -0.1803
 9442SOL    HW239789   4.132   1.980  15.104 -1.0161 -0.2739 -0.1498
 9443SOL     OW39790   3.402   1.381   1.551 -0.5042 -1.0208 -0.4200
 9443SOL    HW139791   3.385   1.293   1.584 -0.4551 -1.2645 -1.0414
 9443SOL    HW239792   3.312   1.414   1.550 -0.2649 -0.3691 -0.1236
 9444SOL     OW39793   0.526   1.334   8.935  0.3061 -0.1285 -0.2234
 9444SOL    HW139794   0.443   1.304   8.971  0.9710 -2.5526 -0.6642
 9444SOL    HW239795   0.487   1.396   8.874  0.0431  0.3947  0.4811
 9445SOL     OW39796   4.643   2.808   6.065 -0.6900 -0.3298 -0.6370
 9445SOL    HW139797   4.572   2.862   6.099  0.3869  1.5232 -1.3547
 9445SOL    HW239798   4.624   2.813   5.971 -0.8882  1.2057 -0.5064
 9446SOL     OW39799   4.542   4.666  13.359 -0.2084 -0.4051 -0.3310
 9446SOL    HW139800   4.449   4.652  13.376  0.1298 -2.4719 -0.1731
 9446SOL    HW239801   4.560   4.617  13.279 -1.1570 -0.2854 -0.6194
 9447SOL     OW39802   1.228   2.335   0.043  0.7554  0.3995 -0.5315
 9447SOL    HW139803   1.211   2.349  17.643  0.3245  2.3784 -0.1554
 9447SOL    HW239804   1.254   2.422   0.073 -0.1601  1.2929 -2.3421
 9448SOL     OW39805   3.277   1.649   5.420 -0.2461  0.1162  0.7841
 9448SOL    HW139806   3.205   1.712   5.413 -0.9789 -0.6892  1.1786
 9448SOL    HW239807   3.224   1.573   5.397 -0.6470  0.5456  0.2678
 9449SOL     OW39808   3.164   3.218   7.262 -0.9680  0.4598 -0.0128
 9449SOL    HW139809   3.231   3.287   7.257  0.9753 -1.4666 -0.6444
 9449SOL    HW239810   3.217   3.153   7.308 -1.2568  0.5029  0.3772
 9450SOL     OW39811   2.200   1.526   2.964  0.1914 -0.0397 -0.4188
 9450SOL    HW139812   2.270   1.519   3.029  0.0533  1.3387 -0.1321
 9450SOL    HW239813   2.145   1.460   3.008 -1.8270  3.6058  2.5066
 9451SOL     OW39814   3.837   1.989   5.861  0.0783  0.1177  0.0857
 9451SOL    HW139815   3.853   1.980   5.767  0.8287  1.6245  0.0817
 9451SOL    HW239816   3.857   1.899   5.888  1.2062 -0.0089 -1.1739
 9452SOL     OW39817   0.383   3.889   7.892 -0.1299 -0.0019 -0.4546
 9452SOL    HW139818   0.446   3.818   7.904  0.4712  0.7873  0.9951
 9452SOL    HW239819   0.411   3.946   7.963 -0.5880  0.5918 -0.7553
 9453SOL     OW39820   1.667   4.129   4.409  0.9517  0.0893 -0.1657
 9453SOL    HW139821   1.699   4.214   4.379  0.6484 -0.0000 -0.7438
 9453SOL    HW239822   1.612   4.156   4.483  1.2169 -0.9355  0.4022
 9454SOL     OW39823   3.555   2.450   0.807 -0.0915 -0.3629 -0.0704
 9454SOL    HW139824   3.607   2.389   0.754  1.9517  1.4072 -0.1238
 9454SOL    HW239825   3.628   2.483   0.859 -0.3263 -0.2683  0.1964
 9455SOL     OW39826   3.135   2.531   8.320  0.5259  0.0400  0.2810
 9455SOL    HW139827   3.225   2.563   8.310  0.3493 -0.4058 -2.7433
 9455SOL    HW239828   3.117   2.562   8.408 -0.1436  0.9714 -0.1875
 9456SOL     OW39829   1.269   1.939   8.494 -0.3166  0.5423 -0.6261
 9456SOL    HW139830   1.350   1.956   8.447  1.0432 -2.2484  0.7090
 9456SOL    HW239831   1.213   2.010   8.461 -0.0397  0.8726 -0.3797
 9457SOL     OW39832   2.529   4.049   7.100  0.0392  0.1728 -0.8365
 9457SOL    HW139833   2.509   4.067   7.192  0.8499 -1.8847 -0.2460
 9457SOL    HW239834   2.623   4.034   7.104 -0.4722 -2.0659  3.0907
 9458SOL     OW39835   4.032   1.295   2.126 -0.2767 -0.1533  0.2987
 9458SOL    HW139836   3.949   1.328   2.091 -0.6267 -0.1353  1.1446
 9458SOL    HW239837   4.019   1.205   2.096  3.2648 -0.0532 -1.5865
 9459SOL     OW39838   2.311   3.158   3.012  0.2076 -0.0207  0.2337
 9459SOL    HW139839   2.366   3.084   2.986 -0.3879 -1.1652  2.2288
 9459SOL    HW239840   2.288   3.195   2.927  1.3865 -0.5968 -0.3342
 9460SOL     OW39841   2.348   2.017   7.437 -0.0654 -0.3569 -0.1177
 9460SOL    HW139842   2.271   1.963   7.453 -0.3918  1.2834  3.8170
 9460SOL    HW239843   2.349   2.026   7.342  1.0208  1.1579  0.0365
 9461SOL     OW39844   1.519   4.439   0.439  0.3238 -0.1794 -0.1883
 9461SOL    HW139845   1.554   4.429   0.350  1.4688  4.1085 -0.2156
 9461SOL    HW239846   1.435   4.394   0.428  0.4545 -0.5225  0.2085
 9462SOL     OW39847   2.964   1.143   2.960  0.2675 -0.1074 -0.0071
 9462SOL    HW139848   2.878   1.167   2.925  0.5958  1.2331  0.0830
 9462SOL    HW239849   2.981   1.206   3.030 -1.6974 -0.0973  0.4585
 9463SOL     OW39850   1.818   0.442   2.559 -0.6601  0.1202 -0.1794
 9463SOL    HW139851   1.741   0.390   2.582 -0.0861 -0.1415  1.1701
 9463SOL    HW239852   1.844   0.473   2.646 -1.1572 -0.4570  0.1805
 9464SOL     OW39853   1.416   1.397   5.187  0.2698 -0.2855  0.6921
 9464SOL    HW139854   1.390   1.423   5.275  1.6506  0.6858  0.8204
 9464SOL    HW239855   1.353   1.329   5.165  0.9508  0.3809 -3.2455
 9465SOL     OW39856   0.282   1.877   2.145 -0.2354  0.3487  0.9871
 9465SOL    HW139857   0.309   1.954   2.194 -0.9066 -0.1855  2.1846
 9465SOL    HW239858   0.367   1.833   2.134  0.2051  1.3371  0.4372
 9466SOL     OW39859   0.007   0.671   7.929  0.1623  0.5953 -0.1785
 9466SOL    HW139860   0.078   0.721   7.890  0.8031  0.7974  1.2665
 9466SOL    HW239861   4.654   0.730   7.923 -0.8443 -0.4897  1.8629
 9467SOL     OW39862   3.341   3.493  10.457  0.5238 -0.3140 -0.0232
 9467SOL    HW139863   3.336   3.432  10.530  1.6665  0.8189  0.9898
 9467SOL    HW239864   3.399   3.438  10.403 -0.7545 -1.5476 -0.1500
 9468SOL     OW39865   0.096   0.968   7.599  0.2458  0.1482  0.0156
 9468SOL    HW139866   0.019   0.971   7.541  0.2848 -0.7248 -0.0840
 9468SOL    HW239867   0.156   1.015   7.541 -1.5681  1.2722 -0.9493
 9469SOL     OW39868   3.134   0.151  11.601 -0.1387  0.1628 -0.0083
 9469SOL    HW139869   3.055   0.098  11.609 -0.3329  0.2942 -0.9756
 9469SOL    HW239870   3.148   0.157  11.695 -1.5964 -1.9721  0.3433
 9470SOL     OW39871   3.161   1.415   4.648  0.1152 -0.0063  0.0562
 9470SOL    HW139872   3.204   1.330   4.659  0.6191  0.4562  1.6012
 9470SOL    HW239873   3.069   1.391   4.657  0.0105  0.5197  0.3523
 9471SOL     OW39874   3.603   0.275   2.976  0.3098  0.0575 -0.1374
 9471SOL    HW139875   3.532   0.212   2.988  1.8334 -1.1356  2.6698
 9471SOL    HW239876   3.552   0.341   2.930 -0.0274 -0.5153 -0.5843
 9472SOL     OW39877   3.556   1.113   4.932 -0.0663 -0.5821  0.9765
 9472SOL    HW139878   3.522   1.134   5.019 -0.3057 -0.6624  0.9031
 9472SOL    HW239879   3.568   1.197   4.889  0.6260 -0.8792  0.5928
 9473SOL     OW39880   0.532   3.426  10.020 -0.4474  0.1776  0.8887
 9473SOL    HW139881   0.565   3.513  10.043 -0.4688  0.0891  1.2560
 9473SOL    HW239882   0.615   3.378  10.023 -0.9191 -0.6245  1.1041
 9474SOL     OW39883   1.502   3.980   3.005 -0.3521 -0.2366  0.1244
 9474SOL    HW139884   1.471   4.058   3.051 -2.4419 -1.4333  0.7076
 9474SOL    HW239885   1.427   3.924   2.986 -1.0593  1.6224 -2.4973
 9475SOL     OW39886   4.198   2.662   2.067  0.0329 -0.1291  0.3121
 9475SOL    HW139887   4.269   2.723   2.080  0.3533 -0.3173 -0.5859
 9475SOL    HW239888   4.221   2.618   1.985 -0.1524 -1.4307  0.9462
 9476SOL     OW39889   3.423   1.924   0.490  0.0252  0.1578 -0.2452
 9476SOL    HW139890   3.410   1.971   0.572 -0.0329 -1.1467  0.4916
 9476SOL    HW239891   3.446   1.834   0.514  1.1425  0.2744 -0.8756
 9477SOL     OW39892   2.429   3.983  10.486  0.0421 -0.4047 -0.0233
 9477SOL    HW139893   2.370   4.048  10.525 -1.8600 -0.7846 -2.2895
 9477SOL    HW239894   2.491   3.975  10.559  0.7326  2.5515 -0.2556
 9478SOL     OW39895   0.725   3.827   4.296  0.1454 -0.2822 -0.6108
 9478SOL    HW139896   0.751   3.898   4.355  0.6633 -1.0431  0.0873
 9478SOL    HW239897   0.738   3.866   4.209  0.6971 -1.7675 -1.2049
 9479SOL     OW39898   4.656   1.659   8.477  0.4460  0.2476  0.1227
 9479SOL    HW139899   4.629   1.568   8.489  1.2115  0.1000  0.7224
 9479SOL    HW239900   4.648   1.672   8.383 -0.8950 -3.0666 -0.2397
 9480SOL     OW39901   2.667   0.732   8.911  0.1609  0.7031  0.1366
 9480SOL    HW139902   2.761   0.745   8.896 -0.2935  1.7005 -1.9478
 9480SOL    HW239903   2.635   0.810   8.865  1.1475  2.0092  1.6536
 9481SOL     OW39904   1.305   1.812   1.232  0.2563 -0.4698  0.6896
 9481SOL    HW139905   1.217   1.787   1.202  0.7760  0.5555 -1.6000
 9481SOL    HW239906   1.299   1.899   1.194  1.4443 -1.1504 -1.0297
 9482SOL     OW39907   3.348   0.565   1.038 -0.2827  0.1018  0.1693
 9482SOL    HW139908   3.441   0.542   1.040 -0.1021  0.9260  0.9088
 9482SOL    HW239909   3.347   0.612   0.955  0.0287 -0.1828  0.0018
 9483SOL     OW39910   0.060   0.368  14.459 -0.3880 -0.0451 -0.1344
 9483SOL    HW139911   0.107   0.434  14.510  0.5988 -0.5217 -0.4271
 9483SOL    HW239912   0.089   0.292  14.510  2.1592  0.5438 -0.7512
 9484SOL     OW39913   4.125   3.399  17.680  0.1123 -0.4251 -0.1277
 9484SOL    HW139914   4.034   3.417   0.010  0.5717 -0.3408  1.5285
 9484SOL    HW239915   4.165   3.392   0.073  0.5752  0.9120 -0.2320
 9485SOL     OW39916   1.695   3.193   1.921 -0.4102 -0.0712 -0.1479
 9485SOL    HW139917   1.743   3.197   1.838  3.7505  0.2791  2.2620
 9485SOL    HW239918   1.724   3.107   1.951 -0.6718  0.1208  0.6379
 9486SOL     OW39919   3.059   2.709   3.531  0.4706  0.2480 -0.4282
 9486SOL    HW139920   3.111   2.767   3.586  1.3124 -1.4180  0.5184
 9486SOL    HW239921   3.081   2.625   3.571 -1.2460  0.1671  0.3543
 9487SOL     OW39922   3.932   2.298   8.261 -0.4533 -0.2819  0.6733
 9487SOL    HW139923   4.026   2.303   8.276 -0.6714  0.9131  1.6181
 9487SOL    HW239924   3.920   2.203   8.267 -3.2805 -0.0399 -1.4277
 9488SOL     OW39925   2.707   2.722   3.085 -0.8825 -0.2006 -0.2132
 9488SOL    HW139926   2.802   2.708   3.080 -1.2105 -2.0283 -1.3129
 9488SOL    HW239927   2.708   2.815   3.062  1.7801  0.0842  0.9226
 9489SOL     OW39928   0.948   2.925   6.482 -0.1580 -0.1477 -0.0215
 9489SOL    HW139929   0.978   2.860   6.545  1.5566  0.0007 -0.6765
 9489SOL    HW239930   0.868   2.883   6.451  2.1824 -3.4057 -1.7421
 9490SOL     OW39931   0.876   1.300  16.835 -0.3340  0.3160  0.1831
 9490SOL    HW139932   0.925   1.380  16.851  2.6663 -0.9129 -2.8538
 9490SOL    HW239933   0.930   1.248  16.775  1.8982  0.3710  2.1445
 9491SOL     OW39934   2.542   2.912   6.590 -0.1109 -0.2390  0.0151
 9491SOL    HW139935   2.546   2.835   6.534  0.6254 -0.3368  0.1879
 9491SOL    HW239936   2.579   2.978   6.533 -0.4692 -0.2210 -0.1927
 9492SOL     OW39937   2.929   2.218   7.718 -0.4391 -0.1488 -0.6614
 9492SOL    HW139938   2.890   2.132   7.704 -1.2621  0.4199 -1.8235
 9492SOL    HW239939   2.851   2.271   7.703 -2.7588 -4.1096 -2.5621
 9493SOL     OW39940   1.766   1.925   9.665  0.3517  0.6696 -0.0777
 9493SOL    HW139941   1.787   1.910   9.758 -1.9906 -1.8381  0.0424
 9493SOL    HW239942   1.746   1.838   9.631  0.4851  1.1278 -1.3125
 9494SOL     OW39943   2.516   4.366  11.533 -0.5993  0.1178 -0.2026
 9494SOL    HW139944   2.508   4.279  11.573 -1.4339 -1.2265 -3.2800
 9494SOL    HW239945   2.430   4.402  11.554  0.2384  1.1222  1.4465
 9495SOL     OW39946   2.250   2.633   3.545 -0.3071 -0.1959 -0.2503
 9495SOL    HW139947   2.340   2.653   3.517 -0.0979  0.5372  0.9442
 9495SOL    HW239948   2.230   2.714   3.593 -0.4302 -0.4615  0.1445
 9496SOL     OW39949   3.244   3.069   7.894  0.5871  0.8709  0.7199
 9496SOL    HW139950   3.152   3.058   7.869  1.1054  1.0179 -1.2718
 9496SOL    HW239951   3.273   2.978   7.906  0.3815  0.3451 -2.6080
 9497SOL     OW39952   1.985   1.411   9.070 -0.9084  0.6915 -0.4467
 9497SOL    HW139953   1.969   1.503   9.092  1.7165  0.7363  1.2609
 9497SOL    HW239954   2.063   1.422   9.016 -1.3576 -1.1480 -1.4803
 9498SOL     OW39955   3.191   0.809   1.287 -0.0502  0.2151 -0.7311
 9498SOL    HW139956   3.228   0.894   1.263  1.9743  0.0936  2.0061
 9498SOL    HW239957   3.107   0.837   1.322 -1.1432 -1.3695 -2.0716
 9499SOL     OW39958   3.916   3.237   7.668 -0.4122 -0.4677 -0.5247
 9499SOL    HW139959   3.940   3.245   7.760  0.5973 -1.2292 -0.7209
 9499SOL    HW239960   3.827   3.206   7.682 -0.0189 -1.6752 -0.7204
 9500SOL     OW39961   1.773   3.754   2.643 -0.0210  0.2003  0.1283
 9500SOL    HW139962   1.850   3.807   2.662 -0.2026 -0.1628  1.8674
 9500SOL    HW239963   1.706   3.817   2.672 -0.9211 -0.4421 -0.5406
 9501SOL     OW39964   1.020   2.762   6.918 -0.3895 -0.0951 -1.1925
 9501SOL    HW139965   1.056   2.841   6.877 -0.1240  0.1167 -0.5492
 9501SOL    HW239966   1.105   2.729   6.946 -0.6758  0.3711  0.2285
 9502SOL     OW39967   1.710   1.667   9.618 -0.1065 -0.3044  0.4858
 9502SOL    HW139968   1.727   1.611   9.542  1.0999 -0.7111  1.0504
 9502SOL    HW239969   1.646   1.610   9.660 -1.5169  0.6794 -0.3389
 9503SOL     OW39970   1.558   4.200   2.626 -0.2728 -0.0968  0.4168
 9503SOL    HW139971   1.573   4.294   2.634 -2.2655  0.1006  1.9151
 9503SOL    HW239972   1.630   4.153   2.668  0.7599  0.5556 -0.6380
 9504SOL     OW39973   1.051   0.614   6.982 -0.6492 -0.1169 -0.3819
 9504SOL    HW139974   1.069   0.699   7.023 -1.2641  0.5244 -1.4420
 9504SOL    HW239975   0.972   0.586   7.028 -0.6641 -2.4392 -1.8367
 9505SOL     OW39976   2.206   4.074  14.164  0.4531 -0.5542  0.2886
 9505SOL    HW139977   2.120   4.081  14.122 -1.0172  2.1806  3.7341
 9505SOL    HW239978   2.274   4.110  14.107 -1.0805 -0.2118 -1.3214
 9506SOL     OW39979   2.282   0.220   4.172 -0.0453  0.2599 -0.0962
 9506SOL    HW139980   2.264   0.274   4.248 -0.5348  1.2886 -0.9459
 9506SOL    HW239981   2.292   0.284   4.101 -1.9215  2.1980  1.4027
 9507SOL     OW39982   1.315   1.923   0.388  0.6852  0.1029 -0.6513
 9507SOL    HW139983   1.226   1.892   0.406  0.7578 -1.1849 -2.4731
 9507SOL    HW239984   1.327   1.882   0.302  0.9312  3.1663 -2.0982
 9508SOL     OW39985   0.694   3.601  14.382  0.2463  0.0602 -0.5667
 9508SOL    HW139986   0.749   3.523  14.395  1.5612  1.0601 -0.1890
 9508SOL    HW239987   0.726   3.655  14.454 -1.0265 -2.2545  1.7433
 9509SOL     OW39988   3.844   0.646   4.696  0.6185  0.0117 -0.7788
 9509SOL    HW139989   3.764   0.629   4.746  0.4887  0.1536 -0.9347
 9509SOL    HW239990   3.892   0.695   4.763  1.9190 -2.9899  0.4716
 9510SOL     OW39991   3.187   3.012   8.656 -0.4737 -0.1185  0.1958
 9510SOL    HW139992   3.248   3.086   8.655 -0.9413  0.2663  0.4731
 9510SOL    HW239993   3.255   2.945   8.643  0.7439  1.4525 -1.6601
 9511SOL     OW39994   2.381   0.182   8.616  0.1063 -0.1875 -0.5483
 9511SOL    HW139995   2.292   0.215   8.626  0.9876  1.6544  1.1701
 9511SOL    HW239996   2.421   0.260   8.578 -1.5104  1.5537  1.3401
 9512SOL     OW39997   3.301   1.508   1.986  0.1753 -0.6934  0.1358
 9512SOL    HW139998   3.383   1.527   2.032 -1.0978  1.1497  1.6366
 9512SOL    HW239999   3.245   1.564   2.039  0.2060 -1.8754  1.4221
 9513SOL     OW40000   3.110   3.492   3.924  0.2407 -0.3323 -0.4618
 9513SOL    HW140001   3.125   3.536   4.008 -2.4572  0.5793 -0.4486
 9513SOL    HW240002   3.157   3.536   3.853  1.3636 -1.9439 -0.7186
 9514SOL     OW40003   2.015   3.846  14.914  0.6196 -0.4598  0.2865
 9514SOL    HW140004   2.022   3.827  15.008 -1.1387  0.3156  0.5580
 9514SOL    HW240005   2.003   3.941  14.912  0.3542 -0.4844  0.7126
 9515SOL     OW40006   0.237   0.932   3.618  0.1983  0.0406  0.2019
 9515SOL    HW140007   0.192   1.012   3.645  1.6857  2.2386 -3.8602
 9515SOL    HW240008   0.325   0.960   3.592 -1.0414  1.4758 -2.4091
 9516SOL     OW40009   3.971   1.459   5.375 -0.2337 -0.0590  0.0935
 9516SOL    HW140010   3.978   1.371   5.412 -0.3961 -0.0043  0.2516
 9516SOL    HW240011   3.931   1.442   5.289 -2.5846 -0.4532  1.2691
 9517SOL     OW40012   4.287   0.747   4.124 -0.0430  0.5151  0.1920
 9517SOL    HW140013   4.295   0.839   4.152 -0.8533  0.8536 -0.7015
 9517SOL    HW240014   4.296   0.694   4.203 -0.5475 -2.3021 -1.6683
 9518SOL     OW40015   1.400   3.862   8.546  0.0392  0.1048 -0.1059
 9518SOL    HW140016   1.362   3.777   8.570 -0.6230 -0.0494 -1.7317
 9518SOL    HW240017   1.319   3.913   8.541 -0.7161 -1.1218 -0.4406
 9519SOL     OW40018   1.416   3.639   5.463  0.3551 -0.8336  0.3766
 9519SOL    HW140019   1.481   3.708   5.475 -0.4828 -0.1048  0.6899
 9519SOL    HW240020   1.355   3.651   5.535 -1.8407 -3.4026 -1.0653
 9520SOL     OW40021   4.561   3.874   9.239  0.2519  0.0863  0.4897
 9520SOL    HW140022   4.498   3.901   9.306  0.1836 -0.7895  0.7766
 9520SOL    HW240023   4.513   3.882   9.157 -0.0714  0.5395  0.7245
 9521SOL     OW40024   2.895   1.287  16.883 -0.3721 -0.2141  0.2286
 9521SOL    HW140025   2.880   1.205  16.835 -0.4741 -0.1271  0.1124
 9521SOL    HW240026   2.898   1.258  16.975  0.9332 -0.4075  0.1254
 9522SOL     OW40027   1.796   0.988   9.323  0.2433 -0.1775  0.2354
 9522SOL    HW140028   1.729   0.962   9.385 -0.0991  1.7950  0.7155
 9522SOL    HW240029   1.841   1.053   9.378 -0.6458  1.6179 -1.1666
 9523SOL     OW40030   4.686   0.266   7.700 -0.0687  0.2358  0.5217
 9523SOL    HW140031   0.026   0.195   7.688  0.2945  0.3111  2.0519
 9523SOL    HW240032   4.638   0.236   7.777  1.8418 -1.5498  1.0190
 9524SOL     OW40033   3.914   3.504  11.954 -0.3318 -0.1410  0.0487
 9524SOL    HW140034   3.984   3.457  11.910  0.0422  2.0044 -1.6508
 9524SOL    HW240035   3.923   3.588  11.908  1.4203 -0.2643  0.1741
 9525SOL     OW40036   0.799   0.507   7.017  0.4981  0.3287 -0.1247
 9525SOL    HW140037   0.710   0.511   7.050  0.1639  1.3830 -1.1484
 9525SOL    HW240038   0.798   0.431   6.958  1.2013 -1.0525  1.6174
 9526SOL     OW40039   0.348   1.680  17.260 -0.1801  0.4174  0.1273
 9526SOL    HW140040   0.410   1.615  17.293  0.8760  1.4854  0.2341
 9526SOL    HW240041   0.408   1.754  17.259  0.7114 -0.2963  0.7321
 9527SOL     OW40042   0.853   2.222   2.702 -0.2409  0.3369  0.0710
 9527SOL    HW140043   0.857   2.298   2.643 -1.5255 -0.1584 -0.6653
 9527SOL    HW240044   0.788   2.244   2.768  0.2786  0.0118  0.6940
 9528SOL     OW40045   3.796   1.230   3.173 -0.3601 -0.2952  0.1797
 9528SOL    HW140046   3.809   1.136   3.188 -1.8848 -0.9085 -2.1520
 9528SOL    HW240047   3.876   1.257   3.128 -2.2739  1.1423 -2.3474
 9529SOL     OW40048   3.081   0.077   3.447  0.0007 -0.0029  0.2812
 9529SOL    HW140049   3.090   0.173   3.454 -2.2728  0.3208 -1.3403
 9529SOL    HW240050   3.029   0.070   3.367 -0.4373  0.2462  0.5427
 9530SOL     OW40051   0.503   3.233  15.989 -0.1250 -0.7162 -0.3479
 9530SOL    HW140052   0.578   3.234  15.930 -1.4321  0.6066 -1.9799
 9530SOL    HW240053   0.448   3.303  15.953  0.0249 -0.7485 -0.6407
 9531SOL     OW40054   0.381   3.532   9.838  0.0892 -0.0041  0.0730
 9531SOL    HW140055   0.444   3.595   9.801 -0.1147  0.8197  1.1392
 9531SOL    HW240056   0.440   3.490   9.900  1.5159 -0.0315 -1.2847
 9532SOL     OW40057   0.831   2.029   5.432 -0.3727 -0.1775  0.3874
 9532SOL    HW140058   0.766   1.971   5.394  0.3209 -0.3879 -0.4715
 9532SOL    HW240059   0.857   1.984   5.512  0.4927 -1.6357 -0.7315
 9533SOL     OW40060   0.524   4.548  13.825  0.0894  0.2229  0.4657
 9533SOL    HW140061   0.595   4.509  13.775 -0.3771 -1.0119  0.7657
 9533SOL    HW240062   0.565   4.563  13.910  0.9082  2.1854 -0.2706
 9534SOL     OW40063   2.285   2.112   8.769  0.2680 -0.3216 -0.2529
 9534SOL    HW140064   2.294   2.120   8.864 -0.2608  1.0467 -0.3086
 9534SOL    HW240065   2.192   2.092   8.758  0.9107 -1.9232 -2.5728
 9535SOL     OW40066   2.703   3.871   7.712  0.3861 -0.3907 -0.5452
 9535SOL    HW140067   2.624   3.834   7.751  0.1107 -2.5011 -3.1249
 9535SOL    HW240068   2.701   3.960   7.747 -1.4716 -0.3758 -0.6914
 9536SOL     OW40069   1.338   0.954  13.371  0.2411 -0.1622  0.2464
 9536SOL    HW140070   1.368   0.996  13.290  1.0438 -1.1615  0.0110
 9536SOL    HW240071   1.397   1.008  13.423  0.8910 -1.7979  1.2060
 9537SOL     OW40072   2.041   4.282   7.869  0.3799 -0.2302 -0.1960
 9537SOL    HW140073   2.124   4.238   7.853  0.3972 -0.3286  0.1471
 9537SOL    HW240074   2.074   4.353   7.924  2.4761 -0.5548 -1.0248
 9538SOL     OW40075   0.331   1.143   9.092 -0.1736  0.5078 -0.8242
 9538SOL    HW140076   0.265   1.073   9.095  1.3762 -0.9314 -0.0422
 9538SOL    HW240077   0.400   1.096   9.045 -2.3387 -1.5288 -2.0365
 9539SOL     OW40078   4.513   2.656   9.320 -0.3077 -0.3515 -0.2380
 9539SOL    HW140079   4.605   2.666   9.296 -0.3660  3.6446  1.2009
 9539SOL    HW240080   4.515   2.569   9.359  0.6519 -0.1483  0.1532
 9540SOL     OW40081   3.993   4.423  17.603  0.0897 -0.4640 -0.0774
 9540SOL    HW140082   4.081   4.393  17.624 -0.0292 -1.8797 -1.6135
 9540SOL    HW240083   3.970   4.361  17.534 -1.4423  1.2527 -1.1388
 9541SOL     OW40084   2.693   3.460   8.532  0.0198  0.1532  0.0039
 9541SOL    HW140085   2.678   3.371   8.500 -0.6034  0.6689 -1.0978
 9541SOL    HW240086   2.672   3.449   8.625 -1.6386  1.6763 -0.1942
 9542SOL     OW40087   1.791   0.302  16.092  0.1909  0.4511  0.1869
 9542SOL    HW140088   1.700   0.320  16.113 -0.4392 -3.7038  1.1624
 9542SOL    HW240089   1.838   0.383  16.108 -1.5784  1.3220  0.9630
 9543SOL     OW40090   2.597   0.695   4.091  0.2359  0.2599 -0.4603
 9543SOL    HW140091   2.676   0.653   4.059 -0.4117  0.8013 -2.7882
 9543SOL    HW240092   2.545   0.689   4.011 -0.9801  2.6678  0.1542
 9544SOL     OW40093   3.205   2.425   4.978 -0.1068 -0.1928 -0.1917
 9544SOL    HW140094   3.136   2.488   4.958  0.3713  0.0904 -0.9563
 9544SOL    HW240095   3.183   2.352   4.920 -1.1846  1.0802 -1.3858
 9545SOL     OW40096   2.644   0.597   3.020 -0.1983  0.0408  0.2964
 9545SOL    HW140097   2.610   0.686   3.034 -1.4279 -0.4240  0.2350
 9545SOL    HW240098   2.588   0.545   3.077 -2.2379  2.4297  0.4717
 9546SOL     OW40099   2.874   1.374   2.587  0.1675  0.4619 -0.1063
 9546SOL    HW140100   2.836   1.358   2.500  1.5137 -1.0435 -0.4070
 9546SOL    HW240101   2.952   1.319   2.578 -0.1148  0.0210  0.1468
 9547SOL     OW40102   0.129   4.056   2.957  0.2269 -0.1156  0.2695
 9547SOL    HW140103   0.171   4.101   2.884  0.9866  0.9188  1.3364
 9547SOL    HW240104   0.183   3.979   2.968  0.7069  0.4148  1.7387
 9548SOL     OW40105   3.228   2.967   2.223  0.8475 -0.2813 -0.5521
 9548SOL    HW140106   3.185   2.976   2.137 -2.8080 -1.1425  1.1633
 9548SOL    HW240107   3.315   3.004   2.216  0.4567  0.8129  0.3516
 9549SOL     OW40108   4.039   1.227   7.829 -0.1074  0.0835  0.3196
 9549SOL    HW140109   3.994   1.151   7.864  0.2247  0.3710  1.3728
 9549SOL    HW240110   3.985   1.251   7.754  0.4462  0.0198 -0.0988
 9550SOL     OW40111   1.941   1.951  13.497 -0.2744  0.0867  0.0035
 9550SOL    HW140112   1.926   1.857  13.505 -1.0451  0.1316 -0.8784
 9550SOL    HW240113   1.861   1.996  13.526  0.4482  0.4786  1.4198
 9551SOL     OW40114   0.803   0.041   5.530  0.1248 -0.2622  0.1116
 9551SOL    HW140115   0.727   4.714   5.501 -0.2377  0.1939  0.2828
 9551SOL    HW240116   0.859   4.693   5.563 -1.0656 -1.7338 -1.0532
 9552SOL     OW40117   2.207   1.334   4.485  0.3741  0.5437  0.1279
 9552SOL    HW140118   2.241   1.316   4.573  0.7534 -3.2499 -0.8040
 9552SOL    HW240119   2.289   1.369   4.450  0.9171 -1.1513 -0.2948
 9553SOL     OW40120   3.626   3.227   4.039  0.3362 -0.1894 -0.0837
 9553SOL    HW140121   3.626   3.304   4.095 -0.2175 -0.8000  0.7602
 9553SOL    HW240122   3.591   3.263   3.959 -0.8390 -0.2979  0.3908
 9554SOL     OW40123   1.585   4.162  12.569  0.2976 -0.5551 -0.1137
 9554SOL    HW140124   1.585   4.217  12.648 -2.2263  0.3091 -0.7261
 9554SOL    HW240125   1.553   4.080  12.606 -1.6323  0.6812  0.9436
 9555SOL     OW40126   3.202   2.763   1.739  0.3183  0.1332 -0.1046
 9555SOL    HW140127   3.120   2.754   1.788  1.0065  2.7000  1.4831
 9555SOL    HW240128   3.178   2.723   1.654 -0.9039  0.6935 -0.0225
 9556SOL     OW40129   0.637   3.018  13.063 -0.2474  0.5980  0.1962
 9556SOL    HW140130   0.666   3.107  13.082 -3.6546  1.0314  3.4010
 9556SOL    HW240131   0.611   2.999  13.153 -0.0403  0.3259  0.1950
 9557SOL     OW40132   0.546   1.678  14.096 -0.2802  1.2252 -0.1536
 9557SOL    HW140133   0.524   1.586  14.080  1.5773  0.3940  2.0035
 9557SOL    HW240134   0.494   1.729  14.034  1.6525 -1.0619 -3.6399
 9558SOL     OW40135   4.657   3.098   8.852 -0.0385  0.6432  0.6263
 9558SOL    HW140136   4.635   3.191   8.849 -0.9013  0.3926 -0.7839
 9558SOL    HW240137   4.613   3.066   8.931 -1.7920  0.6655 -0.3409
 9559SOL     OW40138   1.046   1.853   1.925  0.2976  0.1065  0.1231
 9559SOL    HW140139   1.056   1.817   1.838  1.8145 -0.5657  0.5812
 9559SOL    HW240140   0.986   1.927   1.912 -0.3929 -0.3653  0.5963
 9560SOL     OW40141   0.971   3.185   6.544 -0.4657 -0.2280  0.5899
 9560SOL    HW140142   0.956   3.093   6.524  1.2902 -1.3427  4.3517
 9560SOL    HW240143   1.016   3.212   6.464 -2.0225 -0.3209 -0.3246
 9561SOL     OW40144   0.138   4.560   3.308 -0.2098 -0.4782 -0.1522
 9561SOL    HW140145   0.115   4.617   3.382  1.0333  2.2710 -1.8757
 9561SOL    HW240146   0.052   4.533   3.277  0.2257 -0.6833 -1.1841
 9562SOL     OW40147   0.479   1.822   1.042 -0.2136  0.3435  0.6475
 9562SOL    HW140148   0.404   1.793   0.991  0.6260 -1.4559  0.4366
 9562SOL    HW240149   0.465   1.772   1.123  2.5011 -0.5090  0.6100
 9563SOL     OW40150   4.028   3.120   8.484 -1.0016 -0.2501 -0.1650
 9563SOL    HW140151   3.963   3.190   8.480  0.4228  1.0104 -1.1623
 9563SOL    HW240152   4.098   3.170   8.442 -0.6772 -0.7115 -0.1645
 9564SOL     OW40153   0.766   4.072   5.312  0.3206  0.5282  0.1225
 9564SOL    HW140154   0.749   3.984   5.345  0.0716  0.8561  0.8817
 9564SOL    HW240155   0.744   4.055   5.220 -0.3104 -1.0045  0.5542
 9565SOL     OW40156   3.364   0.448  13.525 -0.0010  0.1108  0.1849
 9565SOL    HW140157   3.273   0.466  13.504 -0.0359  0.0217  0.2565
 9565SOL    HW240158   3.354   0.353  13.524  0.8450 -0.0003  0.9025
 9566SOL     OW40159   3.201   4.159   9.152  0.0530 -0.2856 -0.0805
 9566SOL    HW140160   3.198   4.255   9.157 -0.8879 -0.3673  0.7719
 9566SOL    HW240161   3.126   4.138   9.207  0.2033 -0.0052  0.2341
 9567SOL     OW40162   0.425   1.488  12.715 -0.1949  0.2372  0.4773
 9567SOL    HW140163   0.489   1.449  12.775  1.4591  0.8019 -0.9253
 9567SOL    HW240164   0.360   1.516  12.779 -2.9786 -0.2434 -2.1537
 9568SOL     OW40165   2.805   1.509  16.800  0.5623 -0.0311  0.5783
 9568SOL    HW140166   2.793   1.529  16.893 -2.3803  2.4880 -0.3385
 9568SOL    HW240167   2.836   1.419  16.815 -0.3733 -0.6719 -1.3760
   4.72288   4.72288  17.69347
