Membrane in water
40167
    1TCq1    O1    1   1.504   4.425  11.736 -0.1705  0.2470  0.5719
    1TCq1    C1    2   1.462   4.497  11.840  0.5082  0.3667 -0.0256
    1TCq1    O2    3   1.345   4.503  11.870  0.6098 -0.5735 -0.7528
    1TCq1    C2    4   1.554   4.492  11.948  0.3359  0.3602 -0.7546
    1TCq1    C3    5   1.685   4.518  11.910 -0.2217  0.0018  0.1120
    1TCq1    C4    6   1.781   4.477  12.000  0.1015 -0.0479  0.3576
    1TCq1    C5    7   1.750   4.425  12.126  0.0005 -0.6321 -0.5368
    1TCq1    C6    8   1.616   4.399  12.158 -0.9229  0.3193  0.4368
    1TCq1    C7    9   1.520   4.436  12.063 -0.1044 -0.0200  0.3058
    1TCq1    C8   10   1.588   4.305  12.265 -0.0417 -0.2522 -0.8571
    1TCq1    O4   11   1.472   4.284  12.296 -0.7213 -0.0152 -0.1465
    1TCq1    C9   12   1.920   4.502  11.962 -0.6960 -0.8696 -0.5920
    1TCq1    O5   13   1.939   4.541  11.843 -0.4293 -0.0095 -0.3402
    1TCq1    O6   14   2.008   4.436  12.022 -0.4362 -0.2638 -0.2975
    1TCq1    H1   15   1.587   4.373  11.747  0.3571  1.2185  1.2031
    1TCq1    H2   16   1.707   4.537  11.806  0.6556 -1.6735 -0.0090
    1TCq1    H3   17   1.833   4.416  12.195 -0.4640 -1.3705 -0.0780
    1TCq1    H4   18   1.413   4.426  12.074 -0.3705  0.2289 -2.1189
    2MPD2     C   19   1.727   3.912  12.557 -0.4737  0.2816  0.1281
    2MPD2    C1   20   1.605   3.967  12.527  0.4489  0.2985 -0.9070
    2MPD2    C2   21   1.598   4.066  12.442  0.7161 -0.3656 -0.2648
    2MPD2    C3   22   1.712   4.129  12.398  0.1660  0.0281  0.4160
    2MPD2    C4   23   1.841   4.082  12.436 -0.0786  0.3190  0.4244
    2MPD2    C5   24   1.843   3.971  12.520  0.0768 -0.2069  0.3816
    2MPD2     H   25   1.498   4.098  12.416  0.8806  0.5910  0.2727
    2MPD2    H1   26   1.926   4.139  12.401 -0.8552  0.2529 -1.5426
    2MPD2    H2   27   1.736   3.838  12.636  1.7162  0.1200 -0.2866
    2MPD2    H3   28   1.934   3.928  12.560 -0.1368 -0.2603  0.8171
    2MPD2     N   29   1.704   4.237  12.306  0.1751 -0.2744  0.4405
    2MPD2    H5   30   1.790   4.273  12.266  0.5498 -1.6169  0.0312
    2MPD2    N1   31   1.479   3.915  12.581 -0.3975  0.4264  0.1980
    2MPD2    H7   32   1.392   3.960  12.555 -1.3037 -1.4716 -0.1306
    3TCq1    O1   33   0.876   3.759  11.950  0.8955  0.7567 -0.0827
    3TCq1    C1   34   0.904   3.743  11.825 -0.1028 -0.0361  0.2929
    3TCq1    O2   35   1.013   3.733  11.772 -0.4518  0.7719 -0.1022
    3TCq1    C2   36   0.778   3.751  11.755  0.1441 -0.5611 -0.5495
    3TCq1    C3   37   0.774   3.718  11.627 -0.5655 -0.3052  0.0194
    3TCq1    C4   38   0.670   3.751  11.553 -0.3480 -0.5249  0.7104
    3TCq1    C5   39   0.564   3.812  11.605 -0.4395  0.6757 -0.0453
    3TCq1    C6   40   0.566   3.863  11.736  0.4067 -0.1009  0.0776
    3TCq1    C7   41   0.681   3.835  11.803  0.1603 -0.8050  0.7612
    3TCq1    C8   42   0.467   3.949  11.794  0.3187  0.3974  0.0710
    3TCq1    O4   43   0.475   3.967  11.913 -0.1929 -0.3935 -0.3997
    3TCq1    C9   44   0.661   3.695  11.415 -0.1806 -0.1772  0.6421
    3TCq1    O5   45   0.547   3.665  11.370 -0.2905  0.4864 -0.4111
    3TCq1    O6   46   0.767   3.662  11.360  0.2393 -0.0407 -0.4755
    3TCq1    H1   47   0.788   3.735  11.988  1.9344 -1.0986  1.1340
    3TCq1    H2   48   0.870   3.689  11.587 -0.3576  0.0312  0.2824
    3TCq1    H3   49   0.482   3.835  11.537 -0.4378 -0.0373 -0.2952
    3TCq1    H4   50   0.699   3.878  11.901  0.6037  3.0837 -1.0524
    4MPD2     C   51   0.095   4.305  11.740  0.1159  0.4073  0.9952
    4MPD2    C1   52   0.143   4.278  11.614  0.5368 -0.3266 -0.5991
    4MPD2    C2   53   0.244   4.181  11.606 -0.4248 -0.4359  0.3759
    4MPD2    C3   54   0.290   4.106  11.718 -0.7149 -0.1863 -0.3163
    4MPD2    C4   55   0.230   4.142  11.841 -0.7871 -0.7122  0.1719
    4MPD2    C5   56   0.139   4.246  11.851  0.1117  0.5257 -0.0229
    4MPD2     H   57   0.287   4.157  11.509 -0.9438 -0.3806  0.1347
    4MPD2    H1   58   0.254   4.087  11.931 -1.4486 -1.0312  0.1522
    4MPD2    H2   59   0.014   4.375  11.755 -0.0902  0.5149 -0.6756
    4MPD2    H3   60   0.104   4.266  11.952 -0.4063  1.6995 -0.4420
    4MPD2     N   61   0.399   4.018  11.700  0.0980  0.0517 -0.2054
    4MPD2    H5   62   0.422   3.999  11.603 -0.5150  0.9078 -0.5152
    4MPD2    N1   63   0.097   4.337  11.497 -0.3030  0.4770 -0.8543
    4MPD2    H7   64   0.123   4.293  11.409  1.3919  0.4174 -0.3154
    5TCq1    O1   65   1.188   1.601  10.907  0.0061 -0.3443 -0.1746
    5TCq1    C1   66   1.094   1.625  11.010 -0.3788 -0.6092  0.1650
    5TCq1    O2   67   1.103   1.714  11.095 -0.0248 -0.7874  0.0167
    5TCq1    C2   68   0.962   1.559  10.973 -0.0368  0.2570 -0.0136
    5TCq1    C3   69   0.843   1.624  11.000 -0.1170  0.4938  0.0040
    5TCq1    C4   70   0.727   1.588  10.938 -0.1942  0.1763 -0.1869
    5TCq1    C5   71   0.726   1.491  10.850 -0.0828 -0.0444 -0.4571
    5TCq1    C6   72   0.835   1.421  10.821  0.2117 -0.8484  0.1909
    5TCq1    C7   73   0.957   1.457  10.876  0.9650  0.1536  0.4375
    5TCq1    C8   74   0.831   1.297  10.747 -0.7084 -0.6338 -0.3508
    5TCq1    O4   75   0.926   1.224  10.762  0.0634 -0.0399  0.0192
    5TCq1    C9   76   0.610   1.661  10.977  0.6112 -0.1148  0.2951
    5TCq1    O5   77   0.626   1.785  10.989 -0.1041  0.5152 -0.2686
    5TCq1    O6   78   0.499   1.595  10.978 -0.0459 -0.9277  0.0282
    5TCq1    H1   79   1.179   1.515  10.863 -0.8897 -0.0285 -0.6209
    5TCq1    H2   80   0.846   1.712  11.064  2.4146 -1.2086  2.2244
    5TCq1    H3   81   0.630   1.463  10.809  1.1512 -0.8072 -2.8725
    5TCq1    H4   82   1.048   1.413  10.839  0.0555 -1.5452  0.2235
    6MPD2     C   83   0.575   1.164  10.526  0.0558 -0.1212 -0.4488
    6MPD2    C1   84   0.688   1.159  10.601 -0.2006  0.0137  0.2268
    6MPD2    C2   85   0.758   1.045  10.605  0.4369 -0.8228  0.3008
    6MPD2    C3   86   0.736   0.935  10.525  0.7796 -0.0052 -0.3395
    6MPD2    C4   87   0.618   0.933  10.461 -0.2504 -0.3476  0.1610
    6MPD2    C5   88   0.531   1.044  10.470  0.0506  0.3344  0.4128
    6MPD2     H   89   0.851   1.046  10.662  0.7979  0.6872 -0.2961
    6MPD2    H1   90   0.593   0.847  10.399  1.7036 -0.4814 -0.4449
    6MPD2    H2   91   0.512   1.252  10.525 -1.7837 -1.4406 -0.6565
    6MPD2    H3   92   0.437   1.045  10.417 -0.3689 -0.2781  1.1558
    6MPD2     N   93   0.827   0.825  10.528  0.5495  0.2777  0.0914
    6MPD2    H5   94   0.908   0.826  10.588 -0.9214 -0.6459  2.0858
    6MPD2    N1   95   0.721   1.278  10.669 -0.6501 -0.0470 -1.0901
    6MPD2    H7   96   0.655   1.354  10.661 -1.3085 -0.1990  2.9774
    7TCq1    O1   97   3.733   0.482  12.938  0.2120 -0.3900  0.3792
    7TCq1    C1   98   3.671   0.570  13.018  1.0458 -0.2485 -0.0274
    7TCq1    O2   99   3.682   0.690  13.025 -0.3565  0.0177 -0.0097
    7TCq1    C2  100   3.568   0.494  13.087 -0.1250 -0.3581  1.0084
    7TCq1    C3  101   3.513   0.386  13.032  0.4048 -0.7337  0.9499
    7TCq1    C4  102   3.421   0.315  13.099  0.4220 -0.6412 -0.0436
    7TCq1    C5  103   3.384   0.360  13.227 -0.4473 -0.5125 -0.4384
    7TCq1    C6  104   3.443   0.468  13.278 -0.0046 -0.5050 -0.2466
    7TCq1    C7  105   3.528   0.547  13.202  0.0711 -0.3642  0.3015
    7TCq1    C8  106   3.425   0.502  13.415  0.3163 -0.0662 -0.0360
    7TCq1    O4  107   3.468   0.611  13.442 -0.8806  0.6546  0.0998
    7TCq1    C9  108   3.366   0.197  13.041  0.7125 -0.2232 -0.1911
    7TCq1    O5  109   3.422   0.149  12.940  0.7329  0.1895  0.2135
    7TCq1    O6  110   3.271   0.146  13.105  0.3620 -0.3318  0.1114
    7TCq1    H1  111   3.726   0.397  12.987  2.7294  0.4638  2.2023
    7TCq1    H2  112   3.530   0.355  12.930 -0.9968 -0.9079  0.7734
    7TCq1    H3  113   3.312   0.301  13.282 -1.3886 -0.0884 -1.2255
    7TCq1    H4  114   3.579   0.637  13.236 -0.9865  0.3857 -0.0910
    8MPD2     C  115   3.404   0.408  13.926 -0.0355 -0.5334  0.0375
    8MPD2    C1  116   3.402   0.286  13.860 -0.0443  0.7212 -0.2989
    8MPD2    C2  117   3.397   0.287  13.718  0.1023 -0.2198 -0.1498
    8MPD2    C3  118   3.393   0.409  13.647  0.6758 -0.0860  0.0545
    8MPD2    C4  119   3.375   0.526  13.719 -0.3789  0.2220 -0.4651
    8MPD2    C5  120   3.390   0.526  13.859 -0.4428  0.4605  0.1882
    8MPD2     H  121   3.404   0.198  13.657 -2.0831 -1.4370  1.3751
    8MPD2    H1  122   3.363   0.622  13.671 -0.4101  1.8262  2.7628
    8MPD2    H2  123   3.412   0.415  14.034  0.5416  0.3038 -0.0553
    8MPD2    H3  124   3.388   0.621  13.912 -1.1056  0.5905 -0.0681
    8MPD2     N  125   3.385   0.402  13.500  0.0239 -0.8032 -0.2067
    8MPD2    H5  126   3.381   0.308  13.461 -1.9742 -0.7148 -0.2306
    8MPD2    N1  127   3.428   0.162  13.927 -0.1286  0.1744 -0.5287
    8MPD2    H7  128   3.429   0.171  14.028  1.4740 -1.4029 -0.3985
    9TCq1    O1  129   1.309   3.984  11.618 -0.0981  0.1781 -0.3284
    9TCq1    C1  130   1.435   3.959  11.574  0.2542  0.0904  0.0017
    9TCq1    O2  131   1.483   3.847  11.560  0.1070  0.6094  0.0692
    9TCq1    C2  132   1.504   4.083  11.531 -1.0836 -0.0359 -0.2375
    9TCq1    C3  133   1.628   4.054  11.487  0.4440  0.2391 -0.2015
    9TCq1    C4  134   1.678   4.142  11.393  0.2126 -0.0755  0.8635
    9TCq1    C5  135   1.612   4.252  11.350 -0.1617 -0.2410  0.1600
    9TCq1    C6  136   1.483   4.267  11.391 -0.3140  0.0877 -0.0304
    9TCq1    C7  137   1.422   4.178  11.481  0.4730 -0.7403 -0.6348
    9TCq1    C8  138   1.419   4.397  11.353  0.4804  0.3170 -0.7024
    9TCq1    O4  139   1.470   4.459  11.262  0.0893 -0.0202  0.1878
    9TCq1    C9  140   1.818   4.118  11.345  0.1193 -0.1587  0.3441
    9TCq1    O5  141   1.873   4.209  11.274  0.4558 -0.2541  0.2832
    9TCq1    O6  142   1.880   4.024  11.387  0.3661 -0.4289 -0.2663
    9TCq1    H1  143   1.284   4.075  11.647  0.9990  0.1823  0.6098
    9TCq1    H2  144   1.686   3.965  11.510  0.8659  0.9535  1.5706
    9TCq1    H3  145   1.654   4.312  11.270 -1.2812  0.0912 -0.1799
    9TCq1    H4  146   1.316   4.180  11.503  0.0769  1.8777 -2.7356
   10MPD2     C  147   1.280   4.669  11.359  0.9744 -0.0158  0.4751
   10MPD2    C1  148   1.268   4.568  11.456 -0.1003 -0.2821 -0.0869
   10MPD2    C2  149   1.199   4.602  11.575 -0.0794 -0.6704 -0.5646
   10MPD2    C3  150   1.149   0.003  11.598  0.0080  0.0970  0.0127
   10MPD2    C4  151   1.173   0.099  11.506 -0.0955 -0.1905 -0.6298
   10MPD2    C5  152   1.244   0.078  11.393 -0.0305  0.4516  0.7373
   10MPD2     H  153   1.204   4.523  11.649  0.1678 -1.1591 -1.1006
   10MPD2    H1  154   1.149   0.202  11.528  2.6706  0.2855  0.1405
   10MPD2    H2  155   1.318   4.649  11.259 -0.0605 -0.2912  0.1363
   10MPD2    H3  156   1.259   0.158  11.322  0.6552  0.2021  0.6064
   10MPD2     N  157   1.098   0.036  11.726  1.0211  0.6113  0.4321
   10MPD2    H5  158   1.111   0.127  11.767  1.8177  0.5324  0.3641
   10MPD2    N1  159   1.325   4.436  11.447 -0.0060  0.6266 -0.1737
   10MPD2    H7  160   1.316   4.375  11.527  1.3359  2.2082  1.1795
   11TCq1    O1  161   2.672   4.459  14.403 -0.6370  0.2384 -0.1263
   11TCq1    C1  162   2.565   4.376  14.438 -0.3915  0.6907 -0.2358
   11TCq1    O2  163   2.517   4.279  14.380 -0.3682  0.0761 -0.2533
   11TCq1    C2  164   2.503   4.438  14.559 -0.7672  0.7313 -0.4620
   11TCq1    C3  165   2.577   4.522  14.635 -0.0432  0.0614 -0.4156
   11TCq1    C4  166   2.509   4.591  14.728 -0.0409  0.0964 -0.1674
   11TCq1    C5  167   2.381   4.563  14.755  0.6507 -0.1947  0.9055
   11TCq1    C6  168   2.307   4.478  14.672  0.5830 -0.4778 -0.1531
   11TCq1    C7  169   2.371   4.416  14.566  0.3348 -0.4758  0.1298
   11TCq1    C8  170   2.158   4.485  14.687  0.1366 -0.1740 -0.2978
   11TCq1    O4  171   2.120   4.558  14.780  0.5457 -0.0830  0.0490
   11TCq1    C9  172   2.580   4.689  14.801  0.9458 -0.5047 -0.1590
   11TCq1    O5  173   2.705   4.707  14.787 -0.0993  0.5448  0.3228
   11TCq1    O6  174   2.499   0.047  14.863 -0.6724  0.1329  0.3924
   11TCq1    H1  175   2.679   4.542  14.455 -2.1694  0.8634 -0.9115
   11TCq1    H2  176   2.681   4.543  14.612 -0.3837  0.8386 -1.2511
   11TCq1    H3  177   2.332   4.627  14.827  0.0767  1.8356 -1.2891
   11TCq1    H4  178   2.322   4.344  14.501 -0.3637  0.7924 -0.7579
   12MPD2     C  179   1.863   4.506  14.656 -0.0441  0.3882 -0.7598
   12MPD2    C1  180   1.940   4.421  14.587  0.9825 -0.0989  0.8645
   12MPD2    C2  181   1.876   4.316  14.517 -0.2787  0.7159 -0.5078
   12MPD2    C3  182   1.739   4.308  14.500  0.2025  0.3737 -0.3988
   12MPD2    C4  183   1.663   4.401  14.574  0.8376 -0.4013 -0.1927
   12MPD2    C5  184   1.730   4.496  14.645 -0.9129  0.8238 -0.6055
   12MPD2     H  185   1.943   4.252  14.460 -0.3888 -0.8038  1.0847
   12MPD2    H1  186   1.555   4.405  14.567  0.8569 -1.0599 -0.8718
   12MPD2    H2  187   1.902   4.587  14.718  0.6330 -2.2048  2.2070
   12MPD2    H3  188   1.677   4.577  14.695 -0.5412  0.6008  0.1536
   12MPD2     N  189   1.682   4.210  14.409 -0.2203  0.1392 -0.6858
   12MPD2    H5  190   1.752   4.144  14.378  0.1013 -0.1630  0.6957
   12MPD2    N1  191   2.084   4.417  14.593 -0.3598  0.7453 -0.0110
   12MPD2    H7  192   2.140   4.360  14.529 -1.7309 -1.0587  0.3866
   13TCq1    O1  193   1.987   3.939  12.142 -0.1697 -0.1371  0.1623
   13TCq1    C1  194   1.879   3.876  12.100  0.0233  0.3590  0.0267
   13TCq1    O2  195   1.833   3.766  12.128 -0.3427  1.0140  0.4739
   13TCq1    C2  196   1.793   3.984  12.063 -0.2185 -0.3203  0.7474
   13TCq1    C3  197   1.833   4.057  11.956  0.0575  0.3200  0.4067
   13TCq1    C4  198   1.736   4.116  11.877 -0.0616  0.3013 -0.3040
   13TCq1    C5  199   1.598   4.104  11.899  0.1404  0.5130 -0.7909
   13TCq1    C6  200   1.564   4.011  11.995  0.7451 -0.5370 -0.4629
   13TCq1    C7  201   1.661   3.957  12.088 -0.3431  0.6025 -0.3785
   13TCq1    C8  202   1.431   4.027  12.038 -0.2789  0.1654  0.3723
   13TCq1    O4  203   1.356   4.119  12.006  0.3408 -0.2675 -0.3064
   13TCq1    C9  204   1.787   4.197  11.772 -0.5150 -0.5018  0.2037
   13TCq1    O5  205   1.911   4.196  11.744  0.5511  0.3157 -0.2694
   13TCq1    O6  206   1.706   4.283  11.727  0.1839  0.3232  0.3079
   13TCq1    H1  207   1.970   4.035  12.154 -1.3144 -0.6107  2.4271
   13TCq1    H2  208   1.939   4.060  11.936  0.0524  1.7235  0.6201
   13TCq1    H3  209   1.522   4.152  11.839 -0.2929 -0.2482 -0.8525
   13TCq1    H4  210   1.629   3.904  12.177  1.8728 -0.1069 -0.0235
   14MPD2     C  211   1.277   3.765  12.253  0.4833  0.0225  0.4198
   14MPD2    C1  212   1.273   3.874  12.168  0.2881  0.1686 -0.0551
   14MPD2    C2  213   1.153   3.937  12.139 -0.2899 -0.7654  0.0271
   14MPD2    C3  214   1.035   3.894  12.198 -0.0132 -0.3853 -0.7932
   14MPD2    C4  215   1.039   3.778  12.272  0.2205  0.0855 -0.4951
   14MPD2    C5  216   1.155   3.717  12.297 -0.2329  0.0481  0.1006
   14MPD2     H  217   1.144   4.023  12.074  2.2922 -1.8926 -1.8288
   14MPD2    H1  218   0.949   3.743  12.320  2.0981  0.2361  3.1287
   14MPD2    H2  219   1.369   3.711  12.273  1.7606  1.1022 -2.6050
   14MPD2    H3  220   1.165   3.625  12.355 -0.2979 -0.5431 -0.8301
   14MPD2     N  221   0.918   3.975  12.167  0.0313 -0.9958 -0.2301
   14MPD2    H5  222   0.944   4.054  12.108  1.1267 -0.4799  0.9312
   14MPD2    N1  223   1.400   3.917  12.116 -0.0931 -0.0641  0.1312
   14MPD2    H7  224   1.474   3.848  12.128 -0.8223 -0.5830  1.5035
   15TCq1    O1  225   2.850   3.388   2.523  0.6564  0.4242  0.5179
   15TCq1    C1  226   2.928   3.417   2.629 -0.0774 -0.2560 -0.3375
   15TCq1    O2  227   2.894   3.498   2.716 -0.2225 -0.1081 -0.3802
   15TCq1    C2  228   3.048   3.328   2.639 -0.1580 -0.3505 -0.1452
   15TCq1    C3  229   3.099   3.324   2.761 -0.6021 -0.0423 -0.1266
   15TCq1    C4  230   3.220   3.260   2.785 -0.1182 -0.0286  0.2120
   15TCq1    C5  231   3.286   3.208   2.688  0.6008  0.7927 -0.4324
   15TCq1    C6  232   3.229   3.197   2.560  0.7433 -0.1902  0.3242
   15TCq1    C7  233   3.109   3.266   2.531  0.2959  0.0134 -0.2287
   15TCq1    C8  234   3.293   3.112   2.466  0.1381 -0.0264 -0.7933
   15TCq1    O4  235   3.415   3.123   2.464 -0.1725  0.2083 -0.2292
   15TCq1    C9  236   3.259   3.252   2.924  0.1928 -0.7822 -0.1222
   15TCq1    O5  237   3.205   3.325   3.014  0.3545  0.1030  0.1161
   15TCq1    O6  238   3.361   3.178   2.942  0.5437  0.3650  0.0943
   15TCq1    H1  239   2.885   3.316   2.465  2.5808  1.4944  0.3547
   15TCq1    H2  240   3.055   3.374   2.847 -0.1704  0.1611 -0.0231
   15TCq1    H3  241   3.377   3.152   2.707 -1.3943 -2.7877 -1.4110
   15TCq1    H4  242   3.075   3.270   2.428  0.0647  0.7677 -0.1221
   16MPD2     C  243   3.127   2.938   2.195  0.3025  0.2236  0.0019
   16MPD2    C1  244   3.241   2.994   2.255  0.7856  0.7368  0.1044
   16MPD2    C2  245   3.366   2.959   2.213 -0.8329 -0.0822 -0.1537
   16MPD2    C3  246   3.380   2.888   2.092 -0.0285 -0.9498  0.0556
   16MPD2    C4  247   3.267   2.827   2.036 -0.9122 -0.4228 -0.2825
   16MPD2    C5  248   3.144   2.856   2.086  0.2574 -0.0628 -0.1236
   16MPD2     H  249   3.456   2.995   2.260 -0.7540 -1.2313  0.5748
   16MPD2    H1  250   3.276   2.763   1.949 -0.0434 -0.6291 -0.0350
   16MPD2    H2  251   3.030   2.958   2.238  0.5499  2.1091 -0.3001
   16MPD2    H3  252   3.055   2.805   2.050 -0.2082 -0.1948  1.1851
   16MPD2     N  253   3.511   2.866   2.046 -0.0370  0.2493 -0.0843
   16MPD2    H5  254   3.585   2.892   2.109 -2.0124  2.3612  1.3667
   16MPD2    N1  255   3.204   3.068   2.370 -0.8418  0.3608 -0.4436
   16MPD2    H7  256   3.109   3.092   2.397 -0.4287  1.2303  0.2150
   17TCq1    O1  257   0.503   2.909  10.054 -0.2397  0.2675  0.4573
   17TCq1    C1  258   0.631   2.911  10.101  0.4817  0.1606  0.2289
   17TCq1    O2  259   0.712   2.992  10.054  0.2135 -0.3129 -0.5397
   17TCq1    C2  260   0.628   2.852  10.232  0.5220  0.3133  0.1270
   17TCq1    C3  261   0.569   2.736  10.266  1.0922  1.0473  0.5051
   17TCq1    C4  262   0.586   2.692  10.396 -0.2407 -0.0103  0.1158
   17TCq1    C5  263   0.662   2.753  10.489 -0.2749  0.3267 -0.5156
   17TCq1    C6  264   0.723   2.870  10.447 -0.6247  1.0424  0.0796
   17TCq1    C7  265   0.698   2.927  10.322 -0.7481  0.5237  0.7351
   17TCq1    C8  266   0.796   2.949  10.548 -0.4876  0.4293 -0.2850
   17TCq1    O4  267   0.752   2.952  10.661 -0.0935 -0.1092  0.1947
   17TCq1    C9  268   0.520   2.567  10.426 -0.6054 -0.2876 -0.3233
   17TCq1    O5  269   0.542   2.520  10.541 -0.5318 -0.4066  0.7031
   17TCq1    O6  270   0.448   2.505  10.337  0.1293  0.3573  0.1945
   17TCq1    H1  271   0.436   2.876  10.117 -2.4281  1.0799 -1.4374
   17TCq1    H2  272   0.514   2.675  10.195  0.3436  0.4510  1.6008
   17TCq1    H3  273   0.672   2.704  10.585 -0.5807  1.8907  0.3165
   17TCq1    H4  274   0.733   3.022  10.283  0.9321  0.5268  2.2215
   18MPD2     C  275   0.941   3.167  10.683  0.3019 -0.0015  0.6068
   18MPD2    C1  276   0.984   3.102  10.566 -0.2408  0.2467  0.5852
   18MPD2    C2  277   1.111   3.128  10.515 -0.2598 -0.3164  0.2368
   18MPD2    C3  278   1.204   3.204  10.581 -0.0855 -0.4350 -0.0856
   18MPD2    C4  279   1.159   3.261  10.701 -0.0315 -0.8384  0.1025
   18MPD2    C5  280   1.032   3.248  10.742 -0.1998 -0.1899 -0.5453
   18MPD2     H  281   1.146   3.069  10.431  0.2890  0.9165 -0.3985
   18MPD2    H1  282   1.227   3.327  10.755 -1.9408  0.9080  0.3868
   18MPD2    H2  283   0.849   3.156  10.738 -0.6246 -1.5402 -1.2654
   18MPD2    H3  284   1.013   3.305  10.833 -0.5458  0.5780 -1.1055
   18MPD2     N  285   1.343   3.218  10.540  0.2564  0.1454  0.1758
   18MPD2    H5  286   1.404   3.276  10.596 -1.8599 -0.0929  2.7540
   18MPD2    N1  287   0.905   3.010  10.495 -0.8224  0.0574  0.1672
   18MPD2    H7  288   0.940   2.974  10.406  0.4676 -1.8555  1.4323
   19TMC2    C1  289   2.945   4.154  14.289  0.4427 -0.5335  0.1717
   19TMC2    C2  290   2.960   4.156  14.148 -0.0599  0.0790 -0.2288
   19TMC2    C3  291   2.883   4.070  14.072  0.4649  0.5274  0.1106
   19TMC2    C4  292   2.834   4.097  14.355 -0.0574  0.2069  0.0541
   19TMC2    C5  293   2.759   4.008  14.271  0.2660 -0.3229  0.7140
   19TMC2    C6  294   2.792   3.990  14.138 -0.6874 -0.5964 -0.2831
   19TMC2     C  295   3.043   4.226  14.365  0.9202 -0.6611  0.8873
   19TMC2     O  296   3.129   4.288  14.303 -0.1551  0.4580 -0.3183
   19TMC2     H  297   3.056   4.181  14.103 -0.6644 -0.8417 -2.0210
   19TMC2    H1  298   2.818   4.094  14.462 -1.0272 -0.0698 -0.0998
   19TMC2    H2  299   2.735   3.926  14.072 -1.0796 -2.6252  2.0796
   19TMC2    C7  300   2.679   3.898  14.325 -0.0267 -0.1933 -0.6979
   19TMC2    C8  301   2.880   4.066  13.927  0.0051  0.8375  0.3092
   19TMC2    O1  302   2.590   3.845  14.256 -0.0703  0.0078 -1.1252
   19TMC2    O2  303   2.838   3.970  13.868  0.0021 -0.4062  0.2020
   19TMC2    O5  304   2.947   4.173  13.876  0.5493  0.0084 -0.2857
   19TMC2    H5  305   2.969   4.250  13.934  2.5463  0.2109 -1.3052
   20MPD2     C  306   3.211   4.344  14.591  0.1522 -0.5930  0.6466
   20MPD2    C1  307   3.141   4.224  14.600  0.8246  0.3321 -0.1290
   20MPD2    C2  308   3.170   4.140  14.709  0.1859  0.3338  0.4129
   20MPD2    C3  309   3.282   4.163  14.789 -0.2492 -0.1267  0.6619
   20MPD2    C4  310   3.349   4.286  14.782  0.1913  0.3654  0.4757
   20MPD2    C5  311   3.307   4.373  14.686 -0.7609 -0.5907  0.3788
   20MPD2     H  312   3.115   4.047  14.712  0.5583 -0.0012 -2.4877
   20MPD2    H1  313   3.440   4.291  14.841 -0.0550 -2.4295  1.0790
   20MPD2    H2  314   3.197   4.422  14.517 -0.5641 -0.1098  1.2857
   20MPD2    H3  315   3.368   4.463  14.680  1.1213 -1.8068  1.1475
   20MPD2     N  316   3.328   4.071  14.890 -0.1532  0.1114 -0.4812
   20MPD2    H5  317   3.410   4.089  14.947 -0.2852 -0.1939 -0.1951
   20MPD2    N1  318   3.048   4.179  14.500 -0.2544 -0.0775  0.4013
   20MPD2    H7  319   2.987   4.107  14.537 -0.6113  0.0424  0.0452
   21MPD2     C  320   0.749   0.045  14.407  0.2247 -0.6682 -0.1327
   21MPD2    C1  321   0.797   4.652  14.452  0.6470 -0.2473  0.7588
   21MPD2    C2  322   0.724   4.578  14.538  0.1422  0.5208 -0.1661
   21MPD2    C3  323   0.599   4.619  14.587 -0.7475 -0.1248 -0.1013
   21MPD2    C4  324   0.556   0.018  14.542  0.4936  0.1419 -0.2334
   21MPD2    C5  325   0.630   0.090  14.454  0.1487 -0.1653 -0.4146
   21MPD2     H  326   0.768   4.482  14.562  0.3710  0.9831  1.3094
   21MPD2    H1  327   0.460   0.055  14.576  1.0898 -0.2067  1.8688
   21MPD2    H2  328   0.806   0.108  14.340 -1.7205 -0.0977 -1.2298
   21MPD2    H3  329   0.584   0.183  14.421  0.6432  1.1215  2.5351
   21MPD2     N  330   0.501   4.546  14.653 -0.4604 -0.3828  0.0296
   21MPD2    H5  331   0.410   4.592  14.663 -0.1328  0.7113 -1.8972
   21MPD2    N1  332   0.916   4.589  14.409 -0.1922  0.0513 -0.4024
   21MPD2    H7  333   0.955   4.510  14.458  1.8487  1.9858  1.0946
   22TCq2    C1  334   0.518   4.416  14.696 -0.9799 -0.4469  0.4118
   22TCq2    O2  335   0.617   4.343  14.700 -0.0578 -0.5370 -0.7807
   22TCq2    C2  336   0.408   4.365  14.776  0.2267 -0.3816  0.6039
   22TCq2    C3  337   0.423   4.253  14.857 -0.1263 -0.5047  0.6407
   22TCq2    C4  338   0.323   4.228  14.948 -0.1621  0.6788  0.8299
   22TCq2    C5  339   0.207   4.300  14.948  0.1050 -0.3963  0.4200
   22TCq2    C6  340   0.193   4.403  14.863  0.5146  0.0271 -0.3217
   22TCq2    C7  341   0.294   4.439  14.777 -0.8082 -0.2804 -0.0836
   22TCq2    C8  342   0.141   4.520  14.929 -0.8445 -0.1107 -0.7927
   22TCq2    O4  343   0.166   4.536  15.046  0.5447 -0.2885  0.4733
   22TCq2    C9  344   0.327   4.109  15.029 -0.7529  0.1554  0.4510
   22TCq2    O5  345   0.222   4.057  15.063 -0.0987 -0.5652 -0.0140
   22TCq2    O6  346   0.440   4.052  15.041  0.0139 -0.2411  0.3689
   22TCq2    H2  347   0.506   4.185  14.848 -1.3781 -1.5689 -2.5577
   22TCq2    H3  348   0.145   4.283  15.035 -1.8725  0.5049 -0.8135
   22TCq2    H4  349   0.284   4.539  14.737  2.8105 -0.4916 -1.5240
   23MPD2     C  350   2.636   0.488  15.029 -0.6548  0.0812  0.7669
   23MPD2    C1  351   2.505   0.457  15.053 -0.4501  0.0985 -0.7126
   23MPD2    C2  352   2.406   0.542  15.013  0.5863  0.2080  0.3897
   23MPD2    C3  353   2.433   0.648  14.931  0.3879 -0.3350  0.3572
   23MPD2    C4  354   2.569   0.677  14.904 -0.2121  0.0448  0.2653
   23MPD2    C5  355   2.658   0.604  14.966 -0.2722 -0.2281 -0.4632
   23MPD2     H  356   2.307   0.517  15.048  0.5397 -0.3760 -0.1435
   23MPD2    H1  357   2.601   0.757  14.837 -2.3261  0.0849 -0.6916
   23MPD2    H2  358   2.723   0.456  15.087 -0.4167  1.2797  1.0721
   23MPD2    H3  359   2.760   0.640  14.959  0.0614 -1.3849 -1.5058
   23MPD2     N  360   2.330   0.739  14.886  0.1014 -0.2285 -0.2934
   23MPD2    H5  361   2.363   0.802  14.813  0.4113  0.4304  0.4068
   23MPD2    N1  362   2.477   0.360  15.153 -0.3972 -0.1706  0.7862
   23MPD2    H7  363   2.379   0.352  15.178 -0.9787 -0.8820 -1.6916
   24TCq2    C1  364   2.195   0.729  14.901 -0.6914  0.2205 -0.4881
   24TCq2    O2  365   2.129   0.662  14.983  0.9590 -0.2419  0.4333
   24TCq2    C2  366   2.120   0.802  14.799  0.7790  0.4823 -0.9440
   24TCq2    C3  367   2.178   0.918  14.742 -0.0890  0.7769 -0.5454
   24TCq2    C4  368   2.103   1.011  14.679  0.2828  0.2904  0.3214
   24TCq2    C5  369   1.974   0.975  14.650  0.0462  0.1583 -0.0360
   24TCq2    C6  370   1.922   0.859  14.702 -0.3547 -0.5130 -0.1112
   24TCq2    C7  371   1.988   0.776  14.794 -0.0212 -1.1878  0.1696
   24TCq2    C8  372   1.786   0.825  14.658 -0.1840  0.3168  0.4002
   24TCq2    O4  373   1.748   0.894  14.565  0.0533 -0.0449 -0.3030
   24TCq2    C9  374   2.160   1.138  14.638  0.1570  0.0909  0.3254
   24TCq2    O5  375   2.276   1.164  14.666  0.3679  0.3606  0.3916
   24TCq2    O6  376   2.093   1.210  14.563  0.5484  0.3941 -0.3502
   24TCq2    H2  377   2.284   0.936  14.754 -0.1932  0.3548  1.0489
   24TCq2    H3  378   1.922   1.047  14.587 -1.4785 -0.3222  0.6556
   24TCq2    H4  379   1.941   0.691  14.843 -1.5568 -0.2397  0.3569
   25TMC2    C1  380   1.296   2.121  12.273 -0.0899 -0.4074 -0.0295
   25TMC2    C2  381   1.408   2.182  12.326  0.2145  0.1265 -0.2560
   25TMC2    C3  382   1.389   2.288  12.404  0.4950  0.0318 -0.3875
   25TMC2    C4  383   1.169   2.147  12.312 -0.1778 -0.1558 -0.1121
   25TMC2    C5  384   1.167   2.238  12.418 -0.4749 -0.1786  0.4058
   25TMC2    C6  385   1.271   2.324  12.455 -0.8924 -0.1171  0.1408
   25TMC2     C  386   1.316   2.054  12.138  0.0206 -0.7188  0.5646
   25TMC2     O  387   1.435   2.022  12.124  0.1801 -0.8010  0.2651
   25TMC2     H  388   1.509   2.153  12.298  0.2751  1.1183 -1.0576
   25TMC2    H1  389   1.085   2.081  12.293 -0.2667 -0.5093  1.5272
   25TMC2    H2  390   1.258   2.384  12.544 -1.1576  2.0201 -1.3481
   25TMC2    C7  391   1.042   2.272  12.474 -0.2832  0.2085 -0.0319
   25TMC2    C8  392   1.499   2.367  12.445 -0.8446  0.7354 -0.2699
   25TMC2    O1  393   1.046   2.327  12.583  0.5900 -0.6210  0.4178
   25TMC2    O2  394   1.498   2.486  12.412  0.2187 -0.2786 -0.6503
   25TMC2    O5  395   1.609   2.288  12.454  0.3152  0.3266 -0.6366
   25TMC2    H5  396   1.577   2.202  12.489 -1.1305  0.8722 -0.6336
   26MPD2     C  397   1.169   1.847  11.695 -0.3469 -0.1006  0.5979
   26MPD2    C1  398   1.054   1.890  11.755  0.0620 -0.3207  0.3732
   26MPD2    C2  399   1.061   1.955  11.878 -0.1198 -1.1073 -0.3380
   26MPD2    C3  400   1.183   1.974  11.936  0.0413  0.3915  0.0733
   26MPD2    C4  401   1.298   1.939  11.866  0.6369 -1.1009  0.4877
   26MPD2    C5  402   1.290   1.873  11.746 -0.0154 -0.0916  0.1132
   26MPD2     H  403   0.973   1.987  11.933 -0.5085  1.4742 -2.4771
   26MPD2    H1  404   1.394   1.966  11.907 -0.6893  0.6796  2.4351
   26MPD2    H2  405   1.167   1.787  11.605  2.6211 -0.8627  1.0287
   26MPD2    H3  406   1.379   1.852  11.687 -0.4330 -1.9496  0.1361
   26MPD2     N  407   1.199   2.032  12.066  0.1559  0.2240  0.0357
   26MPD2    H5  408   1.113   2.064  12.109 -0.1270 -1.0339  0.3809
   26MPD2    N1  409   0.937   1.844  11.701  0.0086  0.1858 -0.6146
   26MPD2    H7  410   0.945   1.799  11.610 -0.1067  2.5842 -1.8248
   27TMC2    C1  411   4.156   0.263  12.106 -0.1828  0.4265  0.2098
   27TMC2    C2  412   4.176   0.297  11.974 -0.2038 -0.0165  0.3465
   27TMC2    C3  413   4.212   0.430  11.946 -0.8527 -0.0221  0.3803
   27TMC2    C4  414   4.171   0.352  12.210 -0.1355 -0.2397  0.0302
   27TMC2    C5  415   4.216   0.481  12.175 -0.0428 -0.2978  0.3779
   27TMC2    C6  416   4.233   0.522  12.047 -0.6624 -0.3129  0.3026
   27TMC2     C  417   4.127   0.124  12.131 -0.7988 -0.4792 -0.5205
   27TMC2     O  418   4.169   0.031  12.061  0.2811  0.0525  0.9471
   27TMC2     H  419   4.172   0.225  11.892 -1.0519 -0.2453  0.5838
   27TMC2    H1  420   4.163   0.333  12.316 -0.1185  0.0703  0.0882
   27TMC2    H2  421   4.271   0.621  12.025 -0.4864 -0.4430  0.0162
   27TMC2    C7  422   4.209   0.575  12.288  0.7351  0.0578  0.1977
   27TMC2    C8  423   4.188   0.482  11.814 -0.0295 -0.2496  0.0608
   27TMC2    O1  424   4.226   0.519  12.397 -0.2692 -0.3004  0.3835
   27TMC2    O2  425   4.132   0.402  11.736 -0.0112 -0.0153  0.3685
   27TMC2    O5  426   4.282   0.565  11.781 -0.1064  0.1877 -0.3180
   27TMC2    H5  427   4.318   0.598  11.866  2.1839  0.1897 -1.2820
   28MPD2     C  428   3.974   4.484  12.454  0.6961  0.4019  0.6118
   28MPD2    C1  429   3.951   4.608  12.510 -0.6762  0.7018  0.4455
   28MPD2    C2  430   3.994   4.721  12.445 -0.9878 -0.3084  0.1475
   28MPD2    C3  431   4.042   4.714  12.321  0.7316  0.3138 -0.5474
   28MPD2    C4  432   4.056   4.590  12.265  0.6134 -0.5353 -0.0025
   28MPD2    C5  433   4.031   4.473  12.331  0.3227  0.0797 -0.4633
   28MPD2     H  434   4.000   0.093  12.496 -0.4378 -1.0348  1.4507
   28MPD2    H1  435   4.092   4.576  12.164  1.5591 -3.3232  0.7186
   28MPD2    H2  436   3.937   4.393  12.500  1.7153  0.0351  0.6990
   28MPD2    H3  437   4.053   4.386  12.271 -0.4669  1.3725 -2.6394
   28MPD2     N  438   4.072   0.112  12.255 -0.0685 -0.0508 -0.4525
   28MPD2    H5  439   4.060   0.200  12.303 -2.0686 -1.0841  0.9789
   28MPD2    N1  440   3.893   4.607  12.635 -0.1478  0.1571 -0.9528
   28MPD2    H7  441   3.888   4.516  12.679 -2.2958  0.5161 -0.4628
   29MPD2     C  442   3.714   2.355  14.108 -0.0456  0.2396  0.4193
   29MPD2    C1  443   3.751   2.352  14.237 -0.3004 -0.4218  0.7664
   29MPD2    C2  444   3.772   2.465  14.317 -0.4614 -0.1730  0.5217
   29MPD2    C3  445   3.751   2.583  14.251 -0.2272  0.4917 -0.2719
   29MPD2    C4  446   3.725   2.589  14.115 -0.7444  0.9457  0.2054
   29MPD2    C5  447   3.698   2.472  14.049 -0.1476  0.1433 -0.3225
   29MPD2     H  448   3.797   2.458  14.422 -0.0025  2.2481  0.5591
   29MPD2    H1  449   3.723   2.682  14.059 -2.0264  2.0056  2.0520
   29MPD2    H2  450   3.704   2.269  14.043  2.6150  0.2581 -0.0311
   29MPD2    H3  451   3.667   2.475  13.945  0.2975  1.8706 -0.4118
   29MPD2     N  452   3.767   2.707  14.317 -0.1308 -0.4527 -0.3155
   29MPD2    H5  453   3.749   2.795  14.269  0.7895 -0.4072 -0.5803
   29MPD2    N1  454   3.757   2.225  14.295  0.2781  0.5762 -0.5612
   29MPD2    H7  455   3.802   2.225  14.386 -0.6608 -2.2542 -0.0881
   30TCq2    C1  456   3.771   2.735  14.452  0.6477 -0.6113  0.1099
   30TCq2    O2  457   3.746   2.651  14.541  0.0709 -0.0392 -0.1756
   30TCq2    C2  458   3.772   2.878  14.475 -0.1439 -0.4300  0.0307
   30TCq2    C3  459   3.689   2.937  14.561  1.3750  0.2565 -0.1756
   30TCq2    C4  460   3.672   3.070  14.555  0.1846 -0.1585 -0.0597
   30TCq2    C5  461   3.758   3.153  14.486 -0.0715  0.0865 -0.4402
   30TCq2    C6  462   3.834   3.086  14.396  0.5797  0.1135  0.1272
   30TCq2    C7  463   3.840   2.953  14.383 -0.4485 -0.1818 -0.7804
   30TCq2    C8  464   3.926   3.158  14.308  0.2012 -0.4162 -0.2330
   30TCq2    O4  465   3.952   3.099  14.205 -0.3159  0.4695  0.1187
   30TCq2    C9  466   3.579   3.128  14.650 -0.0022 -0.1046  0.0246
   30TCq2    O5  467   3.588   3.255  14.660 -0.7332 -0.0516  0.1410
   30TCq2    O6  468   3.482   3.061  14.705  0.1477  0.1360 -0.6049
   30TCq2    H2  469   3.621   2.873  14.616  1.0159 -1.3812 -2.4959
   30TCq2    H3  470   3.756   3.261  14.494 -0.1654  0.0530 -0.0033
   30TCq2    H4  471   3.907   2.907  14.312  1.2136  1.6267 -0.3655
   31MPD2     C  472   1.894   1.674  14.942 -0.1835  0.0779 -0.0289
   31MPD2    C1  473   1.757   1.680  14.921 -0.0411  0.5284  0.2245
   31MPD2    C2  474   1.682   1.589  14.993  0.7137  0.0450 -0.6544
   31MPD2    C3  475   1.737   1.476  15.059 -0.0526  0.1615 -0.8796
   31MPD2    C4  476   1.877   1.480  15.078  0.0963 -0.1762  0.5976
   31MPD2    C5  477   1.948   1.588  15.036 -0.0411 -0.2003  1.0212
   31MPD2     H  478   1.574   1.593  14.988  0.6239  0.3479  1.3698
   31MPD2    H1  479   1.927   1.406  15.139 -3.6520 -0.9739  2.7250
   31MPD2    H2  480   1.956   1.742  14.886  0.1838  0.7001  1.1404
   31MPD2    H3  481   2.054   1.591  15.056  0.2870  2.1192 -0.9846
   31MPD2     N  482   1.652   1.378  15.121 -0.6893 -0.4483  0.3333
   31MPD2    H5  483   1.700   1.316  15.184 -0.3620 -1.6493 -1.0974
   31MPD2    N1  484   1.702   1.781  14.839  0.0643 -0.6082 -0.4421
   31MPD2    H7  485   1.767   1.844  14.793  0.0151  0.0934  0.4383
   32TCq2    C1  486   1.518   1.361  15.080 -0.1393 -0.1937  0.0066
   32TCq2    O2  487   1.455   1.406  14.988 -0.1380  0.7712  0.0644
   32TCq2    C2  488   1.451   1.262  15.167  0.0297  0.0040  0.1585
   32TCq2    C3  489   1.310   1.261  15.173  0.3178  0.2744  0.4515
   32TCq2    C4  490   1.240   1.203  15.272 -0.4461  0.5905  1.3118
   32TCq2    C5  491   1.306   1.148  15.375 -0.3602  0.1126 -0.0302
   32TCq2    C6  492   1.443   1.153  15.379  0.1095  0.6204 -0.0672
   32TCq2    C7  493   1.520   1.208  15.278  0.1394 -0.5606 -0.8005
   32TCq2    C8  494   1.523   1.095  15.484 -0.3372  0.8114  0.5001
   32TCq2    O4  495   1.645   1.075  15.467 -1.0584 -0.0999  0.5781
   32TCq2    C9  496   1.097   1.211  15.262  0.3617 -0.2657 -0.4934
   32TCq2    O5  497   1.041   1.261  15.158  0.3458  0.0095 -0.6397
   32TCq2    O6  498   1.034   1.165  15.355 -0.5378 -0.1113  0.6888
   32TCq2    H2  499   1.260   1.317  15.094  2.2655  0.6770 -0.4965
   32TCq2    H3  500   1.244   1.097  15.447 -0.9927  0.7036 -0.1530
   32TCq2    H4  501   1.628   1.197  15.277  0.1267 -0.5651 -2.1730
   33MPD2     C  502   2.115   3.291  10.031  0.2328 -0.6690  0.3995
   33MPD2    C1  503   1.986   3.255  10.006  0.7960  0.0736 -0.0174
   33MPD2    C2  504   1.935   3.265   9.877  0.2197  0.1646 -0.0760
   33MPD2    C3  505   2.023   3.279   9.771  0.3282 -0.2767 -0.5628
   33MPD2    C4  506   2.157   3.311   9.801 -0.0731  0.6288 -0.5409
   33MPD2    C5  507   2.200   3.327   9.931  0.4501  0.3577  0.2697
   33MPD2     H  508   1.830   3.248   9.859  0.2346 -2.1931  2.0054
   33MPD2    H1  509   2.232   3.335   9.726  2.0505 -0.4363  1.2412
   33MPD2    H2  510   2.161   3.289  10.129 -2.0657 -2.0160  1.4305
   33MPD2    H3  511   2.305   3.350   9.947  0.7928 -0.9246 -0.0876
   33MPD2     N  512   1.984   3.295   9.637  0.3516  0.0769 -0.3562
   33MPD2    H5  513   2.041   3.352   9.575  2.4980 -0.1318  1.4024
   33MPD2    N1  514   1.908   3.223  10.118 -0.8504 -0.3229  1.1937
   33MPD2    H7  515   1.945   3.234  10.212 -1.8391 -2.9483  1.8869
   34TCq2    C1  516   1.859   3.255   9.591 -0.2134 -0.0599  0.3643
   34TCq2    O2  517   1.781   3.170   9.626 -0.3289 -0.1659  0.0986
   34TCq2    C2  518   1.815   3.349   9.481 -0.5830  0.7723  0.4324
   34TCq2    C3  519   1.715   3.310   9.396  0.0298 -0.4691  0.5166
   34TCq2    C4  520   1.667   3.404   9.310  1.1111  0.4845  0.5093
   34TCq2    C5  521   1.726   3.526   9.303 -0.5965 -0.3327 -0.3585
   34TCq2    C6  522   1.822   3.563   9.399 -0.9442 -0.2182  0.3977
   34TCq2    C7  523   1.865   3.475   9.495 -0.8914  0.1556 -0.8550
   34TCq2    C8  524   1.868   3.702   9.414 -0.3709 -1.5729 -0.7265
   34TCq2    O4  525   1.953   3.719   9.504 -0.5325  0.4014  0.0815
   34TCq2    C9  526   1.577   3.370   9.203 -0.2665 -0.5908 -1.1589
   34TCq2    O5  527   1.531   3.460   9.127  0.3308 -0.7957 -0.2692
   34TCq2    O6  528   1.544   3.249   9.202 -0.3337  0.2994  0.2837
   34TCq2    H2  529   1.684   3.207   9.386  2.2542 -1.2465  1.7463
   34TCq2    H3  530   1.705   3.592   9.219 -1.3075 -0.5451 -0.3526
   34TCq2    H4  531   1.954   3.503   9.550 -0.9849 -0.1436 -0.5494
   35MPD2     C  532   3.851   0.562  12.160 -0.5894  0.4321  0.1914
   35MPD2    C1  533   3.818   0.437  12.119 -0.2020 -0.3547  0.0157
   35MPD2    C2  534   3.836   0.396  11.989 -0.0565 -1.2637 -0.5409
   35MPD2    C3  535   3.873   0.490  11.892  0.5505  0.1495 -0.3078
   35MPD2    C4  536   3.910   0.619  11.932 -1.0924 -0.4699 -1.0796
   35MPD2    C5  537   3.906   0.649  12.067  0.6297  0.2845 -0.0330
   35MPD2     H  538   3.816   0.296  11.952  0.7291 -0.9100 -1.9326
   35MPD2    H1  539   3.935   0.697  11.861 -2.1040 -0.0903 -1.0178
   35MPD2    H2  540   3.842   0.584  12.265  0.2862  1.5841  0.0139
   35MPD2    H3  541   3.942   0.748  12.095  1.5917  0.1417 -0.7688
   35MPD2     N  542   3.849   0.453  11.764  0.1671  0.1976  0.5538
   35MPD2    H5  543   3.795   0.369  11.749 -0.7465  0.5442  1.8937
   35MPD2    N1  544   3.766   0.350  12.217 -0.0796  0.2611  0.1184
   35MPD2    H7  545   3.744   0.390  12.308  0.9468 -0.6238  0.7745
   36TCq2    C1  546   3.851   0.539  11.657 -0.2317 -0.2691 -0.2407
   36TCq2    O2  547   3.883   0.656  11.642  0.0698  0.2167  0.3555
   36TCq2    C2  548   3.747   0.486  11.573 -0.1250  0.6266 -0.4954
   36TCq2    C3  549   3.630   0.556  11.592 -0.4532 -0.3969 -0.0828
   36TCq2    C4  550   3.515   0.486  11.604 -1.4134 -0.4408 -0.9146
   36TCq2    C5  551   3.518   0.347  11.587  0.4532 -0.3724  0.0587
   36TCq2    C6  552   3.634   0.281  11.548 -0.4019 -0.0156  0.2024
   36TCq2    C7  553   3.754   0.348  11.552  0.3504 -0.5590  1.1680
   36TCq2    C8  554   3.642   0.145  11.574  0.1682 -0.8039 -0.2784
   36TCq2    O4  555   3.546   0.103  11.636  0.0312 -0.7819 -0.0331
   36TCq2    C9  556   3.393   0.550  11.659  0.2506 -0.1784  0.1575
   36TCq2    O5  557   3.302   0.471  11.706  0.3665  0.1155 -0.5285
   36TCq2    O6  558   3.401   0.670  11.676  0.7629 -0.3641 -0.3853
   36TCq2    H2  559   3.632   0.665  11.598  2.9097 -0.5213  1.2289
   36TCq2    H3  560   3.423   0.301  11.609 -0.7064  1.3183 -1.3793
   36TCq2    H4  561   3.851   0.300  11.545  0.0536 -0.4655 -3.2489
   37TMC2    C1  562   0.326   0.630  11.957 -0.0826 -0.2389 -0.4511
   37TMC2    C2  563   0.258   0.569  11.852  0.4748 -0.5708  0.6815
   37TMC2    C3  564   0.340   0.494  11.766  0.7018  0.3282 -0.2464
   37TMC2    C4  565   0.464   0.634  11.966 -0.8902 -0.9289  0.4752
   37TMC2    C5  566   0.539   0.563  11.874 -0.0718  0.3724 -0.0742
   37TMC2    C6  567   0.476   0.482  11.784  0.3721 -0.5596 -0.0102
   37TMC2     C  568   0.240   0.692  12.062 -0.5557 -0.2766 -0.1940
   37TMC2     O  569   0.123   0.711  12.036  0.8579 -0.3201  0.1645
   37TMC2     H  570   0.150   0.573  11.843  0.3646  0.4633  2.4883
   37TMC2    H1  571   0.521   0.697  12.033  0.1709  0.7330 -1.9694
   37TMC2    H2  572   0.532   0.435  11.704  0.8657  2.6573 -1.5465
   37TMC2    C7  573   0.681   0.591  11.858  0.0989 -0.0448  0.0367
   37TMC2    C8  574   0.286   0.439  11.641 -1.2559 -0.2067 -0.0815
   37TMC2    O1  575   0.729   0.632  11.963  0.5824  0.1912 -0.0796
   37TMC2    O2  576   0.171   0.474  11.615  0.4853 -0.0172 -0.2863
   37TMC2    O5  577   0.360   0.339  11.583 -0.2904  0.0421  0.6590
   37TMC2    H5  578   0.445   0.314  11.625  0.7719  1.4496 -0.6447
   38MPD2     C  579   0.169   0.780  12.567 -0.4831  0.4695 -0.0472
   38MPD2    C1  580   0.303   0.768  12.537 -0.2014  0.3373  0.6012
   38MPD2    C2  581   0.346   0.735  12.409 -0.2482 -0.2235  0.5285
   38MPD2    C3  582   0.257   0.739  12.304 -0.0706  0.0017 -0.3412
   38MPD2    C4  583   0.124   0.765  12.329  0.3702  1.1215 -0.4591
   38MPD2    C5  584   0.085   0.791  12.459 -0.1705 -0.6064 -0.9364
   38MPD2     H  585   0.450   0.710  12.391 -0.7000 -0.7118 -1.5289
   38MPD2    H1  586   0.058   0.748  12.245  3.0770  2.4826 -2.8734
   38MPD2    H2  587   0.138   0.795  12.670  2.4161  0.1421  0.8917
   38MPD2    H3  588   4.704   0.814  12.474  0.4203  0.6929  1.2329
   38MPD2     N  589   0.310   0.710  12.175  0.2788 -0.2288  0.4811
   38MPD2    H5  590   0.405   0.676  12.171  0.7002  0.8234  1.5217
   38MPD2    N1  591   0.407   0.768  12.640 -0.2751  0.3721  0.0972
   38MPD2    H7  592   0.491   0.718  12.614 -0.8882  1.1208 -3.4478
   39MPD2     C  593   3.789   2.483   2.185 -0.7849  0.0876  0.2890
   39MPD2    C1  594   3.660   2.518   2.173  1.0850 -0.2263 -0.5441
   39MPD2    C2  595   3.577   2.487   2.069  0.5521 -0.6284  0.2368
   39MPD2    C3  596   3.632   2.431   1.956  0.0393  0.4948  0.2008
   39MPD2    C4  597   3.766   2.382   1.963 -0.6881  0.8397  0.7945
   39MPD2    C5  598   3.844   2.424   2.078 -0.0738 -0.3958 -0.0118
   39MPD2     H  599   3.477   2.528   2.064  1.1133  0.7281 -0.0234
   39MPD2    H1  600   3.823   2.345   1.879  0.2325  1.5359  1.1041
   39MPD2    H2  601   3.846   2.520   2.269 -1.1112 -0.7250  0.8574
   39MPD2    H3  602   3.951   2.408   2.067  0.0650 -0.5565  1.6168
   39MPD2     N  603   3.569   2.427   1.826 -0.0201 -0.2790  0.1602
   39MPD2    H5  604   3.628   2.422   1.744 -0.9295  1.0888 -0.5858
   39MPD2    N1  605   3.606   2.587   2.280  0.0492 -1.3661  0.2783
   39MPD2    H7  606   3.675   2.605   2.353  0.3207 -0.9298 -0.0896
   40TCq2    C1  607   3.476   2.615   2.312 -0.3139 -0.0748 -0.0262
   40TCq2    O2  608   3.376   2.553   2.272  0.0762  0.8308 -0.1704
   40TCq2    C2  609   3.469   2.694   2.434 -0.4874  0.9076 -0.2716
   40TCq2    C3  610   3.352   2.690   2.499  0.5010 -0.1676  0.2996
   40TCq2    C4  611   3.331   2.761   2.609 -0.0899  0.2670  0.2275
   40TCq2    C5  612   3.431   2.839   2.655  0.6428 -0.0806 -0.2864
   40TCq2    C6  613   3.554   2.841   2.589 -0.4631 -0.3971  0.2802
   40TCq2    C7  614   3.581   2.759   2.480  0.6277  0.1911 -0.2122
   40TCq2    C8  615   3.658   2.923   2.651 -0.0298  0.8609  0.2992
   40TCq2    O4  616   3.639   2.969   2.763 -0.1487 -0.3489 -0.5168
   40TCq2    C9  617   3.216   2.740   2.682  0.4122 -0.3710  0.2564
   40TCq2    O5  618   3.132   2.658   2.639 -0.0687 -0.3011 -0.1709
   40TCq2    O6  619   3.198   2.806   2.787  0.4530 -0.0697  0.4551
   40TCq2    H2  620   3.267   2.640   2.455  1.3046  0.3519 -1.8759
   40TCq2    H3  621   3.423   2.908   2.738  0.2583 -2.1804  1.4152
   40TCq2    H4  622   3.676   2.768   2.427  0.2482  1.0372 -0.7392
   41TMC2    C1  623   3.063   0.517  13.535  0.7126  0.0005 -0.3287
   41TMC2    C2  624   3.076   0.640  13.589  0.1495  0.0676  0.1010
   41TMC2    C3  625   3.109   0.736  13.502 -0.4633  0.0285 -1.2671
   41TMC2    C4  626   3.074   0.480  13.407  0.1609 -0.0396 -0.6361
   41TMC2    C5  627   3.093   0.589  13.316 -0.0165 -0.3417 -0.5505
   41TMC2    C6  628   3.120   0.719  13.363 -0.0058 -0.1840 -0.0785
   41TMC2     C  629   3.041   0.407  13.631 -0.4808 -0.3839  0.2475
   41TMC2     O  630   3.056   0.296  13.590 -0.0319  0.2732 -0.3533
   41TMC2     H  631   3.092   0.656  13.695  0.3201  0.4327  0.0202
   41TMC2    H1  632   3.079   0.377  13.374  0.7231 -0.0655 -0.4830
   41TMC2    H2  633   3.136   0.797  13.290  1.7535  1.4820  2.0808
   41TMC2    C7  634   3.112   0.561  13.176  0.0115  0.2901 -0.0410
   41TMC2    C8  635   3.109   0.870  13.553 -0.1665 -0.2431 -0.7053
   41TMC2    O1  636   3.169   0.648  13.111  0.0398 -0.5702 -0.2231
   41TMC2    O2  637   3.068   0.890  13.663 -0.0078 -0.1407 -0.4086
   41TMC2    O5  638   3.211   0.939  13.503  0.1467 -0.3021 -0.7160
   41TMC2    H5  639   3.246   0.906  13.417  0.8564 -1.2531 -0.0551
   42MPD2     C  640   3.064   0.254  13.885  0.4409  0.1130  0.3229
   42MPD2    C1  641   2.987   0.366  13.869 -0.7300 -0.0151  0.4075
   42MPD2    C2  642   2.923   0.417  13.979  0.2962  0.3536  0.5906
   42MPD2    C3  643   2.947   0.366  14.106  0.5866  0.1486  0.7015
   42MPD2    C4  644   3.018   0.253  14.129 -0.1594  0.1873 -0.0176
   42MPD2    C5  645   3.076   0.201  14.015  0.1138  0.3391  0.6618
   42MPD2     H  646   2.867   0.509  13.967  1.2772  0.8501 -0.1398
   42MPD2    H1  647   3.027   0.203  14.224 -1.7101  1.8571  1.0257
   42MPD2    H2  648   3.108   0.196  13.805 -3.5030 -0.2285 -1.6171
   42MPD2    H3  649   3.138   0.113  14.032 -1.4779 -0.5301  1.9676
   42MPD2     N  650   2.886   0.420  14.215 -0.7845 -0.2630  0.1114
   42MPD2    H5  651   2.918   0.390  14.307 -0.1726 -1.7931 -0.6008
   42MPD2    N1  652   2.985   0.445  13.751  0.1056  0.2818 -0.1926
   42MPD2    H7  653   2.944   0.538  13.758 -0.3706 -0.0312  1.1626
   43MPD2     C  654   3.884   3.278   1.088  0.2471  0.0381  0.4120
   43MPD2    C1  655   4.001   3.250   1.149 -0.1736 -0.7797 -0.3043
   43MPD2    C2  656   4.019   3.281   1.281 -0.1412  0.0755  0.4623
   43MPD2    C3  657   3.915   3.333   1.349  0.0106 -0.2064  0.1406
   43MPD2    C4  658   3.804   3.363   1.281  0.3475  0.3200  0.2533
   43MPD2    C5  659   3.784   3.333   1.152  0.1107 -0.1959 -0.4717
   43MPD2     H  660   4.114   3.256   1.328 -0.5062 -1.7866  0.2201
   43MPD2    H1  661   3.719   3.411   1.328 -0.4792 -0.8383 -0.0535
   43MPD2    H2  662   3.876   3.272   0.980 -0.8963 -0.0823  0.5033
   43MPD2    H3  663   3.689   3.352   1.103  0.5540 -0.5290 -1.4620
   43MPD2     N  664   3.919   3.374   1.487  0.0241  0.1203 -0.6384
   43MPD2    H5  665   3.833   3.411   1.526  0.4825 -1.0635  1.4900
   43MPD2    N1  666   4.110   3.183   1.080  0.6620 -0.2696  0.9704
   43MPD2    H7  667   4.189   3.155   1.138 -0.6575 -2.1538  1.8456
   44TCq2    C1  668   4.179   3.497   2.006  0.6984  0.3321  0.7047
   44TCq2    O2  669   4.296   3.463   1.976  0.2015  0.3277 -0.1898
   44TCq2    C2  670   4.081   3.500   1.903  0.5655 -0.7556 -0.6877
   44TCq2    C3  671   3.977   3.592   1.921 -0.5616 -0.0427  0.1620
   44TCq2    C4  672   3.904   3.616   1.807  0.0790 -0.0980  0.5479
   44TCq2    C5  673   3.912   3.539   1.700 -0.6522 -0.1008  0.1865
   44TCq2    C6  674   3.995   3.434   1.696  0.0554  0.0154 -0.1672
   44TCq2    C7  675   4.085   3.417   1.794 -0.2068 -0.4945 -0.7923
   44TCq2    C8  676   4.022   3.365   1.573  0.1106 -0.1690 -0.3205
   44TCq2    O4  677   4.140   3.331   1.555 -0.3787  0.4252  0.0419
   44TCq2    C9  678   3.827   3.746   1.797 -0.0050 -0.4952  0.4666
   44TCq2    O5  679   3.832   3.818   1.898  0.0531  0.7094 -0.2651
   44TCq2    O6  680   3.776   3.790   1.693  0.2049 -0.2196  0.1623
   44TCq2    H2  681   3.980   3.674   1.991 -0.3248 -0.4029  0.5691
   44TCq2    H3  682   3.860   3.572   1.611 -0.4429  0.2930  0.2109
   44TCq2    H4  683   4.157   3.336   1.791 -1.9473 -2.1862  2.6191
   45TMC2    C1  684   4.681   0.237   9.907 -0.3418 -0.4641  0.2074
   45TMC2    C2  685   4.566   0.301   9.880  0.2222  0.0558  0.3967
   45TMC2    C3  686   4.572   0.430   9.930 -1.1928  0.0855  0.1802
   45TMC2    C4  687   0.067   0.281   9.979  0.0306 -0.3373  0.0313
   45TMC2    C5  688   0.055   0.406  10.035 -0.3367  0.6773  0.5134
   45TMC2    C6  689   4.666   0.486  10.012 -0.0992 -1.1841 -0.2002
   45TMC2     C  690   4.675   0.094   9.898 -0.7287 -0.1342  0.1836
   45TMC2     O  691   0.037   0.044   9.969 -0.2963 -0.4153 -0.6582
   45TMC2     H  692   4.471   0.263   9.847 -0.2189 -0.2320  2.0123
   45TMC2    H1  693   0.151   0.224  10.016  2.3280  1.9784 -1.5239
   45TMC2    H2  694   4.660   0.588  10.048 -0.5013 -0.0675 -3.4063
   45TMC2    C7  695   0.143   0.449  10.149  0.2014 -0.2860  0.5433
   45TMC2    C8  696   4.440   0.494   9.939  0.1924 -0.4044 -0.1713
   45TMC2    O1  697   0.116   0.555  10.198 -0.3783 -0.6026 -0.1340
   45TMC2    O2  698   4.336   0.433   9.953  0.4603  0.1049 -0.0633
   45TMC2    O5  699   4.463   0.620   9.912 -0.1873 -0.7398  0.9352
   45TMC2    H5  700   4.545   0.636   9.860 -1.3819 -1.7714 -1.2904
   46MPD2     C  701   4.625   4.531   9.834  0.2645  0.1895 -0.0368
   46MPD2    C1  702   4.567   4.642   9.775 -0.2616  0.6627  0.1653
   46MPD2    C2  703   4.492   4.602   9.662  0.4915 -0.5135  0.1343
   46MPD2    C3  704   4.469   4.471   9.625 -0.3378 -0.0068 -0.7458
   46MPD2    C4  705   4.515   4.368   9.706 -0.2449 -0.0582  0.6070
   46MPD2    C5  706   4.597   4.399   9.811  0.0139 -0.1571 -0.1788
   46MPD2     H  707   4.449   4.677   9.597  0.0846 -2.3956 -1.7890
   46MPD2    H1  708   4.486   4.265   9.690  1.1552 -0.4293  0.4804
   46MPD2    H2  709   4.689   4.548   9.920  5.2648 -0.9107 -3.5626
   46MPD2    H3  710   4.645   4.321   9.869 -1.9247 -0.4124  1.0844
   46MPD2     N  711   4.378   4.444   9.517  0.2747 -0.2968  0.0217
   46MPD2    H5  712   4.335   4.521   9.467 -4.2530 -2.5910  0.3709
   46MPD2    N1  713   4.597   0.048   9.796  0.5810  0.2336 -0.1590
   46MPD2    H7  714   4.559   0.118   9.733 -0.7760 -1.2478 -0.9542
   47TMC2    C1  715   1.868   1.333   9.465  0.2239  0.6632  1.0831
   47TMC2    C2  716   1.850   1.414   9.356  0.2816 -0.6918  0.3972
   47TMC2    C3  717   1.779   1.357   9.250 -0.0892  0.6723  0.1787
   47TMC2    C4  718   1.824   1.198   9.470 -0.0687  0.0071 -0.1781
   47TMC2    C5  719   1.746   1.152   9.365 -0.1518  0.4009  0.4027
   47TMC2    C6  720   1.725   1.226   9.252  0.1295 -1.0801  0.2113
   47TMC2     C  721   1.958   1.375   9.575  0.0137 -0.1045 -0.1484
   47TMC2     O  722   1.968   1.493   9.600  0.2614 -0.0547 -0.3766
   47TMC2     H  723   1.896   1.513   9.354 -1.6228  0.1550 -1.0260
   47TMC2    H1  724   1.841   1.138   9.559  2.5847 -1.2530 -1.5285
   47TMC2    H2  725   1.669   1.177   9.173  2.3060  0.0725 -2.0570
   47TMC2    C7  726   1.698   1.018   9.369 -0.2323 -1.1700 -0.7809
   47TMC2    C8  727   1.785   1.430   9.125  0.1489 -0.0768  0.4171
   47TMC2    O1  728   1.628   0.989   9.276  0.8959 -0.1358  0.2385
   47TMC2    O2  729   1.832   1.374   9.025  0.0684 -0.4346  0.5312
   47TMC2    O5  730   1.798   1.567   9.147  0.5165  0.8302 -0.0990
   47TMC2    H5  731   1.744   1.595   9.224  1.8888  1.2226  0.7174
   48MPD2     C  732   2.177   1.392   9.788 -0.1907 -0.1138 -0.1014
   48MPD2    C1  733   2.135   1.278   9.719  0.0048 -0.3692  0.2520
   48MPD2    C2  734   2.216   1.165   9.733 -0.1131  0.6644 -0.4576
   48MPD2    C3  735   2.318   1.155   9.825  0.0751 -1.4296 -0.0785
   48MPD2    C4  736   2.350   1.267   9.902 -0.3433  0.0481 -0.1816
   48MPD2    C5  737   2.282   1.383   9.878 -0.5739  0.2093  0.0821
   48MPD2     H  738   2.202   1.084   9.662 -1.3531  1.3704 -1.0235
   48MPD2    H1  739   2.420   1.259   9.985  0.1170 -1.1164 -0.6856
   48MPD2    H2  740   2.124   1.486   9.774 -0.5993 -0.2692  0.4106
   48MPD2    H3  741   2.306   1.472   9.936 -2.4366 -0.0590  1.2674
   48MPD2     N  742   2.394   1.035   9.834  0.8617  0.4790  0.5251
   48MPD2    H5  743   2.357   0.967   9.769 -1.6758  0.5361  1.9034
   48MPD2    N1  744   2.030   1.272   9.622 -0.0830  0.0016  0.2014
   48MPD2    H7  745   2.027   1.181   9.576  1.8289 -0.0100  0.0962
   49MPD2     C  746   1.353   2.804  10.225  0.3194  0.2206  0.7980
   49MPD2    C1  747   1.236   2.759  10.285 -0.1220 -0.7381  0.3135
   49MPD2    C2  748   1.222   2.764  10.424  0.2149  0.6664 -0.7262
   49MPD2    C3  749   1.317   2.823  10.505 -0.4386  0.8943  0.5563
   49MPD2    C4  750   1.434   2.866  10.440  0.0530 -0.5816  0.9386
   49MPD2    C5  751   1.451   2.860  10.302 -0.3055 -0.5956 -0.4688
   49MPD2     H  752   1.136   2.718  10.471  0.3111  2.7734  1.5025
   49MPD2    H1  753   1.513   2.917  10.494  0.8004 -1.6713  0.8702
   49MPD2    H2  754   1.365   2.806  10.117  0.1317  0.7674  0.7878
   49MPD2    H3  755   1.538   2.911  10.261 -0.6528  0.3732 -0.0074
   49MPD2     N  756   1.302   2.830  10.644 -0.2496  0.3623  0.1811
   49MPD2    H5  757   1.367   2.889  10.694  1.5111  0.0026 -1.7033
   49MPD2    N1  758   1.138   2.697  10.213  0.1935 -0.3574 -0.6251
   49MPD2    H7  759   1.067   2.645  10.263  1.3514 -1.7375 -0.4105
   50TCq2    C1  760   1.119   2.695  10.075  0.2623  0.7284  0.3631
   50TCq2    O2  761   1.167   2.772   9.995 -0.3851 -0.5424 -0.6501
   50TCq2    C2  762   1.032   2.588  10.033  0.4330 -0.7634  0.3201
   50TCq2    C3  763   0.944   2.538  10.117  0.2934 -0.6634  0.4067
   50TCq2    C4  764   0.882   2.431  10.069 -0.2013  0.1824 -0.6357
   50TCq2    C5  765   0.906   2.372   9.952  0.3325 -0.6597 -0.5825
   50TCq2    C6  766   0.999   2.426   9.874 -0.0274  0.2705  0.5419
   50TCq2    C7  767   1.064   2.537   9.911 -0.3531  0.1719  0.1572
   50TCq2    C8  768   1.020   2.373   9.737 -0.0036 -0.5088 -0.0292
   50TCq2    O4  769   1.097   2.431   9.667 -0.5244  0.4914 -0.3576
   50TCq2    C9  770   0.776   2.381  10.154 -0.0388  0.3130 -0.1081
   50TCq2    O5  771   0.689   2.318  10.093  0.3229  0.1686 -0.0517
   50TCq2    O6  772   0.773   2.421  10.271 -0.3301  0.0636  0.2708
   50TCq2    H2  773   0.913   2.589  10.207  0.3965 -2.2126  1.3149
   50TCq2    H3  774   0.855   2.277   9.939 -1.5626  0.2072  0.5375
   50TCq2    H4  775   1.146   2.585   9.859  0.2449  0.1966  1.1294
   51MPD2     C  776   1.180   1.713   1.472 -0.1785  0.1152 -0.0192
   51MPD2    C1  777   1.089   1.733   1.366  0.3758  0.4891 -0.9523
   51MPD2    C2  778   0.995   1.827   1.373  0.2425 -0.2979  0.5211
   51MPD2    C3  779   0.976   1.898   1.491 -0.4646  0.3191  0.1520
   51MPD2    C4  780   1.064   1.884   1.597  0.1138  0.5555 -0.3096
   51MPD2    C5  781   1.171   1.794   1.587  0.0027 -0.4914 -0.0266
   51MPD2     H  782   0.931   1.845   1.286 -1.0768 -1.9610  1.1570
   51MPD2    H1  783   1.051   1.937   1.691  0.9023 -0.1564  0.2004
   51MPD2    H2  784   1.264   1.644   1.460 -0.2770 -0.0901  0.4896
   51MPD2    H3  785   1.244   1.773   1.665  0.5558 -1.7247 -0.8584
   51MPD2     N  786   0.876   1.989   1.499  0.4306  0.0938 -0.1522
   51MPD2    H5  787   0.865   2.047   1.582 -0.1518 -1.0455  0.5856
   51MPD2    N1  788   1.096   1.650   1.246 -0.9780  0.4099  0.1314
   51MPD2    H7  789   1.168   1.579   1.245 -0.4329  0.9833 -0.9052
   52TCq2    C1  790   0.775   2.014   1.411  0.1877  1.2417 -0.3344
   52TCq2    O2  791   0.730   1.946   1.315  0.2402 -0.2857  0.4097
   52TCq2    C2  792   0.718   2.145   1.442  0.2913  0.0294 -0.3007
   52TCq2    C3  793   0.589   2.179   1.402 -0.3020 -0.4935  0.8131
   52TCq2    C4  794   0.544   2.307   1.412  0.4708 -0.2146 -0.0510
   52TCq2    C5  795   0.626   2.402   1.464 -0.3147 -0.5156  0.7062
   52TCq2    C6  796   0.754   2.369   1.505  0.5855 -0.3703  0.0080
   52TCq2    C7  797   0.803   2.237   1.499 -0.0116  0.3196 -0.3670
   52TCq2    C8  798   0.858   2.467   1.546  0.8471 -0.8173 -0.6056
   52TCq2    O4  799   0.961   2.421   1.599 -0.9421 -0.4309  0.1537
   52TCq2    C9  800   0.402   2.343   1.387  0.4054  0.6596  0.4271
   52TCq2    O5  801   0.373   2.466   1.409 -0.0008  0.3070  0.0583
   52TCq2    O6  802   0.321   2.255   1.352  0.0445  0.0722  0.0756
   52TCq2    H2  803   0.519   2.104   1.366 -0.3164  0.8586 -1.9781
   52TCq2    H3  804   0.596   2.506   1.468 -0.3238 -0.5439  1.3485
   52TCq2    H4  805   0.905   2.212   1.526  0.0495  1.9970  0.9590
   53TMC2    C1  806   1.361   0.838  11.989  0.0718 -0.1827  0.5690
   53TMC2    C2  807   1.477   0.902  11.992 -0.2963  0.3075  0.7146
   53TMC2    C3  808   1.492   1.001  12.086  0.4062  0.5989  0.8635
   53TMC2    C4  809   1.267   0.848  12.091 -0.1207 -0.1943  0.4172
   53TMC2    C5  810   1.293   0.938  12.188 -0.4375  0.1544  0.0388
   53TMC2    C6  811   1.402   1.020  12.185  0.4393  0.3681  0.0205
   53TMC2     C  812   1.321   0.781  11.861  0.1209  0.5999  0.1592
   53TMC2     O  813   1.403   0.785  11.768  0.2963 -0.0441  0.4915
   53TMC2     H  814   1.540   0.903  11.904 -1.0834  0.5897  0.1578
   53TMC2    H1  815   1.183   0.780  12.101 -1.7068  1.7513  0.3380
   53TMC2    H2  816   1.422   1.093  12.262 -1.1638 -0.3331  1.1114
   53TMC2    C7  817   1.185   0.995  12.257 -0.3688  0.0218 -0.4044
   53TMC2    C8  818   1.604   1.091  12.076  0.0395 -0.6285  0.3060
   53TMC2    O1  819   1.077   0.988  12.200  0.2339  0.0212  0.2969
   53TMC2    O2  820   1.610   1.206  12.117  0.4025  0.5502 -0.6729
   53TMC2    O5  821   1.701   1.016  12.031  0.4570 -0.8038  0.4083
   53TMC2    H5  822   1.681   0.921  12.038 -1.5424 -0.3729  0.4806
   54MPD2     C  823   1.135   0.665  11.639 -0.6910 -0.0958  0.2212
   54MPD2    C1  824   1.101   0.690  11.766  0.5599  0.1152  0.4684
   54MPD2    C2  825   0.968   0.662  11.804  0.5013 -0.0698  0.5631
   54MPD2    C3  826   0.878   0.619  11.712  0.3351  0.6126  0.2432
   54MPD2    C4  827   0.923   0.590  11.583 -0.0138  0.5844  0.2673
   54MPD2    C5  828   1.046   0.628  11.544 -0.8212  1.0537 -0.4595
   54MPD2     H  829   0.938   0.676  11.907 -0.4185 -3.8496  0.8357
   54MPD2    H1  830   0.855   0.556  11.505 -0.0789 -2.0159  1.4728
   54MPD2    H2  831   1.238   0.677  11.605 -0.9122 -0.8257 -0.7036
   54MPD2    H3  832   1.083   0.616  11.443  0.3602  0.5080  0.0337
   54MPD2     N  833   0.738   0.593  11.735 -0.2285 -0.2309  0.2003
   54MPD2    H5  834   0.686   0.556  11.656 -1.1226  1.7035 -0.1152
   54MPD2    N1  835   1.188   0.737  11.870  0.0999 -0.8972  0.6491
   54MPD2    H7  836   1.151   0.742  11.964 -0.5069 -1.3795  0.4410
   55MPD2     C  837   2.275   3.075   0.498 -0.3111  0.2078  0.8097
   55MPD2    C1  838   2.229   3.012   0.613 -0.2285  0.0599 -0.2757
   55MPD2    C2  839   2.113   3.059   0.678  0.9253  0.2947  0.2394
   55MPD2    C3  840   2.036   3.165   0.629  1.0296 -0.2023 -0.4582
   55MPD2    C4  841   2.079   3.224   0.512  0.0233 -0.0126 -0.2439
   55MPD2    C5  842   2.206   3.188   0.454 -0.7287  0.2311  0.1086
   55MPD2     H  843   2.081   3.024   0.776  1.8253 -0.8037  0.1516
   55MPD2    H1  844   2.035   3.318   0.482 -1.0691 -1.1272 -2.0579
   55MPD2    H2  845   2.373   3.051   0.459 -1.9963 -0.2785 -3.0944
   55MPD2    H3  846   2.252   3.256   0.383  1.6243 -1.5584 -0.0836
   55MPD2     N  847   1.915   3.202   0.691 -0.1004 -0.4639 -0.6046
   55MPD2    H5  848   1.918   3.176   0.789 -0.7785 -2.7773 -1.1879
   55MPD2    N1  849   2.316   2.914   0.658  0.4608 -0.6102 -0.3991
   55MPD2    H7  850   2.389   2.896   0.591  0.6819  1.5311 -0.7272
   56TCq2    C1  851   2.308   2.854   0.784  0.3232  0.1510 -0.1026
   56TCq2    O2  852   2.243   2.900   0.879 -0.3422 -0.2783  0.1186
   56TCq2    C2  853   2.414   2.757   0.814  0.1174  0.4183 -1.0726
   56TCq2    C3  854   2.501   2.713   0.714  0.5530 -0.3726 -0.6349
   56TCq2    C4  855   2.599   2.621   0.750  0.2596  0.3925 -0.1540
   56TCq2    C5  856   2.621   2.586   0.883  0.0571  0.5225  0.0868
   56TCq2    C6  857   2.535   2.641   0.976  0.3647  0.4039  0.3750
   56TCq2    C7  858   2.429   2.713   0.946  0.3324 -0.7071 -0.0853
   56TCq2    C8  859   2.524   2.569   1.102 -0.4892  1.3091  0.0392
   56TCq2    O4  860   2.625   2.530   1.159  0.7819  0.0122  0.1089
   56TCq2    C9  861   2.684   2.570   0.646 -0.0986 -1.0709  0.0017
   56TCq2    O5  862   2.624   2.558   0.539 -0.1610  0.4234 -0.2099
   56TCq2    O6  863   2.792   2.512   0.680 -0.6227 -0.0416  0.4871
   56TCq2    H2  864   2.493   2.741   0.610 -0.4138  0.6840 -0.2731
   56TCq2    H3  865   2.697   2.515   0.912 -1.1162 -0.9134 -0.3443
   56TCq2    H4  866   2.373   2.771   1.019  1.4515 -1.2371  1.1869
   57TMC2    C1  867   1.109   3.980  13.642 -0.5064 -0.4212 -0.0153
   57TMC2    C2  868   1.100   3.842  13.625  0.8720 -0.4361  0.6738
   57TMC2    C3  869   1.196   3.787  13.544  0.5813 -0.4018 -0.0649
   57TMC2    C4  870   1.202   4.058  13.577 -0.1683  0.0579  0.2196
   57TMC2    C5  871   1.303   3.995  13.508 -0.2330  0.4921  0.7054
   57TMC2    C6  872   1.300   3.860  13.487 -0.4331 -0.0469 -0.3458
   57TMC2     C  873   0.996   4.053  13.699 -0.2316  0.3752  0.8146
   57TMC2     O  874   1.018   4.171  13.728  0.4295 -0.6929  0.0063
   57TMC2     H  875   1.032   3.779  13.681  0.0608 -0.8737 -0.7794
   57TMC2    H1  876   1.212   4.162  13.607  0.6745  0.9194 -3.0025
   57TMC2    H2  877   1.377   3.807  13.431 -0.9281 -1.1359  0.0011
   57TMC2    C7  878   1.386   4.073  13.419  0.1194 -0.5745  0.3855
   57TMC2    C8  879   1.198   3.649  13.530  0.3671  0.4866 -0.7823
   57TMC2    O1  880   1.327   4.166  13.359  0.2119  0.2127  0.1909
   57TMC2    O2  881   1.304   3.592  13.498 -0.9000  0.4396  0.3054
   57TMC2    O5  882   1.076   3.589  13.527 -0.3493  0.5900  0.1903
   57TMC2    H5  883   1.003   3.653  13.530 -0.5483  0.3361  0.7167
   58MPD2     C  884   0.511   4.167  13.792 -0.0956  0.7222  0.2387
   58MPD2    C1  885   0.627   4.204  13.857  0.1305 -0.8561  0.3988
   58MPD2    C2  886   0.744   4.154  13.818  0.8345 -0.1894 -0.5124
   58MPD2    C3  887   0.750   4.059  13.719  0.0051 -0.1376 -0.4048
   58MPD2    C4  888   0.633   4.018  13.656 -0.1873  0.4288  0.7424
   58MPD2    C5  889   0.515   4.079  13.687 -0.6838  0.4435  0.8349
   58MPD2     H  890   0.836   4.188  13.865  0.0416 -1.4712  1.9373
   58MPD2    H1  891   0.640   3.950  13.572 -0.7400  2.3435 -0.8450
   58MPD2    H2  892   0.415   4.213  13.815 -0.0200  1.0731 -0.1511
   58MPD2    H3  893   0.423   4.053  13.637  0.9518 -3.5060 -0.1258
   58MPD2     N  894   0.871   3.999  13.672 -0.0343  0.0280 -0.0532
   58MPD2    H5  895   0.870   3.912  13.619 -1.6692  0.7259 -1.1790
   58MPD2    N1  896   0.623   4.296  13.965 -0.1330  0.1245 -0.1645
   58MPD2    H7  897   0.712   4.310  14.013 -1.2318  1.7373  1.3941
   59MPD2     C  898   3.514   4.322  13.381  0.1648 -0.1297  0.0506
   59MPD2    C1  899   3.614   4.308  13.298 -0.7506  0.2040 -0.3625
   59MPD2    C2  900   3.733   4.379  13.316  0.1200 -0.2534 -0.3889
   59MPD2    C3  901   3.748   4.468  13.429  0.4455 -0.1968  0.6012
   59MPD2    C4  902   3.645   4.470  13.513 -0.0763  0.4401  1.0019
   59MPD2    C5  903   3.527   4.404  13.488 -0.1747  0.1318  0.5660
   59MPD2     H  904   3.820   4.355  13.257  1.6481  1.6018  1.0908
   59MPD2    H1  905   3.661   4.529  13.603 -1.2135 -0.1294  1.5746
   59MPD2    H2  906   3.421   4.270  13.366 -0.5351  1.2096 -0.2651
   59MPD2    H3  907   3.452   4.406  13.566  1.1660 -2.4051  1.8956
   59MPD2     N  908   3.866   4.546  13.449  0.0946  0.2912  0.1752
   59MPD2    H5  909   3.870   4.608  13.529  1.3253  1.7536 -0.9982
   59MPD2    N1  910   3.612   4.212  13.193 -0.2144  0.0608  0.1254
   59MPD2    H7  911   3.695   4.208  13.135  0.6312  0.3154  1.2967
   60TCq2    C1  912   3.533   4.100  13.172  0.1006  0.1558  0.4508
   60TCq2    O2  913   3.449   4.057  13.253 -0.5166  0.1297  0.2653
   60TCq2    C2  914   3.586   4.013  13.068 -0.8757 -0.1896 -0.4246
   60TCq2    C3  915   3.606   3.892  13.115 -0.4350  0.4534 -0.5123
   60TCq2    C4  916   3.648   3.800  13.026  0.1582 -0.9154  0.4813
   60TCq2    C5  917   3.681   3.836  12.893 -1.0536  0.0592  0.5329
   60TCq2    C6  918   3.657   3.968  12.848  0.5031 -0.4032  0.2870
   60TCq2    C7  919   3.613   4.058  12.941  0.2395  0.1366  0.4658
   60TCq2    C8  920   3.721   4.004  12.724 -0.1055 -0.3575 -0.1665
   60TCq2    O4  921   3.794   3.923  12.668  0.3082  0.7587 -0.4928
   60TCq2    C9  922   3.657   3.660  13.064 -0.2011  0.8178  0.0509
   60TCq2    O5  923   3.718   3.584  12.978 -0.4212 -0.5446 -0.4205
   60TCq2    O6  924   3.613   3.631  13.180  0.6548  0.2771 -0.0051
   60TCq2    H2  925   3.595   3.871  13.221 -1.6547  1.0476 -0.5192
   60TCq2    H3  926   3.710   3.759  12.822 -2.3153  2.6167 -2.7127
   60TCq2    H4  927   3.598   4.164  12.925  3.3991  0.6831  1.1190
   61MPD2     C  928   3.432   0.883  15.420 -0.0766 -0.4773 -0.1197
   61MPD2    C1  929   3.322   0.961  15.384 -0.5428  0.9920 -0.6054
   61MPD2    C2  930   3.303   1.004  15.254 -0.0219  0.4375  0.2297
   61MPD2    C3  931   3.393   0.976  15.155 -0.1990 -0.1920  0.5774
   61MPD2    C4  932   3.498   0.893  15.187 -0.0918  0.4282  0.3206
   61MPD2    C5  933   3.507   0.838  15.315  0.3455  1.0084 -0.2809
   61MPD2     H  934   3.217   1.069  15.239 -0.4723  0.3000  2.2649
   61MPD2    H1  935   3.576   0.861  15.119  0.3223 -0.1707  1.0765
   61MPD2    H2  936   3.451   0.851  15.522  0.1248 -0.1762 -0.0624
   61MPD2    H3  937   3.598   0.780  15.328  0.1617  0.1714 -2.6275
   61MPD2     N  938   3.384   1.049  15.035  0.0681  0.2390  0.1142
   61MPD2    H5  939   3.309   1.117  15.024  2.5024  2.5453 -2.1586
   61MPD2    N1  940   3.232   1.002  15.486 -0.5841  0.4350 -0.3437
   61MPD2    H7  941   3.157   1.066  15.460 -0.8049  0.3121 -0.0073
   62TCq2    C1  942   3.241   0.981  15.618  0.1611 -0.1796 -0.4728
   62TCq2    O2  943   3.293   0.887  15.674 -0.3636 -0.0913  0.1654
   62TCq2    C2  944   3.154   1.066  15.693 -0.0955  0.4988 -0.1731
   62TCq2    C3  945   3.083   1.007  15.793 -0.6788  0.0793  0.1412
   62TCq2    C4  946   2.962   1.060  15.830  0.1059  0.0294 -0.3527
   62TCq2    C5  947   2.916   1.177  15.772  0.3490  0.3291  0.2270
   62TCq2    C6  948   2.986   1.228  15.665 -0.2247  0.0760 -0.2594
   62TCq2    C7  949   3.102   1.174  15.623  0.2717 -0.7699 -0.5922
   62TCq2    C8  950   2.944   1.353  15.602  0.7453  0.5647 -0.0650
   62TCq2    O4  951   3.033   1.407  15.539  0.1952  0.0285  0.2163
   62TCq2    C9  952   2.889   1.002  15.937  0.0291 -0.4314  0.2680
   62TCq2    O5  953   2.791   1.067  15.983  0.2756 -0.0333 -0.4829
   62TCq2    O6  954   2.916   0.880  15.964  0.4864 -0.0775 -0.0284
   62TCq2    H2  955   3.123   0.915  15.836 -1.1295 -0.6243 -0.9421
   62TCq2    H3  956   2.826   1.228  15.804 -0.2104  0.3551 -1.4286
   62TCq2    H4  957   3.171   1.216  15.551 -0.4056 -0.7853 -1.2432
   63TMC2    C1  958   2.698   0.796  10.973  0.3454  0.1552  0.2267
   63TMC2    C2  959   2.816   0.840  11.029  0.1562 -0.6447  0.5818
   63TMC2    C3  960   2.872   0.950  10.975 -0.4765  0.3129  0.0217
   63TMC2    C4  961   2.626   0.860  10.873  0.2451 -0.8846 -0.6451
   63TMC2    C5  962   2.684   0.979  10.827  0.7568  0.0139 -0.1966
   63TMC2    C6  963   2.814   1.022  10.871 -0.3271  1.1406  0.4660
   63TMC2     C  964   2.641   0.689  11.057  0.9065  0.2588  0.5640
   63TMC2     O  965   2.695   0.663  11.164  0.5978  0.5868  0.4939
   63TMC2     H  966   2.853   0.797  11.121  0.1327 -1.3281  0.2679
   63TMC2    H1  967   2.530   0.824  10.838  1.1272 -2.2828 -1.6733
   63TMC2    H2  968   2.858   1.110  10.826  1.6946 -0.9078 -1.5622
   63TMC2    C7  969   2.618   1.058  10.718 -0.2790  0.7301 -0.4983
   63TMC2    C8  970   3.004   0.989  11.019  0.1838  0.1202 -0.6926
   63TMC2    O1  971   2.529   0.996  10.656  0.2818 -0.3968 -0.2387
   63TMC2    O2  972   3.046   1.107  11.026 -0.3348 -0.1947  0.0681
   63TMC2    O5  973   3.080   0.881  11.023  0.3543 -0.2388  0.0741
   63TMC2    H5  974   3.032   0.800  10.995  2.7298 -2.4732  2.4810
   64MPD2     C  975   2.316   0.302  11.178 -0.1891  0.4870  0.0473
   64MPD2    C1  976   2.309   0.328  11.039  0.4928  0.9363 -0.3970
   64MPD2    C2  977   2.378   0.438  10.991 -0.6697 -0.4911 -0.6151
   64MPD2    C3  978   2.447   0.527  11.073 -0.0458  0.1649  0.3823
   64MPD2    C4  979   2.452   0.500  11.205  0.0797  0.1146  0.4689
   64MPD2    C5  980   2.395   0.385  11.260 -0.4167  0.1087 -0.4338
   64MPD2     H  981   2.384   0.444  10.883  1.2147  1.1640 -0.4165
   64MPD2    H1  982   2.512   0.564  11.269 -1.1058  0.3604  1.3342
   64MPD2    H2  983   2.275   0.211  11.220  1.9328 -0.4204  0.1672
   64MPD2    H3  984   2.405   0.363  11.366  1.1789  1.3606 -0.3329
   64MPD2     N  985   2.526   0.638  11.011  0.1742  0.1298  0.2809
   64MPD2    H5  986   2.512   0.667  10.914 -0.0964 -0.4217  0.1537
   64MPD2    N1  987   2.243   0.239  10.949  0.1727 -0.4920 -0.2342
   64MPD2    H7  988   2.267   0.252  10.851 -2.4057  0.8817 -0.6672
   65MPD2     C  989   3.860   0.347  16.027  0.0402 -0.1955  0.1990
   65MPD2    C1  990   3.856   0.321  15.890  0.2469 -0.5148 -0.3341
   65MPD2    C2  991   3.791   0.214  15.841  0.0942 -0.6933  0.4653
   65MPD2    C3  992   3.734   0.120  15.921  0.5397 -0.1900 -0.2476
   65MPD2    C4  993   3.730   0.153  16.059  0.2514  0.4390 -0.0096
   65MPD2    C5  994   3.798   0.265  16.108  0.0005  0.1879  0.1845
   65MPD2     H  995   3.796   0.195  15.734 -0.7183  0.4747  0.2240
   65MPD2    H1  996   3.680   0.083  16.125  0.9334  1.4334  1.5413
   65MPD2    H2  997   3.914   0.434  16.062 -0.0514  0.2063 -0.6593
   65MPD2    H3  998   3.796   0.281  16.215  1.4818 -0.3923  0.2987
   65MPD2     N  999   3.677   0.006  15.868 -0.1244 -0.1920 -0.3398
   65MPD2    H5 1000   3.629   4.670  15.934  2.1829  0.3615  1.8146
   65MPD2    N1 1001   3.918   0.420  15.803  0.5193  0.7922  0.1463
   65MPD2    H7 1002   3.929   0.408  15.703 -1.8326 -1.5979  0.1737
   66TCq2    C1 1003   3.975   0.544  15.838 -0.2233 -0.0915  0.1631
   66TCq2    O2 1004   3.955   0.612  15.938 -0.2861 -0.1244 -0.2944
   66TCq2    C2 1005   3.994   0.621  15.721 -0.0063 -0.1431 -0.4598
   66TCq2    C3 1006   4.048   0.556  15.613 -0.0038 -0.1485 -0.0250
   66TCq2    C4 1007   4.040   0.618  15.495  1.4028 -0.4628  0.1569
   66TCq2    C5 1008   3.975   0.738  15.469  0.3669 -0.6146 -0.0962
   66TCq2    C6 1009   3.940   0.809  15.582  0.8462  0.5517 -0.1797
   66TCq2    C7 1010   3.948   0.749  15.710 -0.4681  0.1451 -0.4198
   66TCq2    C8 1011   3.853   0.918  15.557  0.1496 -0.8498  0.0173
   66TCq2    O4 1012   3.843   0.960  15.440  0.0448 -0.4218 -0.1112
   66TCq2    C9 1013   4.114   0.566  15.384 -0.3710  0.2553  1.4295
   66TCq2    O5 1014   4.112   0.613  15.267 -0.2942  0.6200 -0.0529
   66TCq2    O6 1015   4.172   0.459  15.410  0.1807  0.5100 -0.3977
   66TCq2    H2 1016   4.105   0.465  15.630 -0.6545 -0.5786 -0.1170
   66TCq2    H3 1017   4.001   0.778  15.372  0.4737  0.8923  0.5530
   66TCq2    H4 1018   3.929   0.805  15.800  1.0059 -0.5015  0.2971
   67MPD2     C 1019   3.654   4.278  14.517  0.1332  0.2464 -0.4980
   67MPD2    C1 1020   3.643   4.414  14.534 -0.3607 -0.3993 -0.0279
   67MPD2    C2 1021   3.544   4.477  14.470 -0.0698 -0.2092 -0.4780
   67MPD2    C3 1022   3.452   4.408  14.394 -1.0042 -0.3136  0.5328
   67MPD2    C4 1023   3.467   4.275  14.382 -0.4465 -0.5604 -0.1853
   67MPD2    C5 1024   3.570   4.203  14.440  0.8666  0.1377  0.0212
   67MPD2     H 1025   3.541   4.584  14.485  0.3541 -0.2621 -0.0535
   67MPD2    H1 1026   3.392   4.222  14.324 -0.3121 -0.4661 -0.4460
   67MPD2    H2 1027   3.738   4.220  14.553 -0.6820 -1.0932 -0.7432
   67MPD2    H3 1028   3.586   4.096  14.429 -1.1474  0.0391 -1.9340
   67MPD2     N 1029   3.349   4.468  14.336 -0.2494 -0.3202 -0.4531
   67MPD2    H5 1030   3.280   4.405  14.297  0.3802 -1.5428  0.4061
   67MPD2    N1 1031   3.736   4.486  14.619 -0.0283 -0.2042  0.5521
   67MPD2    H7 1032   3.735   4.588  14.611  1.2839 -0.2732 -0.4841
   68TCq2    C1 1033   3.830   4.443  14.706  0.2008  0.5052 -0.5441
   68TCq2    O2 1034   3.876   4.330  14.719 -0.0423  0.0672 -0.6910
   68TCq2    C2 1035   3.885   4.554  14.790 -0.2041  0.7795 -0.2480
   68TCq2    C3 1036   3.821   4.673  14.787 -0.0628  1.1530 -0.2532
   68TCq2    C4 1037   3.902   0.057  14.823  0.7231  0.3622  0.3099
   68TCq2    C5 1038   4.024   0.033  14.877  0.1324  0.1895 -0.5286
   68TCq2    C6 1039   4.086   4.634  14.877 -0.0409 -0.0212  0.3700
   68TCq2    C7 1040   4.016   4.529  14.831  0.2528 -0.2530  0.4719
   68TCq2    C8 1041   4.216   4.620  14.946  0.2239  0.1729  0.2047
   68TCq2    O4 1042   4.291   4.534  14.908  0.6431  0.1528  0.4584
   68TCq2    C9 1043   3.856   0.193  14.826  0.1557 -0.1576  0.2100
   68TCq2    O5 1044   3.932   0.288  14.858 -0.6372  0.1464  0.1681
   68TCq2    O6 1045   3.734   0.207  14.834 -0.2827 -0.6872  0.4786
   68TCq2    H2 1046   3.724   4.683  14.740  0.0467 -0.0071 -0.7151
   68TCq2    H3 1047   4.084   0.120  14.903 -1.8926  0.3399  3.6861
   68TCq2    H4 1048   4.041   4.424  14.834 -2.8177 -0.9396  1.8293
   69TMC2    C1 1049   1.119   1.395  12.329 -1.0653  0.2707 -0.1077
   69TMC2    C2 1050   0.985   1.409  12.344  0.5599 -0.1821  0.7311
   69TMC2    C3 1051   0.910   1.363  12.241 -0.0396 -0.2341  0.5550
   69TMC2    C4 1052   1.174   1.354  12.210 -0.2874  0.2056 -0.8011
   69TMC2    C5 1053   1.097   1.304  12.112 -0.4426  0.2059 -0.2632
   69TMC2    C6 1054   0.959   1.300  12.130 -0.7450 -0.6110 -0.3658
   69TMC2     C 1055   1.193   1.429  12.439  0.1017  0.0111  0.2717
   69TMC2     O 1056   1.129   1.455  12.540 -0.1905  0.6429  0.0939
   69TMC2     H 1057   0.926   1.424  12.433 -0.4664 -1.3379  0.2446
   69TMC2    H1 1058   1.280   1.357  12.189 -0.2686 -1.4436 -0.8632
   69TMC2    H2 1059   0.896   1.256  12.053  0.5288 -2.6007 -0.2833
   69TMC2    C7 1060   1.152   1.239  11.993 -0.0498 -0.2552  0.6472
   69TMC2    C8 1061   0.772   1.343  12.258  0.0281 -0.5837  0.3158
   69TMC2    O1 1062   1.268   1.214  11.988  0.4469  0.2151  0.2177
   69TMC2    O2 1063   0.701   1.272  12.197  0.4650 -0.6194 -0.4880
   69TMC2    O5 1064   0.731   1.461  12.305 -0.3444 -0.1554 -0.3892
   69TMC2    H5 1065   0.808   1.520  12.318 -1.2722  0.5241  2.0116
   70MPD2     C 1066   1.548   1.374  12.516 -0.0713 -0.4307  0.8980
   70MPD2    C1 1067   1.411   1.365  12.535 -0.4589  0.5631  0.1786
   70MPD2    C2 1068   1.365   1.320  12.658  0.0761  0.3688  0.8155
   70MPD2    C3 1069   1.448   1.271  12.749 -0.1926 -0.3773  0.5169
   70MPD2    C4 1070   1.586   1.269  12.722 -0.4888 -0.1539  0.3088
   70MPD2    C5 1071   1.633   1.316  12.607  0.5275  0.2308 -0.0933
   70MPD2     H 1072   1.260   1.325  12.686 -0.4348 -0.7583 -0.8890
   70MPD2    H1 1073   1.658   1.226  12.790 -2.4357 -2.2853  0.9823
   70MPD2    H2 1074   1.597   1.410  12.426  0.1090 -2.0571  0.3624
   70MPD2    H3 1075   1.740   1.310  12.593  0.6706  2.9025 -0.1246
   70MPD2     N 1076   1.409   1.227  12.875  1.1406  0.1383  0.0709
   70MPD2    H5 1077   1.473   1.175  12.934 -0.2246 -2.3800 -0.6614
   70MPD2    N1 1078   1.323   1.406  12.426  0.2741 -0.2571  0.4501
   70MPD2    H7 1079   1.354   1.409  12.329  1.2036  1.5209  0.8060
   71TMC2    C1 1080   2.908   1.962   2.050  0.5336 -1.1361  0.3670
   71TMC2    C2 1081   2.939   2.018   2.174 -0.3427 -0.4920  0.5885
   71TMC2    C3 1082   2.828   2.041   2.253 -0.3197 -0.0979 -0.1707
   71TMC2    C4 1083   2.774   1.959   2.003 -0.7221  0.2569 -0.4493
   71TMC2    C5 1084   2.671   1.993   2.086 -0.2345 -0.3146  0.0991
   71TMC2    C6 1085   2.699   2.027   2.215 -0.3903 -0.1385  0.2391
   71TMC2     C 1086   3.020   1.923   1.966  0.7284 -0.5146 -0.3836
   71TMC2     O 1087   3.010   1.970   1.854  0.0106 -0.5915 -0.2115
   71TMC2     H 1088   3.041   2.012   2.208  0.3662 -0.6257 -1.5505
   71TMC2    H1 1089   2.757   1.903   1.912  0.3088 -0.9784  0.1198
   71TMC2    H2 1090   2.618   2.044   2.285  0.9398 -2.2726  2.2778
   71TMC2    C7 1091   2.534   1.953   2.055  0.2962  0.2618 -0.3951
   71TMC2    C8 1092   2.850   2.091   2.385 -0.0483  0.4294 -0.4956
   71TMC2    O1 1093   2.451   1.955   2.140  0.2177  0.1478  0.5479
   71TMC2    O2 1094   2.760   2.084   2.471 -0.1059  0.4255  0.6493
   71TMC2    O5 1095   2.927   2.197   2.367  0.0707 -0.4219 -0.2328
   71TMC2    H5 1096   3.003   2.192   2.304 -0.3579 -4.0929 -0.4419
   72MPD2     C 1097   3.422   1.638   1.827 -0.0340  0.3870 -0.4367
   72MPD2    C1 1098   3.345   1.732   1.757  0.2565 -0.7137 -0.4413
   72MPD2    C2 1099   3.248   1.796   1.821  0.4166  0.5624  0.4842
   72MPD2    C3 1100   3.221   1.770   1.953  0.0958  0.0749 -0.8102
   72MPD2    C4 1101   3.302   1.681   2.023  0.4372 -0.0091  0.1707
   72MPD2    C5 1102   3.398   1.619   1.957  0.1753  0.5845  0.2743
   72MPD2     H 1103   3.192   1.865   1.759 -0.7155 -0.0481  0.8160
   72MPD2    H1 1104   3.278   1.656   2.126 -1.6808 -1.0367 -0.5540
   72MPD2    H2 1105   3.514   1.596   1.789 -0.6656 -1.6072  0.2197
   72MPD2    H3 1106   3.475   1.559   2.005  0.3596 -0.5150 -1.3861
   72MPD2     N 1107   3.108   1.836   2.019  0.1923 -0.3576 -0.6348
   72MPD2    H5 1108   3.096   1.814   2.117 -0.0160 -1.7678 -0.9648
   72MPD2    N1 1109   3.376   1.780   1.625  0.4511  0.3726 -0.4662
   72MPD2    H7 1110   3.322   1.858   1.589 -1.5355 -0.2969  1.0944
   73TMC2    C1 1111   3.568   3.406  14.194 -0.5273  0.1776 -0.5877
   73TMC2    C2 1112   3.458   3.402  14.278  0.0691  0.8826  0.0381
   73TMC2    C3 1113   3.469   3.452  14.403  0.1841  0.3604  0.6480
   73TMC2    C4 1114   3.678   3.476  14.237  0.3062 -0.1686  0.2125
   73TMC2    C5 1115   3.672   3.552  14.348  0.5160  0.1447 -0.1882
   73TMC2    C6 1116   3.569   3.536  14.439  0.3627 -0.5735  0.4853
   73TMC2     C 1117   3.537   3.435  14.053 -0.2326 -0.4189 -0.8988
   73TMC2     O 1118   3.635   3.494  14.007 -0.1141  0.0073  0.1872
   73TMC2     H 1119   3.371   3.343  14.248 -0.0198  0.4262  1.1842
   73TMC2    H1 1120   3.766   3.480  14.173  0.2371 -0.9455  0.0592
   73TMC2    H2 1121   3.571   3.587  14.535 -1.6082  0.9834 -0.3050
   73TMC2    C7 1122   3.714   3.689  14.333 -0.4353 -0.1825 -0.3414
   73TMC2    C8 1123   3.349   3.448  14.479  0.3466 -0.3876 -0.5699
   73TMC2    O1 1124   3.714   3.765  14.430 -0.2285 -0.8916 -0.5733
   73TMC2    O2 1125   3.243   3.488  14.439 -0.0290 -0.7743 -0.0275
   73TMC2    O5 1126   3.376   3.379  14.594  0.6216 -0.0648 -0.1353
   73TMC2    H5 1127   3.465   3.337  14.605 -0.0806 -1.3085  0.7840
   74MPD2     C 1128   3.194   3.659  13.718 -0.6943  1.0739  0.3029
   74MPD2    C1 1129   3.327   3.685  13.737  0.0937 -0.9440 -0.6943
   74MPD2    C2 1130   3.402   3.608  13.835  0.8294  0.0240 -0.4302
   74MPD2    C3 1131   3.336   3.518  13.919 -0.3480 -0.2938 -0.2689
   74MPD2    C4 1132   3.199   3.511  13.902 -0.6017 -0.1944  0.2235
   74MPD2    C5 1133   3.134   3.574  13.799 -0.4713 -0.8657 -0.2648
   74MPD2     H 1134   3.510   3.609  13.844  0.7738 -1.3324  0.3976
   74MPD2    H1 1135   3.140   3.458  13.976 -0.5841 -4.5627 -2.8895
   74MPD2    H2 1136   3.131   3.714  13.649 -1.7245 -2.0644 -1.2317
   74MPD2    H3 1137   3.026   3.559  13.801 -0.2010 -2.7150  0.9929
   74MPD2     N 1138   3.401   3.437  14.020 -0.8983  0.2667  0.7530
   74MPD2    H5 1139   3.334   3.382  14.073  0.2867 -0.9527  0.9646
   74MPD2    N1 1140   3.385   3.790  13.655  0.3240 -0.3809  0.0323
   74MPD2    H7 1141   3.313   3.828  13.595  1.3154  1.8236  0.2584
   75TCq2    C1 1142   3.321   4.602  14.323  0.1047  0.1861 -0.0495
   75TCq2    O2 1143   3.381   4.693  14.381  0.1032  0.1091 -0.3872
   75TCq2    C2 1144   3.188   4.631  14.277  0.7415 -0.0797  0.4242
   75TCq2    C3 1145   3.106   4.694  14.364  0.1872 -0.5498  0.3379
   75TCq2    C4 1146   2.971   4.675  14.358  0.3864 -0.1720 -0.7342
   75TCq2    C5 1147   2.907   4.607  14.259 -0.1178 -0.7477  0.1492
   75TCq2    C6 1148   2.996   4.547  14.172 -0.1025  0.2537 -0.4855
   75TCq2    C7 1149   3.135   4.554  14.177  0.5246  0.1532  0.7624
   75TCq2    C8 1150   2.936   4.475  14.061 -0.3217  0.4646 -0.2721
   75TCq2    O4 1151   3.007   4.445  13.970 -0.6069  0.3411  0.2426
   75TCq2    C9 1152   2.880   0.022  14.447 -0.0571 -0.8950  0.3438
   75TCq2    O5 1153   2.931   0.111  14.515  0.1122 -0.6940 -1.0400
   75TCq2    O6 1154   2.763   4.710  14.458 -0.2396  0.7805 -0.0679
   75TCq2    H2 1155   3.144   0.036  14.440  0.3472 -1.7270  1.2737
   75TCq2    H3 1156   2.799   4.613  14.255 -0.1615  0.5088  3.0321
   75TCq2    H4 1157   3.192   4.501  14.101 -2.5000  0.5831 -1.8020
   76MPD2     C 1158   2.195   0.835  11.484  0.3144 -0.4496  0.0810
   76MPD2    C1 1159   2.094   0.740  11.487  0.8302 -0.5617  0.0342
   76MPD2    C2 1160   2.117   0.607  11.507 -0.2326  0.6822 -0.0574
   76MPD2    C3 1161   2.247   0.568  11.536  0.4892  0.2254 -0.0297
   76MPD2    C4 1162   2.343   0.666  11.540  0.1352 -0.0231 -0.0418
   76MPD2    C5 1163   2.327   0.797  11.508  0.3434  0.1788  0.3857
   76MPD2     H 1164   2.030   0.543  11.511 -0.7141  1.4792  2.0556
   76MPD2    H1 1165   2.443   0.641  11.573 -0.9478 -2.2046  1.6027
   76MPD2    H2 1166   2.175   0.939  11.463 -0.9128 -0.5906  0.5575
   76MPD2    H3 1167   2.403   0.874  11.510 -1.3889  1.9484 -1.3411
   76MPD2     N 1168   2.280   0.442  11.580 -0.1353  0.0698  0.7047
   76MPD2    H5 1169   2.372   0.430  11.622 -1.0265  0.2019  2.6779
   76MPD2    N1 1170   1.961   0.768  11.455  0.5338  0.0041 -0.8080
   76MPD2    H7 1171   1.912   0.683  11.425  0.7449 -0.0228 -1.0786
   77TCq2    C1 1172   2.200   0.333  11.568 -0.9682 -0.2798 -0.4084
   77TCq2    O2 1173   2.102   0.324  11.500  0.4249  0.4169 -0.4490
   77TCq2    C2 1174   2.268   0.211  11.618 -0.4212 -0.6991  0.4582
   77TCq2    C3 1175   2.208   0.095  11.585 -0.5117 -0.5304  0.4579
   77TCq2    C4 1176   2.248   4.705  11.641  0.3191  0.9750  0.5727
   77TCq2    C5 1177   2.360   4.705  11.716  0.1091  0.0426 -0.2416
   77TCq2    C6 1178   2.426   0.100  11.739  0.6352 -0.1416 -0.4890
   77TCq2    C7 1179   2.372   0.218  11.700 -0.0366  0.4621 -0.2776
   77TCq2    C8 1180   2.561   0.095  11.778  0.0865  0.0273  0.0321
   77TCq2    O4 1181   2.644   0.180  11.743 -0.0869 -0.8034  0.4270
   77TCq2    C9 1182   2.173   4.583  11.621 -0.7187 -0.4499 -0.2028
   77TCq2    O5 1183   2.052   4.593  11.571  0.5667  0.0592  0.2255
   77TCq2    O6 1184   2.212   4.483  11.687  0.0205  0.4231  0.3708
   77TCq2    H2 1185   2.131   0.089  11.509  2.3730 -1.5311 -2.3729
   77TCq2    H3 1186   2.417   4.613  11.721 -1.3767 -0.8146  1.1011
   77TCq2    H4 1187   2.425   0.309  11.728  2.4751 -1.0967  0.0503
   78MPD1     C 1188   2.862   2.346   1.447  0.1899 -0.1403 -0.0285
   78MPD1    C1 1189   2.946   2.234   1.428 -0.7528 -0.4293  0.2496
   78MPD1    C2 1190   3.051   2.207   1.514  0.5666 -0.2529 -0.2178
   78MPD1    C3 1191   3.052   2.264   1.639  0.3698  0.3008  0.4826
   78MPD1    C4 1192   2.968   2.367   1.661 -0.9632  0.2962 -0.0925
   78MPD1    C5 1193   2.873   2.402   1.570  0.3525 -0.0155 -0.0183
   78MPD1     H 1194   3.125   2.134   1.482  2.9469  3.2567 -2.6039
   78MPD1    H1 1195   2.979   2.422   1.754  0.2073 -0.0809 -0.0108
   78MPD1    H2 1196   2.776   2.368   1.385  0.2165 -1.9524 -0.7052
   78MPD1    H3 1197   2.797   2.471   1.605  0.1045 -1.4626  2.2788
   78MPD1     N 1198   3.147   2.244   1.741 -0.2978 -0.1416 -0.0977
   78MPD1    H5 1199   3.133   2.288   1.831 -0.0760 -0.1511 -0.0571
   78MPD1    N1 1200   2.944   2.167   1.301 -0.1438  0.2902  0.3745
   78MPD1    H6 1201   2.979   2.073   1.318  0.2157  0.3626  0.0333
   78MPD1    H7 1202   2.850   2.169   1.260  0.0970  4.3474  0.0298
   79TCq2    C1 1203   3.251   2.153   1.725 -0.6049  0.3547 -0.1652
   79TCq2    O2 1204   3.270   2.074   1.633  0.3913 -0.2546 -0.3414
   79TCq2    C2 1205   3.312   2.129   1.856  0.5740 -0.4521 -0.1404
   79TCq2    C3 1206   3.253   2.159   1.980 -0.0832  0.0240 -0.5270
   79TCq2    C4 1207   3.327   2.145   2.095 -0.3871 -0.1354  0.6746
   79TCq2    C5 1208   3.452   2.089   2.086  0.0522  0.7201  0.5703
   79TCq2    C6 1209   3.502   2.052   1.966 -0.2975 -0.5326  0.2666
   79TCq2    C7 1210   3.438   2.083   1.847 -0.2477 -0.5152 -0.2689
   79TCq2    C8 1211   3.630   1.995   1.954  0.3914 -0.1409  0.8367
   79TCq2    O4 1212   3.660   1.953   1.845  0.1152  0.5431  0.2044
   79TCq2    C9 1213   3.271   2.180   2.224  0.3046  0.4268 -0.4791
   79TCq2    O5 1214   3.326   2.148   2.331  0.2080 -0.8450  0.0476
   79TCq2    O6 1215   3.155   2.228   2.237  0.6095 -0.0700 -0.3097
   79TCq2    H2 1216   3.153   2.198   1.990 -1.0947 -3.1293  1.4525
   79TCq2    H3 1217   3.495   2.070   2.184 -0.0084 -0.7833  0.2999
   79TCq2    H4 1218   3.481   2.064   1.749  1.1510 -0.4686  0.3324
   80MPD2     C 1219   1.364   0.699  12.814  0.4132  0.1720 -0.0392
   80MPD2    C1 1220   1.270   0.708  12.710  0.2932  0.6959  0.3783
   80MPD2    C2 1221   1.140   0.725  12.734  0.0203 -0.6838  0.4149
   80MPD2    C3 1222   1.093   0.736  12.870  0.2831 -0.3609  0.1077
   80MPD2    C4 1223   1.185   0.741  12.969 -0.5688  0.8887 -0.0432
   80MPD2    C5 1224   1.319   0.726  12.944  0.8012 -0.3486 -0.8057
   80MPD2     H 1225   1.075   0.725  12.648 -0.4431  1.8278  0.7492
   80MPD2    H1 1226   1.142   0.739  13.068  0.7550 -0.1228  0.4993
   80MPD2    H2 1227   1.465   0.664  12.795  0.1782 -0.4727 -0.1102
   80MPD2    H3 1228   1.383   0.711  13.030 -0.4984 -1.6971 -0.0811
   80MPD2     N 1229   0.955   0.745  12.895  0.5333  0.2635  1.0731
   80MPD2    H5 1230   0.931   0.724  12.991 -0.9376  0.7769  0.8119
   80MPD2    N1 1231   1.300   0.697  12.571  0.0810  0.1252  0.1649
   80MPD2    H7 1232   1.223   0.691  12.505 -0.5262 -1.1534  0.9777
   81TCq2    C1 1233   1.423   0.677  12.519  0.4638  0.0752  0.7004
   81TCq2    O2 1234   1.528   0.722  12.564  0.1289 -0.1764  0.0323
   81TCq2    C2 1235   1.419   0.641  12.379  0.4639  0.0928  0.3971
   81TCq2    C3 1236   1.518   0.677  12.288 -1.2141 -0.0687 -0.2242
   81TCq2    C4 1237   1.539   0.614  12.172  0.3355 -0.3805 -0.4403
   81TCq2    C5 1238   1.435   0.530  12.126  0.0564 -0.7288  0.4764
   81TCq2    C6 1239   1.338   0.491  12.215  0.1182  0.0094  0.0471
   81TCq2    C7 1240   1.331   0.539  12.345 -0.3676  0.4856 -0.2248
   81TCq2    C8 1241   1.222   0.419  12.165  0.3600  0.1574 -0.3587
   81TCq2    O4 1242   1.179   0.440  12.052  0.3129  0.3449 -0.0728
   81TCq2    C9 1243   1.643   0.660  12.086  0.4406 -0.0186 -0.8165
   81TCq2    O5 1244   1.663   0.585  11.986 -0.2837 -0.1943 -0.2008
   81TCq2    O6 1245   1.707   0.758  12.120 -0.2679 -0.1558 -0.4188
   81TCq2    H2 1246   1.582   0.755  12.327 -1.4324 -0.0187  0.0370
   81TCq2    H3 1247   1.422   0.508  12.021 -4.3829 -1.4104  1.1756
   81TCq2    H4 1248   1.250   0.510  12.411 -1.4197 -0.4360 -1.9175
   82MPD2     C 1249   4.526   4.026  10.697  0.1347  0.1334 -0.3513
   82MPD2    C1 1250   4.431   3.923  10.692  0.8372 -0.6765 -0.7338
   82MPD2    C2 1251   4.473   3.799  10.736 -0.4027  0.0676  0.1899
   82MPD2    C3 1252   4.606   3.772  10.763 -0.0859 -0.3512 -0.1108
   82MPD2    C4 1253   4.702   3.861  10.733 -0.3873  0.0513 -0.1232
   82MPD2    C5 1254   4.660   3.992  10.711 -0.1617 -0.0951  1.2256
   82MPD2     H 1255   4.401   3.718  10.733  2.1743 -2.1227 -2.5226
   82MPD2    H1 1256   0.086   3.857  10.748 -0.7035  0.1571  2.0838
   82MPD2    H2 1257   4.505   4.125  10.660 -1.7245 -0.0512  0.1988
   82MPD2    H3 1258   0.010   4.071  10.698 -2.4704  1.8872  0.0651
   82MPD2     N 1259   4.643   3.645  10.811  0.6505  0.0230  0.3574
   82MPD2    H5 1260   0.018   3.621  10.811  0.5315 -0.4579  0.7660
   82MPD2    N1 1261   4.296   3.968  10.675  0.8840  0.2352  0.4325
   82MPD2    H7 1262   4.279   4.068  10.670  0.3725  0.1681  0.8462
   83TCq2    C1 1263   4.560   3.571  10.888 -0.2407  0.2453  0.0424
   83TCq2    O2 1264   4.442   3.591  10.926 -0.0338  1.2313 -0.4040
   83TCq2    C2 1265   4.629   3.460  10.959 -0.5881  0.0550 -0.2870
   83TCq2    C3 1266   0.029   3.424  10.920  0.3919  0.3613 -0.2559
   83TCq2    C4 1267   0.093   3.327  10.993 -0.9413  0.9408 -0.2985
   83TCq2    C5 1268   0.033   3.254  11.093  0.2795 -0.1289 -0.0984
   83TCq2    C6 1269   4.628   3.300  11.129 -0.3753 -0.2535  0.3289
   83TCq2    C7 1270   4.558   3.387  11.055  0.0973 -0.0161  0.8279
   83TCq2    C8 1271   4.554   3.239  11.234 -0.2578  0.0214 -0.0617
   83TCq2    O4 1272   4.430   3.240  11.243  0.0918  0.1806  0.0789
   83TCq2    C9 1273   0.223   3.285  10.951  0.0081 -0.2478 -0.9015
   83TCq2    O5 1274   0.272   3.180  11.000 -0.1651  0.4499  0.0865
   83TCq2    O6 1275   0.273   3.352  10.857 -0.4075  0.3850 -0.0598
   83TCq2    H2 1276   0.090   3.471  10.844 -0.7403 -0.0603 -1.4311
   83TCq2    H3 1277   0.090   3.179  11.147  1.4206  1.7987  1.4201
   83TCq2    H4 1278   4.454   3.413  11.074 -0.3026 -1.2675  0.3380
   84TCq2    C1 1279   1.181   2.824  10.704  0.2058 -0.1430 -0.4408
   84TCq2    O2 1280   1.085   2.753  10.684  0.0073  0.1678 -0.7776
   84TCq2    C2 1281   1.191   2.903  10.823  0.8787  0.0514 -0.0717
   84TCq2    C3 1282   1.271   3.008  10.844  0.2860 -0.4381 -0.0166
   84TCq2    C4 1283   1.264   3.069  10.972 -1.0895 -0.0776  0.4444
   84TCq2    C5 1284   1.178   3.025  11.067 -0.1268  0.3913  0.6950
   84TCq2    C6 1285   1.098   2.917  11.037 -0.2212 -0.2421 -0.4937
   84TCq2    C7 1286   1.094   2.867  10.910  0.5689 -0.1542 -0.3703
   84TCq2    C8 1287   1.051   2.840  11.154 -0.1464  0.6123 -0.0666
   84TCq2    O4 1288   1.062   2.903  11.258  0.0767  0.4354  0.3736
   84TCq2    C9 1289   1.357   3.172  11.004 -0.6889 -0.3913  0.1065
   84TCq2    O5 1290   1.445   3.195  10.912  0.5764  1.0958 -0.4306
   84TCq2    O6 1291   1.349   3.230  11.111 -0.4086 -0.0824 -0.4360
   84TCq2    H2 1292   1.349   3.052  10.782 -1.6019  0.3683 -1.8137
   84TCq2    H3 1293   1.184   3.082  11.159  0.2502 -0.3545  1.1269
   84TCq2    H4 1294   1.023   2.787  10.891 -0.5509  0.2173  2.2649
   85MPD2     C 1295   0.674   1.114  16.635 -0.0278 -0.7305 -0.1195
   85MPD2    C1 1296   0.759   1.049  16.546  0.0867  0.0315 -1.1381
   85MPD2    C2 1297   0.857   1.132  16.492 -0.3503  0.4238 -0.3952
   85MPD2    C3 1298   0.874   1.264  16.531  0.7489 -0.1771  0.2165
   85MPD2    C4 1299   0.787   1.320  16.622  0.7820  0.5489 -0.0745
   85MPD2    C5 1300   0.690   1.246  16.676  0.1668  0.4596 -0.2417
   85MPD2     H 1301   0.925   1.096  16.416 -0.7141 -0.2060 -0.4249
   85MPD2    H1 1302   0.787   1.422  16.656 -0.1373  1.4932 -2.8893
   85MPD2    H2 1303   0.589   1.067  16.684 -0.5687 -3.1026 -3.3323
   85MPD2    H3 1304   0.614   1.296  16.734 -3.1379 -0.6096 -3.6724
   85MPD2     N 1305   0.996   1.323  16.485  0.2771  0.8537 -0.5998
   85MPD2    H5 1306   1.062   1.264  16.434  0.5882 -0.5931  1.4646
   85MPD2    N1 1307   0.766   0.913  16.520 -0.4572  0.6263 -0.0756
   85MPD2    H7 1308   0.832   0.880  16.451 -0.1350 -2.5558  1.7126
   86TCq2    C1 1309   1.037   1.449  16.505  0.5887  0.0828 -1.0618
   86TCq2    O2 1310   1.013   1.530  16.595 -0.1161 -0.2680 -0.7087
   86TCq2    C2 1311   1.155   1.480  16.420 -0.0864 -0.9960 -0.1792
   86TCq2    C3 1312   1.230   1.591  16.451  0.0651  0.4841 -0.1283
   86TCq2    C4 1313   1.317   1.633  16.353 -0.5236 -0.1133  0.0641
   86TCq2    C5 1314   1.329   1.575  16.230  0.3242 -1.1141  0.2107
   86TCq2    C6 1315   1.252   1.462  16.217 -0.1073 -0.6494 -0.2226
   86TCq2    C7 1316   1.167   1.410  16.305 -0.3233 -0.0631 -0.0439
   86TCq2    C8 1317   1.241   1.395  16.088  0.1232 -0.3297  0.5037
   86TCq2    O4 1318   1.220   1.278  16.097 -0.4171  0.0395  0.4167
   86TCq2    C9 1319   1.401   1.748  16.388  0.1318 -0.4639 -0.4349
   86TCq2    O5 1320   1.499   1.775  16.315  0.2335 -0.2080  0.4897
   86TCq2    O6 1321   1.379   1.802  16.499  0.1620  0.1563 -0.4096
   86TCq2    H2 1322   1.218   1.633  16.550 -2.4666 -0.0178 -0.2315
   86TCq2    H3 1323   1.398   1.611  16.154  0.1832 -0.4757  0.3816
   86TCq2    H4 1324   1.100   1.330  16.276 -0.6073  0.6148 -1.2418
   87MPD2     C 1325   3.308   0.372   1.842 -0.3390 -0.3221  0.0016
   87MPD2    C1 1326   3.345   0.309   1.723  0.3194 -0.5259  0.2442
   87MPD2    C2 1327   3.312   0.361   1.593  0.4664 -0.7849 -0.0907
   87MPD2    C3 1328   3.248   0.483   1.592 -0.2853 -1.0832  0.5151
   87MPD2    C4 1329   3.202   0.538   1.714 -0.2637 -0.2199 -0.6279
   87MPD2    C5 1330   3.234   0.489   1.837  0.4683 -0.4865  0.4069
   87MPD2     H 1331   3.343   0.308   1.504 -2.4607 -2.1662 -0.3064
   87MPD2    H1 1332   3.153   0.635   1.710  2.6968  1.2386 -1.1630
   87MPD2    H2 1333   3.348   0.336   1.936 -0.0656 -0.1679 -0.0568
   87MPD2    H3 1334   3.208   0.537   1.930  2.1275 -1.0344  1.1637
   87MPD2     N 1335   3.221   0.555   1.475 -0.2185 -0.1190  0.0042
   87MPD2    H5 1336   3.202   0.654   1.484  1.0111  0.1815 -0.6825
   87MPD2    N1 1337   3.419   0.190   1.747 -0.0406 -0.1204 -0.5661
   87MPD2    H7 1338   3.419   0.151   1.841 -0.0412  1.2411 -0.0048
   88TCq2    C1 1339   3.483   0.115   1.653 -0.0142 -0.0080 -0.0152
   88TCq2    O2 1340   3.512   0.139   1.536  0.2157  0.5112 -0.0652
   88TCq2    C2 1341   3.531   4.705   1.698 -0.4860 -0.8195 -0.4286
   88TCq2    C3 1342   3.511   4.669   1.827 -0.1622 -0.4180  0.3227
   88TCq2    C4 1343   3.571   4.558   1.877 -0.2262  1.1700  0.0234
   88TCq2    C5 1344   3.648   4.476   1.801  1.1594 -0.2294  0.0001
   88TCq2    C6 1345   3.661   4.522   1.666  0.6113 -0.3518  0.5081
   88TCq2    C7 1346   3.604   4.635   1.612 -0.2570  0.2307  0.5558
   88TCq2    C8 1347   3.772   4.473   1.580  0.3758  0.2386  0.0452
   88TCq2    O4 1348   3.799   4.533   1.474 -1.0618 -0.2420  0.1407
   88TCq2    C9 1349   3.565   4.531   2.023 -0.0739  1.0966 -0.2712
   88TCq2    O5 1350   3.503   4.612   2.091 -0.8036 -0.2905 -0.3376
   88TCq2    O6 1351   3.618   4.421   2.064 -0.7873 -0.5880  0.0446
   88TCq2    H2 1352   3.449   4.722   1.899  0.7528  0.8925  0.1334
   88TCq2    H3 1353   3.692   4.386   1.842 -0.3588 -0.4132  1.2469
   88TCq2    H4 1354   3.612   4.660   1.507 -2.0457  0.0611  0.3897
   89MPD2     C 1355   3.926   3.024   2.764 -0.4599 -0.1822 -0.1863
   89MPD2    C1 1356   3.903   2.993   2.636  0.3008 -0.2084  0.3035
   89MPD2    C2 1357   4.005   3.006   2.540  0.1398 -0.0646 -0.6661
   89MPD2    C3 1358   4.121   3.076   2.575 -0.0639 -0.2353 -0.2127
   89MPD2    C4 1359   4.135   3.110   2.703 -0.2702 -0.2893 -0.6484
   89MPD2    C5 1360   4.044   3.086   2.799 -0.9338 -0.8546 -1.0432
   89MPD2     H 1361   3.988   2.975   2.438  2.4243  0.8788 -1.3323
   89MPD2    H1 1362   4.217   3.168   2.744  0.3652 -0.8331 -1.1541
   89MPD2    H2 1363   3.850   3.012   2.840 -2.7280 -0.1908 -2.4329
   89MPD2    H3 1364   4.063   3.121   2.900 -0.0657 -1.1722 -1.1030
   89MPD2     N 1365   4.218   3.107   2.473  0.6510  1.2237 -0.3508
   89MPD2    H5 1366   4.194   3.080   2.378  2.0016 -0.4088 -0.2344
   89MPD2    N1 1367   3.778   2.944   2.580 -0.7626  0.0877 -0.2480
   89MPD2    H7 1368   3.773   2.914   2.483 -0.3615 -1.1261  0.0951
   90TCq2    C1 1369   4.337   3.165   2.494 -0.0584 -0.3545  0.1225
   90TCq2    O2 1370   4.395   3.177   2.601  0.2541 -0.2714 -0.2098
   90TCq2    C2 1371   4.406   3.185   2.365  0.3425 -0.2176  0.3538
   90TCq2    C3 1372   4.540   3.189   2.380  0.2610  0.1461  0.1681
   90TCq2    C4 1373   4.616   3.170   2.275  0.4362  0.4230  0.6329
   90TCq2    C5 1374   4.566   3.123   2.157 -0.7330  0.1142  0.3658
   90TCq2    C6 1375   4.430   3.123   2.149  0.6288  0.1787  0.0821
   90TCq2    C7 1376   4.347   3.150   2.251 -0.5597 -0.4421  0.1773
   90TCq2    C8 1377   4.359   3.111   2.018 -1.0364 -0.2742 -0.6925
   90TCq2    O4 1378   4.241   3.082   2.027 -0.5146 -0.0696  0.5383
   90TCq2    C9 1379   0.037   3.164   2.298  0.5894 -0.1175  0.4107
   90TCq2    O5 1380   0.108   3.135   2.196  0.0216  0.5459  0.5116
   90TCq2    O6 1381   0.078   3.217   2.403 -0.9214 -0.2656  0.4869
   90TCq2    H2 1382   4.590   3.221   2.471  0.1114 -0.7036  0.5538
   90TCq2    H3 1383   4.634   3.092   2.079 -0.2751  3.4581 -0.5798
   90TCq2    H4 1384   4.246   3.178   2.222  0.2975  1.6322 -0.8439
   91TMC2    C1 1385   1.326   2.578  16.787  0.0359  0.0095  0.6546
   91TMC2    C2 1386   1.406   2.574  16.896 -0.5947  0.3130 -0.4602
   91TMC2    C3 1387   1.352   2.619  17.008  0.0481 -0.2158  0.5663
   91TMC2    C4 1388   1.197   2.626  16.781 -0.2481  0.4854 -0.6852
   91TMC2    C5 1389   1.141   2.657  16.903 -0.1619  0.0059 -0.6759
   91TMC2    C6 1390   1.221   2.665  17.013  0.6572  0.3388 -0.5303
   91TMC2     C 1391   1.365   2.503  16.663  0.2844  0.3763 -0.5676
   91TMC2     O 1392   1.285   2.422  16.612 -0.2102  0.2990 -0.5868
   91TMC2     H 1393   1.508   2.536  16.891 -0.4756  0.4841  0.8476
   91TMC2    H1 1394   1.144   2.627  16.686  3.4002  1.4642 -2.6760
   91TMC2    H2 1395   1.182   2.718  17.099  2.0031 -0.3693  0.5108
   91TMC2    C7 1396   1.007   2.703  16.919 -0.1373  0.4941  0.5372
   91TMC2    C8 1397   1.416   2.626  17.138  0.3527  0.5601  0.1202
   91TMC2    O1 1398   0.969   2.756  17.026  0.0288 -0.6340 -0.0883
   91TMC2    O2 1399   1.361   2.623  17.245 -0.1281  0.2455 -0.3598
   91TMC2    O5 1400   1.524   2.697  17.120  0.0293 -0.6765  0.0357
   91TMC2    H5 1401   1.524   2.722  17.025 -1.0591  0.3765  0.3180
   92MPD2     C 1402   1.522   2.272  16.547 -0.4691  0.6175 -0.4481
   92MPD2    C1 1403   1.573   2.402  16.566 -0.3788  0.3887  0.3222
   92MPD2    C2 1404   1.710   2.421  16.530 -0.2972  0.1840  0.1133
   92MPD2    C3 1405   1.789   2.324  16.476  0.2532 -0.6613  0.2948
   92MPD2    C4 1406   1.738   2.199  16.457  0.0993  0.2743  0.3097
   92MPD2    C5 1407   1.604   2.180  16.493  0.0072 -0.5998 -0.3387
   92MPD2     H 1408   1.737   2.525  16.546 -1.6766  0.5302  0.2426
   92MPD2    H1 1409   1.794   2.111  16.427 -1.0013 -0.1734 -0.4716
   92MPD2    H2 1410   1.430   2.228  16.583  1.2905 -0.4532  2.7988
   92MPD2    H3 1411   1.565   2.079  16.487  0.4329 -0.6492 -2.2615
   92MPD2     N 1412   1.920   2.362  16.429 -0.5755 -0.4394  0.2198
   92MPD2    H5 1413   1.951   2.450  16.470 -2.1093  0.9316 -1.5779
   92MPD2    N1 1414   1.505   2.504  16.636  0.6304  0.2472 -0.1127
   92MPD2    H7 1415   1.558   2.581  16.676  1.1935 -0.2422  0.0885
   93MPD2     C 1416   3.091   2.466  14.193  0.3209 -0.1604 -0.1995
   93MPD2    C1 1417   3.038   2.588  14.193  0.1068 -0.0837 -0.8977
   93MPD2    C2 1418   2.913   2.595  14.130  0.0548 -0.1212  0.0883
   93MPD2    C3 1419   2.851   2.492  14.061 -0.5430  0.6281 -0.0322
   93MPD2    C4 1420   2.923   2.373  14.051 -0.2306 -0.6477  0.4189
   93MPD2    C5 1421   3.044   2.362  14.118  0.0388 -0.1548 -0.2776
   93MPD2     H 1422   2.872   2.696  14.133 -1.2823 -0.7040  0.9704
   93MPD2    H1 1423   2.880   2.278  14.023  1.1286 -1.8117  2.2700
   93MPD2    H2 1424   3.187   2.442  14.238  0.6473  0.6543 -0.4720
   93MPD2    H3 1425   3.096   2.267  14.128  0.4768  0.0666 -0.4634
   93MPD2     N 1426   2.718   2.497  14.022  0.2317 -0.6813  0.7100
   93MPD2    H5 1427   2.692   2.425  13.955  2.6440 -1.0532  0.2022
   93MPD2    N1 1428   3.100   2.701  14.238 -0.2943  0.1333 -0.5434
   93MPD2    H7 1429   3.052   2.788  14.214  0.1537  0.6808  0.5258
   94TCq2    C1 1430   3.225   2.703  14.292 -0.1698 -0.3479  0.3269
   94TCq2    O2 1431   3.296   2.613  14.332 -0.2653 -0.5253 -0.3580
   94TCq2    C2 1432   3.281   2.833  14.269 -0.2947  0.2216  0.1520
   94TCq2    C3 1433   3.207   2.949  14.273 -0.1304 -0.5897 -0.6824
   94TCq2    C4 1434   3.233   3.057  14.188  0.1591  0.0226 -0.0519
   94TCq2    C5 1435   3.343   3.052  14.109 -0.9990 -0.0631 -0.8315
   94TCq2    C6 1436   3.418   2.938  14.114  0.3163  0.4952 -0.4179
   94TCq2    C7 1437   3.400   2.827  14.197 -0.1658  0.3410  0.3089
   94TCq2    C8 1438   3.550   2.946  14.063  0.4383 -0.5089 -0.0534
   94TCq2    O4 1439   3.633   2.920  14.150  0.2799 -0.3692 -0.2186
   94TCq2    C9 1440   3.153   3.176  14.192 -0.0290  0.1651 -0.2113
   94TCq2    O5 1441   3.185   3.266  14.111  0.3171 -0.3981  0.5917
   94TCq2    O6 1442   3.037   3.163  14.244 -0.3598 -0.5197  0.2178
   94TCq2    H2 1443   3.121   2.952  14.338  0.6336  1.0682  0.2374
   94TCq2    H3 1444   3.378   3.134  14.048 -0.8366  0.3389 -0.1878
   94TCq2    H4 1445   3.464   2.741  14.187  0.1528  0.4224  1.7608
   95TMC2    C1 1446   3.109   4.130  16.430  0.5488 -0.3267 -0.8614
   95TMC2    C2 1447   3.106   3.994  16.449 -0.8970 -0.6265  0.8739
   95TMC2    C3 1448   3.092   3.964  16.578 -0.3423 -0.3614  0.7876
   95TMC2    C4 1449   3.124   4.225  16.526 -0.4463  0.3572  0.5157
   95TMC2    C5 1450   3.115   4.186  16.656 -0.5101 -0.0956  0.0422
   95TMC2    C6 1451   3.089   4.056  16.677 -0.4190 -0.7427 -0.1181
   95TMC2     C 1452   3.127   4.170  16.290 -0.2492  0.1615 -0.5523
   95TMC2     O 1453   3.185   4.277  16.271 -0.2625  0.6736  0.5340
   95TMC2     H 1454   3.089   3.922  16.370 -0.2735 -0.1199  0.2744
   95TMC2    H1 1455   3.142   4.328  16.500  1.1649 -0.6095 -2.2510
   95TMC2    H2 1456   3.072   4.018  16.777 -1.6245 -0.1465 -0.0924
   95TMC2    C7 1457   3.134   4.278  16.772 -0.4604 -0.0676  0.8198
   95TMC2    C8 1458   3.039   3.837  16.601 -0.0221  0.5483 -0.5461
   95TMC2    O1 1459   3.144   4.224  16.878 -0.6348  0.3178  0.1542
   95TMC2    O2 1460   3.058   3.740  16.534 -0.1102 -0.7628 -0.0037
   95TMC2    O5 1461   2.916   3.866  16.664 -0.2670  0.2081  0.7232
   95TMC2    H5 1462   2.895   3.954  16.701  1.0975  1.7127 -2.1618
   96MPD2     C 1463   3.033   4.166  15.794  0.6764 -0.1233  0.6521
   96MPD2    C1 1464   3.129   4.236  15.866 -0.0272 -0.3866 -0.1299
   96MPD2    C2 1465   3.133   4.220  16.000 -0.0442  0.9453 -0.2913
   96MPD2    C3 1466   3.045   4.137  16.066  0.1956 -0.1940 -0.3912
   96MPD2    C4 1467   2.947   4.063  15.992 -0.0734  0.2048  0.0312
   96MPD2    C5 1468   2.941   4.086  15.857 -0.4228  0.4328 -0.2168
   96MPD2     H 1469   3.210   4.261  16.064  1.6663 -1.1740 -1.0166
   96MPD2    H1 1470   2.881   3.994  16.042  2.2659 -1.1160  1.2648
   96MPD2    H2 1471   3.018   4.173  15.687  2.7397  0.7451  0.4036
   96MPD2    H3 1472   2.864   4.038  15.797 -1.2092  1.6212 -0.1470
   96MPD2     N 1473   3.052   4.096  16.201 -0.2072 -0.1966  0.0085
   96MPD2    H5 1474   2.983   4.034  16.243 -0.3110  0.2397  0.4853
   96MPD2    N1 1475   3.223   4.320  15.801  0.0210 -0.0081 -0.1076
   96MPD2    H7 1476   3.229   4.307  15.701 -0.0105  0.4473 -0.1723
   97MPD2     C 1477   0.327   1.276   1.114 -0.2238  0.6674  0.2037
   97MPD2    C1 1478   0.420   1.376   1.128  0.0493 -0.2375  0.1514
   97MPD2    C2 1479   0.501   1.400   1.014 -0.7618 -0.2052  0.4999
   97MPD2    C3 1480   0.497   1.313   0.899  0.5337  0.2394 -0.1741
   97MPD2    C4 1481   0.402   1.214   0.899  0.0061  0.4358 -0.0925
   97MPD2    C5 1482   0.315   1.202   1.004 -0.1640  0.4507 -0.1295
   97MPD2     H 1483   0.573   1.481   1.021  0.4372 -1.3745  1.8133
   97MPD2    H1 1484   0.390   1.159   0.807 -1.1095 -1.6888  1.3373
   97MPD2    H2 1485   0.264   1.249   1.198  0.5525  0.4670  0.7233
   97MPD2    H3 1486   0.241   1.123   0.999  1.7644 -1.3034 -1.4836
   97MPD2     N 1487   0.581   1.313   0.785  0.0564 -0.1896  0.2969
   97MPD2    H5 1488   0.574   1.228   0.731  1.5239 -0.8016  1.0661
   97MPD2    N1 1489   0.426   1.448   1.247 -0.3203 -0.4706 -0.1273
   97MPD2    H7 1490   0.357   1.419   1.316  0.2002 -0.6751  0.3029
   98TCq2    C1 1491   0.663   1.427   0.755  0.6453 -0.1374  0.2863
   98TCq2    O2 1492   0.654   1.537   0.806 -0.2172  0.5508  0.6717
   98TCq2    C2 1493   0.764   1.394   0.654  0.4920  1.2834  0.1674
   98TCq2    C3 1494   0.788   1.264   0.624  0.3124  0.7516  0.2197
   98TCq2    C4 1495   0.906   1.244   0.557  0.0585  0.3012 -0.0864
   98TCq2    C5 1496   0.975   1.354   0.505 -0.3945 -0.5391  0.0908
   98TCq2    C6 1497   0.941   1.482   0.540  0.0155 -0.8154 -0.0445
   98TCq2    C7 1498   0.829   1.509   0.614  0.1686  0.4618 -0.3830
   98TCq2    C8 1499   1.001   1.595   0.473 -0.0312 -0.1181 -0.2949
   98TCq2    O4 1500   1.120   1.595   0.443 -0.3294 -0.2822 -0.3582
   98TCq2    C9 1501   0.947   1.112   0.513  0.0386 -0.7919  0.8708
   98TCq2    O5 1502   1.057   1.093   0.448 -0.9923  0.8356  0.1008
   98TCq2    O6 1503   0.863   1.021   0.533 -0.0836  0.0013 -0.4499
   98TCq2    H2 1504   0.722   1.183   0.651  1.6597 -1.0933 -2.0503
   98TCq2    H3 1505   1.061   1.339   0.440 -0.4516  2.9065 -0.7622
   98TCq2    H4 1506   0.817   1.609   0.653  0.3850  0.3474 -0.0221
   99MPD2     C 1507   4.315   3.548   2.509  0.4328 -0.0564  0.0462
   99MPD2    C1 1508   4.180   3.517   2.503 -0.2443  0.1739  0.8094
   99MPD2    C2 1509   4.109   3.517   2.380 -0.4326 -0.1114  0.2624
   99MPD2    C3 1510   4.178   3.530   2.259  0.7919 -0.5439 -0.0703
   99MPD2    C4 1511   4.317   3.546   2.268 -0.3781  0.2266 -0.4622
   99MPD2    C5 1512   4.379   3.553   2.388 -0.0240  0.3145  0.8156
   99MPD2     H 1513   4.003   3.496   2.369 -0.3983  0.1840 -0.6284
   99MPD2    H1 1514   4.366   3.576   2.176 -0.8447  1.8270 -0.1867
   99MPD2    H2 1515   4.378   3.544   2.597 -0.0597  0.9392  0.4415
   99MPD2    H3 1516   4.485   3.572   2.394  0.2815 -0.6710 -1.4685
   99MPD2     N 1517   4.119   3.517   2.129 -0.0325 -0.1634  0.4563
   99MPD2    H5 1518   4.017   3.517   2.128 -0.0122 -3.4737 -0.5705
   99MPD2    N1 1519   4.107   3.484   2.617 -0.3413  0.1885 -0.2043
   99MPD2    H7 1520   4.012   3.452   2.605 -0.8704  1.0605  1.5059
  100TCq2    C1 1521   4.150   3.489   2.756  0.1640 -0.1564  0.0490
  100TCq2    O2 1522   4.257   3.529   2.800 -0.2427  0.0170  0.2964
  100TCq2    C2 1523   4.038   3.469   2.856 -0.0384  0.1074  0.2424
  100TCq2    C3 1524   4.085   3.410   2.970  0.1098  0.7775 -0.2184
  100TCq2    C4 1525   3.988   3.360   3.053 -0.2069 -0.3527 -0.2020
  100TCq2    C5 1526   3.857   3.367   3.027 -0.0026 -0.7464  0.2721
  100TCq2    C6 1527   3.820   3.422   2.909  0.4652 -0.6863 -0.3639
  100TCq2    C7 1528   3.911   3.477   2.819 -0.6201  0.4354 -0.1696
  100TCq2    C8 1529   3.678   3.448   2.897  0.2975  0.2901  0.9184
  100TCq2    O4 1530   3.626   3.503   2.993  0.0801 -0.1755 -0.1256
  100TCq2    C9 1531   4.034   3.290   3.168 -0.2046  0.8743  0.0751
  100TCq2    O5 1532   3.964   3.201   3.214  0.1764  0.4551 -0.0337
  100TCq2    O6 1533   4.158   3.289   3.190 -1.0517  0.3219  0.3548
  100TCq2    H2 1534   4.189   3.399   2.998  0.6723  2.5672 -1.5976
  100TCq2    H3 1535   3.782   3.319   3.089  0.7987  1.5758  2.9894
  100TCq2    H4 1536   3.881   3.529   2.729 -1.6707 -0.0872 -0.1276
  101MPD2     C 1537   4.616   0.414  12.999 -0.0679  0.9041  0.3823
  101MPD2    C1 1538   4.527   0.481  13.079 -0.1889 -0.2399 -0.5063
  101MPD2    C2 1539   4.448   0.403  13.162 -0.0242 -0.2820 -0.2461
  101MPD2    C3 1540   4.471   0.270  13.186 -0.9686  0.3979  0.3048
  101MPD2    C4 1541   4.560   0.207  13.101 -0.3008 -0.7288 -0.2975
  101MPD2    C5 1542   4.631   0.278  13.011 -0.7502 -0.1659 -0.1953
  101MPD2     H 1543   4.371   0.452  13.220  1.1829  0.2732  0.8922
  101MPD2    H1 1544   4.591   0.103  13.100  2.1262 -0.0274  1.2363
  101MPD2    H2 1545   4.691   0.463  12.937  1.1917 -1.8338 -0.2406
  101MPD2    H3 1546   4.705   0.238  12.943 -2.1572 -0.2658 -1.6807
  101MPD2     N 1547   4.382   0.203  13.271 -0.2367  0.1513  0.4612
  101MPD2    H5 1548   4.312   0.258  13.321 -0.6320 -0.0961  0.1834
  101MPD2    N1 1549   4.503   0.616  13.065  0.8338  0.0645 -0.1249
  101MPD2    H7 1550   4.565   0.658  12.996 -0.8820  1.3989 -0.8617
  102TCq2    C1 1551   4.576   1.056  12.872 -0.4034  0.0510 -0.8165
  102TCq2    O2 1552   4.678   1.124  12.890  0.7069  0.2534 -0.0983
  102TCq2    C2 1553   4.509   1.002  12.991  0.0792 -0.3604  0.7351
  102TCq2    C3 1554   4.430   1.093  13.056 -0.6608 -0.7043  0.2153
  102TCq2    C4 1555   4.328   1.045  13.135 -0.5140 -0.8278  0.5931
  102TCq2    C5 1556   4.310   0.911  13.151 -0.2223  1.0278 -1.3132
  102TCq2    C6 1557   4.391   0.828  13.075 -0.1525 -0.2285  0.6051
  102TCq2    C7 1558   4.480   0.868  12.985  0.3638  0.4328  0.6142
  102TCq2    C8 1559   4.389   0.682  13.107 -0.2213  0.6416  0.1400
  102TCq2    O4 1560   4.308   0.656  13.190  0.0472 -0.2908 -0.5328
  102TCq2    C9 1561   4.241   1.134  13.207  0.1056 -0.3904 -0.0316
  102TCq2    O5 1562   4.277   1.255  13.212 -0.1056  0.5907 -0.1791
  102TCq2    O6 1563   4.161   1.080  13.293  0.5751  0.0001 -0.0164
  102TCq2    H2 1564   4.441   1.199  13.040  0.3629 -0.8338  0.0294
  102TCq2    H3 1565   4.236   0.865  13.216  1.1688  0.0893 -0.3797
  102TCq2    H4 1566   4.538   0.806  12.917  0.2631  0.7991  0.1917
  103TMC2    C1 1567   2.769   4.621  12.503 -0.3211 -0.8984 -0.0741
  103TMC2    C2 1568   2.804   4.491  12.525  0.0089 -0.2078  0.6189
  103TMC2    C3 1569   2.852   4.460  12.649  0.2863  0.4705  0.8520
  103TMC2    C4 1570   2.761   4.713  12.605 -0.2896  0.1677 -0.2924
  103TMC2    C5 1571   2.815   4.682  12.727 -0.0725  0.3280 -0.3120
  103TMC2    C6 1572   2.856   4.554  12.749  0.2924 -0.5519  0.0785
  103TMC2     C 1573   2.728   4.654  12.365 -0.2175  0.1311  0.1531
  103TMC2     O 1574   2.639   0.009  12.359  0.1182 -0.4215  0.1685
  103TMC2     H 1575   2.808   4.418  12.445  1.1768 -1.0913  1.4780
  103TMC2    H1 1576   2.723   0.083  12.565  1.6837  1.3864  0.6879
  103TMC2    H2 1577   2.877   4.515  12.848 -1.3683 -1.1047  0.2009
  103TMC2    C7 1578   2.864   0.065  12.812 -0.5384  0.1451 -0.1358
  103TMC2    C8 1579   2.923   4.337  12.662 -0.3621 -0.4964  0.5476
  103TMC2    O1 1580   2.868   0.048  12.931  0.0174  0.3172  0.0338
  103TMC2    O2 1581   2.978   4.293  12.563 -0.1301 -0.3794 -0.3757
  103TMC2    O5 1582   2.868   4.264  12.762 -0.4909  0.3546 -0.5363
  103TMC2    H5 1583   2.793   4.307  12.810 -0.3070  0.6644 -0.5235
  104MPD2     C 1584   2.940   4.633  12.062  0.0379 -0.6473 -0.6664
  104MPD2    C1 1585   2.822   4.645  12.136  0.3563  0.1003 -0.0424
  104MPD2    C2 1586   2.714   4.694  12.071  0.4922  0.7155 -0.5091
  104MPD2    C3 1587   2.703   4.715  11.938  0.1682  0.7995  0.7136
  104MPD2    C4 1588   2.823   4.721  11.863  0.3867  0.1041  0.4872
  104MPD2    C5 1589   2.935   4.668  11.925  0.0096  0.1668  0.1006
  104MPD2     H 1590   2.618   4.704  12.120  0.2579  0.5717 -0.9376
  104MPD2    H1 1591   2.817   0.013  11.756 -0.3227 -1.3767  0.3194
  104MPD2    H2 1592   3.034   4.601  12.106 -0.7588  0.2889  1.7601
  104MPD2    H3 1593   3.027   4.657  11.869 -0.4553 -1.9198 -0.2690
  104MPD2     N 1594   2.578   0.015  11.885 -0.3313 -0.3586 -0.2937
  104MPD2    H5 1595   2.498   4.711  11.941  0.5852 -1.9391  0.2459
  104MPD2    N1 1596   2.821   4.613  12.273  0.1260 -0.1183  0.6179
  104MPD2    H7 1597   2.910   4.578  12.307  2.0464  1.9895 -2.1738
  105MPD2     C 1598   4.697   4.173   0.353  0.0595 -0.4888 -0.4847
  105MPD2    C1 1599   4.619   4.288   0.361 -0.0077 -0.2347  0.2102
  105MPD2    C2 1600   4.542   4.313   0.468 -0.1877 -0.2811 -0.2122
  105MPD2    C3 1601   4.548   4.230   0.577  0.0403  0.5884  0.5620
  105MPD2    C4 1602   4.634   4.120   0.579  0.5622 -0.4809  1.3946
  105MPD2    C5 1603   4.707   4.086   0.463 -0.8527  0.3318  0.6974
  105MPD2     H 1604   4.470   4.393   0.477 -1.9871 -1.7902 -1.2189
  105MPD2    H1 1605   4.645   4.060   0.669  2.5131 -0.7502  0.9577
  105MPD2    H2 1606   0.025   4.143   0.263 -0.2177 -1.7116 -0.2374
  105MPD2    H3 1607   0.062   4.012   0.455 -0.3093  1.0653 -0.7405
  105MPD2     N 1608   4.461   4.258   0.689  0.3574  0.3948  0.0521
  105MPD2    H5 1609   4.389   4.326   0.669  2.2365  2.3081 -0.1350
  105MPD2    N1 1610   4.597   4.375   0.248 -0.5288  0.3767  0.6099
  105MPD2    H7 1611   4.557   4.464   0.274  1.6529  1.2043  1.0814
  106TCq2    C1 1612   4.456   4.212   0.814  0.1714  0.4443  0.8707
  106TCq2    O2 1613   4.538   4.140   0.869  0.4177 -0.1196 -0.5260
  106TCq2    C2 1614   4.356   4.283   0.889 -0.0293  0.7616  0.5728
  106TCq2    C3 1615   4.242   4.340   0.831 -0.4612  0.3637 -0.6407
  106TCq2    C4 1616   4.144   4.375   0.917  0.3625  0.4965 -0.4819
  106TCq2    C5 1617   4.145   4.374   1.055  0.1578 -0.2947  0.1842
  106TCq2    C6 1618   4.266   4.315   1.107  0.2223 -0.0820 -0.0512
  106TCq2    C7 1619   4.370   4.277   1.028 -0.8328 -0.6424 -0.2324
  106TCq2    C8 1620   4.278   4.288   1.244 -0.1423 -0.1751 -0.3690
  106TCq2    O4 1621   4.363   4.211   1.280 -0.3605 -0.4646  0.9032
  106TCq2    C9 1622   4.024   4.426   0.854 -0.0775  0.4607 -0.7524
  106TCq2    O5 1623   4.019   4.440   0.726  0.4909 -0.8324  0.4888
  106TCq2    O6 1624   3.935   4.450   0.941  0.5021 -0.0434 -0.3760
  106TCq2    H2 1625   4.219   4.340   0.725  0.0599  3.2757 -0.7523
  106TCq2    H3 1626   4.069   4.413   1.122  0.2182 -3.1878  1.9358
  106TCq2    H4 1627   4.466   4.256   1.073 -0.2458  0.7013 -0.8461
  107TMC2    C1 1628   0.646   2.819  11.913 -0.4111 -0.4779 -0.3797
  107TMC2    C2 1629   0.679   2.747  12.024  0.2530 -0.1581 -0.3139
  107TMC2    C3 1630   0.725   2.618  12.006  0.8156 -0.2134  0.1516
  107TMC2    C4 1631   0.659   2.771  11.786  0.1969  0.1971 -0.1449
  107TMC2    C5 1632   0.711   2.640  11.775 -0.5250  0.0126  0.4155
  107TMC2    C6 1633   0.742   2.564  11.883 -0.8443  0.1956 -0.9766
  107TMC2     C 1634   0.623   2.961  11.934  0.1782  0.0010  0.5849
  107TMC2     O 1635   0.587   2.990  12.048 -0.2469 -0.3469  0.6229
  107TMC2     H 1636   0.680   2.799  12.119  0.7449  2.4966 -1.7615
  107TMC2    H1 1637   0.624   2.823  11.698 -0.9130 -2.0932 -1.0678
  107TMC2    H2 1638   0.785   2.466  11.870 -0.9871  0.1471 -1.0756
  107TMC2    C7 1639   0.719   2.574  11.647 -0.0989 -0.0753  0.4825
  107TMC2    C8 1640   0.773   2.540  12.121 -0.1675 -0.5070  0.4225
  107TMC2    O1 1641   0.707   2.449  11.641 -0.1969 -0.3167 -0.6073
  107TMC2    O2 1642   0.883   2.499  12.127 -0.1208  0.7197  0.0062
  107TMC2    O5 1643   0.694   2.584  12.218  0.4543  0.1519  0.4806
  107TMC2    H5 1644   0.604   2.611  12.188  1.2025 -0.6617 -2.4690
  108MPD2     C 1645   0.654   3.258  11.722 -0.0259 -0.3284 -0.6044
  108MPD2    C1 1646   0.608   3.185  11.826 -0.3681 -0.1044  0.4417
  108MPD2    C2 1647   0.541   3.248  11.929  0.0536  0.4011 -0.1305
  108MPD2    C3 1648   0.523   3.382  11.930  0.4181  0.4724 -0.0831
  108MPD2    C4 1649   0.557   3.453  11.820 -0.2506 -0.4611  0.1627
  108MPD2    C5 1650   0.630   3.395  11.724 -0.5085  0.5901 -0.1649
  108MPD2     H 1651   0.517   3.190  12.018 -1.0054  0.8619 -0.1122
  108MPD2    H1 1652   0.544   3.560  11.829  1.7041 -0.1787 -0.3919
  108MPD2    H2 1653   0.720   3.212  11.650  0.9667  0.2561 -0.0630
  108MPD2    H3 1654   0.690   3.455  11.657 -0.0598  1.0528  0.6470
  108MPD2     N 1655   0.441   3.447  12.024  0.8306 -0.4289  0.3414
  108MPD2    H5 1656   0.412   3.539  11.995 -0.1033 -0.6623  0.5465
  108MPD2    N1 1657   0.632   3.046  11.825  0.6171 -0.1338 -0.6306
  108MPD2    H7 1658   0.672   3.007  11.741 -2.4346  0.2162 -2.2412
  109MPD2     C 1659   4.388   1.387   2.356 -0.1881  0.1794 -0.0075
  109MPD2    C1 1660   4.477   1.390   2.250 -0.1967  0.0351  0.0562
  109MPD2    C2 1661   4.586   1.300   2.247  0.1672  0.0450 -0.0362
  109MPD2    C3 1662   4.625   1.233   2.357  0.1859  0.0118 -0.3901
  109MPD2    C4 1663   4.545   1.239   2.472 -0.0631 -0.7999  0.0151
  109MPD2    C5 1664   4.431   1.319   2.465 -0.3231 -0.5404 -0.7108
  109MPD2     H 1665   4.639   1.275   2.156  1.3809  1.3829  0.3154
  109MPD2    H1 1666   4.554   1.175   2.559  3.3444  0.1093  0.3278
  109MPD2    H2 1667   4.294   1.442   2.357  0.1312  0.7223  0.2555
  109MPD2    H3 1668   4.378   1.319   2.559  3.8316 -1.1529  1.6648
  109MPD2     N 1669   0.013   1.149   2.339 -0.0371  0.3632  0.3218
  109MPD2    H5 1670   0.067   1.159   2.253  0.9617 -2.9332  0.5948
  109MPD2    N1 1671   4.431   1.465   2.142 -0.4468  0.1862 -0.8480
  109MPD2    H7 1672   4.348   1.521   2.163  1.3080  1.3683  2.9902
  110TCq2    C1 1673   0.057   1.053   2.426 -0.0431 -0.4597 -0.2568
  110TCq2    O2 1674   0.034   1.027   2.542  0.0161 -0.1824  0.0108
  110TCq2    C2 1675   0.171   0.986   2.368  0.4965  0.5896 -0.4786
  110TCq2    C3 1676   0.251   0.911   2.454 -0.4236  0.7656 -0.0046
  110TCq2    C4 1677   0.370   0.859   2.410  0.3326  0.4432 -0.0683
  110TCq2    C5 1678   0.415   0.891   2.288 -0.1854  0.7116  0.0121
  110TCq2    C6 1679   0.338   0.967   2.205  0.4433 -0.4256 -0.6817
  110TCq2    C7 1680   0.213   1.013   2.239  0.4206  0.4794 -0.9787
  110TCq2    C8 1681   0.393   1.042   2.092 -0.2258  0.1902  0.1268
  110TCq2    O4 1682   0.352   1.156   2.089  0.3802  0.3774 -0.3136
  110TCq2    C9 1683   0.458   0.783   2.502 -0.0014 -0.2362  0.1582
  110TCq2    O5 1684   0.412   0.710   2.592  0.3209 -0.1699 -0.5493
  110TCq2    O6 1685   0.580   0.782   2.472  0.0991  0.1774 -0.0979
  110TCq2    H2 1686   0.231   0.885   2.558 -0.5343  0.8389 -0.0078
  110TCq2    H3 1687   0.519   0.871   2.263 -0.5066  1.8469 -2.1097
  110TCq2    H4 1688   0.155   1.063   2.163 -1.8519  1.4797  1.3972
  111TMC2    C1 1689   0.098   0.954  11.362  0.0562 -0.8625 -0.6081
  111TMC2    C2 1690   0.155   0.866  11.272 -0.7835  0.2630 -0.0060
  111TMC2    C3 1691   0.258   0.772  11.308  0.2698  0.0301 -0.4176
  111TMC2    C4 1692   0.128   0.940  11.495 -0.5933  0.6513 -0.5456
  111TMC2    C5 1693   0.237   0.852  11.524  0.8673 -0.4309  0.0199
  111TMC2    C6 1694   0.300   0.771  11.437  0.2391  0.1016 -0.2872
  111TMC2     C 1695   0.000   1.055  11.310 -0.5522 -0.1872 -0.2843
  111TMC2     O 1696   4.689   1.040  11.196 -0.0023  0.2633 -0.0418
  111TMC2     H 1697   0.130   0.881  11.168  1.3086  0.3002 -0.4940
  111TMC2    H1 1698   0.099   1.011  11.572 -0.8920 -0.3501  0.2645
  111TMC2    H2 1699   0.387   0.715  11.470  1.2074  1.3640 -0.6865
  111TMC2    C7 1700   0.302   0.880  11.646  0.3191 -0.8289  0.0120
  111TMC2    C8 1701   0.323   0.689  11.205  0.0475  0.1488 -0.6840
  111TMC2    O1 1702   0.240   0.909  11.749  0.1837  0.5040 -0.5975
  111TMC2    O2 1703   0.376   0.585  11.235  0.1178 -0.5280  0.5777
  111TMC2    O5 1704   0.367   0.776  11.113  0.2480 -0.2235  1.0266
  111TMC2    H5 1705   0.330   0.867  11.109 -1.2964 -0.9380 -0.4657
  112MPD2     C 1706   4.542   1.528  11.318 -0.1645 -0.2240  0.5682
  112MPD2    C1 1707   4.522   1.426  11.229  0.4047 -0.5473 -0.0415
  112MPD2    C2 1708   4.582   1.303  11.247  0.4983  0.3763  0.0087
  112MPD2    C3 1709   4.648   1.280  11.367 -0.3089  0.5108 -0.8806
  112MPD2    C4 1710   4.668   1.384  11.456 -0.4044  0.3992 -0.2926
  112MPD2    C5 1711   4.629   1.509  11.424 -0.5361 -0.1762 -0.4004
  112MPD2     H 1712   4.559   1.220  11.180  1.1242  1.6358 -1.7586
  112MPD2    H1 1713   0.014   1.363  11.537 -0.0293  2.4205 -0.0961
  112MPD2    H2 1714   4.530   1.633  11.295  0.1421 -0.4201 -0.4587
  112MPD2    H3 1715   4.655   1.597  11.482 -0.4613 -0.0150 -0.6758
  112MPD2     N 1716   4.714   1.164  11.397 -0.0531 -0.1135 -0.7732
  112MPD2    H5 1717   0.023   1.139  11.490 -0.7629  0.4360 -0.3849
  112MPD2    N1 1718   4.442   1.440  11.113 -0.1025  0.5260 -0.3037
  112MPD2    H7 1719   4.450   1.361  11.050 -0.5888  0.7140 -0.6041
  113MPD2     C 1720   3.254   3.541   1.469  0.4654 -0.3121 -0.1418
  113MPD2    C1 1721   3.267   3.671   1.437  0.1896 -0.9521 -0.0035
  113MPD2    C2 1722   3.213   3.715   1.317 -0.5483  0.1255 -0.3510
  113MPD2    C3 1723   3.143   3.626   1.231  0.7183  0.0871 -0.5375
  113MPD2    C4 1724   3.121   3.501   1.277 -0.2403  0.7630  0.2603
  113MPD2    C5 1725   3.175   3.462   1.391  1.1873 -0.6108  0.4062
  113MPD2     H 1726   3.231   3.817   1.285 -1.0711  0.4643  0.4474
  113MPD2    H1 1727   3.079   3.430   1.207 -0.1938 -0.0581  1.0669
  113MPD2    H2 1728   3.293   3.495   1.559 -1.1889  0.6161  1.0445
  113MPD2    H3 1729   3.173   3.356   1.415  2.2596 -0.2735  1.9723
  113MPD2     N 1730   3.077   3.660   1.112  0.0764  0.1308 -0.8349
  113MPD2    H5 1731   3.011   3.599   1.064 -1.0517 -1.6563  2.9642
  113MPD2    N1 1732   3.331   3.764   1.527  0.2778  0.4189  0.1730
  113MPD2    H7 1733   3.330   3.861   1.497  1.9985 -0.5770 -3.1936
  114TCq2    C1 1734   3.097   3.781   1.045  1.3497 -0.3512 -0.1731
  114TCq2    O2 1735   3.167   3.877   1.068 -0.3259  0.3966  0.0399
  114TCq2    C2 1736   3.016   3.795   0.928  0.3423 -0.1007  0.1672
  114TCq2    C3 1737   3.013   3.916   0.867  0.1388  0.3902  0.0885
  114TCq2    C4 1738   2.932   3.938   0.759  0.0358 -0.3882  0.2110
  114TCq2    C5 1739   2.853   3.847   0.708  0.4954  0.8184  0.2376
  114TCq2    C6 1740   2.853   3.723   0.776  0.2803  0.4301 -0.9081
  114TCq2    C7 1741   2.932   3.695   0.886 -0.1588  0.2714 -0.7108
  114TCq2    C8 1742   2.779   3.617   0.711 -0.8708  0.4354  0.2884
  114TCq2    O4 1743   2.769   3.633   0.587  0.1020 -0.2650  0.4556
  114TCq2    C9 1744   2.938   4.065   0.707 -0.4566 -1.3305 -0.0231
  114TCq2    O5 1745   2.856   4.084   0.615 -0.2153  0.3520  0.1747
  114TCq2    O6 1746   3.003   4.152   0.767 -0.2932 -0.1860  0.4886
  114TCq2    H2 1747   3.091   3.989   0.886 -0.1787  0.4904  1.0091
  114TCq2    H3 1748   2.791   3.869   0.622 -1.3084  1.0106  1.5879
  114TCq2    H4 1749   2.933   3.594   0.925 -0.4000  0.8108  0.6858
  115TMC2    C1 1750   4.308   1.833   0.127 -0.2951 -0.4007  0.0100
  115TMC2    C2 1751   4.428   1.767   0.125 -0.2396  0.3708 -0.5090
  115TMC2    C3 1752   4.530   1.831   0.072 -0.5347  0.5999 -0.1774
  115TMC2    C4 1753   4.284   1.951   0.061 -0.0839  0.2214 -0.1198
  115TMC2    C5 1754   4.396   2.004   0.001  0.0427 -0.2010  0.0861
  115TMC2    C6 1755   4.521   1.955   0.010  0.2382 -0.4611  0.1126
  115TMC2     C 1756   4.196   1.745   0.152 -0.0219 -0.4660 -0.2171
  115TMC2     O 1757   4.227   1.628   0.118 -0.3065  0.0567 -0.0868
  115TMC2     H 1758   4.438   1.680   0.188 -1.2175  0.1853 -0.6076
  115TMC2    H1 1759   4.181   1.983   0.058 -0.3642 -0.7634 -1.1589
  115TMC2    H2 1760   4.615   1.993  17.667 -0.2572  0.0927 -0.5491
  115TMC2    C7 1761   4.394   2.145  17.666  0.4491  0.3611  0.4603
  115TMC2    C8 1762   4.660   1.775   0.105 -0.3873  0.1863 -0.3725
  115TMC2    O1 1763   4.497   2.201   0.002  0.0323  0.1988  0.0805
  115TMC2    O2 1764   0.036   1.838   0.133 -0.5082  0.5662 -0.6591
  115TMC2    O5 1765   4.657   1.644   0.076 -0.4790  0.2930 -0.0473
  115TMC2    H5 1766   4.572   1.611   0.039 -0.6365  2.3876 -1.6046
  116MPD2     C 1767   3.711   1.629   0.269  0.2961 -0.1208  0.0811
  116MPD2    C1 1768   3.806   1.549   0.216 -0.9708  0.1487 -0.4718
  116MPD2    C2 1769   3.932   1.609   0.183 -0.9043 -0.0004 -0.6291
  116MPD2    C3 1770   3.957   1.741   0.216 -0.0958 -0.0781 -0.1917
  116MPD2    C4 1771   3.855   1.809   0.278  0.5713 -1.1815 -0.2631
  116MPD2    C5 1772   3.729   1.760   0.298 -0.0837 -0.2339  0.0597
  116MPD2     H 1773   4.006   1.544   0.138 -0.8189  1.1269 -2.1293
  116MPD2    H1 1774   3.865   1.915   0.300  1.4383 -0.8875 -2.0800
  116MPD2    H2 1775   3.611   1.588   0.276 -0.3532  1.0261 -2.3404
  116MPD2    H3 1776   3.647   1.815   0.343  0.5128  0.6570  0.0533
  116MPD2     N 1777   4.083   1.805   0.198  0.5849 -0.4153  0.7032
  116MPD2    H5 1778   4.089   1.902   0.228  0.4603 -0.6176  1.3975
  116MPD2    N1 1779   3.778   1.418   0.183  0.0450  0.1834  0.2923
  116MPD2    H7 1780   3.679   1.399   0.184  0.0422  0.1656 -0.2841
  117TMC2    C1 1781   2.052   3.216  14.541  0.4667 -0.0740 -0.0484
  117TMC2    C2 1782   2.112   3.105  14.488  0.0849 -0.5214 -0.3644
  117TMC2    C3 1783   2.245   3.100  14.498 -0.5215  0.6217  0.1949
  117TMC2    C4 1784   2.117   3.330  14.576 -0.3441 -0.3033 -0.2964
  117TMC2    C5 1785   2.252   3.327  14.569 -0.7451 -0.1206  0.8691
  117TMC2    C6 1786   2.316   3.211  14.533  0.3023 -0.0569 -0.0456
  117TMC2     C 1787   1.909   3.212  14.535  0.0458 -0.8373  0.2919
  117TMC2     O 1788   1.859   3.104  14.517 -0.1881 -0.1150 -0.2056
  117TMC2     H 1789   2.053   3.016  14.469 -0.9595 -0.2378  1.5763
  117TMC2    H1 1790   2.068   3.422  14.606 -1.4264 -0.9295 -0.1470
  117TMC2    H2 1791   2.424   3.206  14.531  0.4522  4.4326 -3.2462
  117TMC2    C7 1792   2.311   3.442  14.633 -0.0461 -0.9301 -0.6848
  117TMC2    C8 1793   2.317   2.986  14.439 -0.1561 -0.6246  0.6041
  117TMC2    O1 1794   2.265   3.490  14.739  0.8945  0.7344 -0.6676
  117TMC2    O2 1795   2.436   2.965  14.462 -0.1205  0.6531 -0.2167
  117TMC2    O5 1796   2.239   2.943  14.342 -0.7642  0.0446  0.2791
  117TMC2    H5 1797   2.178   3.011  14.307 -1.5189 -0.7687  0.0038
  118MPD2     C 1798   2.525   3.623  14.736  0.2255 -0.2151  0.2995
  118MPD2    C1 1799   2.498   3.606  14.593  0.7342  0.0664  0.0309
  118MPD2    C2 1800   2.562   3.685  14.496 -0.3122 -0.3121  0.5284
  118MPD2    C3 1801   2.651   3.784  14.545 -0.7520 -0.2001  0.3088
  118MPD2    C4 1802   2.671   3.799  14.681  0.3029 -0.0064  0.0441
  118MPD2    C5 1803   2.610   3.720  14.770  0.5507 -0.1846 -0.1122
  118MPD2     H 1804   2.558   3.660  14.391 -0.4847  1.4823  0.1066
  118MPD2    H1 1805   2.728   3.882  14.722 -0.8045 -0.4173  2.4484
  118MPD2    H2 1806   2.482   3.558  14.812  2.6353 -0.4163  1.5143
  118MPD2    H3 1807   2.619   3.742  14.876 -1.2439  2.3330 -0.4749
  118MPD2     N 1808   2.708   3.879  14.457  0.5879  0.1288  0.5468
  118MPD2    H5 1809   2.782   3.933  14.500 -1.2489  2.6743  0.4982
  118MPD2    N1 1810   2.408   3.498  14.554  0.1530 -0.2972  0.3358
  118MPD2    H7 1811   2.411   3.470  14.456 -0.4057  1.4063 -0.1665
  119MPD2     C 1812   0.937   0.036  13.811 -0.6154  0.9276 -0.2265
  119MPD2    C1 1813   0.800   0.049  13.842 -0.4647 -0.3010 -0.1547
  119MPD2    C2 1814   0.718   0.089  13.736  0.5050 -0.0912  0.3913
  119MPD2    C3 1815   0.765   0.127  13.615  0.2113  0.7724 -0.4810
  119MPD2    C4 1816   0.899   0.128  13.594 -0.5276  0.1859 -0.0178
  119MPD2    C5 1817   0.988   0.078  13.687  0.2605 -0.0887 -0.1081
  119MPD2     H 1818   0.614   0.059  13.746  0.2553  1.2797  1.7769
  119MPD2    H1 1819   0.942   0.166  13.501 -2.2147 -1.0784 -1.2968
  119MPD2    H2 1820   1.001   4.716  13.887  0.8761 -0.6119 -2.3403
  119MPD2    H3 1821   1.092   0.059  13.662  0.6666  3.0060 -0.8178
  119MPD2     N 1822   0.680   0.149  13.509 -0.0368 -0.0502 -0.7726
  119MPD2    H5 1823   0.717   0.158  13.415  2.0467 -0.9543 -0.0350
  119MPD2    N1 1824   0.757   0.011  13.969 -0.2075  0.2833  0.2242
  119MPD2    H7 1825   0.823   4.695  14.035  1.6879  1.1017 -1.1939
  120TCq2    C1 1826   0.543   0.157  13.522 -1.0440 -0.1621  0.1360
  120TCq2    O2 1827   0.473   0.183  13.620 -0.6200  0.0749 -0.1885
  120TCq2    C2 1828   0.481   0.145  13.392  0.0675  0.4148  0.0809
  120TCq2    C3 1829   0.509   0.021  13.337  0.4916  0.2732 -0.2212
  120TCq2    C4 1830   0.404   4.656  13.314  0.7195  0.0881  0.6172
  120TCq2    C5 1831   0.276   4.699  13.326  0.2823  0.2469 -0.0378
  120TCq2    C6 1832   0.250   0.096  13.375 -0.2551 -0.5819 -0.5701
  120TCq2    C7 1833   0.350   0.186  13.391 -0.6352  0.3134  0.4948
  120TCq2    C8 1834   0.110   0.110  13.420 -0.2407  0.2033 -0.1636
  120TCq2    O4 1835   0.076   0.227  13.432 -0.0338  0.1001  0.4335
  120TCq2    C9 1836   0.419   4.520  13.286 -0.9173 -0.2699  1.2647
  120TCq2    O5 1837   0.307   4.461  13.260  0.2226 -0.7002 -0.7054
  120TCq2    O6 1838   0.516   4.473  13.351  0.0461 -0.6857  0.0337
  120TCq2    H2 1839   0.604   4.697  13.358  0.4892  0.4661  0.2511
  120TCq2    H3 1840   0.191   4.632  13.315  0.3287  0.1220  0.3622
  120TCq2    H4 1841   0.314   0.280  13.432 -0.1545  0.2889  0.9646
  121TMC2    C1 1842   1.899   1.664  14.284  0.2932  0.5179  0.6155
  121TMC2    C2 1843   1.855   1.585  14.382 -0.2869  0.7839 -0.5655
  121TMC2    C3 1844   1.722   1.585  14.400  0.5185 -0.3111  0.1406
  121TMC2    C4 1845   1.811   1.735  14.201  0.3062  0.4823  0.0827
  121TMC2    C5 1846   1.676   1.732  14.229 -0.7967  0.4496 -0.3017
  121TMC2    C6 1847   1.629   1.657  14.331  0.2638 -0.2703 -0.1432
  121TMC2     C 1848   2.037   1.629  14.249  0.0563 -0.3731 -0.3176
  121TMC2     O 1849   2.094   1.552  14.323  0.2013 -0.4337  0.3086
  121TMC2     H 1850   1.914   1.524  14.450 -0.8114 -0.3062 -1.0986
  121TMC2    H1 1851   1.841   1.797  14.118 -0.7904  2.5824  1.2486
  121TMC2    H2 1852   1.529   1.679  14.365  0.9868  2.3616  0.2795
  121TMC2    C7 1853   1.581   1.808  14.145 -0.2057  0.7246 -0.5435
  121TMC2    C8 1854   1.662   1.509  14.509 -0.5319  0.2091 -1.2422
  121TMC2    O1 1855   1.597   1.927  14.130  0.1737 -0.5001 -0.2890
  121TMC2    O2 1856   1.543   1.527  14.529  0.4737 -0.3595 -0.4742
  121TMC2    O5 1857   1.735   1.395  14.527  0.0363  0.3944 -0.6675
  121TMC2    H5 1858   1.820   1.393  14.477 -0.0401 -1.3628 -0.7319
  122MPD2     C 1859   2.284   1.566  14.075 -0.0691 -0.5746  0.0697
  122MPD2    C1 1860   2.158   1.604  14.027  0.3458 -0.1101  0.0265
  122MPD2    C2 1861   2.136   1.621  13.890 -0.3522  0.0741 -0.4755
  122MPD2    C3 1862   2.235   1.597  13.797 -0.0355 -0.2108  0.5552
  122MPD2    C4 1863   2.359   1.559  13.840  0.4258  0.7529 -0.7877
  122MPD2    C5 1864   2.378   1.531  13.980  0.6918 -0.5971  0.1550
  122MPD2     H 1865   2.038   1.650  13.855  0.9118  1.2674 -3.0453
  122MPD2    H1 1866   2.430   1.517  13.770 -0.3955 -1.4826 -0.2631
  122MPD2    H2 1867   2.310   1.560  14.180 -1.4473 -1.9693  0.3399
  122MPD2    H3 1868   2.476   1.503  14.018  0.9231 -0.1494 -0.1031
  122MPD2     N 1869   2.203   1.583  13.656 -0.0438 -0.3591 -0.6733
  122MPD2    H5 1870   2.275   1.547  13.594  0.2205  0.0722 -0.6132
  122MPD2    N1 1871   2.055   1.647  14.113 -0.3267 -0.1125  0.0373
  122MPD2    H7 1872   1.978   1.697  14.070 -0.5030  0.5753  1.1565
  123MPD2     C 1873   3.724   3.762   9.446 -0.0704 -0.1285 -0.0727
  123MPD2    C1 1874   3.838   3.682   9.432  0.1163 -0.6472  0.4213
  123MPD2    C2 1875   3.825   3.545   9.457 -0.0671 -0.3777  0.3318
  123MPD2    C3 1876   3.698   3.485   9.477 -0.1694 -0.6083  0.0841
  123MPD2    C4 1877   3.591   3.571   9.480 -0.4503 -0.2425 -0.6346
  123MPD2    C5 1878   3.606   3.709   9.480 -0.0040  0.2482  0.3481
  123MPD2     H 1879   3.912   3.484   9.435  1.0174  2.0361 -2.0364
  123MPD2    H1 1880   3.488   3.536   9.474 -1.6435  3.3005 -0.7218
  123MPD2    H2 1881   3.738   3.869   9.430  2.6151 -0.2520  1.4295
  123MPD2    H3 1882   3.521   3.775   9.491  1.4768  2.1173  0.5162
  123MPD2     N 1883   3.695   3.344   9.473 -0.0070  0.4535 -0.3911
  123MPD2    H5 1884   3.786   3.302   9.488 -0.0945 -0.0383 -1.2274
  123MPD2    N1 1885   3.966   3.739   9.381 -0.0480 -0.4811  0.2056
  123MPD2    H7 1886   3.960   3.831   9.339 -0.5762 -0.8257 -0.4659
  124TCq2    C1 1887   3.580   3.265   9.455 -0.0269  0.0104  0.3593
  124TCq2    O2 1888   3.471   3.308   9.429  0.3514  0.5176  0.4758
  124TCq2    C2 1889   3.598   3.122   9.453 -0.2552  0.2666  0.2319
  124TCq2    C3 1890   3.511   3.046   9.383 -0.0616  0.0422 -0.3668
  124TCq2    C4 1891   3.513   2.913   9.394 -0.8412 -0.1465 -0.2922
  124TCq2    C5 1892   3.608   2.862   9.479 -1.1589 -0.4282 -0.2208
  124TCq2    C6 1893   3.711   2.941   9.536  0.4804  0.1053  0.0250
  124TCq2    C7 1894   3.698   3.072   9.525 -0.0718 -0.2930 -0.2717
  124TCq2    C8 1895   3.812   2.880   9.617 -0.4524 -0.7845 -0.6314
  124TCq2    O4 1896   3.797   2.771   9.662  1.1805 -0.1257  0.4521
  124TCq2    C9 1897   3.418   2.832   9.318 -0.2106  0.9049 -0.3504
  124TCq2    O5 1898   3.408   2.710   9.355 -0.0401  0.1504  0.3429
  124TCq2    O6 1899   3.347   2.887   9.231 -0.6736  0.0260 -0.2638
  124TCq2    H2 1900   3.428   3.089   9.328  1.1380  1.5195 -1.0286
  124TCq2    H3 1901   3.616   2.756   9.499  0.0540 -0.2938  0.0108
  124TCq2    H4 1902   3.758   3.127   9.597  1.1223 -0.5133 -1.0980
  125TMC2    C1 1903   1.429   0.110   9.146  0.3163 -1.0439 -0.3794
  125TMC2    C2 1904   1.316   0.168   9.097  0.8244 -0.2776 -0.3825
  125TMC2    C3 1905   1.302   0.302   9.127  0.4914  0.3095  0.4968
  125TMC2    C4 1906   1.525   0.178   9.220 -0.2469 -0.7645 -0.1715
  125TMC2    C5 1907   1.499   0.306   9.249 -0.7828  0.3096 -1.0119
  125TMC2    C6 1908   1.391   0.370   9.203  0.6062  0.2130  0.8370
  125TMC2     C 1909   1.454   4.703   9.094 -0.1217 -0.1332  0.0256
  125TMC2     O 1910   1.375   4.664   9.006 -0.5627 -0.2005 -0.0410
  125TMC2     H 1911   1.236   0.114   9.047  0.0648  0.4601  0.0255
  125TMC2    H1 1912   1.626   0.142   9.236  0.5931  1.4556 -0.4357
  125TMC2    H2 1913   1.353   0.467   9.231 -1.8060  0.3283 -2.8730
  125TMC2    C7 1914   1.577   0.362   9.354  0.2459 -0.7506 -0.1134
  125TMC2    C8 1915   1.191   0.371   9.065  0.0307 -0.6763 -0.4483
  125TMC2    O1 1916   1.612   0.286   9.441  0.4954 -0.7375 -0.0841
  125TMC2    O2 1917   1.095   0.407   9.135  0.3428  0.1088  0.0992
  125TMC2    O5 1918   1.261   0.453   8.986 -0.2623 -0.1527  0.0140
  125TMC2    H5 1919   1.345   0.409   8.961 -0.6093 -0.5639 -0.4254
  126MPD1     C 1920   1.847   4.397   8.977 -0.2075  0.3644 -0.0221
  126MPD1    C1 1921   1.875   4.444   9.106  0.8000 -0.0527 -0.4903
  126MPD1    C2 1922   1.775   4.529   9.162 -0.1318 -0.4978 -0.3042
  126MPD1    C3 1923   1.660   4.555   9.091 -0.4056  0.1999 -0.5133
  126MPD1    C4 1924   1.637   4.505   8.967  0.1666  0.2717  0.6360
  126MPD1    C5 1925   1.734   4.425   8.909  0.7417  0.0432  0.3214
  126MPD1     H 1926   1.810   4.578   9.253  0.9906 -1.6768 -0.0894
  126MPD1    H1 1927   1.547   4.531   8.914  1.2243  1.4626 -0.5889
  126MPD1    H2 1928   1.916   4.331   8.928 -0.5285 -0.4575  0.6268
  126MPD1    H3 1929   1.717   4.394   8.807  2.0260 -1.5003  0.5675
  126MPD1     N 1930   1.569   4.648   9.153 -0.4873  0.4436 -0.3740
  126MPD1    H5 1931   1.599   4.691   9.240 -2.1351  0.0549  0.3816
  126MPD1    N1 1932   2.002   4.437   9.166 -0.7978  0.4988 -0.0065
  126MPD1    H6 1933   1.993   4.442   9.267  2.1051  1.1616  0.2347
  126MPD1    H7 1934   2.050   4.349   9.151 -1.1647  0.1181  1.1131
  127MPD2     C 1935   2.263   0.200   9.395  0.4691  0.3697  0.1608
  127MPD2    C1 1936   2.293   0.162   9.523  0.2098  0.7372  0.1637
  127MPD2    C2 1937   2.335   0.256   9.610  0.9966 -0.0463  0.4324
  127MPD2    C3 1938   2.358   0.390   9.577 -0.0934 -0.0299  0.2701
  127MPD2    C4 1939   2.340   0.418   9.444 -0.6032  0.4526  0.1904
  127MPD2    C5 1940   2.293   0.328   9.353  0.2338 -0.2214  0.3282
  127MPD2     H 1941   2.347   0.228   9.714  1.1412 -0.4130  0.3162
  127MPD2    H1 1942   2.364   0.515   9.402  0.8248  0.6390  1.4492
  127MPD2    H2 1943   2.227   0.130   9.321  0.1310  1.1009 -0.3696
  127MPD2    H3 1944   2.294   0.354   9.248 -0.4452  1.3663  0.7170
  127MPD2     N 1945   2.418   0.473   9.670  0.5924 -0.3891  0.1245
  127MPD2    H5 1946   2.452   0.426   9.753 -1.5145  1.0849  1.7963
  127MPD2    N1 1947   2.251   0.033   9.562  0.1579 -0.1325  0.2378
  127MPD2    H7 1948   2.210   4.700   9.487  2.0705  1.9708 -2.3740
  128TCq2    C1 1949   2.282   4.697   9.681  0.3009 -0.6629  0.2762
  128TCq2    O2 1950   2.329   0.017   9.787 -0.1749  0.3736 -0.0485
  128TCq2    C2 1951   2.252   4.558   9.689  0.5544  0.1107 -0.2354
  128TCq2    C3 1952   2.332   4.478   9.762  0.0754  0.1021 -0.0094
  128TCq2    C4 1953   2.309   4.345   9.752 -0.5220  0.8952  0.4020
  128TCq2    C5 1954   2.209   4.287   9.680 -0.6162  1.0112  0.5654
  128TCq2    C6 1955   2.125   4.374   9.616 -0.8468  0.2518  0.1308
  128TCq2    C7 1956   2.146   4.513   9.615  0.4103  0.3838  0.1101
  128TCq2    C8 1957   2.032   4.335   9.515  0.5328  0.1803 -1.0338
  128TCq2    O4 1958   1.988   4.420   9.440 -0.1859  0.5590 -0.0209
  128TCq2    C9 1959   2.398   4.253   9.810  0.5351 -0.2574 -0.0680
  128TCq2    O5 1960   2.487   4.303   9.883 -0.4657 -0.3344 -0.1124
  128TCq2    O6 1961   2.397   4.141   9.746 -0.0139 -0.6695  0.4227
  128TCq2    H2 1962   2.423   4.510   9.811 -1.1531  0.9989  1.7065
  128TCq2    H3 1963   2.200   4.181   9.661 -1.8462  1.0020  1.1963
  128TCq2    H4 1964   2.088   4.582   9.555 -2.5244 -1.7085  0.5451
  129MPD2     C 1965   0.587   0.880   1.252  0.4911  0.3188  0.2814
  129MPD2    C1 1966   0.574   1.011   1.293 -0.0251 -0.8388 -0.1657
  129MPD2    C2 1967   0.642   1.110   1.225  0.1458 -0.4538 -0.5786
  129MPD2    C3 1968   0.736   1.084   1.124  0.0395 -0.5440 -1.3723
  129MPD2    C4 1969   0.746   0.952   1.088 -0.0629 -0.4496 -0.4351
  129MPD2    C5 1970   0.668   0.854   1.153  0.7422 -0.0588 -0.1292
  129MPD2     H 1971   0.625   1.209   1.266 -0.6565 -0.8563  0.0565
  129MPD2    H1 1972   0.817   0.922   1.013 -2.6436  1.1076 -3.5217
  129MPD2    H2 1973   0.534   0.803   1.307  1.5378 -0.9621 -0.4907
  129MPD2    H3 1974   0.669   0.751   1.117  1.6803 -0.0642 -0.1059
  129MPD2     N 1975   0.801   1.194   1.072  0.1854 -0.2199  0.0522
  129MPD2    H5 1976   0.762   1.278   1.114  0.4212 -0.5316  0.8741
  129MPD2    N1 1977   0.491   1.050   1.398 -0.1259 -0.6662 -0.1056
  129MPD2    H7 1978   0.479   1.147   1.425  0.2054 -0.5716 -0.2992
  130TCq2    C1 1979   0.417   0.977   1.488  0.1245  0.4964  0.2411
  130TCq2    O2 1980   0.421   0.853   1.503  0.8445  0.4658 -0.5529
  130TCq2    C2 1981   0.315   1.052   1.561 -0.3158  0.0589  0.3656
  130TCq2    C3 1982   0.284   1.179   1.532  0.0229  0.1908  0.3878
  130TCq2    C4 1983   0.198   1.250   1.613  1.1498  0.3655 -0.0331
  130TCq2    C5 1984   0.130   1.191   1.722 -0.4765 -0.8306  0.0268
  130TCq2    C6 1985   0.171   1.065   1.753 -0.0743 -0.8019  0.4743
  130TCq2    C7 1986   0.259   0.993   1.676  0.0579 -0.4330 -0.5477
  130TCq2    C8 1987   0.097   0.985   1.855  0.4932 -0.3317  0.3265
  130TCq2    O4 1988   0.124   0.867   1.875 -0.4718  0.3102  0.3403
  130TCq2    C9 1989   0.169   1.387   1.578 -0.5631  0.1083 -0.3161
  130TCq2    O5 1990   0.206   1.421   1.460  0.3577  0.1546 -0.1707
  130TCq2    O6 1991   0.090   1.457   1.646 -0.3319  0.0352  0.2853
  130TCq2    H2 1992   0.325   1.224   1.443 -1.5776  1.9453  0.5430
  130TCq2    H3 1993   0.058   1.253   1.775 -0.9547 -0.6434 -0.8514
  130TCq2    H4 1994   0.276   0.891   1.707 -0.6607 -0.2570  0.4399
  131MPD2     C 1995   0.176   4.135   9.614  0.8824 -0.2553 -0.6267
  131MPD2    C1 1996   0.095   4.219   9.540 -0.9016 -0.1877 -0.2056
  131MPD2    C2 1997   4.711   4.156   9.480 -0.7078  0.1636  0.2125
  131MPD2    C3 1998   4.682   4.018   9.496 -0.4146  0.1937 -0.0047
  131MPD2    C4 1999   0.049   3.936   9.563 -0.0979  0.1954 -0.2804
  131MPD2    C5 2000   0.153   3.998   9.627 -0.1642 -0.5723 -0.0870
  131MPD2     H 2001   4.639   4.220   9.431 -0.1742  0.0686 -0.6900
  131MPD2    H1 2002   0.028   3.832   9.587  1.8639 -0.8020 -2.7851
  131MPD2    H2 2003   0.257   4.178   9.670  0.4222 -0.3961  0.1520
  131MPD2    H3 2004   0.222   3.935   9.681  1.1428  1.2242  0.3221
  131MPD2     N 2005   4.561   3.971   9.435  0.2355  0.4772  0.2165
  131MPD2    H5 2006   4.507   4.035   9.378  1.6620  0.1255 -1.5348
  131MPD2    N1 2007   0.130   4.358   9.529  0.1117  0.5222 -0.5109
  131MPD2    H7 2008   0.199   4.394   9.594  0.2331  0.0098 -0.3571
  132TCq2    C1 2009   0.284   0.110   9.288 -0.0631 -0.1781  0.0471
  132TCq2    O2 2010   0.242   0.076   9.176  0.2622 -0.3773 -0.4587
  132TCq2    C2 2011   0.218   0.051   9.399  0.8134 -0.5607 -0.6531
  132TCq2    C3 2012   0.248   0.078   9.530  0.5236 -0.3032  0.2102
  132TCq2    C4 2013   0.207   4.718   9.628 -0.1322 -0.4322 -0.2279
  132TCq2    C5 2014   0.136   4.605   9.606  0.7159 -0.5736 -0.5462
  132TCq2    C6 2015   0.100   4.585   9.479  0.4386 -0.2627  0.3688
  132TCq2    C7 2016   0.141   4.667   9.376  0.2052  0.4669 -0.3113
  132TCq2    C8 2017   0.070   4.446   9.445  0.0476 -0.1056 -0.5445
  132TCq2    O4 2018   0.025   4.417   9.330  0.7291 -0.3988  0.5759
  132TCq2    C9 2019   0.268   0.028   9.759  0.2663 -0.0072 -0.8608
  132TCq2    O5 2020   0.335   0.136   9.770 -0.1611  0.1062 -0.1750
  132TCq2    O6 2021   0.274   4.657   9.842 -0.3020 -0.2149 -0.2454
  132TCq2    H2 2022   0.311   0.162   9.556 -0.6280  0.7889 -0.4995
  132TCq2    H3 2023   0.113   4.544   9.692  1.0112  0.1676  0.0641
  132TCq2    H4 2024   0.116   4.635   9.275 -0.5079 -0.1965  0.0683
  133MPD2     C 2025   3.496   3.930   9.099  0.1147  0.1850  0.0507
  133MPD2    C1 2026   3.619   3.875   9.120 -0.3285  0.4197 -0.4207
  133MPD2    C2 2027   3.719   3.952   9.169 -0.3509  0.9332  0.4882
  133MPD2    C3 2028   3.709   4.087   9.185 -0.1688 -0.2648 -0.6793
  133MPD2    C4 2029   3.592   4.146   9.143 -0.1092  0.7803  0.2709
  133MPD2    C5 2030   3.480   4.066   9.113 -0.0226  0.4852  0.4810
  133MPD2     H 2031   3.810   3.903   9.200  0.1671 -0.1121 -2.7286
  133MPD2    H1 2032   3.584   4.254   9.140  0.4531  0.7487 -1.8366
  133MPD2    H2 2033   3.410   3.880   9.056  0.0240 -0.0660  0.5266
  133MPD2    H3 2034   3.381   4.099   9.086  1.2373  1.8501 -2.3938
  133MPD2     N 2035   3.809   4.178   9.239  0.6428 -0.5071  0.1925
  133MPD2    H5 2036   3.778   4.274   9.239  1.6739 -0.1771 -0.1144
  133MPD2    N1 2037   3.626   3.733   9.102  0.3689  0.8264  0.4139
  133MPD2    H7 2038   3.541   3.684   9.077  0.6477  1.1281 -1.0907
  134TCq2    C1 2039   3.735   3.658   9.116 -0.2310  0.0000  0.0485
  134TCq2    O2 2040   3.852   3.689   9.116  0.0392 -0.6520 -0.3551
  134TCq2    C2 2041   3.712   3.514   9.079  0.2756 -0.8203 -0.4911
  134TCq2    C3 2042   3.584   3.473   9.057 -0.0940  0.5529  0.4623
  134TCq2    C4 2043   3.557   3.340   9.056 -0.3294 -0.0979  0.0044
  134TCq2    C5 2044   3.651   3.248   9.070  0.3038  0.0667 -0.8328
  134TCq2    C6 2045   3.775   3.289   9.109  0.0550 -0.5939 -0.6772
  134TCq2    C7 2046   3.805   3.424   9.119 -0.4906 -0.2643  0.7723
  134TCq2    C8 2047   3.878   3.189   9.150  0.0045 -0.2059 -0.2021
  134TCq2    O4 2048   3.980   3.224   9.202 -0.5742  0.3284  0.0509
  134TCq2    C9 2049   3.417   3.304   9.017 -0.1696 -0.0459 -0.2618
  134TCq2    O5 2050   3.394   3.181   9.012 -0.3998  0.2652  0.0494
  134TCq2    O6 2051   3.343   3.402   8.992  0.0488 -0.2197  0.4209
  134TCq2    H2 2052   3.507   3.532   9.009  0.5797 -0.0329 -1.3331
  134TCq2    H3 2053   3.622   3.144   9.069  0.8568 -0.0957 -0.3428
  134TCq2    H4 2054   3.904   3.454   9.153 -1.2120 -0.5936  3.1999
  135MPD2     C 2055   2.292   1.824   9.658 -0.0963 -0.7696  0.6691
  135MPD2    C1 2056   2.199   1.736   9.598 -0.4090 -1.1753 -0.3016
  135MPD2    C2 2057   2.242   1.615   9.559 -0.5040 -0.5121 -0.5106
  135MPD2    C3 2058   2.371   1.568   9.581  0.7219 -0.2817 -0.2334
  135MPD2    C4 2059   2.460   1.655   9.642  0.3429  0.1184 -0.0173
  135MPD2    C5 2060   2.421   1.782   9.669  0.1078  0.0355 -0.4832
  135MPD2     H 2061   2.167   1.554   9.511 -0.0648 -1.6139  0.1832
  135MPD2    H1 2062   2.565   1.631   9.652  0.1188 -1.2116 -0.9195
  135MPD2    H2 2063   2.268   1.925   9.690 -1.7212 -1.5201  1.7990
  135MPD2    H3 2064   2.497   1.846   9.712  0.0171 -0.5187  0.5296
  135MPD2     N 2065   2.419   1.442   9.538 -0.3291 -0.0758 -0.4743
  135MPD2    H5 2066   2.514   1.424   9.569 -0.7258  1.2982  1.5362
  135MPD2    N1 2067   2.059   1.767   9.582 -1.1016 -0.0104 -0.1253
  135MPD2    H7 2068   2.005   1.689   9.545 -3.0813  1.2805  0.0391
  136TCq2    C1 2069   1.996   1.880   9.632 -0.1986 -0.0124  0.4351
  136TCq2    O2 2070   2.044   1.982   9.679  0.2388 -0.2203 -0.0592
  136TCq2    C2 2071   1.853   1.867   9.617  0.6201  0.2925 -1.0668
  136TCq2    C3 2072   1.795   1.779   9.522  0.6447  0.3897 -0.7833
  136TCq2    C4 2073   1.664   1.740   9.551  0.5070 -0.4016  0.1805
  136TCq2    C5 2074   1.591   1.786   9.654  0.5605 -0.2830  0.8088
  136TCq2    C6 2075   1.650   1.868   9.743 -0.6238  0.1520  0.5479
  136TCq2    C7 2076   1.780   1.907   9.726  0.3019 -0.1410 -0.1846
  136TCq2    C8 2077   1.603   1.857   9.883 -0.4194  0.4063 -0.0020
  136TCq2    O4 2078   1.635   1.951   9.955 -0.2655  0.3548 -0.0509
  136TCq2    C9 2079   1.605   1.648   9.462 -0.1910 -0.1041 -0.0610
  136TCq2    O5 2080   1.511   1.578   9.505  0.6766 -0.2992  0.3341
  136TCq2    O6 2081   1.653   1.652   9.343  0.6221  0.3664  0.0607
  136TCq2    H2 2082   1.854   1.743   9.439  2.9762 -0.1650  1.1308
  136TCq2    H3 2083   1.496   1.738   9.672 -0.3903  0.8597 -1.1271
  136TCq2    H4 2084   1.823   1.980   9.794 -2.6750  1.7279 -0.2794
  137MPD2     C 2085   1.728   4.231  10.465  0.3068  0.3511  0.2614
  137MPD2    C1 2086   1.705   4.302  10.348 -0.4004  0.1941  0.1255
  137MPD2    C2 2087   1.771   4.421  10.323 -0.2991 -0.1699  0.0258
  137MPD2    C3 2088   1.854   4.475  10.423  0.5215 -0.0236 -0.0243
  137MPD2    C4 2089   1.881   4.399  10.532 -0.9459  0.0366  0.0915
  137MPD2    C5 2090   1.812   4.290  10.560  0.0271 -0.0134 -0.9887
  137MPD2     H 2091   1.744   4.484  10.240  0.0648  0.4910  0.4013
  137MPD2    H1 2092   1.939   4.433  10.618 -4.5827  0.0201  2.5648
  137MPD2    H2 2093   1.681   4.137  10.493  0.4376  0.9630  2.5519
  137MPD2    H3 2094   1.831   4.240  10.655 -1.2900  1.4324  0.0487
  137MPD2     N 2095   1.904   4.610  10.402  0.0311 -0.3847  0.2868
  137MPD2    H5 2096   1.890   4.645  10.308  0.9559  1.1477  0.7232
  137MPD2    N1 2097   1.624   4.238  10.250 -0.4640 -0.1226  0.0505
  137MPD2    H7 2098   1.588   4.145  10.271 -0.4419 -0.1339  0.0388
  138TCq2    C1 2099   1.587   4.277  10.129 -0.7482  0.0357 -0.1283
  138TCq2    O2 2100   1.608   4.384  10.076 -0.3800 -0.0876 -0.1947
  138TCq2    C2 2101   1.521   4.179  10.047 -0.3421  0.2539  0.5530
  138TCq2    C3 2102   1.544   4.044  10.067 -0.5370 -0.1855 -0.4855
  138TCq2    C4 2103   1.485   3.949   9.993  0.3283  0.1856  0.2590
  138TCq2    C5 2104   1.418   3.993   9.882  0.5180  0.9030 -0.1216
  138TCq2    C6 2105   1.404   4.127   9.854  0.3177 -0.3933 -1.0065
  138TCq2    C7 2106   1.453   4.219   9.941 -0.2384  0.2494  0.0725
  138TCq2    C8 2107   1.356   4.157   9.721  0.1140 -0.4121 -0.1012
  138TCq2    O4 2108   1.305   4.068   9.652  0.1815  0.0424 -0.1818
  138TCq2    C9 2109   1.521   3.811   9.994  0.3264  0.0424  0.2549
  138TCq2    O5 2110   1.476   3.732   9.904 -0.0146  0.3415 -0.3275
  138TCq2    O6 2111   1.629   3.792  10.052 -0.1482 -0.8489 -0.0693
  138TCq2    H2 2112   1.621   4.005  10.132 -2.3600 -2.3146  0.3988
  138TCq2    H3 2113   1.397   3.917   9.808  0.3788 -0.9013  1.7892
  138TCq2    H4 2114   1.458   4.325   9.919 -1.1275  0.2067 -0.3350
  139TMC2    C1 2115   2.199   4.200  13.342  0.7635  0.1757 -0.0466
  139TMC2    C2 2116   2.221   4.288  13.241 -0.5859 -0.2625  0.2216
  139TMC2    C3 2117   2.130   4.392  13.230 -0.0595 -0.0508 -0.8080
  139TMC2    C4 2118   2.094   4.208  13.432  0.2237 -0.2290 -0.1387
  139TMC2    C5 2119   2.000   4.303  13.409 -0.3893  0.7714 -0.0632
  139TMC2    C6 2120   2.024   4.400  13.318 -0.0515  0.5129 -0.1650
  139TMC2     C 2121   2.295   4.092  13.342  0.0572  0.0384 -0.2668
  139TMC2     O 2122   2.356   4.071  13.237  0.5918 -1.1517 -0.0624
  139TMC2     H 2123   2.307   4.277  13.176 -1.7302  0.1469 -1.3646
  139TMC2    H1 2124   2.081   4.128  13.504 -0.3427  1.1533  1.2842
  139TMC2    H2 2125   1.959   4.486  13.307  1.4411  1.8182  1.0393
  139TMC2    C7 2126   1.883   4.314  13.494  0.0269  0.2119  0.4150
  139TMC2    C8 2127   2.076   4.399  13.099  0.3083 -0.4160  0.0449
  139TMC2    O1 2128   1.842   4.428  13.496 -0.0678  0.0046  0.6957
  139TMC2    O2 2129   1.958   4.392  13.066  0.8063 -0.3154  0.6165
  139TMC2    O5 2130   2.189   4.412  13.021 -0.2054 -0.1966 -0.4010
  139TMC2    H5 2131   2.267   4.421  13.079  1.2767  0.7240 -2.5376
  140MPD2     C 2132   2.410   3.924  13.649 -0.3622  0.1996 -0.0204
  140MPD2    C1 2133   2.390   3.944  13.517 -0.7755 -0.4003  0.1694
  140MPD2    C2 2134   2.452   3.856  13.428  0.5559 -0.0028 -0.5914
  140MPD2    C3 2135   2.524   3.743  13.473  0.6809 -0.5072  0.4069
  140MPD2    C4 2136   2.559   3.744  13.608  0.6105  0.7068  0.3065
  140MPD2    C5 2137   2.499   3.832  13.690 -0.2966  0.0728  0.6418
  140MPD2     H 2138   2.423   3.858  13.324 -0.0325  0.4543 -0.4184
  140MPD2    H1 2139   2.629   3.670  13.644  0.6898  0.9943  0.7377
  140MPD2    H2 2140   2.368   3.985  13.728 -1.1646 -0.4203  0.0259
  140MPD2    H3 2141   2.525   3.824  13.795  1.5421 -3.9122 -0.1481
  140MPD2     N 2142   2.573   3.644  13.387 -0.3478  0.6921  1.0250
  140MPD2    H5 2143   2.562   3.666  13.289 -1.1850  1.4073  1.2790
  140MPD2    N1 2144   2.309   4.054  13.473  0.3026  0.3953 -0.2817
  140MPD2    H7 2145   2.263   4.106  13.546 -2.6931 -0.5023 -1.5389
  141TCq2    C1 2146   2.805   0.532  14.231  0.0876 -0.0073 -0.4112
  141TCq2    O2 2147   2.771   0.614  14.152  0.4521  0.2547  0.1538
  141TCq2    C2 2148   2.752   0.556  14.367 -0.5816  0.2583  0.5679
  141TCq2    C3 2149   2.698   0.452  14.442  0.3638  0.4332 -0.1410
  141TCq2    C4 2150   2.605   0.470  14.538 -0.7363 -0.1962 -0.5441
  141TCq2    C5 2151   2.558   0.594  14.565  0.5335  0.6351  0.9046
  141TCq2    C6 2152   2.602   0.695  14.487 -0.3185  0.3066  0.1003
  141TCq2    C7 2153   2.711   0.683  14.401 -0.2831 -0.3992  0.0618
  141TCq2    C8 2154   2.602   0.820  14.552  0.1252 -0.2927  0.1123
  141TCq2    O4 2155   2.503   0.852  14.614  0.1379 -0.5504  0.3618
  141TCq2    C9 2156   2.545   0.355  14.605 -0.3791 -0.8994 -0.2933
  141TCq2    O5 2157   2.585   0.243  14.573 -0.3519  0.0022  0.4858
  141TCq2    O6 2158   2.433   0.381  14.659  0.3658 -0.4465  0.2149
  141TCq2    H2 2159   2.720   0.347  14.429  1.0324  1.0083 -3.6677
  141TCq2    H3 2160   2.478   0.602  14.637 -1.5217  1.7312 -1.4995
  141TCq2    H4 2161   2.745   0.773  14.351 -0.7443 -0.9013 -1.1378
  142MPD2     C 2162   4.047   2.060  10.794  0.3405 -0.0400  0.5665
  142MPD2    C1 2163   3.959   2.082  10.690  0.4303 -0.0513  0.2497
  142MPD2    C2 2164   3.999   2.154  10.582  0.2103 -0.6677  0.2042
  142MPD2    C3 2165   4.131   2.192  10.567 -0.2112 -0.7375 -0.2776
  142MPD2    C4 2166   4.219   2.165  10.663 -0.6736 -0.1761  0.1947
  142MPD2    C5 2167   4.178   2.095  10.780  0.1887 -0.8016  0.2094
  142MPD2     H 2168   3.928   2.181  10.504 -0.2376 -0.3781  0.7142
  142MPD2    H1 2169   4.323   2.196  10.656 -1.2100  1.5192 -0.2548
  142MPD2    H2 2170   4.016   2.007  10.884 -1.7339  2.6379  1.4051
  142MPD2    H3 2171   4.243   2.093  10.867  2.2326 -0.7931 -1.3157
  142MPD2     N 2172   4.175   2.266  10.451  0.2945  0.2014  0.0745
  142MPD2    H5 2173   4.275   2.280  10.443  0.4813 -1.3215 -0.1949
  142MPD2    N1 2174   3.822   2.039  10.705  0.5213 -0.0573  0.1357
  142MPD2    H7 2175   3.801   1.980  10.785 -4.0886  1.2607 -0.0812
  143TCq2    C1 2176   4.107   2.310  10.341 -0.2518 -0.6720  0.5297
  143TCq2    O2 2177   3.989   2.300  10.313 -0.3785 -0.0872  0.3219
  143TCq2    C2 2178   4.198   2.376  10.249 -0.3214 -0.6707  0.8504
  143TCq2    C3 2179   4.329   2.400  10.278 -0.2366  0.4875 -0.0672
  143TCq2    C4 2180   4.409   2.473  10.195  0.5094 -0.2352 -0.1288
  143TCq2    C5 2181   4.352   2.528  10.085  0.1049  0.4046  0.3428
  143TCq2    C6 2182   4.213   2.511  10.061 -0.1307 -0.7949  0.0168
  143TCq2    C7 2183   4.133   2.447  10.151  0.1578  0.3619 -0.6511
  143TCq2    C8 2184   4.145   2.594   9.963 -0.0703  0.2169  0.6551
  143TCq2    O4 2185   4.035   2.562   9.930  0.2601 -0.2160  0.3994
  143TCq2    C9 2186   4.549   2.493  10.228  0.7173 -0.4416  0.0512
  143TCq2    O5 2187   4.606   2.425  10.319  0.0281  0.3807 -0.6174
  143TCq2    O6 2188   4.608   2.565  10.146  0.0590 -0.2980  0.0621
  143TCq2    H2 2189   4.391   2.351  10.352 -1.3682 -0.6650  0.1314
  143TCq2    H3 2190   4.420   2.574  10.015  2.2047  0.5234  2.4583
  143TCq2    H4 2191   4.030   2.422  10.131  1.1307 -2.4276 -2.0587
  144MPD2     C 2192   3.202   3.277   0.975 -0.2259  0.2817 -0.0773
  144MPD2    C1 2193   3.231   3.147   0.942  0.5427  0.2713 -0.2067
  144MPD2    C2 2194   3.353   3.085   0.989 -0.7189 -0.2492  0.1826
  144MPD2    C3 2195   3.438   3.147   1.077 -0.7445 -0.3535  0.3613
  144MPD2    C4 2196   3.414   3.277   1.106  0.0830 -0.1386 -0.9076
  144MPD2    C5 2197   3.298   3.338   1.055 -0.0202  0.3705 -0.0634
  144MPD2     H 2198   3.375   2.983   0.963 -0.2476  0.1142 -0.8294
  144MPD2    H1 2199   3.485   3.343   1.156 -2.2406 -0.0114  2.2325
  144MPD2    H2 2200   3.118   3.332   0.934 -2.2820 -1.2734  2.0631
  144MPD2    H3 2201   3.282   3.444   1.071 -0.9248 -0.1863  2.7172
  144MPD2     N 2202   3.565   3.091   1.119  0.0391  0.2479  0.6044
  144MPD2    H5 2203   3.623   3.136   1.189  1.4484  0.1303 -0.5083
  144MPD2    N1 2204   3.148   3.062   0.864  0.3276 -0.0413 -0.0041
  144MPD2    H7 2205   3.194   2.981   0.824 -0.4810 -1.6641  2.3136
  145TCq2    C1 2206   3.621   2.976   1.070  0.2530  0.2982  0.1469
  145TCq2    O2 2207   3.597   2.923   0.964  0.0474 -0.1182  0.0284
  145TCq2    C2 2208   3.747   2.954   1.132 -0.4577 -0.4149 -0.1874
  145TCq2    C3 2209   3.836   2.878   1.060 -0.6145  0.5900  0.0988
  145TCq2    C4 2210   3.936   2.812   1.128  0.4921  0.2951  0.0901
  145TCq2    C5 2211   3.944   2.826   1.261  0.2158 -0.4408  0.5768
  145TCq2    C6 2212   3.853   2.905   1.333 -0.3387 -0.8210 -0.9713
  145TCq2    C7 2213   3.757   2.977   1.267 -0.0592  0.0511 -0.1744
  145TCq2    C8 2214   3.881   2.931   1.474  0.2872  0.3386  0.5132
  145TCq2    O4 2215   3.974   2.867   1.524  0.7541 -0.5886 -0.7162
  145TCq2    C9 2216   4.031   2.733   1.058  0.0122 -0.3545  0.0274
  145TCq2    O5 2217   4.007   2.715   0.936 -0.1240  0.4936 -0.5877
  145TCq2    O6 2218   4.118   2.674   1.129  0.2819 -0.1478  0.1275
  145TCq2    H2 2219   3.829   2.865   0.952 -0.9382  0.8233  0.0925
  145TCq2    H3 2220   4.025   2.781   1.318  1.9760  1.4221 -0.4696
  145TCq2    H4 2221   3.674   3.024   1.320  0.9026  0.8423  0.6384
  146TMC2    C1 2222   3.812   1.653  13.061 -0.7506  0.9296 -0.2932
  146TMC2    C2 2223   3.682   1.664  13.034  0.2432 -0.6364 -0.0778
  146TMC2    C3 2224   3.636   1.599  12.924 -0.3732  0.5108 -0.2034
  146TMC2    C4 2225   3.902   1.598  12.975  0.8807 -0.0936 -0.1779
  146TMC2    C5 2226   3.857   1.531  12.863  0.5279  0.3896 -0.1743
  146TMC2    C6 2227   3.724   1.527  12.845  0.4503  0.0254  0.0330
  146TMC2     C 2228   3.873   1.725  13.173 -0.3136 -0.6125 -0.4413
  146TMC2     O 2229   3.815   1.828  13.208 -0.9078 -0.3018  0.2406
  146TMC2     H 2230   3.612   1.704  13.107 -1.8822 -0.5281 -2.1850
  146TMC2    H1 2231   4.009   1.613  12.982  0.6310  1.0433  0.9513
  146TMC2    H2 2232   3.691   1.479  12.754  0.3408 -2.9678  1.6260
  146TMC2    C7 2233   3.948   1.458  12.774  1.3155 -0.2436  0.3367
  146TMC2    C8 2234   3.517   1.647  12.867  0.6674  0.4858  0.2181
  146TMC2    O1 2235   3.904   1.404  12.672 -0.5855  0.3476  0.2739
  146TMC2    O2 2236   3.473   1.756  12.904 -0.6923  0.0603 -0.5890
  146TMC2    O5 2237   3.447   1.541  12.827 -0.2658  0.2197  0.4090
  146TMC2    H5 2238   3.500   1.460  12.837 -1.1456 -0.0450  2.8856
  147MPD2     C 2239   4.424   1.344  12.618  0.1387 -0.2906 -0.0243
  147MPD2    C1 2240   4.426   1.384  12.751  0.5290  0.2907  0.5292
  147MPD2    C2 2241   4.306   1.403  12.823  0.4112 -0.2909  0.8556
  147MPD2    C3 2242   4.189   1.403  12.752 -0.0820 -0.8521  0.2064
  147MPD2    C4 2243   4.182   1.353  12.622 -0.3368  0.2196 -0.2109
  147MPD2    C5 2244   4.300   1.312  12.567 -0.8518  0.2324 -0.5243
  147MPD2     H 2245   4.298   1.453  12.918 -1.8301 -0.7759  0.9299
  147MPD2    H1 2246   4.091   1.338  12.565  0.7544 -0.3016 -1.8198
  147MPD2    H2 2247   4.516   1.323  12.563  1.3225  0.3950  1.7152
  147MPD2    H3 2248   4.293   1.269  12.468 -1.2360 -1.4864  0.2607
  147MPD2     N 2249   4.078   1.454  12.822 -0.8315  0.0176  0.6466
  147MPD2    H5 2250   4.089   1.475  12.921 -0.0994  1.7690  0.1827
  147MPD2    N1 2251   4.556   1.417  12.804  1.0589  0.1601 -0.3640
  147MPD2    H7 2252   4.638   1.396  12.748  0.1059 -2.4952 -0.7811
  148MPD2     C 2253   0.331   4.369  10.424  0.0494 -0.7799  0.0258
  148MPD2    C1 2254   0.376   4.247  10.381 -0.1667 -0.2983  0.2136
  148MPD2    C2 2255   0.290   4.141  10.360 -0.0073  0.6156  0.1337
  148MPD2    C3 2256   0.155   4.150  10.405 -0.4164 -0.2699 -0.4332
  148MPD2    C4 2257   0.116   4.278  10.446 -0.0690 -0.4371  0.5700
  148MPD2    C5 2258   0.199   4.381  10.453 -0.4916 -0.0459 -0.0190
  148MPD2     H 2259   0.325   4.049  10.315 -0.6395  0.2621  0.3532
  148MPD2    H1 2260   0.016   4.295  10.485 -0.9307 -0.3790 -1.6669
  148MPD2    H2 2261   0.407   4.446  10.425 -0.7179 -0.0602  1.5370
  148MPD2    H3 2262   0.165   4.479  10.483 -0.1954  0.3161 -0.8646
  148MPD2     N 2263   0.068   4.045  10.415  0.3595 -0.3168 -0.0867
  148MPD2    H5 2264   4.697   4.077  10.434  0.4962  0.6026 -0.8857
  148MPD2    N1 2265   0.516   4.224  10.355 -0.0962 -0.5343 -0.2807
  148MPD2    H7 2266   0.530   4.138  10.303 -3.5161 -0.1790 -1.8196
  149TCq2    C1 2267   0.620   4.309  10.372 -0.4870 -0.5472 -0.9138
  149TCq2    O2 2268   0.641   4.407  10.441  0.7856 -0.3997 -0.1952
  149TCq2    C2 2269   0.740   4.251  10.313 -0.0943  0.3059 -0.2775
  149TCq2    C3 2270   0.831   4.204  10.401 -0.2784 -0.1450 -0.5238
  149TCq2    C4 2271   0.912   4.100  10.352 -1.2153  0.3435 -0.0021
  149TCq2    C5 2272   0.890   4.050  10.228  0.4470 -0.4065  0.0665
  149TCq2    C6 2273   0.807   4.114  10.138  0.1355 -0.0989 -1.5452
  149TCq2    C7 2274   0.743   4.225  10.180 -0.6879 -0.5892 -0.2816
  149TCq2    C8 2275   0.736   4.033  10.049 -0.1904 -0.1759 -0.0734
  149TCq2    O4 2276   0.634   4.076  10.001  0.1236 -0.1147  0.5035
  149TCq2    C9 2277   0.982   4.019  10.449 -0.8805  0.0586 -0.6903
  149TCq2    O5 2278   0.992   4.065  10.566 -0.1371 -0.0905  0.4413
  149TCq2    O6 2279   1.026   3.904  10.417 -0.1829  0.5821 -0.1253
  149TCq2    H2 2280   0.827   4.210  10.509 -0.6545  0.6157 -0.5833
  149TCq2    H3 2281   0.959   3.974  10.195 -0.5591 -0.6579 -1.4718
  149TCq2    H4 2282   0.677   4.278  10.112 -2.2357 -1.2430  0.7024
  150MPD2     C 2283   1.428   4.622  12.525  0.5458 -0.5566 -0.4183
  150MPD2    C1 2284   1.431   4.684  12.399 -0.1826 -0.8747  0.8369
  150MPD2    C2 2285   1.552   0.003  12.347 -0.0465 -0.2708  0.2725
  150MPD2    C3 2286   1.670   0.007  12.416  0.2007 -0.0347  0.0569
  150MPD2    C4 2287   1.665   4.673  12.539 -0.2548  0.4912  0.2212
  150MPD2    C5 2288   1.549   4.622  12.595 -0.3744 -0.2523 -0.3772
  150MPD2     H 2289   1.565   0.038  12.246  1.3810 -0.2999  0.4459
  150MPD2    H1 2290   1.755   4.666  12.600 -0.6479 -0.2134  0.7281
  150MPD2    H2 2291   1.336   4.593  12.573  0.3464 -1.4057 -1.3123
  150MPD2    H3 2292   1.560   4.592  12.699  1.2550  0.2945 -0.3882
  150MPD2     N 2293   1.787   0.065  12.350 -0.2863  0.3265 -0.1292
  150MPD2    H5 2294   1.765   0.098  12.257 -0.5845  1.3742  0.3173
  150MPD2    N1 2295   1.312   4.679  12.328 -0.1054 -0.0442 -0.0410
  150MPD2    H7 2296   1.241   4.637  12.388 -0.8268 -0.4091 -1.1575
  151TCq2    C1 2297   1.916   0.069  12.390 -0.5506  0.1011 -0.3421
  151TCq2    O2 2298   1.956   0.046  12.503 -0.1945  0.0785  0.4903
  151TCq2    C2 2299   1.997   0.081  12.269 -0.1675 -0.2451  0.2325
  151TCq2    C3 2300   1.944   0.144  12.155 -0.8342  0.2780  0.7499
  151TCq2    C4 2301   2.026   0.144  12.048 -0.2819 -0.5870  0.4078
  151TCq2    C5 2302   2.137   0.065  12.039 -0.3891  0.7760  0.5094
  151TCq2    C6 2303   2.168   4.713  12.149  0.3812  0.0680 -0.3219
  151TCq2    C7 2304   2.113   0.015  12.269  0.3237  0.3498  0.4730
  151TCq2    C8 2305   2.287   4.629  12.124 -0.1840 -0.0987 -0.0014
  151TCq2    O4 2306   2.373   4.681  12.055 -0.3063 -0.3531  0.1770
  151TCq2    C9 2307   1.984   0.212  11.926  0.1173  0.5716  0.2185
  151TCq2    O5 2308   1.874   0.280  11.935  0.1380  0.0479 -0.1449
  151TCq2    O6 2309   2.016   0.151  11.823 -0.6267 -0.1475 -0.1276
  151TCq2    H2 2310   1.854   0.205  12.160 -0.4340  0.8982  0.3706
  151TCq2    H3 2311   2.197   0.047  11.951  1.8445 -0.1378  2.2333
  151TCq2    H4 2312   2.156   4.692  12.357  0.5873 -0.1679  0.0702
  152MPD2     C 2313   1.486   4.044  12.960 -0.5694 -0.5713 -0.1673
  152MPD2    C1 2314   1.518   4.148  12.878  0.4636 -0.6902 -0.4907
  152MPD2    C2 2315   1.412   4.230  12.826  0.2049 -0.3843 -0.2800
  152MPD2    C3 2316   1.282   4.195  12.856 -0.6102  0.6206  0.1874
  152MPD2    C4 2317   1.260   4.086  12.936  0.1067 -0.0517 -0.4990
  152MPD2    C5 2318   1.360   4.005  12.982  0.1488 -0.1877 -0.4679
  152MPD2     H 2319   1.438   4.311  12.759 -0.1615 -0.6073 -0.6878
  152MPD2    H1 2320   1.158   4.051  12.949  0.6456 -1.0878  0.9200
  152MPD2    H2 2321   1.567   3.982  12.999 -0.5003  1.6452  3.1740
  152MPD2    H3 2322   1.351   3.920  13.049  2.4928 -1.3717 -1.6786
  152MPD2     N 2323   1.176   4.268  12.799  0.5371  0.4665  0.0046
  152MPD2    H5 2324   1.203   4.341  12.733 -2.3321  3.0779  1.7420
  152MPD2    N1 2325   1.651   4.165  12.844 -0.4165  0.4174 -0.4315
  152MPD2    H7 2326   1.722   4.114  12.896 -0.6883 -0.6664 -1.1427
  153TCq2    C1 2327   1.701   4.255  12.749 -0.2817 -0.3246 -0.2190
  153TCq2    O2 2328   1.637   4.322  12.672  0.1745 -0.5497 -0.3753
  153TCq2    C2 2329   1.845   4.241  12.737 -0.0162 -0.2463 -0.2100
  153TCq2    C3 2330   1.913   4.146  12.812 -0.1117 -0.2390  0.0334
  153TCq2    C4 2331   2.044   4.142  12.805  0.0634  0.4483  0.4852
  153TCq2    C5 2332   2.112   4.217  12.717 -0.0604 -0.6048  0.2564
  153TCq2    C6 2333   2.047   4.311  12.643 -0.5593  0.0546 -0.6829
  153TCq2    C7 2334   1.914   4.326  12.651 -0.1778  0.0600  0.5001
  153TCq2    C8 2335   2.131   4.424  12.604  0.4591  0.7323  0.3073
  153TCq2    O4 2336   2.122   4.481  12.494  0.1573 -0.4237 -0.2731
  153TCq2    C9 2337   2.121   4.040  12.862 -0.6280 -0.0318 -0.3021
  153TCq2    O5 2338   2.236   4.013  12.814 -0.3019 -0.0350  0.5170
  153TCq2    O6 2339   2.053   3.960  12.939 -0.4881 -0.4611  0.3354
  153TCq2    H2 2340   1.868   4.075  12.880 -0.4213  0.3506  0.4406
  153TCq2    H3 2341   2.218   4.209  12.695 -0.1390  0.6610 -0.5654
  153TCq2    H4 2342   1.858   4.411  12.615 -1.3824 -0.0750  2.0157
  154MPD2     C 2343   3.760   3.701   0.642  0.0882 -0.2785  0.6282
  154MPD2    C1 2344   3.783   3.759   0.762 -0.1091  0.3675  0.2953
  154MPD2    C2 2345   3.735   3.884   0.794 -0.3777 -0.3914  0.0118
  154MPD2    C3 2346   3.645   3.946   0.715 -0.0931 -0.2332  0.7918
  154MPD2    C4 2347   3.602   3.883   0.602  0.2541 -0.3066 -0.2359
  154MPD2    C5 2348   3.663   3.764   0.566 -0.3119 -0.2199 -0.9178
  154MPD2     H 2349   3.771   3.949   0.873  3.1584 -1.8502 -0.3741
  154MPD2    H1 2350   3.515   3.909   0.543  2.0900  0.2045 -2.7018
  154MPD2    H2 2351   3.801   3.607   0.607  1.8974  0.0620  1.8407
  154MPD2    H3 2352   3.623   3.720   0.476  0.4739 -0.9681 -0.9013
  154MPD2     N 2353   3.592   4.063   0.767 -0.1410  0.1058 -0.5539
  154MPD2    H5 2354   3.642   4.109   0.842 -1.8549  0.7735  0.1719
  154MPD2    N1 2355   3.882   3.706   0.851  0.3149 -0.5134  0.3123
  154MPD2    H7 2356   3.939   3.636   0.804 -0.5168 -0.3392 -0.9670
  155TCq2    C1 2357   3.898   3.739   0.985 -0.3588 -0.6120 -0.1948
  155TCq2    O2 2358   3.827   3.809   1.057  0.0650 -0.0600  0.0509
  155TCq2    C2 2359   4.000   3.659   1.050  0.1391  0.0535 -0.5191
  155TCq2    C3 2360   4.124   3.627   0.992  0.2950 -0.7138 -0.8261
  155TCq2    C4 2361   4.225   3.592   1.073 -0.4703 -0.2060  0.1105
  155TCq2    C5 2362   4.209   3.577   1.209  0.5774  0.2741 -0.0750
  155TCq2    C6 2363   4.083   3.619   1.260 -0.1919  0.4331 -0.1447
  155TCq2    C7 2364   3.981   3.664   1.188 -0.3037  0.1106 -0.3593
  155TCq2    C8 2365   4.080   3.665   1.395 -0.5932 -0.3008 -0.0381
  155TCq2    O4 2366   3.972   3.697   1.448  0.5528  0.0650 -0.5583
  155TCq2    C9 2367   4.363   3.565   1.017  0.2770  0.0148  0.0721
  155TCq2    O5 2368   4.370   3.580   0.886  0.0992 -0.2179  0.3586
  155TCq2    O6 2369   4.455   3.521   1.094 -0.2084 -0.0060 -0.5497
  155TCq2    H2 2370   4.129   3.642   0.884  2.4798 -1.8034 -0.8709
  155TCq2    H3 2371   4.290   3.553   1.278  0.5726 -0.3101 -0.2710
  155TCq2    H4 2372   3.886   3.697   1.230 -0.6141 -0.0440 -0.9346
  156MPD2     C 2373   2.128   1.927  11.871  0.1681  0.7416  0.3529
  156MPD2    C1 2374   2.001   1.902  11.828 -0.0720 -0.1292  0.0350
  156MPD2    C2 2375   1.900   1.881  11.921  0.0751  1.1572  0.0175
  156MPD2    C3 2376   1.927   1.876  12.058  0.4043 -0.3728 -0.4134
  156MPD2    C4 2377   2.055   1.891  12.094 -0.1055 -0.4070  0.4109
  156MPD2    C5 2378   2.150   1.928  12.003  0.1088  0.3048  0.4170
  156MPD2     H 2379   1.798   1.873  11.885  0.4830 -0.2096 -0.8199
  156MPD2    H1 2380   2.086   1.891  12.198 -1.7411  0.3774  0.8875
  156MPD2    H2 2381   2.207   1.964  11.807 -0.9876 -1.1743 -2.1729
  156MPD2    H3 2382   2.249   1.961  12.029 -0.2152 -0.4044  2.5228
  156MPD2     N 2383   1.816   1.862  12.149  0.0274  0.3438  0.2915
  156MPD2    H5 2384   1.731   1.841  12.098 -0.3467  1.3214  0.5141
  156MPD2    N1 2385   1.958   1.910  11.693  0.1116  0.4990 -0.1558
  156MPD2    H7 2386   1.877   1.853  11.673  0.9419 -1.1988  1.3246
  157TCq2    C1 2387   2.036   1.957  11.589 -0.7760  0.2271 -0.1111
  157TCq2    O2 2388   2.127   2.038  11.595 -0.2613 -0.7355 -0.0081
  157TCq2    C2 2389   1.972   1.909  11.470 -0.3207  0.1706 -0.5546
  157TCq2    C3 2390   1.916   1.784  11.479  0.2243  0.0726 -0.6084
  157TCq2    C4 2391   1.801   1.755  11.413  0.8482  0.2259  0.1036
  157TCq2    C5 2392   1.732   1.854  11.338  0.2813  0.1093  0.5750
  157TCq2    C6 2393   1.794   1.979  11.332  0.5966 -0.9529  1.1477
  157TCq2    C7 2394   1.903   2.007  11.407  0.2059 -0.5194 -0.0481
  157TCq2    C8 2395   1.695   2.086  11.316 -0.3755 -0.5702 -0.5564
  157TCq2    O4 2396   1.743   2.192  11.285  0.3821  0.1549  0.2814
  157TCq2    C9 2397   1.746   1.621  11.416 -1.0384 -0.3175 -0.2007
  157TCq2    O5 2398   1.781   1.555  11.521 -0.9408 -0.2473 -0.1606
  157TCq2    O6 2399   1.636   1.606  11.351  0.5192  0.6735  0.1141
  157TCq2    H2 2400   1.972   1.712  11.537 -1.3097  0.6481  1.5806
  157TCq2    H3 2401   1.650   1.824  11.275 -0.7738  2.1757  0.9536
  157TCq2    H4 2402   1.931   2.110  11.423 -1.3868 -0.2822  1.2518
  158TMC2    C1 2403   1.742   1.056  14.128  0.1551  0.7290  0.0831
  158TMC2    C2 2404   1.718   1.189  14.141 -0.1678  0.3989  0.7101
  158TMC2    C3 2405   1.615   1.242  14.065  0.2337  0.1822  0.3737
  158TMC2    C4 2406   1.674   0.980  14.040 -0.5572 -0.8148  0.0714
  158TMC2    C5 2407   1.562   1.038  13.983 -0.4238 -1.1689  0.1067
  158TMC2    C6 2408   1.532   1.171  13.995  0.7088 -0.4645  0.5765
  158TMC2     C 2409   1.868   1.003  14.186 -0.3465 -0.0955  0.0955
  158TMC2     O 2410   1.955   1.090  14.191  0.4051  0.1961  0.1538
  158TMC2     H 2411   1.781   1.254  14.200  0.4433  1.5813 -1.2512
  158TMC2    H1 2412   1.700   0.874  14.037  1.7674 -0.2534  0.2793
  158TMC2    H2 2413   1.447   1.206  13.937  2.2194  0.3739 -1.0945
  158TMC2    C7 2414   1.478   0.965  13.889  0.0689  0.2296  0.4229
  158TMC2    C8 2415   1.595   1.379  14.065 -0.8121 -0.0702  0.8729
  158TMC2    O1 2416   1.418   1.039  13.815 -0.1438  0.2131 -0.0954
  158TMC2    O2 2417   1.683   1.468  14.077 -0.1420 -0.0337 -0.3236
  158TMC2    O5 2418   1.463   1.405  14.085 -0.0210  0.2422 -0.1221
  158TMC2    H5 2419   1.410   1.325  14.104  0.8473 -0.6154 -1.3161
  159MPD2     C 2420   2.141   0.660  14.439  0.0419 -0.4543  0.3422
  159MPD2    C1 2421   2.015   0.618  14.434 -0.5133 -1.5539  0.1044
  159MPD2    C2 2422   1.926   0.686  14.357  1.0672 -0.6224  0.4961
  159MPD2    C3 2423   1.962   0.806  14.291  1.1436 -0.5386 -0.0684
  159MPD2    C4 2424   2.093   0.845  14.304  0.5763 -0.4903  0.3121
  159MPD2    C5 2425   2.182   0.775  14.376 -0.4704 -0.2354  0.6565
  159MPD2     H 2426   1.825   0.652  14.336  0.4060  1.4352  0.3238
  159MPD2    H1 2427   2.131   0.935  14.256 -1.2200  0.0828 -0.0627
  159MPD2    H2 2428   2.210   0.595  14.492  0.8716 -0.5080 -0.7833
  159MPD2    H3 2429   2.283   0.813  14.378 -0.5394 -0.1114  2.0124
  159MPD2     N 2430   1.855   0.873  14.225  0.0622  0.2045 -0.4412
  159MPD2    H5 2431   1.761   0.836  14.234  1.1007 -1.7943  2.1988
  159MPD2    N1 2432   1.986   0.499  14.510 -0.3448 -0.2499 -0.3373
  159MPD2    H7 2433   2.057   0.463  14.572 -0.3824 -1.7493 -1.1565
  160TMC2    C1 2434   2.266   3.222   1.672 -0.1191 -0.3728  0.9234
  160TMC2    C2 2435   2.374   3.175   1.742 -0.0296  0.3272  0.7130
  160TMC2    C3 2436   2.493   3.167   1.667 -0.1519  0.4671 -0.8544
  160TMC2    C4 2437   2.281   3.268   1.546 -0.6595 -0.6836 -0.1780
  160TMC2    C5 2438   2.401   3.276   1.479 -0.6759 -0.2653 -0.2432
  160TMC2    C6 2439   2.506   3.218   1.533  0.3185  0.2582  0.3657
  160TMC2     C 2440   2.138   3.224   1.743  0.2482  0.2455 -0.1729
  160TMC2     O 2441   2.136   3.167   1.850 -0.0426 -0.8131  0.9242
  160TMC2     H 2442   2.366   3.130   1.840  0.0076  0.3100  0.7081
  160TMC2    H1 2443   2.197   3.311   1.493 -1.2887 -1.2084  0.3802
  160TMC2    H2 2444   2.600   3.209   1.480 -0.7425  1.8736 -1.7883
  160TMC2    C7 2445   2.404   3.355   1.355 -0.5523  0.9202 -0.0505
  160TMC2    C8 2446   2.609   3.142   1.748 -0.1803  0.6273  0.2632
  160TMC2    O1 2447   2.304   3.370   1.295 -0.2520  0.0771 -0.1330
  160TMC2    O2 2448   2.590   3.125   1.869  0.3275  0.4200 -0.1510
  160TMC2    O5 2449   2.730   3.178   1.700 -0.1086 -0.3497  0.0940
  160TMC2    H5 2450   2.735   3.182   1.602 -1.1311 -0.6414  0.0291
  161MPD2     C 2451   1.876   3.292   1.868  0.5150 -0.0711 -0.1713
  161MPD2    C1 2452   1.920   3.326   1.745 -0.0148  0.0439  0.9138
  161MPD2    C2 2453   1.834   3.397   1.663 -0.1286  0.9054  0.0108
  161MPD2    C3 2454   1.711   3.440   1.712 -0.1888  0.6224  0.0169
  161MPD2    C4 2455   1.678   3.419   1.838 -0.6512 -0.8354  0.5671
  161MPD2    C5 2456   1.753   3.336   1.911 -0.6173  0.1139 -0.4059
  161MPD2     H 2457   1.877   3.427   1.568  2.0650 -0.2350  0.6337
  161MPD2    H1 2458   1.593   3.461   1.890 -0.5024  0.9731 -0.6502
  161MPD2    H2 2459   1.928   3.228   1.940  0.2489 -0.4456 -0.3108
  161MPD2    H3 2460   1.721   3.314   2.012  1.5817 -2.4442 -0.2619
  161MPD2     N 2461   1.614   3.504   1.630 -0.0335  0.3245 -0.6823
  161MPD2    H5 2462   1.520   3.515   1.665 -0.2563 -0.5111 -1.0244
  161MPD2    N1 2463   2.039   3.291   1.681 -0.5928  0.0454 -0.1576
  161MPD2    H7 2464   2.057   3.323   1.586  0.4803 -0.0797  0.0021
  162TMC2    C1 2465   0.220   4.488   1.741 -0.1415  0.6528  0.2081
  162TMC2    C2 2466   0.203   4.352   1.729  0.0840  0.2276  1.0704
  162TMC2    C3 2467   0.218   4.272   1.834 -0.1726  1.0375 -0.2271
  162TMC2    C4 2468   0.267   4.547   1.857 -0.3771  0.3197  0.6756
  162TMC2    C5 2469   0.281   4.458   1.964 -0.3322 -0.0634  0.0366
  162TMC2    C6 2470   0.257   4.319   1.958 -0.0235 -0.0777 -0.3025
  162TMC2     C 2471   0.182   4.568   1.632 -0.2323  0.5340 -0.1636
  162TMC2     O 2472   0.169   4.510   1.523  0.2867  0.3967  0.9638
  162TMC2     H 2473   0.170   4.298   1.640 -1.2968  0.0340  1.6963
  162TMC2    H1 2474   0.291   4.652   1.866  0.4414  0.1255  0.7657
  162TMC2    H2 2475   0.275   4.256   2.044  0.8781 -1.2657 -1.3551
  162TMC2    C7 2476   0.318   4.502   2.092  0.0117 -0.2088  0.0967
  162TMC2    C8 2477   0.173   4.139   1.814  0.6404  0.8221  0.1500
  162TMC2    O1 2478   0.365   4.428   2.178  0.4761  0.6384  0.3405
  162TMC2    O2 2479   0.200   4.086   1.708  0.1432  0.0822  0.5666
  162TMC2    O5 2480   0.157   4.073   1.931 -0.7535  0.1782  0.2658
  162TMC2    H5 2481   0.147   4.136   2.005  1.9953 -0.7398  1.4112
  163MPD2     C 2482   0.063   0.262   1.379  0.0553  0.1160  0.0024
  163MPD2    C1 2483   0.118   0.143   1.341 -0.0792 -0.4654  0.1315
  163MPD2    C2 2484   0.143   0.045   1.432 -0.2312  0.3314 -0.0161
  163MPD2    C3 2485   0.112   0.070   1.567  0.2103  0.8101  0.5009
  163MPD2    C4 2486   0.063   0.191   1.607 -0.2176  0.2378 -0.1689
  163MPD2    C5 2487   0.029   0.293   1.511  0.6778  0.2367  0.1671
  163MPD2     H 2488   0.192   4.684   1.384 -0.0027  1.3162 -1.5085
  163MPD2    H1 2489   0.042   0.217   1.710  1.6905  0.4582  0.1572
  163MPD2    H2 2490   0.048   0.346   1.312 -3.5385 -1.2709 -0.9415
  163MPD2    H3 2491   4.701   0.387   1.530  1.2872  1.0856 -2.3479
  163MPD2     N 2492   0.149   4.695   1.665 -0.2935 -0.6125  0.5951
  163MPD2    H5 2493   0.138   4.723   1.762 -0.7610  0.5869  0.2029
  163MPD2    N1 2494   0.150   0.115   1.205 -0.0087 -0.3590  0.3143
  163MPD2    H7 2495   0.161   0.016   1.188 -1.7420 -0.6072  0.6229
  164TCq2    C1 2496   0.029   4.459  11.493 -0.0327 -0.0562 -0.0711
  164TCq2    O2 2497   0.010   4.538  11.583 -0.4057 -0.2101 -0.2673
  164TCq2    C2 2498   4.694   4.492  11.363  0.1487 -0.6388  0.0792
  164TCq2    C3 2499   4.701   4.398  11.262  0.0562 -0.7429  0.4935
  164TCq2    C4 2500   4.674   4.437  11.132 -0.1957 -0.8563  0.6321
  164TCq2    C5 2501   4.640   4.563  11.099 -0.4228  0.3829 -0.9712
  164TCq2    C6 2502   4.643   4.660  11.200  0.0251  0.8675  0.8314
  164TCq2    C7 2503   4.660   4.621  11.335 -0.2921 -0.5297  0.2558
  164TCq2    C8 2504   4.616   0.077  11.166  0.4334 -0.1621  0.0848
  164TCq2    O4 2505   4.590   0.092  11.045 -0.2261  0.2088 -0.3940
  164TCq2    C9 2506   4.702   4.345  11.026 -0.0849 -0.0108 -0.1860
  164TCq2    O5 2507   4.697   4.380  10.901  0.7398  0.4282  0.3179
  164TCq2    O6 2508   0.003   4.223  11.060 -0.0672  0.2674  0.0160
  164TCq2    H2 2509   0.011   4.296  11.275  0.2104 -0.7426  0.0942
  164TCq2    H3 2510   4.636   4.590  10.994  0.4912 -0.5969 -1.2533
  164TCq2    H4 2511   4.677   4.698  11.409 -0.1738  0.1957 -0.5288
  165MPD2     C 2512   0.845   2.827   1.566  0.1977 -0.5848 -0.1034
  165MPD2    C1 2513   0.901   2.701   1.579  0.2699  0.0292  0.0880
  165MPD2    C2 2514   1.017   2.690   1.650  0.8110 -0.2917 -0.0914
  165MPD2    C3 2515   1.089   2.804   1.697 -0.1103 -0.5045  0.0775
  165MPD2    C4 2516   1.034   2.927   1.659  0.6719  0.6406  0.2533
  165MPD2    C5 2517   0.912   2.941   1.600  0.5511 -0.0668  0.5782
  165MPD2     H 2518   1.060   2.593   1.677  0.3371  0.1331  2.2129
  165MPD2    H1 2519   1.080   3.021   1.686  1.8042  0.2703 -0.3593
  165MPD2    H2 2520   0.750   2.842   1.517 -0.6677  0.1491  1.7941
  165MPD2    H3 2521   0.876   3.038   1.565 -0.4319 -0.3617  0.7706
  165MPD2     N 2522   1.196   2.794   1.782 -0.7281 -0.2007 -0.0582
  165MPD2    H5 2523   1.254   2.877   1.784  0.9136 -1.3585  0.6983
  165MPD2    N1 2524   0.821   2.597   1.527 -0.4401 -0.0918  0.4079
  165MPD2    H7 2525   0.741   2.628   1.473  0.5609  0.5303 -0.7141
  166TCq2    C1 2526   1.239   2.685   1.854  0.3852  0.2131 -0.2852
  166TCq2    O2 2527   1.185   2.580   1.873 -0.2413  0.3618 -0.2770
  166TCq2    C2 2528   1.375   2.707   1.904 -0.1190 -1.0644 -0.2677
  166TCq2    C3 2529   1.412   2.653   2.024 -0.5234  0.1610  0.3236
  166TCq2    C4 2530   1.536   2.687   2.076 -0.0937  0.2855 -0.5787
  166TCq2    C5 2531   1.619   2.772   2.016  0.1572 -0.1134 -0.0178
  166TCq2    C6 2532   1.585   2.817   1.893 -0.3585 -0.1473 -0.0603
  166TCq2    C7 2533   1.464   2.785   1.835 -1.0407  0.1431  0.2647
  166TCq2    C8 2534   1.693   2.879   1.822  0.0305  0.4022  0.0816
  166TCq2    O4 2535   1.812   2.860   1.852  0.3939 -0.1779  0.1184
  166TCq2    C9 2536   1.572   2.640   2.208 -0.4424 -1.2223  0.0638
  166TCq2    O5 2537   1.684   2.672   2.257 -0.3792 -0.0488  0.3769
  166TCq2    O6 2538   1.502   2.556   2.274 -0.4768  0.3969  0.2299
  166TCq2    H2 2539   1.345   2.598   2.089 -0.5116 -1.1500 -0.7768
  166TCq2    H3 2540   1.707   2.803   2.070 -0.6135  0.0201  1.1664
  166TCq2    H4 2541   1.440   2.830   1.740  0.5739 -1.1824 -0.7678
  167TMC2    C1 2542   3.991   0.860  12.942 -0.1199  0.3776 -0.4568
  167TMC2    C2 2543   3.953   0.938  13.050 -0.6898  0.0737 -0.5400
  167TMC2    C3 2544   3.953   0.882  13.172 -0.6054  0.1939  0.1347
  167TMC2    C4 2545   4.026   0.728  12.959  1.2060  0.7527  0.1201
  167TMC2    C5 2546   4.014   0.675  13.084 -0.2115 -0.7255  0.8608
  167TMC2    C6 2547   3.969   0.748  13.186  0.3347 -0.2419 -0.5821
  167TMC2     C 2548   4.017   0.922  12.816  0.2338 -0.1959  0.0989
  167TMC2     O 2549   3.988   1.040  12.810 -0.1681  0.5079 -0.8203
  167TMC2     H 2550   3.936   1.045  13.040 -1.8360  0.0685  1.4321
  167TMC2    H1 2551   4.053   0.672  12.870 -0.6604  2.0584 -1.2668
  167TMC2    H2 2552   3.936   0.697  13.276  2.5509  1.0807  0.9868
  167TMC2    C7 2553   4.052   0.533  13.132 -0.7949  0.3493  0.2331
  167TMC2    C8 2554   3.862   0.946  13.269  0.0503  0.0040 -0.1687
  167TMC2    O1 2555   4.011   0.493  13.240  0.0255 -0.0658  0.7435
  167TMC2    O2 2556   3.766   0.893  13.322 -0.6326 -0.5756 -0.1631
  167TMC2    O5 2557   3.916   1.062  13.310  0.2260  0.1338  0.1015
  167TMC2    H5 2558   4.012   1.074  13.289  0.1910  0.7130  0.2906
  168MPD2     C 2559   4.106   1.014  12.543 -0.4582 -0.7962  0.1406
  168MPD2    C1 2560   4.126   0.888  12.583 -0.0213  0.1006 -0.1926
  168MPD2    C2 2561   4.158   0.790  12.487 -0.1101  1.0212 -0.3628
  168MPD2    C3 2562   4.171   0.811  12.353 -0.2589 -0.5793 -0.4032
  168MPD2    C4 2563   4.149   0.939  12.317 -0.3673 -0.0077 -0.4954
  168MPD2    C5 2564   4.129   1.038  12.411  0.5236  0.3941  0.3180
  168MPD2     H 2565   4.182   0.693  12.529 -2.6933  0.3769 -0.3137
  168MPD2    H1 2566   4.167   0.960  12.212  3.7863 -1.4226 -0.0725
  168MPD2    H2 2567   4.091   1.102  12.604  0.5913 -1.5453  1.4731
  168MPD2    H3 2568   4.109   1.140  12.380 -1.0083  0.6323  2.1108
  168MPD2     N 2569   4.198   0.710  12.254  0.1769 -0.0874 -0.6380
  168MPD2    H5 2570   4.206   0.731  12.155  2.4513  1.3504 -0.1596
  168MPD2    N1 2571   4.086   0.850  12.719 -0.0988 -0.6362  0.2447
  168MPD2    H7 2572   4.100   0.752  12.742 -0.9344  0.1468  4.1677
  169MPD1     C 2573   2.522   4.683   9.313  0.6246 -0.2415 -0.1666
  169MPD1    C1 2574   2.589   4.602   9.403 -0.4257 -0.1058  0.5364
  169MPD1    C2 2575   2.544   4.474   9.423  0.0066  0.4127  0.5073
  169MPD1    C3 2576   2.438   4.426   9.345 -0.1502  0.0660  0.2432
  169MPD1    C4 2577   2.369   4.506   9.258  0.3992  0.9539 -0.3775
  169MPD1    C5 2578   2.415   4.631   9.241  0.1311 -0.1374  0.5621
  169MPD1     H 2579   2.593   4.409   9.495  0.7631 -0.7619 -1.0917
  169MPD1    H1 2580   2.281   4.478   9.201  2.4212 -4.5780 -0.7664
  169MPD1    H2 2581   2.561   0.055   9.283 -1.3464 -0.0820 -2.1654
  169MPD1    H3 2582   2.371   4.705   9.175 -0.6629 -0.7493  0.3944
  169MPD1     N 2583   2.407   4.291   9.363  0.6233 -0.2103 -0.5069
  169MPD1    H5 2584   2.443   4.242   9.444 -1.4420 -0.3271  0.3652
  169MPD1    N1 2585   2.687   4.656   9.491 -0.0083  0.7178 -0.5515
  169MPD1    H6 2586   2.752   4.584   9.521  0.5197  1.9369  1.1927
  169MPD1    H7 2587   2.742   0.002   9.441 -2.6524  2.4071 -1.0465
  170MPD1     C 2588   1.416   2.676  13.581 -0.4745  0.0895  0.3940
  170MPD1    C1 2589   1.434   2.718  13.716 -0.1893  0.5297 -0.5388
  170MPD1    C2 2590   1.325   2.708  13.804  0.0270 -0.7501 -0.2586
  170MPD1    C3 2591   1.210   2.647  13.761 -0.1171  0.3446  0.9706
  170MPD1    C4 2592   1.200   2.598  13.634 -0.3695 -0.2845  0.0390
  170MPD1    C5 2593   1.300   2.615  13.540  0.5469 -0.4961  0.6207
  170MPD1     H 2594   1.343   2.736  13.907 -0.1526  2.6899 -1.1668
  170MPD1    H1 2595   1.117   2.541  13.596 -0.1786 -1.4492  1.3671
  170MPD1    H2 2596   1.486   2.701  13.503 -1.1622  2.8085  0.6425
  170MPD1    H3 2597   1.283   2.577  13.440  0.9509 -1.4730  0.9285
  170MPD1     N 2598   1.104   2.650  13.853  0.4282  0.0250 -0.4459
  170MPD1    H5 2599   1.123   2.682  13.947 -0.1054  1.1690 -0.7346
  170MPD1    N1 2600   1.542   2.798  13.745  0.0491  0.1063  0.4706
  170MPD1    H6 2601   1.563   2.825  13.841 -1.7421 -0.2843  0.9637
  170MPD1    H7 2602   1.629   2.765  13.704  0.2125  0.3932  0.5870
  171MPD1     C 2603   4.265   4.137  15.669  0.3166 -0.0874 -0.5779
  171MPD1    C1 2604   4.172   4.041  15.625 -0.5643  0.0365 -0.3904
  171MPD1    C2 2605   4.172   3.918  15.689  0.8784  0.0507 -0.1111
  171MPD1    C3 2606   4.267   3.883  15.786  0.6175 -0.0218 -0.7847
  171MPD1    C4 2607   4.369   3.977  15.816 -0.7988 -0.4094 -0.0739
  171MPD1    C5 2608   4.357   4.104  15.763  0.3181 -1.0698 -0.3477
  171MPD1     H 2609   4.092   3.848  15.671  0.7861  0.0372  0.3510
  171MPD1    H1 2610   4.441   3.956  15.894  0.1726  1.5384 -0.4381
  171MPD1    H2 2611   4.258   4.240  15.634  0.5195  1.0001  2.5914
  171MPD1    H3 2612   4.426   4.176  15.805 -0.3443 -0.8339  0.3314
  171MPD1     N 2613   4.270   3.753  15.843  0.4882  0.3468 -0.1474
  171MPD1    H5 2614   4.351   3.731  15.901  0.3292  0.3584  0.0784
  171MPD1    N1 2615   4.072   4.069  15.536 -0.6656  0.3817 -0.0432
  171MPD1    H6 2616   4.105   4.139  15.469  1.8569  1.3813  2.2746
  171MPD1    H7 2617   4.043   3.978  15.501 -0.0110 -0.5133  1.7499
  172MPD1     C 2618   3.520   2.480   0.518 -0.5557 -1.0348 -0.3799
  172MPD1    C1 2619   3.434   2.579   0.468 -0.8752 -0.8988 -0.2030
  172MPD1    C2 2620   3.442   2.703   0.525  0.0549 -0.0610  0.0841
  172MPD1    C3 2621   3.537   2.739   0.617 -0.0529  0.1786 -0.2185
  172MPD1    C4 2622   3.620   2.638   0.669  0.9464 -0.1552  0.0198
  172MPD1    C5 2623   3.610   2.512   0.621 -1.0913 -0.1963  0.3408
  172MPD1     H 2624   3.380   2.787   0.497 -1.0682 -0.9478 -0.0894
  172MPD1    H1 2625   3.694   2.660   0.745  1.7152 -1.5484 -0.3370
  172MPD1    H2 2626   3.524   2.380   0.478 -0.1323 -0.8108 -0.9014
  172MPD1    H3 2627   3.674   2.441   0.672 -0.2848  1.6224  1.8716
  172MPD1     N 2628   3.557   2.868   0.669  0.1072  0.6147 -0.6869
  172MPD1    H5 2629   3.643   2.886   0.719 -1.3010 -1.5461  2.4640
  172MPD1    N1 2630   3.331   2.544   0.378  0.2135 -0.5728  0.2529
  172MPD1    H6 2631   3.359   2.471   0.312  1.0655 -0.6585  0.7001
  172MPD1    H7 2632   3.305   2.620   0.316  2.3689 -1.3915 -1.6493
  173MPD1     C 2633   4.157   3.231  13.677 -0.2790 -0.4124  0.0568
  173MPD1    C1 2634   4.049   3.195  13.764  0.3885  0.3386 -0.0044
  173MPD1    C2 2635   4.088   3.145  13.891 -0.6236 -0.5902  0.1210
  173MPD1    C3 2636   4.224   3.133  13.931 -0.1943  0.7011  0.3891
  173MPD1    C4 2637   4.319   3.160  13.840  0.5672  0.0258  0.8140
  173MPD1    C5 2638   4.282   3.209  13.716 -0.0594  0.3144  0.2339
  173MPD1     H 2639   4.010   3.116  13.961 -2.7461  1.0006 -1.6052
  173MPD1    H1 2640   4.427   3.158  13.855  0.7927 -3.0301 -1.2272
  173MPD1    H2 2641   4.138   3.263  13.576 -0.5394 -1.2310 -0.1494
  173MPD1    H3 2642   4.363   3.235  13.649  0.8722 -0.7881  0.9392
  173MPD1     N 2643   4.248   3.079  14.057  0.6615  0.0635  0.2863
  173MPD1    H5 2644   4.169   3.052  14.115  0.5993 -1.4798 -0.5198
  173MPD1    N1 2645   3.916   3.214  13.726 -0.1193 -0.1029 -0.5024
  173MPD1    H6 2646   3.918   3.234  13.627 -1.2320  1.1709 -0.2648
  173MPD1    H7 2647   3.867   3.126  13.742 -0.0467  0.0643  0.6556
  174MPD1     C 2648   0.138   2.566  14.781 -0.5085 -0.8039 -0.0366
  174MPD1    C1 2649   0.174   2.620  14.664  0.0271 -0.0812 -0.0792
  174MPD1    C2 2650   0.070   2.666  14.575  1.0943 -0.2895 -0.3662
  174MPD1    C3 2651   4.664   2.646  14.614  0.2103  0.5721 -0.6282
  174MPD1    C4 2652   4.629   2.576  14.725 -0.0920 -0.4534  0.0912
  174MPD1    C5 2653   0.008   2.535  14.804 -0.1675  0.5265 -0.2943
  174MPD1     H 2654   0.096   2.724  14.487  0.2123 -3.1959 -2.5818
  174MPD1    H1 2655   4.528   2.549  14.751 -0.5257  0.6962 -0.4409
  174MPD1    H2 2656   0.208   2.541  14.859 -0.1623  1.0764  0.2470
  174MPD1    H3 2657   4.707   2.487  14.898 -0.1275  2.0558  0.5063
  174MPD1     N 2658   4.555   2.699  14.548  0.2084 -0.4092 -0.4059
  174MPD1    H5 2659   4.462   2.666  14.573 -0.5087 -0.4404 -3.0910
  174MPD1    N1 2660   0.311   2.629  14.638 -0.5380 -0.3187 -0.0632
  174MPD1    H6 2661   0.381   2.590  14.700 -0.1972  2.2609  1.2030
  174MPD1    H7 2662   0.340   2.615  14.541  0.9533  0.8495  0.1981
  175MPD1     C 2663   3.171   3.552  15.699 -0.3560 -0.3946 -0.1056
  175MPD1    C1 2664   3.039   3.527  15.737  0.1837  0.3657 -0.2006
  175MPD1    C2 2665   3.017   3.438  15.841  0.1892 -0.0771  0.0899
  175MPD1    C3 2666   3.121   3.367  15.894  0.0337  0.3451 -0.5965
  175MPD1    C4 2667   3.248   3.378  15.845  0.0819  0.5472  0.0861
  175MPD1    C5 2668   3.272   3.478  15.755 -0.4209 -0.1043 -0.7952
  175MPD1     H 2669   2.921   3.428  15.889  0.5541 -3.1841  0.1809
  175MPD1    H1 2670   3.326   3.320  15.892 -2.1160 -1.1860  1.5698
  175MPD1    H2 2671   3.197   3.638  15.638  1.1786 -2.1185 -1.8722
  175MPD1    H3 2672   3.372   3.510  15.728 -0.2169 -0.7414 -0.7901
  175MPD1     N 2673   3.108   3.299  16.020 -0.0565 -0.5529  0.9514
  175MPD1    H5 2674   3.199   3.267  16.052  0.1116 -1.5007 -0.4780
  175MPD1    N1 2675   2.945   3.620  15.707 -0.1335 -0.2265 -0.4023
  175MPD1    H6 2676   2.969   3.667  15.620  2.3381 -1.5062 -0.4082
  175MPD1    H7 2677   2.851   3.581  15.699  0.0514 -1.2121  2.0999
  176MPD1     C 2678   4.698   0.253  17.392  0.1521 -0.1506 -0.8089
  176MPD1    C1 2679   0.065   0.293  17.297 -0.0872  0.5620  0.1560
  176MPD1    C2 2680   0.117   0.419  17.301  0.9296 -0.3706  0.5207
  176MPD1    C3 2681   0.097   0.505  17.406 -0.4740  0.1820 -0.0679
  176MPD1    C4 2682   0.005   0.459  17.504 -0.9240  0.7065 -0.2554
  176MPD1    C5 2683   4.670   0.336  17.498  0.0544  0.4423  0.4056
  176MPD1     H 2684   0.182   0.458  17.223  1.8560  0.1076  1.5350
  176MPD1    H1 2685   4.691   0.535  17.572 -0.0712 -0.7362  1.8436
  176MPD1    H2 2686   4.655   0.154  17.389 -1.1502  0.4418 -2.0526
  176MPD1    H3 2687   4.597   0.300  17.571  1.4558 -1.0120  1.0973
  176MPD1     N 2688   0.158   0.630  17.418  0.3892 -0.1472 -0.0418
  176MPD1    H5 2689   0.190   0.689  17.342  2.1797 -2.7242 -1.3081
  176MPD1    N1 2690   0.081   0.211  17.182 -0.7088 -0.5510 -0.4621
  176MPD1    H6 2691   0.161   0.245  17.129 -1.7085  0.6193 -1.2191
  176MPD1    H7 2692   0.089   0.112  17.204  0.9197 -0.4363 -0.5019
  177MPD1     C 2693   3.021   0.190  10.195 -0.4434  0.0268 -0.0689
  177MPD1    C1 2694   2.926   0.140  10.111 -0.2265  0.6395  0.2335
  177MPD1    C2 2695   2.836   0.229  10.059 -0.7350 -0.9251  0.3116
  177MPD1    C3 2696   2.833   0.364  10.099  0.3891  0.2816 -0.8364
  177MPD1    C4 2697   2.937   0.410  10.185  0.4724 -0.0098  0.3341
  177MPD1    C5 2698   3.030   0.322  10.228  0.5640 -0.3043 -0.2420
  177MPD1     H 2699   2.772   0.184   9.983 -0.0917 -1.2993 -0.0058
  177MPD1    H1 2700   2.950   0.514  10.212 -0.8003 -0.2835  1.9832
  177MPD1    H2 2701   3.107   0.129  10.220 -0.3354 -0.8921 -2.6722
  177MPD1    H3 2702   3.111   0.366  10.286  0.9878  2.0907 -2.6700
  177MPD1     N 2703   2.747   0.455  10.031 -0.2663 -0.3742 -0.5610
  177MPD1    H5 2704   2.680   0.417   9.965 -0.2713  0.9946 -1.3332
  177MPD1    N1 2705   2.933   0.006  10.068  0.0627  0.2470 -0.0010
  177MPD1    H6 2706   2.836   4.700  10.059 -0.4304  1.9865 -0.2770
  177MPD1    H7 2707   2.983   4.672  10.136  0.8899  0.5939 -0.3085
  178MPD1     C 2708   1.695   0.975   0.178 -0.3652  0.1827 -0.1477
  178MPD1    C1 2709   1.594   0.892   0.133  0.3194  0.0887 -0.6547
  178MPD1    C2 2710   1.468   0.947   0.114 -0.0100 -0.4204  0.5402
  178MPD1    C3 2711   1.447   1.076   0.158 -0.1260 -0.7157  0.0529
  178MPD1    C4 2712   1.542   1.152   0.212 -0.2296 -0.2389 -0.0999
  178MPD1    C5 2713   1.671   1.099   0.221  0.2875 -0.4078 -0.2899
  178MPD1     H 2714   1.397   0.898   0.049 -0.1935  0.4722  0.0604
  178MPD1    H1 2715   1.520   1.247   0.259  1.1192 -0.4620  0.9576
  178MPD1    H2 2716   1.794   0.933   0.192 -1.6228 -2.5824  0.4667
  178MPD1    H3 2717   1.754   1.155   0.265 -0.0788  0.9295 -1.3029
  178MPD1     N 2718   1.319   1.134   0.160  0.2190 -0.0282 -0.2324
  178MPD1    H5 2719   1.313   1.228   0.196  1.8394  1.3056 -3.4658
  178MPD1    N1 2720   1.630   0.770   0.071  0.3136 -0.5745 -0.2470
  178MPD1    H6 2721   1.551   0.707   0.061  0.5552 -0.4951 -2.6043
  178MPD1    H7 2722   1.703   0.729   0.130  1.9622  1.5418 -0.8181
  179MPD1     C 2723   0.642   4.424  15.079 -0.1527 -0.1933 -0.1393
  179MPD1    C1 2724   0.732   4.370  15.166 -0.4855 -0.2241 -0.2661
  179MPD1    C2 2725   0.688   4.362  15.303  0.1121 -0.2241  0.0173
  179MPD1    C3 2726   0.556   4.386  15.339 -0.2607  0.1482 -0.0653
  179MPD1    C4 2727   0.464   4.426  15.241 -0.4787 -0.0830 -0.2957
  179MPD1    C5 2728   0.515   4.446  15.117  0.1114 -0.4187  0.1997
  179MPD1     H 2729   0.765   4.330  15.372  1.6590  1.3757 -0.9573
  179MPD1    H1 2730   0.357   4.437  15.247 -0.6499 -0.7434 -1.9098
  179MPD1    H2 2731   0.663   4.446  14.975  2.9087  1.3145  0.7866
  179MPD1    H3 2732   0.439   4.470  15.044  0.5767 -0.0302 -0.1560
  179MPD1     N 2733   0.515   4.366  15.473  0.3107 -0.2628 -0.1594
  179MPD1    H5 2734   0.423   4.393  15.505  0.5824 -0.2656  0.6412
  179MPD1    N1 2735   0.866   4.347  15.128  0.8880  0.4827  0.1954
  179MPD1    H6 2736   0.904   4.267  15.179 -0.8945  0.1806  1.0719
  179MPD1    H7 2737   0.868   4.316  15.031 -2.3902 -0.2826  0.3511
  180MPD1     C 2738   0.136   1.731  15.501 -0.3292 -0.4574 -0.5255
  180MPD1    C1 2739   0.250   1.758  15.431  0.0420 -0.1965  0.4320
  180MPD1    C2 2740   0.270   1.691  15.311  0.0549 -0.0816 -0.1429
  180MPD1    C3 2741   0.180   1.598  15.268  0.2513  0.4499 -0.1920
  180MPD1    C4 2742   0.083   1.556  15.354  0.7188  0.0160  0.8656
  180MPD1    C5 2743   0.062   1.628  15.466  0.1019 -0.6397  0.4895
  180MPD1     H 2744   0.358   1.706  15.249  1.3982  1.3569  2.1086
  180MPD1    H1 2745   0.014   1.475  15.330  2.4904 -0.9209 -1.0370
  180MPD1    H2 2746   0.111   1.760  15.602  1.1812 -2.2354  0.3571
  180MPD1    H3 2747   4.706   1.590  15.529  0.0338 -2.5617 -0.7619
  180MPD1     N 2748   0.194   1.551  15.139  0.1969 -0.1318  0.0714
  180MPD1    H5 2749   0.274   1.587  15.087 -0.3229 -0.9817 -1.3250
  180MPD1    N1 2750   0.345   1.852  15.478 -0.9526 -0.1330  0.6887
  180MPD1    H6 2751   0.306   1.918  15.544  0.2967  3.4751 -2.1966
  180MPD1    H7 2752   0.380   1.910  15.402 -0.5200 -0.1012  0.9146
  181MPD1     C 2753   2.117   2.726   9.954 -0.2346  0.6192 -0.2085
  181MPD1    C1 2754   2.128   2.860   9.919  0.1081  0.4320  0.2561
  181MPD1    C2 2755   2.243   2.885   9.853 -0.2020 -0.3489  0.2076
  181MPD1    C3 2756   2.341   2.792   9.834  0.0597  0.2810 -0.4251
  181MPD1    C4 2757   2.332   2.662   9.883 -0.2671 -0.3068  0.5585
  181MPD1    C5 2758   2.218   2.630   9.945 -0.1801  0.6009 -0.1758
  181MPD1     H 2759   2.252   2.975   9.794  0.4371 -1.3979 -1.2789
  181MPD1    H1 2760   2.406   2.584   9.868  0.6281  1.1739 -2.7369
  181MPD1    H2 2761   2.024   2.691   9.997 -0.0414  1.5419  0.9688
  181MPD1    H3 2762   2.187   2.529   9.970  1.1271 -0.1518 -1.6095
  181MPD1     N 2763   2.458   2.834   9.768  0.1468  0.1537 -1.0338
  181MPD1    H5 2764   2.526   2.759   9.752  2.0282  1.4939  0.6191
  181MPD1    N1 2765   2.023   2.949   9.918 -0.1902  0.6112  0.2625
  181MPD1    H6 2766   2.039   3.050   9.922 -1.7329  0.8864 -0.5136
  181MPD1    H7 2767   1.945   2.928   9.979 -0.0941  2.2034  0.9429
  182MPD1     C 2768   2.818   2.366   2.021 -0.1843 -0.5152  0.0373
  182MPD1    C1 2769   2.695   2.426   2.027  0.4966 -0.7319 -0.1378
  182MPD1    C2 2770   2.595   2.403   1.928 -0.0305  0.4887 -0.0840
  182MPD1    C3 2771   2.614   2.304   1.833  0.2825 -0.2296  0.1173
  182MPD1    C4 2772   2.731   2.237   1.829  0.1197 -0.8669  0.1567
  182MPD1    C5 2773   2.831   2.272   1.921 -0.3700 -0.2334  0.0090
  182MPD1     H 2774   2.503   2.458   1.936 -0.1845  0.3600 -0.9851
  182MPD1    H1 2775   2.749   2.153   1.762 -1.4114 -0.2843 -0.9709
  182MPD1    H2 2776   2.896   2.379   2.095  1.2620  2.6144 -2.0166
  182MPD1    H3 2777   2.915   2.204   1.928 -0.4147 -0.3146 -0.2454
  182MPD1     N 2778   2.507   2.263   1.743  0.5684 -0.4778 -0.0123
  182MPD1    H5 2779   2.533   2.204   1.665  0.8771  2.2395 -1.9727
  182MPD1    N1 2780   2.656   2.496   2.138  0.8131  0.3189 -0.0383
  182MPD1    H6 2781   2.732   2.544   2.185 -1.4391  0.5745  3.3409
  182MPD1    H7 2782   2.578   2.558   2.118  1.1567  0.7266 -0.1237
  183MPD1     C 2783   2.393   2.103   8.797 -0.2652  0.6521 -0.1726
  183MPD1    C1 2784   2.364   2.225   8.862 -0.1598 -0.1708  0.5265
  183MPD1    C2 2785   2.444   2.254   8.976  0.2811 -0.4959  0.1185
  183MPD1    C3 2786   2.552   2.168   9.017  0.0062 -0.3518  0.0789
  183MPD1    C4 2787   2.586   2.059   8.948 -0.3640 -0.1639 -0.5210
  183MPD1    C5 2788   2.513   2.038   8.832  0.7355 -0.0748 -0.5996
  183MPD1     H 2789   2.424   2.345   9.033  0.5230  0.8268 -1.9067
  183MPD1    H1 2790   2.667   1.988   8.963 -0.3758  0.0011  0.3520
  183MPD1    H2 2791   2.337   2.076   8.708 -0.0123  1.7637 -0.6594
  183MPD1    H3 2792   2.534   1.956   8.766 -0.8046 -0.2636 -0.8588
  183MPD1     N 2793   2.626   2.197   9.132 -0.3202 -0.3498 -0.2884
  183MPD1    H5 2794   2.619   2.293   9.165 -0.6205 -1.1569  2.0346
  183MPD1    N1 2795   2.242   2.282   8.837  0.6321  0.2910 -0.5132
  183MPD1    H6 2796   2.242   2.379   8.867 -0.2424 -0.0467  0.5664
  183MPD1    H7 2797   2.209   2.275   8.741  0.7850 -2.2622 -0.3686
  184MPD1     C 2798   1.759   4.251   9.762  0.1538  0.0438 -0.0779
  184MPD1    C1 2799   1.843   4.320   9.842 -0.5611  0.1736  0.3992
  184MPD1    C2 2800   1.878   4.452   9.807  0.3556 -0.2300 -0.6130
  184MPD1    C3 2801   1.797   4.517   9.711 -0.3537 -1.2713 -0.7070
  184MPD1    C4 2802   1.713   4.443   9.635  0.1558  0.3527  0.6142
  184MPD1    C5 2803   1.698   4.312   9.653 -0.0352  0.1459  0.0504
  184MPD1     H 2804   1.953   4.507   9.863  1.3743 -1.3209 -0.9056
  184MPD1    H1 2805   1.658   4.497   9.558 -0.0420 -1.3390 -0.4376
  184MPD1    H2 2806   1.740   4.146   9.780 -2.9836  0.7089  0.4158
  184MPD1    H3 2807   1.633   4.254   9.588  0.8289  0.0657 -0.7454
  184MPD1     N 2808   1.809   4.657   9.686 -0.3824 -0.1086  0.0759
  184MPD1    H5 2809   1.753   4.686   9.606  0.8010 -1.4502 -1.2285
  184MPD1    N1 2810   1.901   4.246   9.942 -0.2056 -0.5209  0.0589
  184MPD1    H6 2811   1.949   4.307  10.008  2.5001 -0.9772 -1.4422
  184MPD1    H7 2812   1.827   4.191   9.984 -2.2992  2.0045 -0.3899
  185MPD1     C 2813   1.760   0.447   8.884  0.2487  0.1818  0.2189
  185MPD1    C1 2814   1.770   0.312   8.919 -0.5613  0.3294  0.8283
  185MPD1    C2 2815   1.821   0.285   9.041 -0.5139  0.0170 -1.0163
  185MPD1    C3 2816   1.858   0.381   9.137  0.3103  0.2391  0.3866
  185MPD1    C4 2817   1.849   0.518   9.092  0.0733  0.4892  0.5382
  185MPD1    C5 2818   1.806   0.551   8.965 -0.0606 -0.0186 -0.4061
  185MPD1     H 2819   1.824   0.181   9.069  1.2934  0.1756 -0.6418
  185MPD1    H1 2820   1.884   0.600   9.153  0.0811  0.0923  1.0658
  185MPD1    H2 2821   1.726   0.484   8.788  0.0624 -0.3935  0.0620
  185MPD1    H3 2822   1.797   0.653   8.930  0.4806 -0.0248 -0.5670
  185MPD1     N 2823   1.893   0.360   9.275 -0.5228 -0.4294  0.5381
  185MPD1    H5 2824   1.907   0.438   9.337  0.9276 -1.0082  0.9262
  185MPD1    N1 2825   1.715   0.209   8.842  0.3665 -0.1075  0.5828
  185MPD1    H6 2826   1.764   0.120   8.840  2.0350  0.8021  0.9852
  185MPD1    H7 2827   1.715   0.239   8.745 -0.0927  1.4371  1.0576
  186MPD1     C 2828   1.167   3.956  16.376  0.5601 -0.3062  0.3109
  186MPD1    C1 2829   1.267   4.055  16.388 -0.1959  0.2246 -0.7169
  186MPD1    C2 2830   1.216   4.174  16.439 -0.3047  0.0523 -0.9520
  186MPD1    C3 2831   1.079   4.208  16.440 -0.1949 -0.5772  0.3106
  186MPD1    C4 2832   0.993   4.117  16.413  0.1022  0.4518 -0.7235
  186MPD1    C5 2833   1.032   3.990  16.379  0.0659 -0.2086 -0.1061
  186MPD1     H 2834   1.289   4.248  16.472 -1.7671  0.6546  0.9282
  186MPD1    H1 2835   0.886   4.135  16.406 -0.1365  0.1831  2.5759
  186MPD1    H2 2836   1.189   3.853  16.352  2.1325  0.4484 -1.4811
  186MPD1    H3 2837   0.949   3.920  16.373 -0.2971  0.1378  0.9030
  186MPD1     N 2838   1.026   4.330  16.477  0.3698 -0.5997 -0.1708
  186MPD1    H5 2839   0.924   4.328  16.476  0.4171 -3.1288  0.3633
  186MPD1    N1 2840   1.407   4.026  16.399  0.2817 -0.0466 -0.2657
  186MPD1    H6 2841   1.470   4.104  16.409 -0.4247  0.5439 -0.4439
  186MPD1    H7 2842   1.446   3.958  16.334 -0.0678 -0.1277 -0.3938
  187MPD1     C 2843   0.510   1.923  17.088  0.3378  0.1564 -0.1550
  187MPD1    C1 2844   0.520   2.043  17.162  0.2173  0.0719  0.2768
  187MPD1    C2 2845   0.400   2.089  17.215 -0.3743  0.3684 -0.5285
  187MPD1    C3 2846   0.276   2.034  17.188  0.2631  0.7273 -0.6755
  187MPD1    C4 2847   0.273   1.925  17.107 -0.0284 -0.2257  0.2763
  187MPD1    C5 2848   0.387   1.871  17.058  0.1259  0.5644  0.1864
  187MPD1     H 2849   0.415   2.175  17.280  1.5684 -0.7655  0.5153
  187MPD1    H1 2850   0.182   1.870  17.090  1.0424 -1.3434 -1.8621
  187MPD1    H2 2851   0.593   1.874  17.038  1.3515  0.5810  1.1163
  187MPD1    H3 2852   0.389   1.790  16.986  3.1686  0.1316  0.7580
  187MPD1     N 2853   0.158   2.086  17.233  0.1788 -0.8916  0.0526
  187MPD1    H5 2854   0.071   2.035  17.222 -2.0553  2.6234  1.4742
  187MPD1    N1 2855   0.642   2.080  17.214 -0.2265  0.0427 -0.3653
  187MPD1    H6 2856   0.651   2.180  17.225  2.2756 -0.0957 -1.2441
  187MPD1    H7 2857   0.715   2.051  17.149  2.2631  0.2778  2.3301
  188MPD1     C 2858   0.177   0.913   9.812  0.4365  0.4232  0.3386
  188MPD1    C1 2859   0.052   0.949   9.781 -0.4056 -0.6873 -0.2627
  188MPD1    C2 2860   4.686   0.953   9.879  0.1968  0.3571 -0.3701
  188MPD1    C3 2861   4.709   0.888  10.002  0.0468  0.3600  0.0618
  188MPD1    C4 2862   0.106   0.829  10.016  0.8802  0.3796  0.4309
  188MPD1    C5 2863   0.204   0.849   9.927  0.2303 -0.3934 -0.4106
  188MPD1     H 2864   4.590   0.999   9.860  0.7081  1.4996 -0.2081
  188MPD1    H1 2865   0.138   0.786  10.110  0.1217 -0.5847  0.2560
  188MPD1    H2 2866   0.259   0.911   9.741  0.2326 -1.0210  0.1471
  188MPD1    H3 2867   0.301   0.804   9.946  0.4445  0.2231 -0.0479
  188MPD1     N 2868   4.617   0.880  10.101 -0.7458  0.5098 -0.3825
  188MPD1    H5 2869   4.654   0.846  10.189 -0.5577 -0.7532 -0.9479
  188MPD1    N1 2870   0.033   1.024   9.660  0.4934  0.2255 -0.1103
  188MPD1    H6 2871   4.666   1.005   9.618 -1.0297  1.8354  2.5283
  188MPD1    H7 2872   0.096   0.990   9.587 -0.7475 -0.1259 -1.0221
  189MPD1     C 2873   2.237   1.978   0.509 -0.4233  0.1071  0.2857
  189MPD1    C1 2874   2.146   1.939   0.415 -0.2467  0.2327 -0.0286
  189MPD1    C2 2875   2.010   1.951   0.447 -0.0352 -0.3310  0.0809
  189MPD1    C3 2876   1.969   2.024   0.560  0.0609  0.2486 -0.0511
  189MPD1    C4 2877   2.055   2.055   0.653  0.1170 -0.2009  0.5602
  189MPD1    C5 2878   2.186   2.040   0.622  0.5006  0.3522 -0.1931
  189MPD1     H 2879   1.940   1.934   0.366  0.5815  2.7170 -1.0854
  189MPD1    H1 2880   2.039   2.096   0.752  0.4577  1.7476 -0.1867
  189MPD1    H2 2881   2.345   1.969   0.508 -0.3859  0.8572 -1.0273
  189MPD1    H3 2882   2.256   2.082   0.695  1.2949  0.7345 -1.1736
  189MPD1     N 2883   1.831   2.048   0.579  0.2687  0.1737  0.7350
  189MPD1    H5 2884   1.770   1.993   0.520  0.3884  0.5763  0.2289
  189MPD1    N1 2885   2.183   1.866   0.300 -0.0886  0.2445 -0.4760
  189MPD1    H6 2886   2.120   1.870   0.219  0.8812  1.8170 -1.1478
  189MPD1    H7 2887   2.276   1.890   0.265 -0.3318 -0.9221 -1.9421
  190MPD1     C 2888   0.166   1.253  15.633  0.4383 -0.3507 -0.5415
  190MPD1    C1 2889   0.286   1.232  15.568  0.1607  0.5304  0.1033
  190MPD1    C2 2890   0.366   1.124  15.610  0.1411 -0.4331  0.5580
  190MPD1    C3 2891   0.328   1.050  15.727 -0.4957  0.3759  0.3888
  190MPD1    C4 2892   0.202   1.074  15.777  0.2456 -0.5666 -0.1084
  190MPD1    C5 2893   0.125   1.181  15.741 -0.6772 -0.7907  0.4461
  190MPD1     H 2894   0.464   1.105  15.568 -0.2318  0.1514 -0.5835
  190MPD1    H1 2895   0.172   1.017  15.864  1.0121  0.4507  0.8204
  190MPD1    H2 2896   0.101   1.335  15.605  0.9741  0.7248  1.3092
  190MPD1    H3 2897   0.038   1.208  15.800  0.0987  1.7603  0.4298
  190MPD1     N 2898   0.414   0.955  15.792  0.2687  0.0747 -0.1498
  190MPD1    H5 2899   0.374   0.902  15.869 -1.8770  1.8336 -0.0470
  190MPD1    N1 2900   0.316   1.312  15.461  0.4090 -0.2240 -0.1371
  190MPD1    H6 2901   0.415   1.323  15.442  0.2025 -0.4765 -1.3497
  190MPD1    H7 2902   0.269   1.400  15.478 -0.5023 -1.0648  1.7059
  191MPD1     C 2903   4.529   2.870  13.118  0.0073  0.0704  0.1296
  191MPD1    C1 2904   4.667   2.884  13.108 -0.0505 -0.3811  0.1657
  191MPD1    C2 2905   4.722   2.931  12.990  0.1281 -0.0180 -0.1222
  191MPD1    C3 2906   4.640   2.967  12.883  0.4568  0.3273 -0.4315
  191MPD1    C4 2907   4.501   2.954  12.899  0.3088  0.9841 -0.6588
  191MPD1    C5 2908   4.440   2.907  13.014  0.6327 -0.3341  0.0679
  191MPD1     H 2909   0.107   2.934  12.990  0.1552 -0.8603 -0.8380
  191MPD1    H1 2910   4.431   2.978  12.819 -1.6305  0.6510  0.9350
  191MPD1    H2 2911   4.480   2.841  13.210  0.0987 -0.2234  0.0866
  191MPD1    H3 2912   4.332   2.902  13.028  0.5145  3.7621  0.8942
  191MPD1     N 2913   4.702   3.006  12.768  0.6752  0.1490  0.1520
  191MPD1    H5 2914   0.078   2.987  12.765  0.0803 -2.7999 -0.6073
  191MPD1    N1 2915   0.021   2.841  13.221  0.4487 -0.4605  0.1206
  191MPD1    H6 2916   4.696   2.864  13.308  1.0060 -0.1262  0.3429
  191MPD1    H7 2917   0.111   2.886  13.231  0.0972  0.6082 -1.5326
  192MPD1     C 2918   0.041   3.407  11.730  0.2472 -0.7560  0.4939
  192MPD1    C1 2919   4.657   3.413  11.813  0.6789  1.0827  0.3374
  192MPD1    C2 2920   4.673   3.352  11.940  0.2697  0.7633  0.0261
  192MPD1    C3 2921   0.070   3.293  11.981  0.3311 -0.0865 -0.0481
  192MPD1    C4 2922   0.171   3.290  11.889 -0.1703 -0.2240  0.0346
  192MPD1    C5 2923   0.153   3.338  11.763 -0.3101  0.7900  0.1755
  192MPD1     H 2924   4.595   3.356  12.015 -0.3138 -1.8980 -0.4484
  192MPD1    H1 2925   0.269   3.252  11.915 -0.2988  0.7241  1.9088
  192MPD1    H2 2926   0.026   3.426  11.624 -1.9697 -1.5011  0.6789
  192MPD1    H3 2927   0.237   3.333  11.695 -0.3783 -2.9539  0.3955
  192MPD1     N 2928   0.091   3.238  12.109  0.6055  0.2689  0.4758
  192MPD1    H5 2929   0.187   3.210  12.127  0.0797 -0.8909  1.3984
  192MPD1    N1 2930   4.532   3.461  11.768  0.2754  0.6036 -0.2174
  192MPD1    H6 2931   4.480   3.507  11.842  1.9040 -0.0617  1.3449
  192MPD1    H7 2932   4.542   3.531  11.695  1.2619  0.7533  0.0594
  193MPD1     C 2933   4.333   3.399   0.083  0.4131  0.1563  0.3022
  193MPD1    C1 2934   4.316   3.304  17.682  0.6120  0.5844 -0.0291
  193MPD1    C2 2935   4.307   3.356  17.551  0.1451  0.5556 -0.0499
  193MPD1    C3 2936   4.330   3.485  17.514  0.4670  0.0448 -0.4586
  193MPD1    C4 2937   4.343   3.579  17.615 -0.8140 -0.5340  0.1068
  193MPD1    C5 2938   4.352   3.533   0.048 -0.0788  0.2793 -0.5834
  193MPD1     H 2939   4.298   3.278  17.476  0.3857  0.7495 -0.2767
  193MPD1    H1 2940   4.349   3.686  17.597  0.0238 -0.6712 -0.4234
  193MPD1    H2 2941   4.335   3.372   0.188 -1.0351 -2.0017 -0.2390
  193MPD1    H3 2942   4.361   3.606   0.127  1.4375  0.2281 -0.7098
  193MPD1     N 2943   4.339   3.528  17.377 -0.2557 -0.2776  0.4517
  193MPD1    H5 2944   4.354   3.627  17.362 -0.5819 -0.1673  0.8593
  193MPD1    N1 2945   4.266   3.178   0.015  0.1436  0.5779  0.0392
  193MPD1    H6 2946   4.264   3.120  17.627 -0.5850  1.5392 -0.6141
  193MPD1    H7 2947   4.333   3.130   0.076 -0.2281 -0.3570 -0.2843
  194MPD1     C 2948   1.470   0.247  16.687  0.0278 -0.0518  0.3453
  194MPD1    C1 2949   1.595   0.272  16.633  0.0875  0.0588  0.7797
  194MPD1    C2 2950   1.707   0.254  16.710  0.2531  0.1805  0.1976
  194MPD1    C3 2951   1.699   0.197  16.838 -0.4591  0.9355  0.0509
  194MPD1    C4 2952   1.578   0.171  16.894  0.0034  0.3435 -0.5725
  194MPD1    C5 2953   1.467   0.191  16.810  0.4945 -0.9080 -0.1958
  194MPD1     H 2954   1.800   0.261  16.654  1.4571 -2.9124  1.8185
  194MPD1    H1 2955   1.564   0.155  17.000  1.7968  0.7545 -0.2714
  194MPD1    H2 2956   1.379   0.239  16.630 -1.0594 -0.8938  2.2087
  194MPD1    H3 2957   1.368   0.172  16.851  1.2539 -0.0371  2.0558
  194MPD1     N 2958   1.811   0.171  16.914 -0.1674  0.5047 -0.3376
  194MPD1    H5 2959   1.805   0.099  16.985  1.8015 -0.7420 -1.4410
  194MPD1    N1 2960   1.608   0.311  16.497 -0.1427  0.1275 -0.4698
  194MPD1    H6 2961   1.541   0.382  16.469 -0.2701 -0.0390 -0.5883
  194MPD1    H7 2962   1.706   0.338  16.489 -0.0681 -0.1576 -0.5439
  195MPD1     C 2963   0.818   2.269   0.871 -0.0192  0.1240  0.4407
  195MPD1    C1 2964   0.714   2.215   0.927 -0.0077 -0.1563  0.0350
  195MPD1    C2 2965   0.604   2.171   0.848 -0.4692  0.3363 -0.2082
  195MPD1    C3 2966   0.621   2.162   0.711  0.6379  0.6252 -0.1165
  195MPD1    C4 2967   0.743   2.208   0.657 -0.6315  0.2604 -0.2993
  195MPD1    C5 2968   0.843   2.264   0.735  0.7507  0.1919  0.8378
  195MPD1     H 2969   0.518   2.146   0.909  0.6274 -0.5371  0.9801
  195MPD1    H1 2970   0.759   2.202   0.550 -0.6898 -0.4224 -0.2724
  195MPD1    H2 2971   0.887   2.324   0.934  0.4666  1.7321 -1.4902
  195MPD1    H3 2972   0.942   2.294   0.704  0.1942  1.1829 -0.0003
  195MPD1     N 2973   0.518   2.116   0.627  0.4284 -0.2314 -0.2331
  195MPD1    H5 2974   0.528   2.136   0.528 -3.1244  0.5546 -0.4271
  195MPD1    N1 2975   0.698   2.224   1.064 -0.1253 -0.3123  0.0570
  195MPD1    H6 2976   0.632   2.157   1.103 -2.5061  3.1608  2.0076
  195MPD1    H7 2977   0.790   2.219   1.108 -0.6553 -1.2595  1.0586
  196MPD1     C 2978   3.945   1.660   0.698 -0.4829  0.0645  0.1585
  196MPD1    C1 2979   3.815   1.621   0.722  0.3326 -0.2379 -0.2317
  196MPD1    C2 2980   3.759   1.664   0.842 -0.6868 -0.2425  0.3330
  196MPD1    C3 2981   3.823   1.742   0.935 -0.2024  0.0249 -0.0512
  196MPD1    C4 2982   3.952   1.776   0.910  0.5503 -0.3280 -0.0554
  196MPD1    C5 2983   4.010   1.739   0.792 -0.1385  0.1575 -0.4202
  196MPD1     H 2984   3.654   1.637   0.849 -0.2978 -1.6496  0.6517
  196MPD1    H1 2985   4.010   1.835   0.980  4.4739 -0.1336 -3.4745
  196MPD1    H2 2986   3.991   1.634   0.604 -2.7775 -0.7982 -0.7312
  196MPD1    H3 2987   4.111   1.768   0.765  0.3826 -0.7026  0.6141
  196MPD1     N 2988   3.770   1.789   1.060  0.0246 -0.4530  0.3129
  196MPD1    H5 2989   3.828   1.852   1.114  0.4348 -0.4524 -0.1213
  196MPD1    N1 2990   3.753   1.538   0.626 -0.2453 -0.3014  0.2659
  196MPD1    H6 2991   3.787   1.574   0.537  0.1021  0.2041  0.5962
  196MPD1    H7 2992   3.652   1.543   0.623 -0.3002 -0.3106  2.1333
  197MPD1     C 2993   3.028   3.308   0.012 -0.7534 -0.7468  0.2837
  197MPD1    C1 2994   3.137   3.378   0.053 -0.6602 -0.6157 -0.3249
  197MPD1    C2 2995   3.171   3.489  17.680  0.4224 -0.5440  0.2242
  197MPD1    C3 2996   3.117   3.519  17.555 -0.0422 -0.1685 -1.0611
  197MPD1    C4 2997   3.017   3.434  17.510 -0.3287  0.0313  0.5710
  197MPD1    C5 2998   2.969   3.337  17.588  0.9269 -0.5389 -0.3026
  197MPD1     H 2999   3.250   3.555   0.018 -0.3089 -0.9508  2.7527
  197MPD1    H1 3000   2.962   3.454  17.419  2.7351 -0.3681 -1.3786
  197MPD1    H2 3001   2.981   3.228   0.069  0.1521  0.3389  2.5477
  197MPD1    H3 3002   2.886   3.279  17.550 -1.1576  1.5505  1.0585
  197MPD1     N 3003   3.161   3.633  17.477 -0.3581  0.7445  0.3573
  197MPD1    H5 3004   3.124   3.636  17.383 -2.5428  0.1317  1.1862
  197MPD1    N1 3005   3.191   3.358   0.185 -0.3173 -0.1244  0.3994
  197MPD1    H6 3006   3.283   3.396   0.206 -0.4149  0.8920 -0.9886
  197MPD1    H7 3007   3.196   3.257   0.199  3.3128 -0.0492 -0.3384
  198MPD1     C 3008   0.308   3.407  15.700  0.3596 -0.3597  0.3969
  198MPD1    C1 3009   0.326   3.280  15.648  0.1191 -0.7139 -0.3858
  198MPD1    C2 3010   0.325   3.168  15.732  0.4278  0.0394 -0.4510
  198MPD1    C3 3011   0.309   3.178  15.867 -0.3055  0.5861 -0.5446
  198MPD1    C4 3012   0.312   3.305  15.922  0.1461  0.6727 -0.0023
  198MPD1    C5 3013   0.309   3.415  15.839  0.2583  0.9363  0.3320
  198MPD1     H 3014   0.317   3.067  15.692  2.2036  0.3826 -1.6309
  198MPD1    H1 3015   0.299   3.328  16.027  1.4428  1.5226 -0.0374
  198MPD1    H2 3016   0.318   3.494  15.636  1.0975 -1.2771 -0.7437
  198MPD1    H3 3017   0.297   3.514  15.882  1.2382  0.3088  2.0590
  198MPD1     N 3018   0.312   3.058  15.947 -0.6287 -0.6706  0.1186
  198MPD1    H5 3019   0.300   2.976  15.889  0.8051 -0.2068 -0.8278
  198MPD1    N1 3020   0.358   3.268  15.508  0.0380  0.2497 -0.1101
  198MPD1    H6 3021   0.321   3.345  15.452 -1.0703  1.0041  1.6537
  198MPD1    H7 3022   0.456   3.247  15.491  0.0825  0.8585 -0.6184
  199MPD1     C 3023   2.382   2.278   9.674  0.3070 -0.1729  0.0628
  199MPD1    C1 3024   2.462   2.375   9.619  0.1606 -0.1102  0.1199
  199MPD1    C2 3025   2.388   2.491   9.584  0.2777  0.3188  0.4668
  199MPD1    C3 3026   2.253   2.507   9.611  0.8700  0.1141 -0.2745
  199MPD1    C4 3027   2.187   2.406   9.679  0.0047  0.1615 -0.7202
  199MPD1    C5 3028   2.255   2.290   9.710 -0.2423 -0.0044 -0.1567
  199MPD1     H 3029   2.441   2.567   9.528 -2.2792 -0.1633 -2.6112
  199MPD1    H1 3030   2.080   2.417   9.691 -0.1204  0.4945 -2.1238
  199MPD1    H2 3031   2.426   2.180   9.689 -2.7323 -1.6400 -0.8954
  199MPD1    H3 3032   2.205   2.202   9.749 -0.7277 -0.4610 -1.7967
  199MPD1     N 3033   2.177   2.617   9.562 -0.2809  0.2380 -0.7363
  199MPD1    H5 3034   2.078   2.613   9.584 -0.0566  1.8852  0.6286
  199MPD1    N1 3035   2.598   2.355   9.584 -0.1919 -0.3671 -0.2185
  199MPD1    H6 3036   2.657   2.294   9.641 -2.5998 -1.7660  0.7533
  199MPD1    H7 3037   2.639   2.447   9.599 -1.0969 -0.2536  1.5642
  200MPD1     C 3038   0.666   3.500  15.511 -0.2025 -0.7220 -0.1727
  200MPD1    C1 3039   0.777   3.443  15.453 -0.2468 -0.2677 -1.0333
  200MPD1    C2 3040   0.791   3.450  15.317 -0.2054 -0.0640 -0.1121
  200MPD1    C3 3041   0.697   3.523  15.249 -0.4765 -0.7700  0.0058
  200MPD1    C4 3042   0.579   3.575  15.305 -0.0889  0.4041 -0.5474
  200MPD1    C5 3043   0.565   3.563  15.441  0.1315  0.2165  0.4371
  200MPD1     H 3044   0.883   3.414  15.272 -0.1434  1.1745 -0.9670
  200MPD1    H1 3045   0.501   3.630  15.254  1.5035 -0.5090 -3.9517
  200MPD1    H2 3046   0.649   3.485  15.617 -1.7150  1.4332 -0.1223
  200MPD1    H3 3047   0.473   3.598  15.486  1.1576  2.3230  0.8812
  200MPD1     N 3048   0.721   3.533  15.115  0.0908  0.0134  0.2019
  200MPD1    H5 3049   0.796   3.475  15.079  0.3548  1.1583 -1.0771
  200MPD1    N1 3050   0.890   3.411  15.538  0.6064 -0.8485 -0.2240
  200MPD1    H6 3051   0.858   3.371  15.626 -1.5575 -0.2139 -0.7111
  200MPD1    H7 3052   0.950   3.348  15.486  1.0012 -1.3772  0.8801
  201MPD1     C 3053   3.187   2.347  13.399 -0.1387  1.0384 -0.4767
  201MPD1    C1 3054   3.218   2.364  13.530 -0.6365  0.5254  0.0358
  201MPD1    C2 3055   3.315   2.279  13.591  0.5901 -0.1051  0.2090
  201MPD1    C3 3056   3.383   2.182  13.525 -0.5854  0.2258  0.0978
  201MPD1    C4 3057   3.359   2.170  13.389 -0.1542  0.2232  0.1916
  201MPD1    C5 3058   3.257   2.249  13.336 -0.3671 -0.4214 -0.4233
  201MPD1     H 3059   3.331   2.291  13.698  1.2054  1.9793 -0.1251
  201MPD1    H1 3060   3.407   2.094  13.329  1.4369  1.3280  0.0674
  201MPD1    H2 3061   3.112   2.405  13.347  0.5523 -0.3336 -3.0042
  201MPD1    H3 3062   3.219   2.241  13.235 -1.1577  1.3576 -0.2751
  201MPD1     N 3063   3.489   2.107  13.594  0.1869  0.1807 -0.8120
  201MPD1    H5 3064   3.527   2.028  13.545  0.7279 -0.0870  0.0372
  201MPD1    N1 3065   3.155   2.464  13.610 -0.2531  0.4054  0.0218
  201MPD1    H6 3066   3.138   2.550  13.559 -0.4583 -1.1495 -2.4877
  201MPD1    H7 3067   3.210   2.479  13.695  2.3448  0.1062 -1.6087
  202MPD1     C 3068   2.901   0.978   9.089  0.2105  0.2166 -0.1738
  202MPD1    C1 3069   2.942   1.108   9.098 -0.5021  0.1243 -0.1672
  202MPD1    C2 3070   2.953   1.155   9.233  0.3271  0.7992  0.0381
  202MPD1    C3 3071   2.964   1.068   9.340  0.1367  0.3240 -0.7765
  202MPD1    C4 3072   2.958   0.932   9.313 -0.4069  0.5220 -0.7024
  202MPD1    C5 3073   2.915   0.887   9.191 -0.3389  0.0559  0.3044
  202MPD1     H 3074   2.979   1.260   9.243  3.2168  0.0226  0.7398
  202MPD1    H1 3075   2.994   0.862   9.387 -1.1080 -0.0784 -0.9272
  202MPD1    H2 3076   2.876   0.935   8.992  1.3143  1.8592 -1.1759
  202MPD1    H3 3077   2.906   0.782   9.166 -0.2709  0.0441  0.3306
  202MPD1     N 3078   3.004   1.097   9.471  0.1088 -0.0045 -0.4314
  202MPD1    H5 3079   3.019   1.030   9.545 -0.5540  1.4114  0.9685
  202MPD1    N1 3080   2.913   1.194   8.988 -0.7309  0.4957 -0.1180
  202MPD1    H6 3081   2.964   1.282   8.992 -0.3074  0.1902  1.2708
  202MPD1    H7 3082   2.932   1.139   8.904 -1.1506  1.9114 -1.1525
  203MPD1     C 3083   2.312   2.891  12.396 -0.2792  0.1596 -0.0708
  203MPD1    C1 3084   2.342   2.767  12.353 -0.1278  0.1138  0.2257
  203MPD1    C2 3085   2.257   2.667  12.386  0.4988 -0.0876 -0.3489
  203MPD1    C3 3086   2.157   2.679  12.479 -0.3434  0.3624  0.4405
  203MPD1    C4 3087   2.132   2.805  12.526  0.5056 -0.1272 -0.1026
  203MPD1    C5 3088   2.207   2.907  12.482  0.5200  0.3888 -0.0054
  203MPD1     H 3089   2.258   2.572  12.333 -1.6355 -0.2079 -0.1978
  203MPD1    H1 3090   2.059   2.819  12.604 -1.4057 -0.7174 -1.8032
  203MPD1    H2 3091   2.366   2.982  12.376  2.4749 -1.6699 -0.8972
  203MPD1    H3 3092   2.186   3.008  12.514  0.3298  0.0873  0.8246
  203MPD1     N 3093   2.075   2.566  12.499 -0.2434 -0.1042  0.0196
  203MPD1    H5 3094   2.100   2.487  12.441  2.2300  0.0421  0.8864
  203MPD1    N1 3095   2.421   2.744  12.237  0.1166 -0.1839 -0.3386
  203MPD1    H6 3096   2.485   2.817  12.208  0.3894 -0.3423 -0.1332
  203MPD1    H7 3097   2.463   2.651  12.238  0.0719 -0.1906  1.7440
  204MPD1     C 3098   2.150   3.607   0.797  0.5188  0.2571 -0.7963
  204MPD1    C1 3099   2.019   3.556   0.792  0.6486  0.2441 -0.6966
  204MPD1    C2 3100   1.956   3.560   0.666  0.1391 -0.0025  0.5814
  204MPD1    C3 3101   2.021   3.580   0.553 -0.5619 -0.9619  0.6588
  204MPD1    C4 3102   2.151   3.598   0.562 -0.1889  0.1320 -0.2748
  204MPD1    C5 3103   2.213   3.627   0.678  0.2704 -0.3990 -0.0469
  204MPD1     H 3104   1.850   3.544   0.659  0.0531  0.7596  0.1028
  204MPD1    H1 3105   2.216   3.607   0.475 -1.1674  0.2718 -0.9880
  204MPD1    H2 3106   2.207   3.614   0.889  1.2244  1.2386 -1.3071
  204MPD1    H3 3107   2.318   3.654   0.674 -0.1015  0.8720 -1.1184
  204MPD1     N 3108   1.959   3.550   0.428  1.1940  0.2395 -0.3589
  204MPD1    H5 3109   1.858   3.543   0.432  1.2708 -0.8714 -0.3697
  204MPD1    N1 3110   1.947   3.558   0.916  0.5516 -0.0075  0.4992
  204MPD1    H6 3111   1.870   3.492   0.914  0.5660 -0.0432  1.1234
  204MPD1    H7 3112   2.013   3.528   0.988  0.6493  0.8845  0.7855
  205MPD1     C 3113   2.101   3.113  16.891 -0.7905 -0.4847  0.6667
  205MPD1    C1 3114   2.166   2.998  16.866 -0.5691 -0.6240  0.3852
  205MPD1    C2 3115   2.206   2.920  16.975  0.1662  0.3700 -0.4714
  205MPD1    C3 3116   2.175   2.975  17.104 -0.1894 -0.8208  0.1258
  205MPD1    C4 3117   2.126   3.100  17.125  0.2045  0.5354 -0.2400
  205MPD1    C5 3118   2.083   3.169  17.013 -0.5464  0.3748 -0.6648
  205MPD1     H 3119   2.261   2.828  16.958 -1.4352 -0.7708  0.5388
  205MPD1    H1 3120   2.108   3.131  17.227 -0.9223 -0.2128 -0.2133
  205MPD1    H2 3121   2.062   3.180  16.816 -0.0152 -3.0554 -2.0423
  205MPD1    H3 3122   2.028   3.262  17.022  2.5714  2.3657 -2.0649
  205MPD1     N 3123   2.186   2.905  17.224 -0.1030  1.2295 -0.6601
  205MPD1    H5 3124   2.158   2.948  17.312 -0.8010 -2.6342  0.9681
  205MPD1    N1 3125   2.162   2.942  16.740 -0.0529 -0.2810  0.1447
  205MPD1    H6 3126   2.144   3.011  16.667 -1.2686 -1.1432 -0.3754
  205MPD1    H7 3127   2.245   2.891  16.713 -0.5589 -1.7742  1.4053
  206MPD1     C 3128   2.265   0.486  16.807 -0.3411  0.7125  0.1486
  206MPD1    C1 3129   2.187   0.600  16.790 -0.1356 -1.0402 -0.0743
  206MPD1    C2 3130   2.150   0.635  16.659  0.4174 -0.0942 -0.6267
  206MPD1    C3 3131   2.190   0.569  16.549  0.1740 -0.0904 -0.1808
  206MPD1    C4 3132   2.283   0.468  16.568 -0.0882  0.4896  0.1937
  206MPD1    C5 3133   2.320   0.430  16.694  0.0825 -0.5166  0.1173
  206MPD1     H 3134   2.091   0.726  16.655 -0.1293 -0.4937 -1.5022
  206MPD1    H1 3135   2.320   0.409  16.485  1.7937 -0.9115  2.0130
  206MPD1    H2 3136   2.280   0.442  16.905 -1.5379 -0.6020 -0.2542
  206MPD1    H3 3137   2.400   0.357  16.706  0.1958 -0.3009  0.6779
  206MPD1     N 3138   2.166   0.606  16.416 -0.4843 -0.4692  0.2805
  206MPD1    H5 3139   2.198   0.550  16.338 -1.3114 -2.9349  1.7038
  206MPD1    N1 3140   2.121   0.651  16.902  0.2590 -0.4465  0.6358
  206MPD1    H6 3141   2.182   0.634  16.983  1.0750  3.0928  0.7620
  206MPD1    H7 3142   2.121   0.752  16.894 -1.4576 -0.4080  1.2263
  207MPD1     C 3143   2.936   2.293  10.252 -0.4592  0.3437  0.2988
  207MPD1    C1 3144   2.915   2.166  10.302  0.2419 -0.9538 -0.4689
  207MPD1    C2 3145   3.021   2.104  10.368 -0.2808 -0.8100  0.2004
  207MPD1    C3 3146   3.141   2.169  10.390  0.6724  0.0691  0.2728
  207MPD1    C4 3147   3.161   2.292  10.330  0.6839  0.2983  0.4495
  207MPD1    C5 3148   3.061   2.342  10.251 -0.2632  0.0949 -0.3136
  207MPD1     H 3149   2.992   2.017  10.425 -1.7916 -0.1095  0.5291
  207MPD1    H1 3150   3.253   2.347  10.333  1.6303 -1.3484  1.4889
  207MPD1    H2 3151   2.860   2.352  10.202 -0.4696  1.8544  2.1230
  207MPD1    H3 3152   3.083   2.442  10.215 -0.9692  0.1460 -0.5920
  207MPD1     N 3153   3.245   2.113  10.475  0.0144 -0.3824  0.3334
  207MPD1    H5 3154   3.330   2.169  10.477  0.0886 -0.5136  0.9046
  207MPD1    N1 3155   2.786   2.115  10.316 -0.2071 -0.2189 -0.0582
  207MPD1    H6 3156   2.715   2.143  10.248 -0.0731  0.1811 -0.0345
  207MPD1    H7 3157   2.791   2.013  10.317 -2.8602 -0.3487  1.7886
  208MPD1     C 3158   3.522   2.100   0.455  0.4462 -0.3706 -0.3862
  208MPD1    C1 3159   3.430   2.063   0.354  0.5760  0.9561  0.7597
  208MPD1    C2 3160   3.298   2.068   0.390 -0.0943 -0.3481  0.6635
  208MPD1    C3 3161   3.258   2.110   0.518  0.6027  0.2761  0.2006
  208MPD1    C4 3162   3.358   2.144   0.611 -0.1161 -0.2322 -0.2048
  208MPD1    C5 3163   3.488   2.133   0.578  0.2252 -0.5188  0.1208
  208MPD1     H 3164   3.223   2.034   0.319 -0.8364 -0.0593  1.3147
  208MPD1    H1 3165   3.344   2.160   0.718  2.4502  1.7671 -0.1687
  208MPD1    H2 3166   3.626   2.095   0.427  0.0736 -0.5065 -1.7801
  208MPD1    H3 3167   3.569   2.158   0.645 -0.1491  0.4870  0.1998
  208MPD1     N 3168   3.119   2.124   0.541 -0.9433  0.6107  0.0839
  208MPD1    H5 3169   3.052   2.082   0.477 -0.1921  0.3706 -0.5399
  208MPD1    N1 3170   3.460   2.008   0.230  0.2311 -0.2809 -0.4659
  208MPD1    H6 3171   3.555   2.017   0.195  0.5347  0.0003  0.4340
  208MPD1    H7 3172   3.393   2.028   0.157  1.1164  1.2501 -0.8535
  209MPD1     C 3173   3.019   1.206  12.009 -0.1658  0.2604 -0.1752
  209MPD1    C1 3174   2.955   1.274  11.916  0.7224  0.6009  0.1990
  209MPD1    C2 3175   3.005   1.400  11.879 -0.1352 -0.6595  0.0564
  209MPD1    C3 3176   3.130   1.448  11.917  0.4924  0.3238  0.3481
  209MPD1    C4 3177   3.204   1.369  12.008 -0.0896  0.2771 -0.3345
  209MPD1    C5 3178   3.142   1.253  12.054 -0.5247 -0.2792 -0.5039
  209MPD1     H 3179   2.956   1.458  11.800  1.0384  0.2190 -0.0263
  209MPD1    H1 3180   3.307   1.395  12.031 -0.5399  1.0449  0.8350
  209MPD1    H2 3181   2.976   1.113  12.043 -0.6129  0.9383  1.1021
  209MPD1    H3 3182   3.195   1.190  12.126  0.0578 -0.4726 -1.0982
  209MPD1     N 3183   3.184   1.566  11.862 -0.1048  0.3317  0.3083
  209MPD1    H5 3184   3.139   1.610  11.782  0.0879  0.2571  0.1592
  209MPD1    N1 3185   2.819   1.238  11.889 -0.4006  0.2848  0.6464
  209MPD1    H6 3186   2.822   1.136  11.889 -1.3738  0.2415 -0.1023
  209MPD1    H7 3187   2.791   1.267  11.795  0.7285 -1.0854 -0.1202
  210MPD1     C 3188   4.115   1.778  12.002 -0.2078 -0.9120  0.2575
  210MPD1    C1 3189   4.098   1.813  11.874  0.5332  0.1831  0.1639
  210MPD1    C2 3190   3.967   1.830  11.834  0.4835 -0.0816  0.2804
  210MPD1    C3 3191   3.859   1.827  11.922 -0.1193 -0.0255  0.0767
  210MPD1    C4 3192   3.890   1.804  12.050  0.4214  0.1808 -0.1400
  210MPD1    C5 3193   4.010   1.776  12.092  0.1803 -0.2409 -0.6514
  210MPD1     H 3194   3.943   1.843  11.729  2.6517  1.5576  0.0022
  210MPD1    H1 3195   3.809   1.809  12.122  0.6373  1.4835  0.0144
  210MPD1    H2 3196   4.215   1.741  12.021 -0.4629 -1.3699  0.7112
  210MPD1    H3 3197   4.028   1.750  12.196 -0.6782 -0.8252 -0.6514
  210MPD1     N 3198   3.727   1.844  11.890  0.1701  0.1855 -0.5283
  210MPD1    H5 3199   3.666   1.816  11.966  1.2167 -1.2039 -0.1938
  210MPD1    N1 3200   4.208   1.791  11.788  0.5578 -0.3709 -0.5931
  210MPD1    H6 3201   4.297   1.794  11.836  0.4028  2.1916 -0.4626
  210MPD1    H7 3202   4.209   1.857  11.711 -2.5343  2.0785  1.4538
  211MPD1     C 3203   2.757   1.951  16.494  1.0171 -0.3054  0.3380
  211MPD1    C1 3204   2.650   1.968  16.583  0.6457 -0.4176 -0.5156
  211MPD1    C2 3205   2.551   2.056  16.545  0.4291  0.1286  0.2680
  211MPD1    C3 3206   2.564   2.132  16.429  0.0988 -0.2290  0.5393
  211MPD1    C4 3207   2.666   2.112  16.341  0.2642  0.2286  0.0522
  211MPD1    C5 3208   2.761   2.022  16.376  0.1353 -0.2852 -0.5684
  211MPD1     H 3209   2.475   2.093  16.612 -1.8487 -0.8038 -1.8130
  211MPD1    H1 3210   2.692   2.171  16.254 -1.4534  0.2135 -0.4790
  211MPD1    H2 3211   2.839   1.886  16.522  0.1530 -2.0883 -1.3162
  211MPD1    H3 3212   2.854   2.010  16.320 -0.0869  1.9151 -1.4081
  211MPD1     N 3213   2.468   2.233  16.407  0.6319 -0.7649  0.9521
  211MPD1    H5 3214   2.395   2.231  16.478  0.0785  2.9553  0.4351
  211MPD1    N1 3215   2.661   1.919  16.714 -0.3851  0.4833 -0.4249
  211MPD1    H6 3216   2.572   1.903  16.760  0.4871 -0.6165  0.8813
  211MPD1    H7 3217   2.710   1.830  16.725 -0.9575  0.2891  0.5281
  212MPD1     C 3218   2.059   0.413  17.334 -0.4103  0.4383 -0.3006
  212MPD1    C1 3219   1.945   0.484  17.294 -0.6800  0.6309  0.2630
  212MPD1    C2 3220   1.822   0.417  17.311  0.1660 -0.3871  0.0461
  212MPD1    C3 3221   1.816   0.287  17.357  0.4410  0.2774  0.0770
  212MPD1    C4 3222   1.931   0.221  17.394  0.6827 -0.2789  0.6812
  212MPD1    C5 3223   2.058   0.284  17.378 -0.8708  0.6302  0.0668
  212MPD1     H 3224   1.735   0.482  17.314  1.3636  1.2322 -0.1457
  212MPD1    H1 3225   1.921   0.125  17.443 -0.6447 -0.6115 -0.2584
  212MPD1    H2 3226   2.154   0.465  17.323  0.7861 -1.5378  0.5352
  212MPD1    H3 3227   2.147   0.247  17.427 -1.1189  0.1171  0.1293
  212MPD1     N 3228   1.695   0.217  17.379 -0.0154  0.6673 -0.6542
  212MPD1    H5 3229   1.700   0.116  17.391 -0.8897  0.5976 -0.8440
  212MPD1    N1 3230   1.942   0.626  17.278  0.3657  0.2557 -0.0127
  212MPD1    H6 3231   1.859   0.663  17.233 -1.1498  0.0709  2.6428
  212MPD1    H7 3232   2.028   0.662  17.237  0.7018  1.4529  1.7176
  213MPD1     C 3233   4.239   1.648  16.044  0.2841  1.2570  0.9143
  213MPD1    C1 3234   4.146   1.571  15.971  0.6676 -0.0784 -0.1509
  213MPD1    C2 3235   4.095   1.629  15.860 -0.2291  0.2695 -0.3597
  213MPD1    C3 3236   4.139   1.748  15.805  0.8791  0.1171  0.6925
  213MPD1    C4 3237   4.238   1.818  15.870  0.3551 -0.0920  0.3740
  213MPD1    C5 3238   4.294   1.756  15.981  0.0574 -0.3205  1.0571
  213MPD1     H 3239   4.009   1.583  15.813  0.8167 -0.5827 -1.4486
  213MPD1    H1 3240   4.285   1.909  15.834  0.3445 -1.4912 -3.2348
  213MPD1    H2 3241   4.283   1.623  16.141 -0.0643  0.3635  0.8442
  213MPD1    H3 3242   4.381   1.803  16.026 -1.1784  0.5527  2.5466
  213MPD1     N 3243   4.076   1.797  15.691 -0.8655 -0.9144 -0.2697
  213MPD1    H5 3244   4.023   1.731  15.635 -1.0232 -0.6483 -0.4276
  213MPD1    N1 3245   4.060   1.486  16.034 -0.5296  0.1043 -0.2265
  213MPD1    H6 3246   3.983   1.521  16.090 -0.6964 -0.4496 -0.1115
  213MPD1    H7 3247   4.010   1.418  15.977 -2.9399 -0.1019  2.1467
  214MPD1     C 3248   3.811   1.197  15.060 -0.0301  0.2103 -0.3111
  214MPD1    C1 3249   3.738   1.258  15.157  0.6174 -0.6854 -0.3462
  214MPD1    C2 3250   3.785   1.370  15.224  0.0175 -0.2164 -0.5703
  214MPD1    C3 3251   3.892   1.443  15.171 -0.1341  0.1422 -0.7731
  214MPD1    C4 3252   3.965   1.368  15.071  0.1711  0.1611 -0.8866
  214MPD1    C5 3253   3.923   1.249  15.013  0.7946 -0.3661  0.4837
  214MPD1     H 3254   3.731   1.411  15.309 -0.0175 -1.3126 -0.0606
  214MPD1    H1 3255   4.052   1.410  15.022  0.3826 -1.6023 -1.9971
  214MPD1    H2 3256   3.788   1.102  15.014  1.6596  0.3997 -1.5188
  214MPD1    H3 3257   3.982   1.201  14.936  0.2559  0.6088 -0.5496
  214MPD1     N 3258   3.940   1.568  15.206 -0.2647 -0.4767 -0.4244
  214MPD1    H5 3259   4.020   1.605  15.155 -0.2983  1.9887  1.3123
  214MPD1    N1 3260   3.628   1.190  15.214 -0.1335  0.0606  0.4640
  214MPD1    H6 3261   3.554   1.254  15.242  1.6270  2.3570 -0.0577
  214MPD1    H7 3262   3.591   1.103  15.177  1.1223 -0.5100  0.5413
  215MPD1     C 3263   3.303   2.138  10.982  0.1733 -1.0701 -0.0861
  215MPD1    C1 3264   3.376   2.101  11.095 -0.0908 -0.5146 -0.5677
  215MPD1    C2 3265   3.509   2.153  11.102  0.3726  0.7560  0.6580
  215MPD1    C3 3266   3.558   2.222  10.994 -0.1402  0.4356  0.6466
  215MPD1    C4 3267   3.484   2.257  10.878 -0.2992  0.2637  0.7701
  215MPD1    C5 3268   3.355   2.216  10.878 -0.6817 -0.2658 -0.1758
  215MPD1     H 3269   3.561   2.144  11.197  0.9231 -0.6725  0.2273
  215MPD1    H1 3270   3.530   2.308  10.793 -2.0362  0.0139 -0.3159
  215MPD1    H2 3271   3.197   2.116  10.975  0.2277 -1.5112  0.4790
  215MPD1    H3 3272   3.292   2.228  10.791  0.0181 -0.6094 -0.7292
  215MPD1     N 3273   3.692   2.268  11.003  0.2583 -0.3354  0.3575
  215MPD1    H5 3274   3.752   2.216  11.066 -1.6049 -0.6613  1.8818
  215MPD1    N1 3275   3.312   2.042  11.212  0.2938 -0.0083  0.3767
  215MPD1    H6 3276   3.379   1.996  11.273  0.5298 -1.9115 -1.2914
  215MPD1    H7 3277   3.237   1.977  11.189 -0.3659  0.8431  0.1230
  216MPD1     C 3278   2.354   4.038   1.482 -0.7819  0.0607 -0.3332
  216MPD1    C1 3279   2.434   4.009   1.374  0.3899 -0.0437 -0.3540
  216MPD1    C2 3280   2.376   3.977   1.254 -0.0397  0.2511  0.4482
  216MPD1    C3 3281   2.243   3.956   1.244 -0.3768  0.3264  1.2432
  216MPD1    C4 3282   2.161   3.975   1.356 -0.5712 -0.2767  0.2418
  216MPD1    C5 3283   2.222   4.020   1.473  0.6167 -0.6564 -1.1602
  216MPD1     H 3284   2.438   3.978   1.164 -0.9399 -0.9718 -0.1733
  216MPD1    H1 3285   2.055   3.954   1.350 -0.8162  1.4347 -1.3386
  216MPD1    H2 3286   2.389   4.064   1.581 -0.4325  1.0584 -0.7247
  216MPD1    H3 3287   2.166   4.035   1.564 -0.5699 -0.8716 -1.8579
  216MPD1     N 3288   2.184   3.937   1.113  0.0254  0.2689  0.4169
  216MPD1    H5 3289   2.247   3.945   1.034  1.3845  1.9309  1.6537
  216MPD1    N1 3290   2.569   4.033   1.389  0.1403  0.1386  0.0128
  216MPD1    H6 3291   2.613   3.964   1.328 -0.3453 -0.3250  0.1875
  216MPD1    H7 3292   2.599   4.026   1.486  0.4323 -0.7588 -0.1500
  217MPD1     C 3293   2.631   0.766   8.692  0.7439 -0.4093  0.1010
  217MPD1    C1 3294   2.599   0.899   8.696  0.3197 -0.2501  0.4050
  217MPD1    C2 3295   2.566   0.955   8.816  0.1379 -0.5601  0.2632
  217MPD1    C3 3296   2.579   0.884   8.934 -0.1241 -0.9788 -0.4473
  217MPD1    C4 3297   2.610   0.747   8.925  0.3445  0.2778 -0.2215
  217MPD1    C5 3298   2.637   0.687   8.804 -0.1604  0.2588 -0.0506
  217MPD1     H 3299   2.538   1.060   8.811  1.7257 -0.1770 -0.7165
  217MPD1    H1 3300   2.622   0.685   9.013 -0.3752  0.3291 -0.0807
  217MPD1    H2 3301   2.640   0.710   8.600  0.4509  2.1887 -1.5283
  217MPD1    H3 3302   2.655   0.581   8.792 -1.6219  0.2875 -2.6161
  217MPD1     N 3303   2.566   0.936   9.064 -0.1336 -0.1488  0.4291
  217MPD1    H5 3304   2.581   0.875   9.143 -2.6086 -1.2221  0.0701
  217MPD1    N1 3305   2.558   0.972   8.586  0.4362 -0.1848  0.2585
  217MPD1    H6 3306   2.582   1.071   8.589  1.0236 -0.3258  0.3389
  217MPD1    H7 3307   2.607   0.935   8.504  1.0260  1.6782 -0.2354
  218MPD1     C 3308   2.413   3.044  14.043 -0.6361 -0.1819 -0.4885
  218MPD1    C1 3309   2.518   2.955  14.067 -0.2353  0.4289 -0.2497
  218MPD1    C2 3310   2.623   2.954  13.975  0.4638  0.2866  0.2400
  218MPD1    C3 3311   2.604   3.025  13.848 -0.2961  0.2316  0.3695
  218MPD1    C4 3312   2.492   3.091  13.819  0.1534  0.3714 -0.3984
  218MPD1    C5 3313   2.403   3.104  13.922  0.3300 -0.4088 -0.1141
  218MPD1     H 3314   2.706   2.886  13.989  1.2105  1.2328  0.4213
  218MPD1    H1 3315   2.477   3.141  13.724 -2.8294 -0.7455 -0.5313
  218MPD1    H2 3316   2.333   3.057  14.115 -0.7091 -0.7302 -0.4704
  218MPD1    H3 3317   2.315   3.161  13.895 -0.0223 -1.9250 -2.1647
  218MPD1     N 3318   2.719   3.016  13.765  0.4663 -0.1593 -0.4257
  218MPD1    H5 3319   2.792   2.956  13.803 -1.1695 -1.8296  0.0687
  218MPD1    N1 3320   2.529   2.897  14.196 -0.3359 -0.5062  0.8051
  218MPD1    H6 3321   2.448   2.877  14.254 -0.4277 -1.1155  0.4651
  218MPD1    H7 3322   2.572   2.806  14.184  0.6270  0.2334 -1.4106
  219MPD1     C 3323   3.059   3.806  13.268  0.2080  0.1676  1.0265
  219MPD1    C1 3324   3.142   3.704  13.218  0.5923  0.5132 -0.0065
  219MPD1    C2 3325   3.138   3.576  13.282  0.1700  0.0991  0.5106
  219MPD1    C3 3326   3.054   3.552  13.394 -0.0801  0.1682 -0.8101
  219MPD1    C4 3327   2.978   3.657  13.437 -0.3160 -0.4430  0.3902
  219MPD1    C5 3328   2.972   3.781  13.371  0.0791  0.0889  0.0693
  219MPD1     H 3329   3.202   3.495  13.249 -0.8659 -1.2747  1.8428
  219MPD1    H1 3330   2.915   3.649  13.525 -0.4470 -0.8649  0.2541
  219MPD1    H2 3331   3.075   3.907  13.233  0.3483 -0.0126  0.5628
  219MPD1    H3 3332   2.908   3.856  13.415  0.5034  1.4517 -1.6396
  219MPD1     N 3333   3.040   3.426  13.453  0.6022  0.1758  0.2619
  219MPD1    H5 3334   2.968   3.412  13.524 -0.7939  1.3502 -0.9074
  219MPD1    N1 3335   3.251   3.733  13.131  0.8396 -0.0353  0.8454
  219MPD1    H6 3336   3.291   3.654  13.081  0.1706 -0.1596  0.5049
  219MPD1    H7 3337   3.216   3.795  13.058 -0.6147 -0.4385  1.2093
  220MPD1     C 3338   3.955   3.680   9.828 -0.0869 -0.3125  0.4290
  220MPD1    C1 3339   4.057   3.603   9.882  0.0277  0.1582  0.6511
  220MPD1    C2 3340   4.018   3.475   9.914  0.2126  0.3615 -0.1366
  220MPD1    C3 3341   3.896   3.416   9.874  1.0934  0.5229 -0.7774
  220MPD1    C4 3342   3.805   3.495   9.820 -0.0187  0.3052  0.6459
  220MPD1    C5 3343   3.837   3.626   9.788  0.5712  0.2204 -0.1613
  220MPD1     H 3344   4.086   3.419   9.978  0.9634  1.0244 -0.3499
  220MPD1    H1 3345   3.709   3.454   9.790 -0.5301 -0.2207  3.0550
  220MPD1    H2 3346   3.959   3.788   9.816 -0.7746 -0.3446 -0.0609
  220MPD1    H3 3347   3.760   3.688   9.744  0.8717 -0.0477 -1.0698
  220MPD1     N 3348   3.871   3.281   9.916 -0.8101 -0.4491 -0.9386
  220MPD1    H5 3349   3.941   3.246   9.981 -2.4972  0.3385  1.2947
  220MPD1    N1 3350   4.175   3.655   9.931  0.1266  0.8839 -0.2628
  220MPD1    H6 3351   4.253   3.590   9.925 -0.0392  0.5664  1.1060
  220MPD1    H7 3352   4.193   3.744   9.883  0.0592  1.1885  0.2771
  221MPD1     C 3353   2.261   1.899  16.967  0.0547 -0.6160  0.1026
  221MPD1    C1 3354   2.196   1.785  17.005  0.7734 -0.2400  0.1226
  221MPD1    C2 3355   2.099   1.729  16.928  1.0946  0.0648  0.5281
  221MPD1    C3 3356   2.068   1.773  16.800 -0.2380  0.1759 -0.3753
  221MPD1    C4 3357   2.134   1.890  16.759 -0.3854  0.2209  0.1631
  221MPD1    C5 3358   2.220   1.951  16.850 -0.3763  0.3910  0.7483
  221MPD1     H 3359   2.051   1.638  16.962 -0.9195  0.6886 -0.7246
  221MPD1    H1 3360   2.119   1.936  16.662  2.8596 -1.2679 -1.0434
  221MPD1    H2 3361   2.341   1.949  17.020 -1.7536  1.7301  0.6231
  221MPD1    H3 3362   2.273   2.041  16.822 -0.1509 -0.0676 -0.2814
  221MPD1     N 3363   1.980   1.706  16.708  0.1005 -0.8673 -0.1152
  221MPD1    H5 3364   1.973   1.752  16.618  0.5765  1.4341  1.0170
  221MPD1    N1 3365   2.226   1.738  17.134 -0.2586 -0.1488 -0.0771
  221MPD1    H6 3366   2.243   1.638  17.140 -0.4247 -0.2218 -0.8044
  221MPD1    H7 3367   2.299   1.790  17.181 -0.6493 -1.3103  1.8103
  222MPD1     C 3368   2.369   4.618   0.375  0.5883 -0.3714  0.2539
  222MPD1    C1 3369   2.391   0.022   0.418  0.3786  0.3177 -0.0213
  222MPD1    C2 3370   2.343   0.123   0.341 -0.1413  0.2311 -0.5281
  222MPD1    C3 3371   2.262   0.090   0.227  0.5263 -0.4550  0.3557
  222MPD1    C4 3372   2.231   4.686   0.198  0.6198  0.6364 -0.4938
  222MPD1    C5 3373   2.292   4.589   0.270  0.2009 -0.0250  0.3525
  222MPD1     H 3374   2.363   0.227   0.366 -1.0893  0.1427  0.6058
  222MPD1    H1 3375   2.174   4.669   0.107 -0.4864  1.5680  0.0191
  222MPD1    H2 3376   2.406   4.535   0.434 -0.0979  0.9111  2.4877
  222MPD1    H3 3377   2.275   4.485   0.245  0.6457 -0.5257  2.1797
  222MPD1     N 3378   2.193   0.180   0.151 -0.0095  0.4418 -0.8559
  222MPD1    H5 3379   2.126   0.141   0.085  1.2580  0.4839 -2.1670
  222MPD1    N1 3380   2.486   0.042   0.521 -0.0403  0.2067 -0.0190
  222MPD1    H6 3381   2.494   4.688   0.586  0.4994  1.6255  1.5985
  222MPD1    H7 3382   2.469   0.129   0.571 -1.5062  0.8541 -1.6465
  223MPD1     C 3383   1.385   4.685   0.097 -1.0045  0.2214 -0.0310
  223MPD1    C1 3384   1.513   4.629   0.096 -0.0139 -0.1114  0.0151
  223MPD1    C2 3385   1.619   4.714   0.077  0.1576  0.5902 -0.5256
  223MPD1    C3 3386   1.604   0.121   0.063  0.1382  0.0736  0.2102
  223MPD1    C4 3387   1.471   0.168   0.056 -0.6002 -0.3378 -0.0678
  223MPD1    C5 3388   1.358   0.093   0.072  0.4817  0.6348 -0.3562
  223MPD1     H 3389   1.722   4.681   0.083  0.2226  0.8783 -0.0409
  223MPD1    H1 3390   1.466   0.275   0.042 -0.5474 -0.2187  0.8042
  223MPD1    H2 3391   1.298   4.625   0.117 -0.4781 -0.3787  0.4475
  223MPD1    H3 3392   1.257   0.134   0.069  0.5283  0.6476 -1.8093
  223MPD1     N 3393   1.717   0.201   0.049 -0.1846 -0.5485  0.3169
  223MPD1    H5 3394   1.805   0.155   0.068  1.0084  2.5960  2.3130
  223MPD1    N1 3395   1.519   4.497   0.145  0.3293 -0.0488 -0.3947
  223MPD1    H6 3396   1.433   4.445   0.133  1.6377 -1.7810 -2.4112
  223MPD1    H7 3397   1.605   4.444   0.131 -1.1210 -2.7818  1.1519
  224MPD1     C 3398   2.579   1.537   9.141  1.1240 -0.4509 -0.6445
  224MPD1    C1 3399   2.527   1.661   9.174  0.5106 -0.7167 -0.0970
  224MPD1    C2 3400   2.593   1.736   9.272 -0.0742 -0.1792 -0.1949
  224MPD1    C3 3401   2.697   1.675   9.349 -0.4041  0.0979  0.4514
  224MPD1    C4 3402   2.737   1.545   9.322  0.3047 -0.2686 -0.2292
  224MPD1    C5 3403   2.677   1.482   9.216 -0.4205 -0.4644  0.3614
  224MPD1     H 3404   2.556   1.837   9.288  1.1324 -0.0561  1.7061
  224MPD1    H1 3405   2.813   1.489   9.376  1.1868  1.6778  0.5232
  224MPD1    H2 3406   2.556   1.485   9.049  0.1135 -1.6913  0.3020
  224MPD1    H3 3407   2.728   1.394   9.178  2.5263  1.3647  0.1395
  224MPD1     N 3408   2.752   1.734   9.461  0.7686  0.4903  0.3956
  224MPD1    H5 3409   2.826   1.679   9.504 -0.1448 -1.1787 -0.1718
  224MPD1    N1 3410   2.435   1.722   9.079  1.0151  0.0536  0.0127
  224MPD1    H6 3411   2.376   1.653   9.034  1.4026 -0.4728  0.3054
  224MPD1    H7 3412   2.376   1.791   9.125  0.9053  0.4648 -0.7455
  225MPD1     C 3413   4.314   3.310  12.565 -0.3101 -0.0487 -0.0012
  225MPD1    C1 3414   4.220   3.279  12.663 -0.2939 -0.1759  0.3691
  225MPD1    C2 3415   4.090   3.304  12.641  0.2188  0.3655 -0.6337
  225MPD1    C3 3416   4.039   3.368  12.528  0.7536  0.1271 -0.3227
  225MPD1    C4 3417   4.130   3.392  12.433 -0.4770 -0.5149 -0.0282
  225MPD1    C5 3418   4.259   3.369  12.449 -0.4011  0.1992  0.4100
  225MPD1     H 3419   4.017   3.282  12.719 -1.1617  2.4388 -1.3567
  225MPD1    H1 3420   4.090   3.445  12.348  1.7350 -0.4337 -1.0142
  225MPD1    H2 3421   4.423   3.305  12.568 -0.2924  2.4557  3.1913
  225MPD1    H3 3422   4.326   3.405  12.372 -1.3938  0.8705 -0.1485
  225MPD1     N 3423   3.900   3.391  12.499 -0.0111  0.3944  0.4057
  225MPD1    H5 3424   3.869   3.437  12.414  0.7966 -0.5558 -0.4032
  225MPD1    N1 3425   4.262   3.259  12.798 -0.2104  0.9179 -0.3542
  225MPD1    H6 3426   4.197   3.213  12.861 -0.8662  1.1369 -0.8674
  225MPD1    H7 3427   4.348   3.204  12.796 -1.1737 -0.6583  1.7204
  226MPD1     C 3428   2.037   2.761   9.069 -0.6150 -0.1835 -0.1073
  226MPD1    C1 3429   2.155   2.719   9.135  0.0539 -0.4561  0.3229
  226MPD1    C2 3430   2.257   2.817   9.142 -0.8293  0.1788 -0.0010
  226MPD1    C3 3431   2.254   2.942   9.087 -0.8189  0.6535 -0.5952
  226MPD1    C4 3432   2.133   2.976   9.023 -0.1654  0.1962 -0.2968
  226MPD1    C5 3433   2.032   2.884   9.019  0.3460 -0.7693  0.5425
  226MPD1     H 3434   2.347   2.792   9.197 -2.4519 -3.0985  1.1541
  226MPD1    H1 3435   2.119   3.070   8.970 -0.5321  0.6159  0.5341
  226MPD1    H2 3436   1.950   2.697   9.069 -0.5813 -0.2464  1.8442
  226MPD1    H3 3437   1.935   2.903   8.974 -0.0201 -0.7256  1.3449
  226MPD1     N 3438   2.366   3.028   9.103 -1.2212 -0.1120  0.1473
  226MPD1    H5 3439   2.445   3.006   9.163 -0.3000 -0.5074 -1.2344
  226MPD1    N1 3440   2.178   2.578   9.147  0.5557  0.3094 -0.5370
  226MPD1    H6 3441   2.250   2.553   9.215  2.0381  0.6558 -1.9746
  226MPD1    H7 3442   2.094   2.527   9.174  0.9057 -1.5764 -2.9774
  227MPD1     C 3443   2.400   3.966   8.837  0.4251  0.0891 -0.2970
  227MPD1    C1 3444   2.382   3.852   8.762  0.2023 -0.0834 -0.8462
  227MPD1    C2 3445   2.430   3.737   8.826 -1.1174 -0.1910 -0.1377
  227MPD1    C3 3446   2.476   3.735   8.957 -0.2488 -0.3307  0.0124
  227MPD1    C4 3447   2.497   3.855   9.021 -0.2961 -0.3689 -1.1068
  227MPD1    C5 3448   2.466   3.968   8.954  0.1373 -0.5771 -0.2565
  227MPD1     H 3449   2.407   3.637   8.789  0.6540 -1.1696  1.4164
  227MPD1    H1 3450   2.535   3.857   9.123 -3.9791 -0.6656  0.2738
  227MPD1    H2 3451   2.375   4.061   8.792 -1.1824  0.2456  0.8963
  227MPD1    H3 3452   2.485   4.062   9.004 -0.8893 -0.7276  0.4235
  227MPD1     N 3453   2.485   3.609   9.017 -0.5012  0.1007  0.0316
  227MPD1    H5 3454   2.444   3.531   8.967  1.5918 -1.2283  0.4023
  227MPD1    N1 3455   2.285   3.848   8.662  0.2028 -0.2580  0.1784
  227MPD1    H6 3456   2.265   3.935   8.614 -0.3319  0.5099  1.7715
  227MPD1    H7 3457   2.318   3.778   8.597  0.0040 -0.5531  0.3969
  228MPD1     C 3458   0.775   1.648  12.609 -0.0572  0.2702 -0.0461
  228MPD1    C1 3459   0.771   1.529  12.682  0.0570  0.4969 -0.2724
  228MPD1    C2 3460   0.653   1.486  12.742 -0.4352 -0.9472  0.1000
  228MPD1    C3 3461   0.537   1.560  12.743 -0.9213 -0.0814 -0.6593
  228MPD1    C4 3462   0.540   1.678  12.673 -0.2999  0.2546  0.2565
  228MPD1    C5 3463   0.653   1.717  12.603  0.3428  0.5630 -0.2000
  228MPD1     H 3464   0.650   1.390  12.793 -0.7781 -0.5901  0.7350
  228MPD1    H1 3465   0.453   1.743  12.662 -1.2373 -1.0289  0.1218
  228MPD1    H2 3466   0.863   1.685  12.557 -1.4693  0.7140 -2.1312
  228MPD1    H3 3467   0.667   1.814  12.556 -1.3914  2.9307  4.2510
  228MPD1     N 3468   0.428   1.511  12.806  0.1163 -0.6314 -0.6053
  228MPD1    H5 3469   0.449   1.430  12.863 -2.1572 -0.6006  0.2739
  228MPD1    N1 3470   0.891   1.451  12.702  0.0879 -0.3789  0.4533
  228MPD1    H6 3471   0.870   1.353  12.717 -0.9582 -0.3660 -0.8705
  228MPD1    H7 3472   0.969   1.458  12.638 -0.0775 -1.0745  0.1809
  229MPD1     C 3473   0.360   0.496  14.533 -1.1147 -0.1432  0.1153
  229MPD1    C1 3474   0.271   0.428  14.621  0.5567 -0.3468 -0.8639
  229MPD1    C2 3475   0.326   0.330  14.706 -0.6692 -0.3359 -0.2932
  229MPD1    C3 3476   0.462   0.314  14.705  0.6761 -1.1309 -0.1046
  229MPD1    C4 3477   0.542   0.382  14.613 -0.0959  0.2551  0.2602
  229MPD1    C5 3478   0.493   0.475  14.533  0.0306  0.5237 -0.3744
  229MPD1     H 3479   0.256   0.266  14.758  0.3823  1.4159  3.3434
  229MPD1    H1 3480   0.644   0.349  14.599 -0.6058 -0.8399 -0.9435
  229MPD1    H2 3481   0.321   0.570  14.465 -0.2806 -0.7243 -0.9996
  229MPD1    H3 3482   0.556   0.518  14.456  0.8713  1.8008  1.0218
  229MPD1     N 3483   0.533   0.219  14.782  0.0900 -0.3087 -0.0013
  229MPD1    H5 3484   0.634   0.213  14.768  0.1206  1.8854 -0.8413
  229MPD1    N1 3485   0.136   0.426  14.592  0.4020 -0.0055  0.2375
  229MPD1    H6 3486   0.078   0.428  14.676  1.0892  0.0448  0.7110
  229MPD1    H7 3487   0.133   0.515  14.543  1.5358 -0.1028 -0.0095
  230MPD1     C 3488   0.722   4.599  15.815  0.0818 -0.0074  0.2470
  230MPD1    C1 3489   0.833   4.570  15.735  0.2574 -0.0059 -0.8015
  230MPD1    C2 3490   0.831   4.612  15.603 -1.0087 -0.1145 -0.2074
  230MPD1    C3 3491   0.727   4.684  15.548  0.3583  0.2710  0.7660
  230MPD1    C4 3492   0.621   0.000  15.634 -0.5750  0.2722 -0.4635
  230MPD1    C5 3493   0.619   4.674  15.761 -0.5860  0.3453 -0.3950
  230MPD1     H 3494   0.919   4.583  15.546 -0.8012 -0.4558  0.2894
  230MPD1    H1 3495   0.541   0.067  15.607 -0.8485 -0.0001 -0.3258
  230MPD1    H2 3496   0.717   4.573  15.920  0.2957 -2.8830 -0.4339
  230MPD1    H3 3497   0.545   4.708  15.833  1.5461 -1.1360  2.4733
  230MPD1     N 3498   0.724   4.711  15.411 -0.6735  0.0276 -0.7275
  230MPD1    H5 3499   0.799   4.669  15.358  0.2228  2.3794 -1.3278
  230MPD1    N1 3500   0.936   4.488  15.776  0.3893 -0.4555 -0.1828
  230MPD1    H6 3501   1.028   4.506  15.738  0.1922 -0.6769 -0.7618
  230MPD1    H7 3502   0.939   4.469  15.876 -0.2219 -2.0317 -0.4632
  231MPD1     C 3503   3.673   1.892  15.800 -0.3655  0.4278  0.2557
  231MPD1    C1 3504   3.582   1.853  15.700  0.1971 -0.1049  0.1593
  231MPD1    C2 3505   3.600   1.908  15.576  0.5664 -0.5956 -0.1384
  231MPD1    C3 3506   3.689   2.014  15.558 -0.0289 -0.8224  0.0113
  231MPD1    C4 3507   3.767   2.065  15.659 -0.0075 -0.5461  0.3313
  231MPD1    C5 3508   3.760   2.000  15.782 -0.2699  0.0652 -0.9085
  231MPD1     H 3509   3.537   1.874  15.495 -1.7485  0.1670  1.3360
  231MPD1    H1 3510   3.835   2.146  15.636 -0.6260 -0.4569 -1.1754
  231MPD1    H2 3511   3.676   1.845  15.898 -0.1955  0.7087  0.3870
  231MPD1    H3 3512   3.818   2.033  15.868 -1.6081  0.8587 -0.3053
  231MPD1     N 3513   3.705   2.060  15.428  0.1897  0.5094  0.6038
  231MPD1    H5 3514   3.672   1.993  15.359 -2.5950  1.1272  1.3386
  231MPD1    N1 3515   3.498   1.739  15.722  0.3506 -0.3656  0.2877
  231MPD1    H6 3516   3.411   1.735  15.669  0.7987  0.3144 -0.4944
  231MPD1    H7 3517   3.481   1.716  15.820 -0.8623  3.6369  1.0448
  232MPD1     C 3518   0.961   3.307  17.658 -0.6262  0.1483 -0.6079
  232MPD1    C1 3519   0.926   3.247   0.083 -0.3417  0.5472 -0.2437
  232MPD1    C2 3520   0.829   3.290   0.167  0.0016 -0.5724  0.3468
  232MPD1    C3 3521   0.764   3.403   0.139 -0.1224 -1.0115 -0.6035
  232MPD1    C4 3522   0.799   3.472   0.019  0.5515  0.0421  0.2028
  232MPD1    C5 3523   0.889   3.421  17.623 -0.1993 -0.4092  0.1708
  232MPD1     H 3524   0.813   3.245   0.265 -0.8472 -1.7210 -0.3115
  232MPD1    H1 3525   0.747   3.564  17.688  0.5824  0.4708  1.6053
  232MPD1    H2 3526   1.044   3.266  17.602 -0.4775 -1.0834  0.5287
  232MPD1    H3 3527   0.903   3.473  17.529  2.0757  0.4134  0.9578
  232MPD1     N 3528   0.651   3.436   0.220 -0.2947 -0.1569 -0.1811
  232MPD1    H5 3529   0.622   3.370   0.292  0.3443 -1.4097 -1.0715
  232MPD1    N1 3530   1.001   3.131   0.114 -0.2428 -0.1895  0.0019
  232MPD1    H6 3531   1.102   3.137   0.103 -0.4293  1.1971 -0.9582
  232MPD1    H7 3532   0.978   3.105   0.210 -3.6448  0.9967 -0.4638
  233MPD1     C 3533   0.993   2.738   1.143  0.2880  0.2780  0.0967
  233MPD1    C1 3534   0.915   2.630   1.110 -0.1071  0.2752  0.5640
  233MPD1    C2 3535   0.951   2.501   1.154  0.3826 -0.2567 -0.9621
  233MPD1    C3 3536   1.064   2.475   1.230  1.0121  0.3062  0.2259
  233MPD1    C4 3537   1.138   2.591   1.258  0.5500 -0.1135 -0.0160
  233MPD1    C5 3538   1.102   2.713   1.219  0.2493  0.2743 -0.1669
  233MPD1     H 3539   0.877   2.422   1.143  1.1669 -1.2523  1.1197
  233MPD1    H1 3540   1.239   2.585   1.295 -0.2253  0.4588  2.1929
  233MPD1    H2 3541   0.982   2.835   1.097 -0.8878  0.8149  1.5180
  233MPD1    H3 3542   1.172   2.793   1.233 -1.3107  1.6167 -0.0358
  233MPD1     N 3543   1.118   2.348   1.267 -0.5407 -0.7890 -0.6233
  233MPD1    H5 3544   1.202   2.346   1.324  0.2493  0.5985 -1.7542
  233MPD1    N1 3545   0.792   2.665   1.054 -0.5177  0.0734  0.3201
  233MPD1    H6 3546   0.792   2.745   0.992 -0.8932  0.1546  0.4201
  233MPD1    H7 3547   0.724   2.593   1.029  0.4839 -1.3466  1.6709
  234MPD1     C 3548   3.329   0.467  10.785 -0.8989  0.2862 -0.1406
  234MPD1    C1 3549   3.286   0.593  10.818 -0.1641 -0.4357 -0.0076
  234MPD1    C2 3550   3.237   0.681  10.729  0.0204  0.2668 -0.6514
  234MPD1    C3 3551   3.228   0.644  10.598  0.3282  0.2451  0.2583
  234MPD1    C4 3552   3.271   0.512  10.565 -0.4940  0.0027  0.1379
  234MPD1    C5 3553   3.325   0.427  10.658 -0.1543  0.2096 -0.2094
  234MPD1     H 3554   3.209   0.783  10.754 -0.3484  0.2927 -1.1707
  234MPD1    H1 3555   3.265   0.475  10.463  0.8713  1.4184 -0.4557
  234MPD1    H2 3556   3.371   0.402  10.860 -1.1830  1.2751  0.8729
  234MPD1    H3 3557   3.358   0.332  10.619 -0.9375 -0.4165  0.6640
  234MPD1     N 3558   3.188   0.744  10.508  0.0400 -0.2141 -0.1412
  234MPD1    H5 3559   3.168   0.833  10.551  1.0642  0.7925 -1.7592
  234MPD1    N1 3560   3.314   0.632  10.952 -0.1334  0.4077  0.5436
  234MPD1    H6 3561   3.249   0.709  10.967 -0.7100  0.1883 -0.8151
  234MPD1    H7 3562   3.303   0.557  11.020  1.6559 -0.3166  0.0248
  235MPD1     C 3563   3.923   4.349   8.845 -0.2284  0.0083  0.1405
  235MPD1    C1 3564   3.857   4.229   8.859  0.7308  0.0343  0.2699
  235MPD1    C2 3565   3.920   4.127   8.917  0.2738 -0.0101  0.1348
  235MPD1    C3 3566   4.054   4.141   8.964 -1.2481 -0.4299  0.0138
  235MPD1    C4 3567   4.118   4.266   8.942 -0.9358  0.0811 -0.0000
  235MPD1    C5 3568   4.049   4.373   8.896 -0.6845 -0.0578  0.3157
  235MPD1     H 3569   3.875   4.028   8.919  0.0942  0.0003 -3.2070
  235MPD1    H1 3570   4.221   4.287   8.966 -0.9987 -1.0040  1.2345
  235MPD1    H2 3571   3.887   4.425   8.776 -0.5301 -0.3884 -0.1440
  235MPD1    H3 3572   4.105   4.463   8.871 -0.9949  0.0187 -0.0879
  235MPD1     N 3573   4.117   4.027   9.018 -0.4254 -0.2258  0.4862
  235MPD1    H5 3574   4.071   3.936   9.009  1.3048 -1.1088  0.5789
  235MPD1    N1 3575   3.738   4.209   8.792 -0.3926  0.2398  0.3990
  235MPD1    H6 3576   3.676   4.289   8.781  1.1110  1.2690 -0.5638
  235MPD1    H7 3577   3.674   4.139   8.829 -3.3072  2.7757  0.1471
  236MPD1     C 3578   4.065   4.159  10.086 -0.6611 -0.4628 -0.4685
  236MPD1    C1 3579   4.035   4.028  10.110 -0.7273  0.2892 -0.2410
  236MPD1    C2 3580   4.131   3.957  10.185 -0.8394  0.2831  0.1933
  236MPD1    C3 3581   4.252   4.015  10.218  0.2319 -0.6098 -0.5166
  236MPD1    C4 3582   4.273   4.144  10.190 -0.3986 -0.3133  0.3675
  236MPD1    C5 3583   4.181   4.219  10.118 -0.3498  0.2156  0.6300
  236MPD1     H 3584   4.110   3.851  10.192 -0.6306  0.1132 -1.6142
  236MPD1    H1 3585   4.365   4.193  10.219  0.9277 -2.8393  0.4244
  236MPD1    H2 3586   3.994   4.229  10.044 -0.7128 -0.5210 -0.4782
  236MPD1    H3 3587   4.185   4.327  10.103 -0.0507  0.1631  0.3400
  236MPD1     N 3588   4.351   3.953  10.286  0.4759 -0.0652 -0.0465
  236MPD1    H5 3589   4.432   4.006  10.316 -1.2432  1.7972  1.2527
  236MPD1    N1 3590   3.901   3.980  10.096  0.4294 -0.4746 -0.2278
  236MPD1    H6 3591   3.872   4.005  10.002 -0.0320  1.8277  0.5270
  236MPD1    H7 3592   3.893   3.880  10.113  1.3464 -0.1379  2.1936
  237MPD1     C 3593   3.810   2.897  15.437 -0.4844 -0.3837  0.4769
  237MPD1    C1 3594   3.738   2.929  15.547  0.7740 -1.3948  0.3195
  237MPD1    C2 3595   3.596   2.934  15.539  0.1165 -0.3310  0.1977
  237MPD1    C3 3596   3.528   2.892  15.424 -0.0878 -0.3217  0.1798
  237MPD1    C4 3597   3.603   2.861  15.315  0.0441 -0.1617  0.1389
  237MPD1    C5 3598   3.743   2.866  15.323 -0.1957  0.1544 -0.2654
  237MPD1     H 3599   3.538   2.969  15.624  0.7906  0.8891  0.1588
  237MPD1    H1 3600   3.552   2.827  15.226  0.3965 -0.9076  0.2198
  237MPD1    H2 3601   3.919   2.900  15.437 -0.4825 -0.6203 -1.8871
  237MPD1    H3 3602   3.804   2.837  15.238 -1.7798  0.0189 -1.3581
  237MPD1     N 3603   3.389   2.882  15.415  0.0712  0.2773 -0.0179
  237MPD1    H5 3604   3.361   2.859  15.320  1.1388  0.4756 -0.3878
  237MPD1    N1 3605   3.803   2.992  15.656  0.5608 -0.4177 -0.1138
  237MPD1    H6 3606   3.897   2.953  15.655  0.4951 -0.6486  2.0032
  237MPD1    H7 3607   3.753   2.991  15.745 -0.2379 -4.5156 -0.6258
  238MPD1     C 3608   0.444   2.214  15.547 -0.3417  0.1054  0.1468
  238MPD1    C1 3609   0.529   2.167  15.451  0.1805 -0.7295 -0.1827
  238MPD1    C2 3610   0.482   2.121  15.335  0.2433 -0.1838 -0.2688
  238MPD1    C3 3611   0.352   2.117  15.308  0.3706  0.6549  0.3893
  238MPD1    C4 3612   0.266   2.167  15.397 -0.1202 -0.2079 -0.2582
  238MPD1    C5 3613   0.305   2.217  15.516  0.1774 -0.6615  0.4472
  238MPD1     H 3614   0.546   2.064  15.268 -1.2387 -0.7732 -1.1821
  238MPD1    H1 3615   0.159   2.164  15.381  0.1824 -1.8579 -1.9973
  238MPD1    H2 3616   0.475   2.241  15.647  2.5221 -1.7464 -0.2393
  238MPD1    H3 3617   0.236   2.248  15.594 -1.7592 -0.5910 -1.2990
  238MPD1     N 3618   0.302   2.043  15.204 -0.2267  0.6048  0.1124
  238MPD1    H5 3619   0.202   2.026  15.210  0.1901 -1.2808  1.5330
  238MPD1    N1 3620   0.661   2.149  15.492 -0.5998 -0.3393  0.2649
  238MPD1    H6 3621   0.682   2.194  15.581 -1.1544  0.7710 -0.1721
  238MPD1    H7 3622   0.725   2.165  15.415 -0.5913 -0.3808  0.2632
  239MPD1     C 3623   0.238   2.527  15.266 -0.2812  0.1870  0.2476
  239MPD1    C1 3624   0.160   2.641  15.241 -0.0328  0.5156  0.0183
  239MPD1    C2 3625   0.196   2.728  15.137  1.0637  0.7659  0.0530
  239MPD1    C3 3626   0.308   2.703  15.061  0.6591  0.3827 -0.3715
  239MPD1    C4 3627   0.387   2.595  15.095 -0.9325  0.2407 -1.0928
  239MPD1    C5 3628   0.349   2.505  15.192 -0.1634 -1.3160  0.0857
  239MPD1     H 3629   0.133   2.816  15.123  0.6975  0.6848  1.1509
  239MPD1    H1 3630   0.476   2.580  15.035 -1.8242 -0.5551 -2.1987
  239MPD1    H2 3631   0.203   2.463  15.347  0.2958 -0.1379  0.2404
  239MPD1    H3 3632   0.422   2.426  15.207 -0.4373 -1.8929 -1.6306
  239MPD1     N 3633   0.352   2.780  14.949  0.1673 -0.1885 -0.0204
  239MPD1    H5 3634   0.436   2.753  14.900  0.1160  1.3070 -0.9424
  239MPD1    N1 3635   0.037   2.657  15.304 -0.0261 -0.4043 -0.4027
  239MPD1    H6 3636   0.009   2.754  15.315 -2.1664 -1.2425  1.4831
  239MPD1    H7 3637   0.011   2.603  15.386 -2.3117  1.1238 -0.1108
  240MPD1     C 3638   0.011   2.436  13.699 -0.9800  0.2686  0.8389
  240MPD1    C1 3639   4.625   2.372  13.750 -0.8227  0.0878  0.2520
  240MPD1    C2 3640   4.613   2.356  13.887 -0.5248 -0.1322  0.0684
  240MPD1    C3 3641   4.717   2.397  13.970 -0.1392  0.1622  0.5898
  240MPD1    C4 3642   0.101   2.465  13.914 -0.1685 -0.4503  0.1371
  240MPD1    C5 3643   0.105   2.479  13.779 -0.2628  0.5268 -0.3738
  240MPD1     H 3644   4.527   2.297  13.915 -0.4739  0.1339  0.7902
  240MPD1    H1 3645   0.191   2.493  13.968 -0.5871  1.1294  0.0060
  240MPD1    H2 3646   0.023   2.461  13.594 -2.1258 -2.6891 -0.0050
  240MPD1    H3 3647   0.181   2.540  13.730  2.1044 -2.2955 -0.2413
  240MPD1     N 3648   4.707   2.369  14.105  0.2284 -0.1743 -0.1340
  240MPD1    H5 3649   4.620   2.329  14.140  0.7351  1.1291  2.6412
  240MPD1    N1 3650   4.531   2.321  13.659 -0.1041 -0.2838  0.9047
  240MPD1    H6 3651   4.532   2.353  13.563  1.0037  1.3314  1.4316
  240MPD1    H7 3652   4.436   2.323  13.695 -0.7828 -0.9911 -0.8850
  241MPD1     C 3653   0.714   2.277  14.794 -1.2142 -0.9311  0.3738
  241MPD1    C1 3654   0.604   2.261  14.863 -0.3223  0.1926 -0.3015
  241MPD1    C2 3655   0.479   2.276  14.794  0.0614 -0.3313  0.5012
  241MPD1    C3 3656   0.470   2.297  14.660 -0.0802 -0.5755 -0.1818
  241MPD1    C4 3657   0.593   2.304  14.593 -0.4094  0.6037 -0.0269
  241MPD1    C5 3658   0.710   2.300  14.658 -0.6634 -0.0875  0.0970
  241MPD1     H 3659   0.394   2.267  14.862 -0.1077 -4.2057 -0.2587
  241MPD1    H1 3660   0.591   2.332  14.488 -2.1277  0.1816 -0.1135
  241MPD1    H2 3661   0.807   2.263  14.848 -0.8131 -0.3608 -0.1772
  241MPD1    H3 3662   0.806   2.307  14.610 -1.1614 -1.4359 -1.0850
  241MPD1     N 3663   0.345   2.305  14.593  0.6703  0.2020 -0.2148
  241MPD1    H5 3664   0.351   2.321  14.493 -0.1853 -0.0259 -0.2982
  241MPD1    N1 3665   0.609   2.259  15.000 -0.1993 -0.1363  0.5535
  241MPD1    H6 3666   0.693   2.211  15.032  0.1234 -0.3165 -0.5503
  241MPD1    H7 3667   0.533   2.213  15.051  0.1833 -0.9990  0.3548
  242MPD1     C 3668   4.455   1.350  15.858 -0.1940  0.5623 -0.1544
  242MPD1    C1 3669   4.448   1.408  15.736 -0.8388  0.3960 -0.3291
  242MPD1    C2 3670   4.494   1.331  15.629 -0.1320 -0.3787 -0.0895
  242MPD1    C3 3671   4.523   1.196  15.652  0.0154  0.0820  0.0649
  242MPD1    C4 3672   4.522   1.138  15.778 -0.0066  0.0332  0.5336
  242MPD1    C5 3673   4.492   1.218  15.881  0.1417 -0.6968 -0.0817
  242MPD1     H 3674   4.514   1.376  15.533 -1.1803  1.3592  0.5099
  242MPD1    H1 3675   4.561   1.039  15.803 -0.2224 -0.1950 -0.0398
  242MPD1    H2 3676   4.436   1.417  15.940 -0.3997  0.0068  0.2473
  242MPD1    H3 3677   4.492   1.175  15.981 -1.7916  0.0813  0.2514
  242MPD1     N 3678   4.560   1.108  15.548 -0.7204  0.0178  0.6009
  242MPD1    H5 3679   4.584   1.013  15.574 -0.7660 -0.3058 -0.5241
  242MPD1    N1 3680   4.441   1.549  15.725  0.1394  0.4364 -0.0778
  242MPD1    H6 3681   4.374   1.583  15.794 -0.1619  1.2906 -0.7789
  242MPD1    H7 3682   4.420   1.593  15.636  0.8899  0.5032 -0.2264
  243MPD1     C 3683   0.939   2.746  17.607 -0.5595  0.6854  0.2535
  243MPD1    C1 3684   0.982   2.706  17.480 -0.6939 -0.3334  0.0229
  243MPD1    C2 3685   1.116   2.696  17.453 -0.4428  0.2871 -0.2655
  243MPD1    C3 3686   1.208   2.710  17.558 -0.4296 -0.0992  0.2296
  243MPD1    C4 3687   1.168   2.754  17.686 -0.0064  0.1518  0.0682
  243MPD1    C5 3688   1.032   2.764   0.013  0.1048  0.2984 -0.5011
  243MPD1     H 3689   1.148   2.666  17.354 -1.0307  0.9768 -0.6664
  243MPD1    H1 3690   1.246   2.772   0.063 -1.4323  2.2631  1.0702
  243MPD1    H2 3691   0.836   2.775  17.624 -0.5616 -0.1054  1.5697
  243MPD1    H3 3692   1.000   2.793   0.112  0.9688  1.5124 -0.5680
  243MPD1     N 3693   1.344   2.690  17.516  0.4268  0.2126  0.5386
  243MPD1    H5 3694   1.358   2.660  17.421 -0.8762  0.7664  0.1694
  243MPD1    N1 3695   0.887   2.702  17.373  0.4113  1.0687 -0.3904
  243MPD1    H6 3696   0.796   2.662  17.394  0.0970  2.0239  0.0828
  243MPD1    H7 3697   0.917   2.655  17.288  0.6845  2.2083 -0.9356
  244MPD1     C 3698   2.077   2.301   0.351 -0.0673  1.1619  0.0543
  244MPD1    C1 3699   1.987   2.402   0.387  0.1502  0.2439  0.7711
  244MPD1    C2 3700   1.925   2.465   0.281  0.2819 -0.3298 -0.9373
  244MPD1    C3 3701   1.935   2.414   0.156  0.1732  0.5582  0.1411
  244MPD1    C4 3702   2.024   2.311   0.127 -0.4905  0.1733  0.3871
  244MPD1    C5 3703   2.097   2.261   0.227 -0.2670 -0.0371 -0.3057
  244MPD1     H 3704   1.861   2.551   0.300  0.2816 -0.4963 -0.1531
  244MPD1    H1 3705   2.055   2.282   0.028 -2.1932  0.1217 -0.1171
  244MPD1    H2 3706   2.154   2.268   0.421 -0.9084  1.2446  1.0205
  244MPD1    H3 3707   2.177   2.190   0.214  1.1322  1.9318 -2.2103
  244MPD1     N 3708   1.862   2.484   0.062  0.3790  0.1124 -0.7422
  244MPD1    H5 3709   1.804   2.563   0.088 -0.6455 -0.9674  0.2440
  244MPD1    N1 3710   1.975   2.448   0.524 -0.7273  0.0603  0.1103
  244MPD1    H6 3711   1.897   2.514   0.532 -0.0855  1.2060 -2.7604
  244MPD1    H7 3712   1.940   2.380   0.591  1.3438 -0.6162  0.4955
  245MPD1     C 3713   3.294   3.812  14.151 -0.1688 -0.3726  0.0129
  245MPD1    C1 3714   3.242   3.887  14.042 -0.0554  0.2533  0.3024
  245MPD1    C2 3715   3.287   4.012  14.017 -0.3434 -0.2100  0.4528
  245MPD1    C3 3716   3.398   4.062  14.082  0.3375  0.3182  1.1271
  245MPD1    C4 3717   3.440   3.991  14.187 -0.5929 -0.4029  0.1460
  245MPD1    C5 3718   3.391   3.870  14.224  0.0518  0.3546 -0.4499
  245MPD1     H 3719   3.237   4.059  13.933 -0.1356 -0.2573  0.3003
  245MPD1    H1 3720   3.532   4.021  14.235  1.4977 -2.3836 -2.6123
  245MPD1    H2 3721   3.247   3.719  14.179 -0.1219 -0.7910 -1.2965
  245MPD1    H3 3722   3.437   3.815  14.306 -1.0696  1.9854  1.2657
  245MPD1     N 3723   3.453   4.188  14.056  0.4129 -0.1444  0.3704
  245MPD1    H5 3724   3.538   4.212  14.106  1.3011  0.1163 -1.2623
  245MPD1    N1 3725   3.127   3.836  13.986  1.0167  0.1172  0.3384
  245MPD1    H6 3726   3.107   3.874  13.893  2.6674 -1.0168 -0.5023
  245MPD1    H7 3727   3.126   3.734  13.982  0.1702  0.1925 -1.5466
  246MPD1     C 3728   4.098   2.719   9.124 -0.7269 -0.2532 -0.0422
  246MPD1    C1 3729   3.987   2.719   9.044 -0.2548  0.1365 -0.0411
  246MPD1    C2 3730   3.917   2.841   9.037 -0.9351 -0.1260 -0.1331
  246MPD1    C3 3731   3.932   2.948   9.118  1.1221 -0.3858 -0.4729
  246MPD1    C4 3732   4.036   2.941   9.210 -0.2123  0.8658 -0.1002
  246MPD1    C5 3733   4.119   2.828   9.202 -0.4724 -0.1764  0.5844
  246MPD1     H 3734   3.841   2.847   8.960  0.7929  0.1662 -1.8082
  246MPD1    H1 3735   4.072   3.020   9.275  4.5609 -1.7282  0.3614
  246MPD1    H2 3736   4.178   2.646   9.120  1.4597  2.1272  0.3655
  246MPD1    H3 3737   4.216   2.822   9.251  0.5464 -0.0218 -1.4241
  246MPD1     N 3738   3.855   3.067   9.092 -0.3787 -0.0745 -0.0263
  246MPD1    H5 3739   3.790   3.082   9.016  0.0747 -1.4494 -0.6916
  246MPD1    N1 3740   3.958   2.623   8.948  0.0895  0.2418  0.3513
  246MPD1    H6 3741   3.953   2.527   8.980  1.2392 -0.3901 -1.3414
  246MPD1    H7 3742   3.862   2.637   8.915  0.6705 -1.3498 -1.9634
  247MPD1     C 3743   3.043   4.699  17.036 -0.3063 -0.1111  0.2169
  247MPD1    C1 3744   3.108   4.588  17.081 -0.7102 -0.4540 -0.3511
  247MPD1    C2 3745   3.132   4.487  16.988  0.2207 -0.3885  0.2089
  247MPD1    C3 3746   3.104   4.509  16.853 -0.4023 -0.3516 -0.0207
  247MPD1    C4 3747   3.061   4.631  16.809  0.7276 -0.1429 -0.2866
  247MPD1    C5 3748   3.028   4.719  16.906  0.6507  0.5184 -0.0935
  247MPD1     H 3749   3.175   4.394  17.023  0.4920  0.0433  1.0160
  247MPD1    H1 3750   3.047   4.660  16.705  2.0765  0.7573 -0.2222
  247MPD1    H2 3751   3.025   0.060  17.102  2.3393  0.8446 -0.2986
  247MPD1    H3 3752   2.979   0.089  16.881 -1.4601 -0.4719  0.3325
  247MPD1     N 3753   3.124   4.414  16.752  0.4313  0.0152  0.5696
  247MPD1    H5 3754   3.111   4.446  16.657  0.4043 -0.8521  0.2815
  247MPD1    N1 3755   3.113   4.559  17.214 -0.0527 -0.3111  0.1721
  247MPD1    H6 3756   3.194   4.504  17.240 -0.4976 -0.9909  0.1278
  247MPD1    H7 3757   3.114   4.642  17.272 -3.4676  0.1845 -0.4685
  248MPD1     C 3758   4.290   3.829   1.825  0.1476  0.1387  0.1500
  248MPD1    C1 3759   4.391   3.794   1.737 -0.1167 -0.0752  0.1391
  248MPD1    C2 3760   4.360   3.745   1.618  0.4083  0.6458 -0.1390
  248MPD1    C3 3761   4.227   3.735   1.575  0.3218  0.5474 -0.2137
  248MPD1    C4 3762   4.129   3.794   1.655  0.2623  0.5130 -0.2441
  248MPD1    C5 3763   4.160   3.842   1.781 -0.2078  0.4458  0.1548
  248MPD1     H 3764   4.435   3.706   1.551  0.6974 -2.0583  1.7547
  248MPD1    H1 3765   4.022   3.802   1.641  0.0227 -0.7571  0.8386
  248MPD1    H2 3766   4.301   3.850   1.931  1.8014  1.4198 -0.2748
  248MPD1    H3 3767   4.086   3.886   1.847  0.1543  1.2584  0.0192
  248MPD1     N 3768   4.206   3.689   1.448 -0.4453  0.3059 -0.1062
  248MPD1    H5 3769   4.291   3.680   1.393  0.6407 -0.1675  1.6643
  248MPD1    N1 3770   4.515   3.776   1.791  0.0564 -0.0509  0.3643
  248MPD1    H6 3771   4.519   3.847   1.864 -1.9744 -0.1690  0.5957
  248MPD1    H7 3772   4.587   3.792   1.722 -0.3695 -0.9637 -0.2959
  249MPD1     C 3773   0.937   2.019   9.350  0.0111 -0.0817  0.8268
  249MPD1    C1 3774   0.879   1.976   9.466 -0.0397  0.1031 -0.6997
  249MPD1    C2 3775   0.878   2.062   9.576 -0.7674 -0.0993 -0.0464
  249MPD1    C3 3776   0.948   2.178   9.588  0.5544 -0.0471  0.2354
  249MPD1    C4 3777   1.002   2.220   9.467 -0.8372  0.4662  0.1217
  249MPD1    C5 3778   1.004   2.138   9.353 -0.3700 -0.0633 -0.0093
  249MPD1     H 3779   0.814   2.032   9.658  1.7381 -2.2840  1.1285
  249MPD1    H1 3780   1.051   2.317   9.469 -0.0908  0.1406 -2.0189
  249MPD1    H2 3781   0.958   1.959   9.262  0.5668  2.8149 -1.0099
  249MPD1    H3 3782   1.062   2.167   9.266  0.1205  1.2275  0.7317
  249MPD1     N 3783   0.942   2.264   9.705 -0.0080 -0.2022  0.4746
  249MPD1    H5 3784   0.885   2.224   9.780 -2.0682  0.9932 -0.4464
  249MPD1    N1 3785   0.795   1.863   9.467 -0.1551  0.1318 -0.7526
  249MPD1    H6 3786   0.783   1.828   9.562 -1.9623 -1.5949 -1.6467
  249MPD1    H7 3787   0.821   1.791   9.400  0.8675 -0.7110  0.5452
  250MPD2     C 3788   2.223   3.022  12.968  0.1884  0.8623 -0.9798
  250MPD2    C1 3789   2.105   3.086  13.003 -0.0098  0.0614 -0.4502
  250MPD2    C2 3790   1.985   3.014  12.985  0.1942  0.4748  0.2395
  250MPD2    C3 3791   1.980   2.892  12.930  0.1461 -1.1143  0.1644
  250MPD2    C4 3792   2.098   2.833  12.881 -0.6260  0.7400  0.0893
  250MPD2    C5 3793   2.216   2.894  12.914  0.0663 -0.5213 -0.5963
  250MPD2     H 3794   1.896   3.064  13.021  0.8627 -0.4300  3.1866
  250MPD2    H1 3795   2.108   2.741  12.824 -1.6524 -0.2170  1.4842
  250MPD2    H2 3796   2.315   3.076  12.987  0.3118  0.3065  0.0055
  250MPD2    H3 3797   2.305   2.845  12.876  0.3187 -1.2566  0.9237
  250MPD2     N 3798   1.863   2.827  12.887  0.4275  0.1677 -0.2624
  250MPD2    H5 3799   1.872   2.760  12.812 -1.9688 -1.0202  0.5248
  250MPD2    N1 3800   2.109   3.220  13.035  0.5724 -0.2415  0.0537
  250MPD2    H7 3801   2.205   3.251  13.045  1.3001 -2.9987  1.5588
  251TMC3    C1 3802   2.066   3.448  13.097 -0.0915  0.7223 -0.0608
  251TMC3    C2 3803   1.973   3.540  13.144 -0.3142  0.1452  0.5963
  251TMC3    C3 3804   2.012   3.674  13.153  0.4038 -0.6186  0.4233
  251TMC3    C4 3805   2.183   3.488  13.045 -0.1829 -0.0521 -0.6260
  251TMC3    C5 3806   2.220   3.616  13.065 -0.3111 -0.0652 -0.3547
  251TMC3    C6 3807   2.141   3.711  13.123  0.0748 -0.0810 -0.2029
  251TMC3     C 3808   2.013   3.312  13.078 -0.0468  0.2666  0.0210
  251TMC3     O 3809   1.896   3.289  13.099  0.3222 -0.1207  0.5610
  251TMC3     H 3810   1.875   3.506  13.176 -1.6273  1.8475 -1.6473
  251TMC3    H1 3811   2.243   3.429  12.977  1.6962  1.6532 -0.4539
  251TMC3    H2 3812   2.174   3.811  13.148 -2.4327  0.7024 -0.0197
  251TMC3    C7 3813   2.357   3.632  13.051  0.2597 -0.9304  0.4754
  251TMC3    C8 3814   1.922   3.761  13.223 -0.4602  0.8578 -0.0066
  251TMC3    O1 3815   2.429   3.532  13.053 -0.7798  0.3173 -0.5033
  251TMC3    O2 3816   1.844   3.703  13.296 -0.1318  0.0310 -0.2105
  252TMC3    C1 3817   2.304   4.081   9.336  0.6394  0.3550 -0.1986
  252TMC3    C2 3818   2.373   4.037   9.453 -0.6238  0.2806  0.1814
  252TMC3    C3 3819   2.363   3.899   9.467 -0.1214  0.4932  0.5532
  252TMC3    C4 3820   2.219   4.007   9.262 -0.0731 -0.7159  0.3723
  252TMC3    C5 3821   2.221   3.871   9.278  0.8298 -0.1529  0.2403
  252TMC3    C6 3822   2.291   3.813   9.382 -0.2363  0.1598  0.1802
  252TMC3     C 3823   2.321   4.213   9.288  0.2602 -0.5421 -0.0450
  252TMC3     O 3824   2.246   4.249   9.197 -0.4566 -0.1982  0.4233
  252TMC3     H 3825   2.440   4.100   9.510 -0.2423  0.6309 -0.6564
  252TMC3    H1 3826   2.163   4.056   9.182  0.9188  1.8928  1.2652
  252TMC3    H2 3827   2.306   3.706   9.382  2.1959  0.5125  1.0497
  252TMC3    C7 3828   2.142   3.789   9.190  0.0096 -0.1241  0.2713
  252TMC3    C8 3829   2.465   3.830   9.549 -0.5559 -0.2471  0.3093
  252TMC3    O1 3830   2.102   3.837   9.085 -0.3143 -0.0035  0.1187
  252TMC3    O2 3831   2.502   3.719   9.516  0.0349  0.3317 -0.4188
  253MPD2     C 3832   3.093   2.972  15.862 -0.3407  0.3104  0.1599
  253MPD2    C1 3833   2.958   2.962  15.883 -0.0845 -1.0531 -0.0728
  253MPD2    C2 3834   2.912   2.925  16.005 -0.2912  0.7286  0.0946
  253MPD2    C3 3835   3.009   2.886  16.103 -0.3297 -0.1724 -0.3728
  253MPD2    C4 3836   3.147   2.901  16.080 -0.2409 -0.7043 -0.6014
  253MPD2    C5 3837   3.184   2.955  15.960 -0.5609 -0.9554  0.4486
  253MPD2     H 3838   2.805   2.907  16.015  0.0108 -0.1045  1.8734
  253MPD2    H1 3839   3.231   2.884  16.147 -0.1411  0.1412 -0.5071
  253MPD2    H2 3840   3.132   3.005  15.767  0.5253  0.6468  0.6308
  253MPD2    H3 3841   3.290   2.972  15.945 -0.5487  1.4547  3.2642
  253MPD2     N 3842   2.979   2.799  16.213  0.6112  0.0150 -0.8296
  253MPD2    H5 3843   3.049   2.762  16.277 -0.2563  0.7793  0.5696
  253MPD2    N1 3844   2.860   3.000  15.788  0.2965  0.6120 -0.1757
  253MPD2    H7 3845   2.764   2.980  15.815  0.5500 -0.4188 -0.0466
  254TMC3    C1 3846   2.858   2.628  16.337  0.8630 -0.0240 -0.0468
  254TMC3    C2 3847   2.741   2.603  16.403 -1.1005  0.0555  0.1022
  254TMC3    C3 3848   2.739   2.487  16.481  0.0074 -0.4022 -0.2587
  254TMC3    C4 3849   2.955   2.538  16.328 -0.4494  0.0367  0.5104
  254TMC3    C5 3850   2.949   2.424  16.403  0.1442  1.6542  0.4405
  254TMC3    C6 3851   2.838   2.392  16.478  0.0770  1.1194 -0.5355
  254TMC3     C 3852   2.855   2.743  16.242 -0.3883 -0.0513  0.1134
  254TMC3     O 3853   2.742   2.765  16.193  0.3397 -0.8462  0.1075
  254TMC3     H 3854   2.666   2.679  16.416  1.8345  2.9843  0.0533
  254TMC3    H1 3855   3.039   2.550  16.261 -0.4155 -1.5977  0.2606
  254TMC3    H2 3856   2.842   2.305  16.543  2.4000  0.7580 -1.1766
  254TMC3    C7 3857   3.078   2.360  16.440  0.5198 -0.2125  0.6452
  254TMC3    C8 3858   2.650   2.506  16.596  0.5732  0.5356  0.2557
  254TMC3    O1 3859   3.078   2.246  16.481  0.2438 -0.0709 -0.2814
  254TMC3    O2 3860   2.564   2.587  16.585 -0.0773  0.0003  0.1492
  255MPD2     C 3861   1.883   0.847  10.707 -0.4261 -0.4172 -0.4431
  255MPD2    C1 3862   1.828   0.783  10.597  0.1729 -0.8667  0.0654
  255MPD2    C2 3863   1.877   0.657  10.555  0.1082  0.6564  0.2543
  255MPD2    C3 3864   1.981   0.597  10.630 -0.0193 -0.7344 -0.7583
  255MPD2    C4 3865   2.017   0.650  10.749 -0.2299 -0.5710  0.5742
  255MPD2    C5 3866   1.977   0.783  10.784  0.1478  0.3375 -0.1631
  255MPD2     H 3867   1.843   0.600  10.470  1.1470  0.7904 -0.2454
  255MPD2    H1 3868   2.095   0.608  10.812  0.0653 -1.6695 -0.5186
  255MPD2    H2 3869   1.846   0.948  10.724 -0.1649 -0.3859 -0.0558
  255MPD2    H3 3870   2.023   0.828  10.871  0.4546 -1.1438  0.4481
  255MPD2     N 3871   2.024   0.477  10.577  0.3879  1.0878  0.3578
  255MPD2    H5 3872   1.978   0.455  10.490 -0.6641 -0.4276  1.3049
  255MPD2    N1 3873   1.726   0.851  10.524  0.0907  0.0725  0.2064
  255MPD2    H7 3874   1.719   0.949  10.549  1.6478  0.5149 -1.0582
  256TMC3    C1 3875   1.572   0.886  10.341  0.1077 -0.5282  1.0741
  256TMC3    C2 3876   1.601   1.019  10.360 -0.0486  0.3888 -0.7541
  256TMC3    C3 3877   1.536   1.099  10.271 -0.1991  0.3462 -0.0944
  256TMC3    C4 3878   1.485   0.834  10.245 -0.0172  0.0446  0.1269
  256TMC3    C5 3879   1.436   0.920  10.150 -0.4402  0.4197  0.1485
  256TMC3    C6 3880   1.449   1.058  10.168 -0.1760 -0.4147 -0.2960
  256TMC3     C 3881   1.636   0.794  10.434  0.0278 -0.0328 -0.2682
  256TMC3     O 3882   1.620   0.679  10.414 -0.2863 -0.0457 -0.2648
  256TMC3     H 3883   1.649   1.061  10.448  1.4428 -0.8780 -0.9688
  256TMC3    H1 3884   1.463   0.729  10.237  0.0629  0.0168  0.2748
  256TMC3    H2 3885   1.394   1.132  10.111 -2.4369 -0.2228  2.1629
  256TMC3    C7 3886   1.399   0.868  10.018 -0.0398 -0.0947  0.7414
  256TMC3    C8 3887   1.545   1.245  10.296  0.0140  0.6119 -0.4453
  256TMC3    O1 3888   1.428   0.751   9.994 -0.1923  0.2432 -0.2073
  256TMC3    O2 3889   1.577   1.272  10.411 -0.7135 -0.0537  0.3994
  257MPD2     C 3890   0.356   3.126  13.632  0.3086 -0.2095  0.1715
  257MPD2    C1 3891   0.477   3.094  13.584 -0.7455 -0.3533 -0.2195
  257MPD2    C2 3892   0.553   3.019  13.669 -0.1516  0.0151  0.1078
  257MPD2    C3 3893   0.513   2.972  13.790  0.5434  0.1908 -0.2515
  257MPD2    C4 3894   0.384   2.993  13.829 -0.3065 -0.2222 -0.0430
  257MPD2    C5 3895   0.312   3.081  13.755  0.3107  0.3338 -0.7000
  257MPD2     H 3896   0.649   2.990  13.628 -0.0893 -2.4102  1.9463
  257MPD2    H1 3897   0.348   2.952  13.923  1.9363  0.9624  1.3483
  257MPD2    H2 3898   0.304   3.198  13.569  1.1638 -1.0521 -1.5082
  257MPD2    H3 3899   0.215   3.114  13.791  0.5616  0.1394  0.1712
  257MPD2     N 3900   0.596   2.888  13.866  0.2095  0.2639 -0.0294
  257MPD2    H5 3901   0.690   2.873  13.831  0.1428  0.7161 -0.4043
  257MPD2    N1 3902   0.533   3.144  13.462 -0.4168 -0.0613 -0.2285
  257MPD2    H7 3903   0.469   3.178  13.392  0.6272  1.2337 -0.5610
  258TMC3    C1 3904   0.670   2.713  14.000 -0.0334 -0.0252  0.1109
  258TMC3    C2 3905   0.758   2.673  13.901  0.0480  0.1628  0.0645
  258TMC3    C3 3906   0.873   2.623  13.937  0.6192  0.2554  0.3267
  258TMC3    C4 3907   0.690   2.678  14.126 -0.7825  0.3132  0.1715
  258TMC3    C5 3908   0.807   2.606  14.155  0.3644  0.0475  0.1523
  258TMC3    C6 3909   0.911   2.595  14.063 -0.0935  0.3987 -0.9396
  258TMC3     C 3910   0.560   2.803  13.970 -0.3702 -0.4547 -0.3695
  258TMC3     O 3911   0.459   2.784  14.034 -0.2180  0.3108  0.5603
  258TMC3     H 3912   0.727   2.686  13.798 -0.5619  2.3939  0.5355
  258TMC3    H1 3913   0.618   2.691  14.206 -1.3193 -1.8872  0.0314
  258TMC3    H2 3914   1.000   2.534  14.074  0.3631  1.6152  2.2512
  258TMC3    C7 3915   0.825   2.573  14.287  0.5773  0.1795 -0.1366
  258TMC3    C8 3916   0.970   2.613  13.828  0.1263  0.3705 -0.2877
  258TMC3    O1 3917   0.732   2.536  14.358 -0.1541  0.3087  0.4004
  258TMC3    O2 3918   0.911   2.599  13.721  0.3739 -0.0124  0.0325
  259MPD2     C 3919   4.507   4.384   1.887  0.3911 -0.1841 -0.1041
  259MPD2    C1 3920   4.526   4.241   1.900  0.4070  0.8019 -0.1255
  259MPD2    C2 3921   4.564   4.167   1.791 -0.4631 -0.0929 -0.2449
  259MPD2    C3 3922   4.590   4.235   1.672 -0.3207 -0.3501  0.3379
  259MPD2    C4 3923   4.572   4.371   1.660  0.5207 -0.5608 -0.1299
  259MPD2    C5 3924   4.532   4.443   1.770  0.2810 -0.8012 -0.0242
  259MPD2     H 3925   4.580   4.059   1.788  0.1224 -0.0372  0.7848
  259MPD2    H1 3926   4.572   4.420   1.563 -0.5113  0.6624  0.4867
  259MPD2    H2 3927   4.481   4.443   1.974  1.6740 -0.0805  0.1980
  259MPD2    H3 3928   4.524   4.551   1.764 -2.5238 -0.9653  0.5750
  259MPD2     N 3929   4.630   4.153   1.560 -0.2836  0.6495 -0.2873
  259MPD2    H5 3930   4.654   4.056   1.578  0.7390  0.5338 -2.2971
  259MPD2    N1 3931   4.494   4.187   2.029 -0.1071  0.7701 -0.1303
  259MPD2    H7 3932   4.464   4.256   2.098  3.9107  0.1106  2.2091
  260TMC3    C1 3933   4.699   4.098   1.342 -0.1240  0.6012 -0.2530
  260TMC3    C2 3934   0.086   4.119   1.265 -0.1091  0.1340 -0.4689
  260TMC3    C3 3935   0.100   4.070   1.136 -0.2622 -0.0313 -0.4515
  260TMC3    C4 3936   4.589   4.032   1.297 -0.8560  0.1137  0.0028
  260TMC3    C5 3937   4.605   3.973   1.171 -1.0642 -0.2914 -0.5761
  260TMC3    C6 3938   4.714   3.996   1.086  0.0095  0.1295  0.0199
  260TMC3     C 3939   4.662   4.201   1.433 -0.5369  0.3777 -0.5548
  260TMC3     O 3940   4.665   4.316   1.393  0.1832 -0.4113 -0.1509
  260TMC3     H 3941   0.174   4.165   1.310  0.0370 -0.9168  0.3018
  260TMC3    H1 3942   4.497   4.017   1.352  0.3132  0.6838  2.1247
  260TMC3    H2 3943   4.696   3.979   0.981 -2.9841 -1.1843  0.7645
  260TMC3    C7 3944   4.493   3.902   1.096  0.2566  0.1746 -0.1536
  260TMC3    C8 3945   0.199   4.121   1.045  0.3075 -0.4480  0.0124
  260TMC3    O1 3946   4.516   3.839   0.997  0.0634  0.2992  0.2779
  260TMC3    O2 3947   0.262   4.223   1.075  0.6323 -0.9620 -0.0861
  261MPD2     C 3948   1.046   3.028  12.759 -0.0069 -0.2419  0.1471
  261MPD2    C1 3949   1.173   3.071  12.759  0.5736 -0.2954 -0.8345
  261MPD2    C2 3950   1.204   3.200  12.748 -0.0587 -0.5065  0.0896
  261MPD2    C3 3951   1.110   3.295  12.738 -0.2177 -0.1530  0.4901
  261MPD2    C4 3952   0.981   3.255  12.741 -0.9221 -0.4351  0.6727
  261MPD2    C5 3953   0.955   3.122  12.764  0.1784  0.5792 -0.1623
  261MPD2     H 3954   1.311   3.217  12.747 -0.0700 -0.8902 -4.1584
  261MPD2    H1 3955   0.901   3.328  12.745 -1.1941 -0.7186  0.4581
  261MPD2    H2 3956   1.020   2.924  12.746  0.9957 -0.6499  1.4026
  261MPD2    H3 3957   0.853   3.084  12.762  0.3793  0.0807 -1.0779
  261MPD2     N 3958   1.143   3.428  12.708 -0.5368  0.2301  0.0175
  261MPD2    H5 3959   1.240   3.456  12.709 -0.4237 -0.1528 -0.8852
  261MPD2    N1 3960   1.278   2.982  12.777  0.2236  0.1866  0.0138
  261MPD2    H7 3961   1.367   3.030  12.785  1.3378 -1.6631 -1.4413
  262TMC3    C1 3962   1.134   3.654  12.670  0.7398 -0.0473  0.6329
  262TMC3    C2 3963   1.056   3.759  12.646  0.4923 -0.2715  0.0720
  262TMC3    C3 3964   1.114   3.883  12.652  0.3004  0.5178 -0.3876
  262TMC3    C4 3965   1.269   3.664  12.693 -0.3111  0.4296 -0.5672
  262TMC3    C5 3966   1.324   3.793  12.707 -0.4577  0.3165  0.7326
  262TMC3    C6 3967   1.242   3.902  12.688 -1.0461 -1.1472 -0.4017
  262TMC3     C 3968   1.060   3.532  12.683 -0.6621 -0.4923  0.0881
  262TMC3     O 3969   0.940   3.541  12.676  0.4966 -0.4064  0.6484
  262TMC3     H 3970   0.948   3.754  12.644  0.3373  2.4014  2.0167
  262TMC3    H1 3971   1.334   3.579  12.709 -0.1810  0.5860 -0.2494
  262TMC3    H2 3972   1.284   4.002  12.679 -3.5517 -0.0201  0.4496
  262TMC3    C7 3973   1.464   3.809  12.669  0.5027  0.7893  0.2190
  262TMC3    C8 3974   1.071   3.998  12.567  0.2462  0.1023 -0.1385
  262TMC3    O1 3975   1.536   3.713  12.689  0.0784  0.7426 -0.4961
  262TMC3    O2 3976   1.159   4.066  12.519  1.1001 -0.1683  0.8854
  263MPD2     C 3977   1.913   2.448  11.406 -0.1909 -0.0480  0.7457
  263MPD2    C1 3978   2.039   2.503  11.410  0.7219 -0.2795  0.3570
  263MPD2    C2 3979   2.053   2.616  11.343  0.2686  0.3967 -0.7534
  263MPD2    C3 3980   1.950   2.677  11.268 -0.0171  0.1438 -0.2996
  263MPD2    C4 3981   1.831   2.609  11.255 -0.6199 -0.2474  0.2101
  263MPD2    C5 3982   1.812   2.498  11.325  0.3588  0.1057  0.0685
  263MPD2     H 3983   2.137   2.683  11.354  0.8676 -0.0112 -2.8553
  263MPD2    H1 3984   1.755   2.645  11.187 -1.4437 -1.4318  0.5088
  263MPD2    H2 3985   1.897   2.358  11.465  1.6699  0.6991  2.3807
  263MPD2    H3 3986   1.717   2.446  11.315  0.6728 -0.4641  0.0333
  263MPD2     N 3987   1.970   2.807  11.206 -0.3983 -0.0654 -0.1315
  263MPD2    H5 3988   2.050   2.857  11.242  0.2849 -0.9874 -0.3537
  263MPD2    N1 3989   2.147   2.466  11.495  0.8922  0.5905  0.3210
  263MPD2    H7 3990   2.127   2.393  11.563  0.1691 -0.0912 -0.6212
  264TMC3    C1 3991   1.975   2.966  11.038 -0.3961 -0.4315  0.6695
  264TMC3    C2 3992   2.013   3.061  11.132  0.0677  0.2908  0.3439
  264TMC3    C3 3993   2.074   3.172  11.076 -0.7692 -0.6593 -0.0183
  264TMC3    C4 3994   2.001   2.980  10.897  0.0178 -0.5402 -0.1640
  264TMC3    C5 3995   2.063   3.093  10.854 -0.1961 -0.4253 -0.2477
  264TMC3    C6 3996   2.100   3.185  10.942 -0.1616  0.0248  0.3689
  264TMC3     C 3997   1.911   2.849  11.092  0.0866 -0.0348  0.1747
  264TMC3     O 3998   1.852   2.776  11.017 -0.0030 -0.3059 -0.6010
  264TMC3     H 3999   2.007   3.052  11.239  0.0216 -1.6568  0.1811
  264TMC3    H1 4000   1.980   2.899  10.827  0.6548  0.6086 -1.6832
  264TMC3    H2 4001   2.150   3.277  10.915  0.7097 -1.4386 -3.0092
  264TMC3    C7 4002   2.155   3.069  10.749  0.2014  0.2337  0.4074
  264TMC3    C8 4003   2.201   3.207  11.135 -0.2462 -0.3280  0.2239
  264TMC3    O1 4004   2.113   3.012  10.652  0.3032 -0.2469 -0.2398
  264TMC3    O2 4005   2.296   3.189  11.065 -1.1177 -0.5369 -0.4658
  265MPD2     C 4006   4.085   2.919  15.793 -0.0735  0.6955 -0.2266
  265MPD2    C1 4007   4.148   3.035  15.746 -0.0471  0.1545  0.2327
  265MPD2    C2 4008   4.187   3.032  15.610 -0.8503  0.0774  0.1881
  265MPD2    C3 4009   4.182   2.913  15.534  0.1764  0.5354 -0.7000
  265MPD2    C4 4010   4.142   2.796  15.594  0.2594  0.0127 -0.4997
  265MPD2    C5 4011   4.088   2.799  15.717 -0.4457  0.0198 -0.0980
  265MPD2     H 4012   4.229   3.122  15.568  1.9484 -1.3036  0.0648
  265MPD2    H1 4013   4.135   2.702  15.542  0.5602 -0.6480  0.6543
  265MPD2    H2 4014   4.053   2.907  15.896  0.9797  2.8733  0.3485
  265MPD2    H3 4015   4.062   2.700  15.753  1.6585 -0.4490  0.1613
  265MPD2     N 4016   4.212   2.904  15.393 -0.0311  0.0004  0.6200
  265MPD2    H5 4017   4.192   2.814  15.350 -1.1769  0.3988  0.3169
  265MPD2    N1 4018   4.169   3.156  15.815  0.1534  0.5372 -0.2076
  265MPD2    H7 4019   4.219   3.229  15.764  1.0905  0.6800  0.9292
  266TMC3    C1 4020   4.187   3.317  15.974 -0.6217  0.0119 -0.5398
  266TMC3    C2 4021   4.207   3.352  16.110  0.5576  0.0945 -0.4549
  266TMC3    C3 4022   4.217   3.483  16.142  0.0567  0.1105  0.0170
  266TMC3    C4 4023   4.171   3.409  15.880 -0.3190 -0.4053  0.0416
  266TMC3    C5 4024   4.207   3.539  15.912  0.0471  0.9792  0.2568
  266TMC3    C6 4025   4.222   3.576  16.038 -0.0514 -0.1687 -0.3630
  266TMC3     C 4026   4.150   3.182  15.948  0.0267  1.1280  0.8946
  266TMC3     O 4027   4.117   3.111  16.043 -0.2331 -0.1152  0.2039
  266TMC3     H 4028   4.189   3.276  16.185 -0.1382  1.2220  0.5083
  266TMC3    H1 4029   4.154   3.394  15.774  1.6532  2.8311 -0.7269
  266TMC3    H2 4030   4.240   3.680  16.062  0.3979 -0.3051 -0.1076
  266TMC3    C7 4031   4.180   3.651  15.825  0.6476  0.1031  0.0304
  266TMC3    C8 4032   4.305   3.506  16.253  1.3307  0.6497  0.2666
  266TMC3    O1 4033   4.093   3.633  15.738 -0.2543  0.1403  0.0010
  266TMC3    O2 4034   4.355   3.404  16.296  0.4641 -0.1332  0.6919
  267MPD2     C 4035   2.275   4.071   0.147 -0.1752 -0.0338  0.1844
  267MPD2    C1 4036   2.320   4.126   0.262  0.1204  0.4821 -0.2811
  267MPD2    C2 4037   2.267   4.088   0.381  0.0691 -0.3607  0.1223
  267MPD2    C3 4038   2.178   3.982   0.383  0.0115  0.4266 -0.0119
  267MPD2    C4 4039   2.143   3.920   0.269  0.0265  0.4424 -0.3384
  267MPD2    C5 4040   2.187   3.968   0.148  0.0385 -0.0620 -0.7330
  267MPD2     H 4041   2.301   4.150   0.463 -0.0046 -0.0815 -0.0585
  267MPD2    H1 4042   2.074   3.837   0.270 -0.3761  0.7573 -2.2892
  267MPD2    H2 4043   2.320   4.099   0.052  0.9176 -2.3772 -0.0005
  267MPD2    H3 4044   2.156   3.916   0.058 -0.3178 -0.6463 -0.2716
  267MPD2     N 4045   2.116   3.933   0.503  0.3591 -0.5123 -0.2215
  267MPD2    H5 4046   2.033   3.876   0.493  0.3311 -0.2594 -1.3687
  267MPD2    N1 4047   2.417   4.225   0.257 -0.0863 -0.1089  0.0335
  267MPD2    H7 4048   2.457   4.258   0.344  0.6489 -0.8935  0.0034
  268TMC3    C1 4049   2.572   4.387   0.174 -0.3366  0.1106  0.9065
  268TMC3    C2 4050   2.564   4.511   0.113  0.2283 -0.0387  0.4051
  268TMC3    C3 4051   2.621   4.622   0.176 -0.3526 -0.7672 -0.3245
  268TMC3    C4 4052   2.651   4.367   0.286  0.3421  0.2077  0.2177
  268TMC3    C5 4053   2.725   4.473   0.332 -0.0456  0.5918 -0.0552
  268TMC3    C6 4054   2.710   4.600   0.284  0.0555 -0.1843 -0.0005
  268TMC3     C 4055   2.460   4.294   0.144  0.4073 -0.7283  0.3486
  268TMC3     O 4056   2.412   4.292   0.029  0.2130 -0.2591  0.1707
  268TMC3     H 4057   2.491   4.526   0.034  3.2666  0.0551 -2.3748
  268TMC3    H1 4058   2.644   4.273   0.340 -3.4269 -0.3932 -1.3102
  268TMC3    H2 4059   2.762   4.689   0.317  0.0757 -0.1689 -0.0721
  268TMC3    C7 4060   2.788   4.446   0.462 -0.1364 -0.2413 -0.1983
  268TMC3    C8 4061   2.601   0.028   0.117  0.2844 -0.1646  0.1969
  268TMC3    O1 4062   2.800   4.328   0.491 -0.0731  0.9957 -0.1952
  268TMC3    O2 4063   2.620   0.129   0.190 -0.1295 -0.4368  0.1456
  269MPD2     C 4064   2.179   3.202  15.913 -0.3681  0.4148 -0.5309
  269MPD2    C1 4065   2.055   3.258  15.933 -0.1584  0.0551  0.8897
  269MPD2    C2 4066   2.035   3.385  15.886 -0.2379 -0.5793  0.1232
  269MPD2    C3 4067   2.140   3.456  15.824 -0.3766  0.5499  0.5027
  269MPD2    C4 4068   2.261   3.398  15.804 -0.7045 -0.0184  0.5333
  269MPD2    C5 4069   2.282   3.279  15.856  1.0531  0.0297  0.4570
  269MPD2     H 4070   1.942   3.440  15.897  0.0421 -0.4303  1.7403
  269MPD2    H1 4071   2.346   3.446  15.757 -0.8619 -0.5626 -0.3044
  269MPD2    H2 4072   2.198   3.102  15.949  2.6269  1.3001  0.3311
  269MPD2    H3 4073   2.378   3.231  15.840  1.5159  0.7924  0.9553
  269MPD2     N 4074   2.105   3.585  15.773  0.1760  0.1503  0.3508
  269MPD2    H5 4075   2.012   3.620  15.793  0.1768  0.3632 -0.0182
  269MPD2    N1 4076   1.955   3.169  15.971  0.5269 -0.0797 -0.3248
  269MPD2    H7 4077   1.988   3.074  15.991 -1.1132 -0.7024 -0.6181
  270TMC3    C1 4078   1.739   3.081  16.007  0.4662 -0.1191  0.3389
  270TMC3    C2 4079   1.616   3.083  15.961 -0.1951 -0.1564  0.3225
  270TMC3    C3 4080   1.538   2.970  15.989 -0.1819  1.0327 -0.6526
  270TMC3    C4 4081   1.790   2.980  16.079 -0.2037  0.0668 -0.6075
  270TMC3    C5 4082   1.710   2.874  16.118 -0.1961  0.9047  0.7062
  270TMC3    C6 4083   1.581   2.868  16.073 -0.2874  0.6574 -1.0916
  270TMC3     C 4084   1.819   3.200  15.982 -0.2466  0.0486 -0.6480
  270TMC3     O 4085   1.762   3.312  15.974  0.8508 -0.2850  0.4547
  270TMC3     H 4086   1.576   3.173  15.917  0.9819  1.0055  1.6108
  270TMC3    H1 4087   1.891   2.986  16.119 -0.5657 -1.7445  0.5537
  270TMC3    H2 4088   1.509   2.789  16.088 -0.8092  1.3060 -0.1621
  270TMC3    C7 4089   1.775   2.752  16.139  0.1312  0.9023  0.1710
  270TMC3    C8 4090   1.430   2.950  15.890  0.7679 -0.6656  0.0386
  270TMC3    O1 4091   1.895   2.758  16.126  0.2106 -0.1410 -0.4568
  270TMC3    O2 4092   1.340   2.871  15.920 -0.1400  0.6867  0.0489
  271MPD2     C 4093   0.993   3.424  14.353  0.6755  0.2053 -0.5358
  271MPD2    C1 4094   0.908   3.332  14.404 -0.6593  0.7921  0.7772
  271MPD2    C2 4095   0.769   3.343  14.378  0.1084 -0.0795 -0.8203
  271MPD2    C3 4096   0.722   3.447  14.294  0.8304  0.9680  0.6337
  271MPD2    C4 4097   0.815   3.532  14.237  0.6550  0.2715 -0.5441
  271MPD2    C5 4098   0.948   3.529  14.279 -0.6957 -0.7594 -0.2690
  271MPD2     H 4099   0.701   3.264  14.409  0.3989  0.3571  0.9247
  271MPD2    H1 4100   0.790   3.615  14.173  0.3889  1.8735  1.6145
  271MPD2    H2 4101   1.095   3.431  14.389  0.6205 -0.7361 -0.1859
  271MPD2    H3 4102   1.008   3.612  14.245  1.9240 -1.6104  2.2716
  271MPD2     N 4103   0.587   3.463  14.254 -0.0319 -0.0534  0.3118
  271MPD2    H5 4104   0.562   3.545  14.200 -0.3976  0.2775  0.9903
  271MPD2    N1 4105   0.953   3.221  14.482  0.1128 -0.4865 -0.3201
  271MPD2    H7 4106   0.884   3.152  14.510 -2.0869  1.7423 -0.2282
  272TMC3    C1 4107   1.103   3.077  14.599  1.1044 -0.3571 -0.0999
  272TMC3    C2 4108   1.225   3.019  14.588 -0.0888 -0.1783 -0.6262
  272TMC3    C3 4109   1.277   2.945  14.690  0.3888 -0.5550 -0.2400
  272TMC3    C4 4110   1.027   3.069  14.719 -0.5457  0.0279 -0.0596
  272TMC3    C5 4111   1.085   2.989  14.819 -0.1704  0.7078  0.2833
  272TMC3    C6 4112   1.216   2.944  14.813  1.6021  0.4510  0.4262
  272TMC3     C 4113   1.082   3.184  14.501 -1.2552 -0.0423 -0.1921
  272TMC3     O 4114   1.178   3.233  14.443 -1.1789  0.3121  0.9393
  272TMC3     H 4115   1.272   3.030  14.490 -2.5286  2.7171 -1.4733
  272TMC3    H1 4116   0.925   3.104  14.733 -0.1711  0.4571  1.6086
  272TMC3    H2 4117   1.258   2.897  14.901  0.9884 -1.9363 -0.5707
  272TMC3    C7 4118   1.034   3.022  14.951 -0.7556  0.9184 -0.0735
  272TMC3    C8 4119   1.411   2.894  14.681 -0.0816 -0.1296  1.0745
  272TMC3    O1 4120   0.909   3.019  14.956  0.3764  0.3694  0.5945
  272TMC3    O2 4121   1.480   2.929  14.587  0.7624  0.1581  0.5357
  273MPD2     C 4122   2.753   0.960  11.380 -0.3076 -0.5092 -0.6892
  273MPD2    C1 4123   2.814   1.082  11.375 -0.4404  0.8342  0.5628
  273MPD2    C2 4124   2.745   1.185  11.309 -0.1812 -0.2028 -0.1083
  273MPD2    C3 4125   2.625   1.171  11.246 -0.2246  0.2938  0.0928
  273MPD2    C4 4126   2.560   1.050  11.272  0.6084 -0.3309  0.3401
  273MPD2    C5 4127   2.626   0.949  11.336  0.4145  0.0115 -0.0412
  273MPD2     H 4128   2.802   1.276  11.310  2.1729 -1.6835  0.1922
  273MPD2    H1 4129   2.459   1.036  11.235  0.8994  0.3826 -0.7017
  273MPD2    H2 4130   2.792   0.873  11.431 -2.3474 -0.6049  0.7023
  273MPD2    H3 4131   2.577   0.852  11.327 -0.5191  0.3368  1.4437
  273MPD2     N 4132   2.555   1.272  11.172 -0.1177 -0.3877 -0.3487
  273MPD2    H5 4133   2.458   1.248  11.152 -0.1998 -0.6810  0.3838
  273MPD2    N1 4134   2.940   1.087  11.440  0.0799 -0.6344  0.2368
  273MPD2    H7 4135   2.978   1.000  11.475 -0.4174 -0.9807 -0.0760
  274TMC3    C1 4136   2.506   1.480  11.076  0.8692 -0.1997  0.1682
  274TMC3    C2 4137   2.433   1.430  10.978  0.0024  0.2257 -0.1860
  274TMC3    C3 4138   2.371   1.522  10.894  0.6438 -0.1562  0.2020
  274TMC3    C4 4139   2.528   1.612  11.092  0.0173 -0.9007  0.1232
  274TMC3    C5 4140   2.473   1.705  11.001  0.7072  0.5879  0.2533
  274TMC3    C6 4141   2.392   1.657  10.901 -0.0001  0.7455 -0.5555
  274TMC3     C 4142   2.601   1.395  11.139  0.0425 -0.3007  0.8968
  274TMC3     O 4143   2.715   1.439  11.151  0.8308  0.0024  0.0869
  274TMC3     H 4144   2.412   1.324  10.969 -0.5105  0.0487  3.1771
  274TMC3    H1 4145   2.600   1.641  11.169 -0.5888  1.6879 -0.2759
  274TMC3    H2 4146   2.319   1.725  10.857  0.1445 -0.1816 -2.2374
  274TMC3    C7 4147   2.514   1.853  10.994 -0.3711  0.1440  0.1343
  274TMC3    C8 4148   2.259   1.468  10.821 -0.2209  0.2139  0.0915
  274TMC3    O1 4149   2.493   1.904  10.887  0.1734  0.3889 -0.1741
  274TMC3    O2 4150   2.195   1.376  10.873  0.0520 -0.1505  0.3387
  275MPD2     C 4151   2.428   4.087  14.622  0.4360  0.4642  0.7318
  275MPD2    C1 4152   2.375   4.070  14.750  0.1031  0.0786 -0.1282
  275MPD2    C2 4153   2.238   4.062  14.767  0.4009 -0.1029  0.8244
  275MPD2    C3 4154   2.156   4.046  14.654 -0.1644  0.7958  0.1657
  275MPD2    C4 4155   2.216   4.037  14.531 -0.7883  0.2495 -0.2445
  275MPD2    C5 4156   2.348   4.055  14.517 -0.1485 -0.1393 -0.4345
  275MPD2     H 4157   2.197   4.075  14.866  2.1548 -0.4300  1.5979
  275MPD2    H1 4158   2.167   4.004  14.440 -0.0638 -0.4539 -0.3780
  275MPD2    H2 4159   2.533   4.101  14.602  0.1292  1.2660 -0.3317
  275MPD2    H3 4160   2.394   4.044  14.419  2.7627 -1.1131  1.0452
  275MPD2     N 4161   2.018   4.040  14.657  0.5315  0.0160  0.0370
  275MPD2    H5 4162   1.977   4.011  14.569  0.9999 -2.1072  0.5340
  275MPD2    N1 4163   2.456   4.091  14.860  0.1490 -0.1521 -0.0632
  275MPD2    H7 4164   2.549   4.127  14.841  0.5173  0.0909  2.2157
  276TMC3    C1 4165   2.511   4.091  15.090 -0.3950  0.2396 -0.1411
  276TMC3    C2 4166   2.504   4.038  15.215  0.5197 -0.8468 -1.1460
  276TMC3    C3 4167   2.551   4.102  15.321 -0.0024  1.0179  0.5717
  276TMC3    C4 4168   2.555   4.218  15.078  0.8425 -0.3112  0.2869
  276TMC3    C5 4169   2.611   4.282  15.190 -0.5343  0.1441 -0.0264
  276TMC3    C6 4170   2.603   4.228  15.316 -0.4139  0.2185  0.5076
  276TMC3     C 4171   2.421   4.052  14.988 -0.1345 -0.4892 -0.6575
  276TMC3     O 4172   2.322   3.993  15.027 -0.7707 -0.0404 -0.3850
  276TMC3     H 4173   2.452   3.944  15.232 -1.5519  0.5097  0.0396
  276TMC3    H1 4174   2.557   4.266  14.981  1.4994 -0.1310  0.3858
  276TMC3    H2 4175   2.616   4.285  15.408  2.3068 -0.9620  0.8628
  276TMC3    C7 4176   2.676   4.406  15.168 -0.0376  0.2705 -0.4826
  276TMC3    C8 4177   2.557   4.032  15.451  0.1849 -0.1172  0.4676
  276TMC3    O1 4178   2.652   4.458  15.061 -0.1825  0.5515  0.7504
  276TMC3    O2 4179   2.557   4.107  15.551 -0.7916  0.6135 -0.1509
  277MPD2     C 4180   0.030   3.005  13.487  0.6612 -0.1385  0.3531
  277MPD2    C1 4181   4.619   3.021  13.476  0.7050  0.8257 -0.2045
  277MPD2    C2 4182   4.536   2.950  13.563 -0.1928 -0.3844  0.1942
  277MPD2    C3 4183   4.584   2.889  13.676 -0.4535 -0.1300  0.0605
  277MPD2    C4 4184   4.722   2.887  13.692  0.1001 -0.1145  0.0009
  277MPD2    C5 4185   0.082   2.938  13.587  0.1841 -0.4550  0.8237
  277MPD2     H 4186   4.430   2.968  13.555  0.0983  0.7720 -1.1117
  277MPD2    H1 4187   0.055   2.856  13.779  0.0642  0.4914  0.2431
  277MPD2    H2 4188   0.099   3.051  13.417  0.8472  1.2456  1.4520
  277MPD2    H3 4189   0.190   2.937  13.597  0.2453  0.5948  0.2379
  277MPD2     N 4190   4.490   2.834  13.762  0.0336 -0.5056  0.1732
  277MPD2    H5 4191   4.392   2.838  13.735  0.1182  0.5648  0.0394
  277MPD2    N1 4192   4.563   3.101  13.377 -0.0577 -0.0480 -0.6416
  277MPD2    H7 4193   4.636   3.152  13.330 -1.0756  1.7262 -0.3087
  278TMC3    C1 4194   4.413   2.708  13.947 -0.2068  0.2895  0.0897
  278TMC3    C2 4195   4.436   2.604  14.037 -0.2172 -0.7289 -0.0012
  278TMC3    C3 4196   4.327   2.553  14.104  0.6212  0.6047  0.2683
  278TMC3    C4 4197   4.283   2.753  13.914  0.4510 -0.5873 -1.0477
  278TMC3    C5 4198   4.180   2.700  13.989 -0.7304  0.2074  0.3638
  278TMC3    C6 4199   4.205   2.597  14.076 -0.2264 -0.2455  0.6263
  278TMC3     C 4200   4.521   2.756  13.869 -0.0583 -0.1766 -0.4974
  278TMC3     O 4201   4.632   2.726  13.907 -0.1864  0.2252 -0.2345
  278TMC3     H 4202   4.534   2.558  14.044  0.4135  0.2526 -2.3439
  278TMC3    H1 4203   4.276   2.842  13.853 -1.9786 -0.5190 -0.6732
  278TMC3    H2 4204   4.127   2.576  14.147  0.7274  0.5414  1.9026
  278TMC3    C7 4205   4.046   2.760  13.975  0.0933  0.3342 -0.1760
  278TMC3    C8 4206   4.334   2.411  14.122 -0.4271 -0.0339  0.1302
  278TMC3    O1 4207   3.991   2.780  14.084 -0.7169 -0.1838 -0.1324
  278TMC3    O2 4208   4.439   2.358  14.155  0.4430 -0.2372  0.6440
  279MPD2     C 4209   4.105   3.496   0.641  0.1507  0.2293  0.0834
  279MPD2    C1 4210   4.006   3.425   0.575  0.0889  0.2075  0.1255
  279MPD2    C2 4211   3.982   3.451   0.443 -0.5381 -0.1453  0.5196
  279MPD2    C3 4212   4.060   3.540   0.373  0.1789  0.2344  0.1753
  279MPD2    C4 4213   4.157   3.607   0.441  0.6619 -0.7873  0.1536
  279MPD2    C5 4214   4.179   3.583   0.573 -0.7008 -0.4866  0.2677
  279MPD2     H 4215   3.898   3.401   0.396  0.0275 -2.3140  1.8375
  279MPD2    H1 4216   4.221   3.678   0.389 -1.2660  0.0780 -1.0455
  279MPD2    H2 4217   4.143   3.480   0.741 -0.0371  2.2523  0.4765
  279MPD2    H3 4218   4.254   3.640   0.627 -0.7677  1.0796 -1.3147
  279MPD2     N 4219   4.060   3.553   0.235 -0.0229 -0.0665  0.0287
  279MPD2    H5 4220   4.107   3.638   0.204 -0.0875 -0.4963 -1.2685
  279MPD2    N1 4221   3.940   3.331   0.651  0.1026  0.2406 -0.9632
  279MPD2    H7 4222   3.974   3.304   0.742 -0.5680 -0.9114 -1.0519
  280TMC3    C1 4223   3.767   3.179   0.713 -0.2767  0.6270 -0.2435
  280TMC3    C2 4224   3.697   3.079   0.664  0.2972  0.2392  0.4077
  280TMC3    C3 4225   3.563   3.094   0.671  0.1565  0.2460 -0.4339
  280TMC3    C4 4226   3.707   3.278   0.792  0.0839 -0.5119  0.6779
  280TMC3    C5 4227   3.574   3.301   0.779 -0.4662  0.3928 -0.8205
  280TMC3    C6 4228   3.498   3.205   0.722 -0.1733 -0.0981  0.1265
  280TMC3     C 4229   3.832   3.253   0.607  0.0134 -0.2681 -0.1932
  280TMC3     O 4230   3.792   3.220   0.496  0.1963 -0.0913 -0.2570
  280TMC3     H 4231   3.734   3.002   0.598 -0.6368  0.0940  0.0458
  280TMC3    H1 4232   3.753   3.373   0.812 -0.9498  0.4017 -1.2795
  280TMC3    H2 4233   3.390   3.204   0.726 -0.3101 -0.6736 -3.8626
  280TMC3    C7 4234   3.515   3.425   0.811  0.1933 -0.0642  0.2107
  280TMC3    C8 4235   3.479   2.980   0.635  1.0591 -0.1375  0.0408
  280TMC3    O1 4236   3.580   3.490   0.895 -0.4288 -0.1228 -0.0695
  280TMC3    O2 4237   3.370   3.008   0.587  0.1804 -0.2872 -0.7661
  281TMC3    C1 4238   2.707   3.465  13.302  0.7519  0.0709  0.4148
  281TMC3    C2 4239   2.760   3.549  13.203 -0.0606  0.4246 -0.8933
  281TMC3    C3 4240   2.811   3.481  13.095 -0.8423  0.0722 -0.6018
  281TMC3    C4 4241   2.710   3.331  13.310  0.1838 -0.4161 -0.3634
  281TMC3    C5 4242   2.769   3.271  13.201  0.8733 -0.3563  0.1382
  281TMC3    C6 4243   2.827   3.347  13.098  0.5459 -0.9296 -0.0166
  281TMC3     C 4244   2.652   3.530  13.419  0.3806 -0.0672 -0.1838
  281TMC3     O 4245   2.679   3.483  13.526 -0.2471  0.3292 -0.8570
  281TMC3     H 4246   2.773   3.655  13.221 -1.7655  0.4501  0.1953
  281TMC3    H1 4247   2.675   3.273  13.396  0.4447 -0.1760 -0.0954
  281TMC3    H2 4248   2.876   3.295  13.016  0.5986 -2.3119  0.8791
  281TMC3    C7 4249   2.813   3.130  13.216 -0.6148 -0.0237  0.1042
  281TMC3    C8 4250   2.894   3.546  12.990 -0.2457  0.4863 -0.2595
  281TMC3    O1 4251   2.928   3.100  13.193  0.7219  0.8283 -0.3175
  281TMC3    O2 4252   2.967   3.471  12.927  0.1015  0.7417  0.2617
  282MPD2     C 4253   4.515   0.013  15.354 -0.1499 -0.2527  0.7288
  282MPD2    C1 4254   4.392   0.071  15.367  0.1942 -0.1433 -0.6514
  282MPD2    C2 4255   4.302   0.076  15.260  0.3470 -0.2644  0.3727
  282MPD2    C3 4256   4.334   4.718  15.149  0.1314 -0.2568 -0.2823
  282MPD2    C4 4257   4.453   4.652  15.146 -0.2144 -0.6973  0.2374
  282MPD2    C5 4258   4.546   4.668  15.242  1.5354 -0.3017 -0.0815
  282MPD2     H 4259   4.203   0.119  15.270  0.5184  0.1149  0.4501
  282MPD2    H1 4260   4.485   4.584  15.068  0.1579 -0.7583  0.4418
  282MPD2    H2 4261   4.588   0.010  15.434  0.1054  1.4801  0.5748
  282MPD2    H3 4262   4.641   4.617  15.253  1.1327 -1.5137 -2.1610
  282MPD2     N 4263   4.225   4.704  15.057  0.0984 -0.3572 -0.1545
  282MPD2    H5 4264   4.134   0.016  15.083 -0.7793 -1.3153 -1.9164
  282MPD2    N1 4265   4.345   0.123  15.490  0.0706 -0.5649 -0.0476
  282MPD2    H7 4266   4.249   0.155  15.495  0.0370 -0.1353 -3.1134
  283TMC3    C1 4267   4.332   0.163  15.718 -0.2995  0.2067 -0.2563
  283TMC3    C2 4268   4.373   0.256  15.806 -0.2205 -0.2932 -0.0562
  283TMC3    C3 4269   4.302   0.275  15.924 -1.0766 -0.2138 -0.7285
  283TMC3    C4 4270   4.226   0.087  15.734  0.9994  0.7166 -0.0597
  283TMC3    C5 4271   4.147   0.108  15.845  0.7193  0.2273 -0.7500
  283TMC3    C6 4272   4.192   0.197  15.939 -0.3182 -0.4242 -0.3011
  283TMC3     C 4273   4.421   0.138  15.600 -0.6105 -0.4380 -0.2178
  283TMC3     O 4274   4.537   0.141  15.621 -0.1132 -0.5209 -0.1320
  283TMC3     H 4275   4.474   0.294  15.792  0.0643 -0.1882  2.3322
  283TMC3    H1 4276   4.200   0.003  15.671 -0.9078  1.6003 -0.4479
  283TMC3    H2 4277   4.123   0.215  16.020  1.0525 -0.5699  0.8962
  283TMC3    C7 4278   4.067   0.001  15.909  0.3843 -0.0230  0.4039
  283TMC3    C8 4279   4.287   0.408  15.975  1.3558  0.0815 -0.1394
  283TMC3    O1 4280   4.033   0.009  16.028 -0.0596  0.1238  0.5336
  283TMC3    O2 4281   4.242   0.421  16.090  0.1743 -0.4657 -0.2978
  284MPD2     C 4282   2.813   4.254  11.779  0.4266  0.9203  0.2522
  284MPD2    C1 4283   2.861   4.150  11.855 -0.2184  0.1514 -0.2698
  284MPD2    C2 4284   2.773   4.065  11.914  0.4372 -0.2028 -0.1100
  284MPD2    C3 4285   2.641   4.085  11.904  0.4109  0.2692 -0.3661
  284MPD2    C4 4286   2.587   4.198  11.842 -0.3585 -0.1418 -0.3486
  284MPD2    C5 4287   2.677   4.278  11.771  0.1546  0.4924  0.0403
  284MPD2     H 4288   2.809   3.979  11.970  2.2097 -1.1448 -2.6985
  284MPD2    H1 4289   2.481   4.219  11.848 -0.2352  0.9101 -1.9119
  284MPD2    H2 4290   2.882   4.318  11.725  2.1208 -1.4567 -0.4137
  284MPD2    H3 4291   2.644   4.367  11.719 -1.3501  0.1866  0.4699
  284MPD2     N 4292   2.553   4.000  11.967  0.3760  0.0503 -0.0407
  284MPD2    H5 4293   2.463   4.039  11.993 -0.4437  0.9485 -4.1635
  284MPD2    N1 4294   2.999   4.117  11.874 -0.3258  0.0368 -0.1482
  284MPD2    H7 4295   3.019   4.030  11.924 -0.0572 -0.7739 -1.6784
  285TMC3    C1 4296   3.235   4.162  11.856 -0.1413 -0.4973 -0.5197
  285TMC3    C2 4297   3.250   4.034  11.822 -0.2666  0.7137  0.0492
  285TMC3    C3 4298   3.364   4.004  11.751  0.2260  0.1949 -0.1923
  285TMC3    C4 4299   3.331   4.261  11.834 -0.4772 -0.5138 -0.0182
  285TMC3    C5 4300   3.445   4.233  11.770  0.3852 -0.0600 -0.2699
  285TMC3    C6 4301   3.456   4.104  11.721 -0.3448  0.6475  0.1553
  285TMC3     C 4302   3.100   4.212  11.849 -0.1063 -0.7111  0.2981
  285TMC3     O 4303   3.085   4.333  11.833  0.0056 -0.2985  0.3387
  285TMC3     H 4304   3.174   3.957  11.836 -0.7106  0.7480 -2.1879
  285TMC3    H1 4305   3.316   4.361  11.873  0.2742  0.5320 -2.4110
  285TMC3    H2 4306   3.549   4.084  11.669 -0.4086  0.2026  0.2105
  285TMC3    C7 4307   3.510   4.351  11.709 -0.4889 -1.0734 -0.4299
  285TMC3    C8 4308   3.354   3.907  11.646  0.6598 -1.5520  0.1535
  285TMC3    O1 4309   3.443   4.453  11.702  0.5267  0.1349  0.2422
  285TMC3    O2 4310   3.240   3.865  11.630 -0.0708  0.0393 -0.1227
  286MPD2     C 4311   2.637   2.788   1.719  0.0011  0.0138  0.1349
  286MPD2    C1 4312   2.699   2.807   1.594 -0.6085  0.1859  0.3336
  286MPD2    C2 4313   2.836   2.787   1.575  0.4015 -0.4660 -0.2113
  286MPD2    C3 4314   2.910   2.735   1.681 -0.2742  0.1593 -0.9887
  286MPD2    C4 4315   2.852   2.711   1.797 -0.2246 -0.6927  0.7520
  286MPD2    C5 4316   2.723   2.737   1.817  0.3825 -0.3762  0.3343
  286MPD2     H 4317   2.876   2.802   1.476 -1.8085  0.7688 -0.9335
  286MPD2    H1 4318   2.900   2.650   1.872 -0.5524 -0.4671  1.1489
  286MPD2    H2 4319   2.534   2.810   1.744 -0.4629 -1.7210 -0.2475
  286MPD2    H3 4320   2.670   2.704   1.905 -1.1088  1.6220  0.1889
  286MPD2     N 4321   3.043   2.690   1.664  0.7702 -0.1361 -0.6154
  286MPD2    H5 4322   3.076   2.646   1.750 -0.0198 -3.3442 -1.9490
  286MPD2    N1 4323   2.627   2.857   1.478  0.0080 -0.0573  0.7385
  286MPD2    H7 4324   2.677   2.849   1.390 -1.5862 -3.4620  0.1147
  287TMC3    C1 4325   3.228   2.600   1.550  0.3059 -0.0895  0.2411
  287TMC3    C2 4326   3.240   2.507   1.452  0.0629  0.0331 -0.1699
  287TMC3    C3 4327   3.330   2.410   1.468  0.4271 -0.5723  0.7724
  287TMC3    C4 4328   3.313   2.601   1.659  0.0335  0.5373 -0.4100
  287TMC3    C5 4329   3.411   2.502   1.666  0.0850  0.0386 -0.0649
  287TMC3    C6 4330   3.423   2.406   1.571 -0.8612 -0.7888  0.1193
  287TMC3     C 4331   3.112   2.679   1.545 -0.1640  0.5481  0.4205
  287TMC3     O 4332   3.080   2.716   1.434  0.4692 -0.0033 -0.2277
  287TMC3     H 4333   3.161   2.492   1.379 -1.6610  1.0680  1.4787
  287TMC3    H1 4334   3.303   2.660   1.749  0.0624 -0.2156  0.0871
  287TMC3    H2 4335   3.503   2.333   1.571 -0.2448 -0.0957  1.2737
  287TMC3    C7 4336   3.442   2.466   1.804 -0.1022 -0.1964  0.0340
  287TMC3    C8 4337   3.339   2.323   1.359 -0.3208  0.5924 -0.0878
  287TMC3    O1 4338   3.358   2.498   1.890 -1.1883  0.2886  0.6859
  287TMC3    O2 4339   3.238   2.301   1.291 -0.1007 -0.3307 -0.5345
  288TMC3    C1 4340   4.444   2.791  14.358  1.2710 -0.3786 -0.0008
  288TMC3    C2 4341   4.331   2.801  14.435 -0.1796  0.2629  0.7332
  288TMC3    C3 4342   4.225   2.872  14.398 -0.1259  0.6794 -0.4388
  288TMC3    C4 4343   4.458   2.872  14.248  0.4359  0.1809  0.7060
  288TMC3    C5 4344   4.353   2.952  14.219 -0.1492  0.5011 -0.0651
  288TMC3    C6 4345   4.236   2.957  14.293  0.2751  0.0275  0.0784
  288TMC3     C 4346   4.567   2.781  14.435  0.6179 -0.3851  0.3523
  288TMC3     O 4347   4.665   2.829  14.373 -0.5338 -0.4134  0.2177
  288TMC3     H 4348   4.327   2.753  14.532 -0.2332  1.2126  1.1987
  288TMC3    H1 4349   4.542   2.865  14.179  1.6086 -1.1844  2.2665
  288TMC3    H2 4350   4.149   3.021  14.278 -2.1861 -3.5315 -0.8306
  288TMC3    C7 4351   4.368   3.038  14.103 -0.6835 -0.0611 -0.4886
  288TMC3    C8 4352   4.138   2.904  14.513  0.0892  0.2365 -0.7361
  288TMC3    O1 4353   4.477   3.053  14.051 -0.7940 -0.3127  0.0390
  288TMC3    O2 4354   4.118   3.022  14.533  0.1972  0.4384  0.0650
  289MPD2     C 4355   4.524   1.723  14.564 -0.6170  0.0866  0.0200
  289MPD2    C1 4356   4.474   1.847  14.523 -0.4026  0.6675  0.2386
  289MPD2    C2 4357   4.335   1.860  14.508  0.2489  0.2471 -0.4851
  289MPD2    C3 4358   4.251   1.749  14.510  0.1527  0.3019  0.5938
  289MPD2    C4 4359   4.302   1.624  14.536  0.0780  0.2512 -1.0220
  289MPD2    C5 4360   4.436   1.616  14.571  0.2024  0.2136  0.5862
  289MPD2     H 4361   4.293   1.955  14.479 -1.1172 -0.0542  0.4933
  289MPD2    H1 4362   4.231   1.543  14.538 -1.6736  1.8322  1.1834
  289MPD2    H2 4363   4.627   1.707  14.593 -1.1749 -0.2278  1.8296
  289MPD2    H3 4364   4.476   1.521  14.602  0.0909 -0.1237 -0.3075
  289MPD2     N 4365   4.114   1.756  14.467  0.2209 -0.3561 -0.1095
  289MPD2    H5 4366   4.067   1.671  14.441 -0.5585  0.1836 -0.4656
  289MPD2    N1 4367   4.563   1.958  14.507  0.2444  0.0766  0.7376
  289MPD2    H7 4368   4.661   1.941  14.528  0.6274  1.7776  0.3131
  290TMC3    C1 4369   3.910   1.863  14.423 -0.3190 -0.1051  0.0584
  290TMC3    C2 4370   3.860   1.987  14.385 -0.2483  0.3526  0.7478
  290TMC3    C3 4371   3.747   1.986  14.307 -0.5798  0.1739 -0.0133
  290TMC3    C4 4372   3.842   1.748  14.404  0.2852  0.4300 -1.0050
  290TMC3    C5 4373   3.714   1.755  14.336 -0.7946 -0.2340 -0.2857
  290TMC3    C6 4374   3.662   1.880  14.298  0.4760 -0.4681 -0.4185
  290TMC3     C 4375   4.042   1.874  14.474  0.0971 -0.1892  0.3398
  290TMC3     O 4376   4.067   1.979  14.530 -0.3300  0.1073  0.3017
  290TMC3     H 4377   3.922   2.076  14.388 -1.0510  0.9571 -0.6097
  290TMC3    H1 4378   3.890   1.653  14.420  1.5354  1.1274 -0.6256
  290TMC3    H2 4379   3.567   1.889  14.247  0.6315  1.4849 -0.3504
  290TMC3    C7 4380   3.624   1.643  14.328 -0.1088  0.5433  0.4167
  290TMC3    C8 4381   3.717   2.102  14.231  0.5209  0.5852  0.3127
  290TMC3    O1 4382   3.504   1.675  14.313 -0.3281  0.3043  0.2967
  290TMC3    O2 4383   3.640   2.087  14.137  0.5823 -0.9403  0.9610
  291MPD2     C 4384   4.635   1.382   0.910  0.0566  0.4525 -0.1614
  291MPD2    C1 4385   4.559   1.454   0.816  0.5067  0.6364 -0.3494
  291MPD2    C2 4386   4.630   1.530   0.726  0.2587  0.0994 -0.2686
  291MPD2    C3 4387   0.050   1.543   0.728  0.0362  0.2471 -0.1378
  291MPD2    C4 4388   0.120   1.458   0.820  0.1369 -0.3630 -0.2388
  291MPD2    C5 4389   0.048   1.387   0.906  0.0741  0.5508  0.8804
  291MPD2     H 4390   4.572   1.580   0.649 -3.0002  0.8220  2.6803
  291MPD2    H1 4391   0.228   1.462   0.824  0.2514 -1.9337 -2.0081
  291MPD2    H2 4392   4.591   1.316   0.985 -0.7043 -0.3956 -1.3568
  291MPD2    H3 4393   0.106   1.330   0.977  1.3241  0.5782 -0.1078
  291MPD2     N 4394   0.127   1.636   0.648  0.2965  0.1916 -0.0569
  291MPD2    H5 4395   0.227   1.635   0.665  0.5431 -2.7728 -1.6430
  291MPD2    N1 4396   4.413   1.453   0.818  0.3256  1.0558  0.0588
  291MPD2    H7 4397   4.365   1.496   0.739 -1.7616 -1.3163  0.0490
  292TMC3    C1 4398   4.201   1.392   0.897  0.1803 -0.8133  0.0161
  292TMC3    C2 4399   4.108   1.403   1.001  0.8732 -0.4268 -0.0183
  292TMC3    C3 4400   3.975   1.370   0.972 -0.2432 -0.4581  0.4325
  292TMC3    C4 4401   4.171   1.353   0.765  0.6594  0.8969  0.2397
  292TMC3    C5 4402   4.039   1.312   0.745  0.0177 -0.0313 -0.5899
  292TMC3    C6 4403   3.945   1.327   0.843  0.1628  0.2306  0.5123
  292TMC3     C 4404   4.339   1.406   0.924  0.1509 -0.6837  0.1657
  292TMC3     O 4405   4.375   1.373   1.033 -0.0023 -0.3030 -0.0292
  292TMC3     H 4406   4.145   1.428   1.100 -0.9749 -0.2872  0.6214
  292TMC3    H1 4407   4.249   1.336   0.692  0.1023  1.2402 -0.4331
  292TMC3    H2 4408   3.841   1.299   0.830  0.6793 -0.8918 -1.2114
  292TMC3    C7 4409   3.997   1.261   0.610  0.3943 -0.3647 -0.1926
  292TMC3    C8 4410   3.880   1.356   1.081 -0.2026 -0.2425 -0.0100
  292TMC3    O1 4411   4.088   1.197   0.559 -0.0768  0.3623 -0.2182
  292TMC3    O2 4412   3.890   1.431   1.175  0.6780  0.2724  0.4090
  293MPD2     C 4413   0.995   2.751  13.053 -0.4562 -0.3907  0.3035
  293MPD2    C1 4414   0.888   2.730  13.142 -0.5345  0.4846  0.0047
  293MPD2    C2 4415   0.897   2.788  13.267 -0.3471 -0.2444 -0.1252
  293MPD2    C3 4416   1.003   2.865  13.310  0.3284  0.5182  0.3998
  293MPD2    C4 4417   1.105   2.879  13.212 -0.1255 -0.1297  0.1937
  293MPD2    C5 4418   1.102   2.818  13.093 -0.0429  0.7671  0.1024
  293MPD2     H 4419   0.809   2.787  13.331 -1.2180 -0.2774 -1.3258
  293MPD2    H1 4420   1.188   2.942  13.240  0.3872 -0.9518  0.5257
  293MPD2    H2 4421   0.995   2.708  12.954  4.5942  1.0503 -0.3467
  293MPD2    H3 4422   1.182   2.845  13.025 -2.0963  1.9180 -1.8237
  293MPD2     N 4423   1.003   2.938  13.439  0.6075 -0.1087 -0.5718
  293MPD2    H5 4424   0.924   2.914  13.498  1.8446  0.8385  1.4563
  293MPD2    N1 4425   0.776   2.660  13.086 -0.0791  0.4051 -0.2090
  293MPD2    H7 4426   0.801   2.603  13.006  0.2027 -1.7624  1.4256
  294TMC3    C1 4427   0.566   2.546  13.066 -0.1641 -0.2429 -0.3803
  294TMC3    C2 4428   0.452   2.499  13.129 -0.1079 -0.2015 -0.2410
  294TMC3    C3 4429   0.344   2.463  13.054 -0.1865  0.1771  0.1427
  294TMC3    C4 4430   0.574   2.543  12.924 -0.0294  0.1186 -0.7517
  294TMC3    C5 4431   0.463   2.501  12.852 -0.4319  0.2017 -0.0868
  294TMC3    C6 4432   0.351   2.459  12.914 -0.3494  0.3480 -0.6402
  294TMC3     C 4433   0.651   2.634  13.145 -0.8650  0.5078  0.0758
  294TMC3     O 4434   0.621   2.669  13.258 -0.4078  0.6053 -0.5596
  294TMC3     H 4435   0.430   2.521  13.232 -0.4617 -2.0072  0.0587
  294TMC3    H1 4436   0.651   2.594  12.867 -1.0237  1.5529 -0.8020
  294TMC3    H2 4437   0.255   2.451  12.864 -0.0612 -2.1453 -0.7996
  294TMC3    C7 4438   0.472   2.488  12.714 -0.5528 -0.3437 -0.7292
  294TMC3    C8 4439   0.233   2.388  13.116 -0.2103 -0.1571 -0.3357
  294TMC3    O1 4440   0.363   2.479  12.657 -0.6984 -0.1058 -0.1054
  294TMC3    O2 4441   0.221   2.412  13.238  0.0328  0.9039  0.8908
  295MPD2     C 4442   1.795   1.362   0.872 -0.5512  0.6724 -0.9756
  295MPD2    C1 4443   1.712   1.393   0.764  0.4398  0.1134 -0.5612
  295MPD2    C2 4444   1.577   1.414   0.795  0.4590 -0.2090  0.6081
  295MPD2    C3 4445   1.521   1.418   0.919  0.1719  0.1907 -0.7179
  295MPD2    C4 4446   1.618   1.407   1.020  0.0498 -0.7240 -0.2697
  295MPD2    C5 4447   1.749   1.375   1.001 -0.3705  0.8679  0.2690
  295MPD2     H 4448   1.507   1.436   0.715  0.3596 -4.2085 -0.3649
  295MPD2    H1 4449   1.586   1.420   1.122  0.1689 -1.0221 -0.1946
  295MPD2    H2 4450   1.899   1.333   0.861 -0.3926  2.0004 -3.0285
  295MPD2    H3 4451   1.810   1.376   1.090 -0.6175  0.7751  0.4380
  295MPD2     N 4452   1.387   1.424   0.949 -0.2588 -0.2171  0.4405
  295MPD2    H5 4453   1.360   1.428   1.046  2.1687 -1.8073  1.1922
  295MPD2    N1 4454   1.753   1.394   0.627 -0.2411 -0.2024 -0.1640
  295MPD2    H7 4455   1.693   1.427   0.552 -1.5453 -2.3659 -0.0485
  296TMC3    C1 4456   1.157   1.417   0.910  0.3724 -0.0030  0.3480
  296TMC3    C2 4457   1.131   1.520   0.996  0.0388 -0.2034  1.4306
  296TMC3    C3 4458   1.006   1.521   1.059  0.5296 -0.3603  0.1191
  296TMC3    C4 4459   1.063   1.320   0.883  0.0927  0.1178  0.5864
  296TMC3    C5 4460   0.948   1.322   0.955  0.4455  0.7404  0.0873
  296TMC3    C6 4461   0.919   1.424   1.041 -0.5801  0.2734  1.2493
  296TMC3     C 4462   1.291   1.412   0.850 -0.3249  0.3322 -0.0640
  296TMC3     O 4463   1.284   1.356   0.743 -0.2115  0.1339 -0.1827
  296TMC3     H 4464   1.196   1.607   0.993  1.8966 -1.7221 -2.9285
  296TMC3    H1 4465   1.089   1.226   0.836 -1.8696 -0.3558  0.4449
  296TMC3    H2 4466   0.819   1.432   1.083 -1.2840 -0.8187 -0.2122
  296TMC3    C7 4467   0.891   1.191   0.970  0.2889 -0.0269  0.2259
  296TMC3    C8 4468   0.981   1.618   1.167  0.8563 -0.7572 -0.6173
  296TMC3    O1 4469   0.936   1.090   0.923  0.1807  0.4988 -0.0398
  296TMC3    O2 4470   0.863   1.641   1.200 -0.4127 -0.2253  0.8677
  297MPD2     C 4471   3.564   3.315  16.567  0.3393 -0.0980 -0.6401
  297MPD2    C1 4472   3.477   3.388  16.483 -0.3217  0.4793 -0.5254
  297MPD2    C2 4473   3.529   3.501  16.425 -0.6565 -0.0249  0.2254
  297MPD2    C3 4474   3.639   3.568  16.481  0.3335  0.9135 -0.1215
  297MPD2    C4 4475   3.713   3.497  16.574 -0.0693  0.1943  1.1386
  297MPD2    C5 4476   3.678   3.371  16.615 -0.0078  0.5019  0.5762
  297MPD2     H 4477   3.471   3.555  16.351  0.2931 -0.8194 -1.0940
  297MPD2    H1 4478   3.803   3.540  16.617  1.4295 -0.8707 -0.8927
  297MPD2    H2 4479   3.546   3.213  16.600 -1.3013  0.4092  0.0836
  297MPD2    H3 4480   3.738   3.314  16.685  0.9203  0.9839  0.1759
  297MPD2     N 4481   3.681   3.689  16.436  0.0353  0.2192  0.6367
  297MPD2    H5 4482   3.649   3.715  16.343 -0.2326  1.9923  1.2122
  297MPD2    N1 4483   3.350   3.342  16.445  0.5037  0.1037 -0.0292
  297MPD2    H7 4484   3.299   3.400  16.379  0.8022 -1.7355 -1.8887
  298TMC3    C1 4485   3.156   3.218  16.423  0.1500  0.1899 -0.1292
  298TMC3    C2 4486   3.145   3.257  16.293 -0.6172  0.3563 -0.5050
  298TMC3    C3 4487   3.022   3.232  16.228 -0.5031 -0.1638 -0.5843
  298TMC3    C4 4488   3.063   3.149  16.485 -0.1823 -0.5848 -0.4730
  298TMC3    C5 4489   2.943   3.130  16.418 -0.6193 -0.0729 -0.1285
  298TMC3    C6 4490   2.924   3.169  16.291 -0.0337  0.6323 -0.5554
  298TMC3     C 4491   3.289   3.230  16.489  0.3671 -0.2830 -0.6704
  298TMC3     O 4492   3.323   3.152  16.576 -0.3402 -0.4200 -0.0476
  298TMC3     H 4493   3.222   3.304  16.232  0.7461 -1.9486 -0.5605
  298TMC3    H1 4494   3.074   3.113  16.586 -0.2242  0.0990 -0.2268
  298TMC3    H2 4495   2.824   3.168  16.248 -0.3472  0.5661  0.1818
  298TMC3    C7 4496   2.842   3.170  16.512  0.2290  0.9770 -0.1339
  298TMC3    C8 4497   2.996   3.283  16.097  0.0114  0.3097  0.0939
  298TMC3    O1 4498   2.872   3.214  16.622  0.0619  0.8796  0.1057
  298TMC3    O2 4499   2.885   3.317  16.066 -0.0748 -0.0031 -0.5255
  299MPD2     C 4500   3.630   2.934  10.504  0.1203  0.4951  0.1777
  299MPD2    C1 4501   3.739   3.000  10.445  0.3999  0.4603  0.4199
  299MPD2    C2 4502   3.712   3.103  10.354  0.2186 -0.2582  0.0181
  299MPD2    C3 4503   3.584   3.141  10.329 -0.2668  0.1215  0.1373
  299MPD2    C4 4504   3.486   3.082  10.389 -0.2812 -0.6088 -0.6296
  299MPD2    C5 4505   3.504   2.982  10.478  0.2414 -0.0629 -0.1547
  299MPD2     H 4506   3.797   3.155  10.311  1.5210 -3.2462 -1.0530
  299MPD2    H1 4507   3.381   3.100  10.366 -1.3720 -1.7351  3.3590
  299MPD2    H2 4508   3.643   2.850  10.571  1.8347  0.0292 -0.7174
  299MPD2    H3 4509   3.424   2.937  10.535 -0.5424  0.6106 -0.7232
  299MPD2     N 4510   3.546   3.251  10.244 -0.4027 -0.6222  0.5298
  299MPD2    H5 4511   3.451   3.285  10.256  0.4901  2.2301 -0.4154
  299MPD2    N1 4512   3.868   2.962  10.480  0.3132  0.0009 -0.5938
  299MPD2    H7 4513   3.876   2.875  10.532 -1.0784 -0.1715 -0.6817
  300TMC3    C1 4514   3.570   3.469  10.178 -0.3748  0.6202 -0.0937
  300TMC3    C2 4515   3.618   3.551  10.279  0.4058 -0.6376 -0.0919
  300TMC3    C3 4516   3.532   3.597  10.374 -0.0422  0.8767  0.3828
  300TMC3    C4 4517   3.439   3.459  10.151 -0.2620 -0.1010 -0.0387
  300TMC3    C5 4518   3.347   3.522  10.225  0.5489  0.2478 -0.2259
  300TMC3    C6 4519   3.393   3.589  10.340 -0.2707 -0.8943  0.5633
  300TMC3     C 4520   3.634   3.342  10.182 -0.0880  0.1204 -0.7180
  300TMC3     O 4521   3.758   3.346  10.184 -0.2808  0.7931 -0.1324
  300TMC3     H 4522   3.723   3.556  10.304 -0.3539  1.4803  2.6454
  300TMC3    H1 4523   3.402   3.405  10.065  1.6013  0.6617 -1.3183
  300TMC3    H2 4524   3.324   3.638  10.408  0.8164  1.2684  0.1268
  300TMC3    C7 4525   3.234   3.435  10.249 -0.2474  0.4955 -0.2665
  300TMC3    C8 4526   3.567   3.512  10.488  0.7298  0.0568 -0.1247
  300TMC3    O1 4527   3.235   3.327  10.197 -0.3306  0.0262  0.1914
  300TMC3    O2 4528   3.689   3.500  10.511  0.2776 -0.1541 -0.2611
  301MPD2     C 4529   1.078   4.134   1.833  0.4479 -0.0269  0.5284
  301MPD2    C1 4530   1.017   4.119   1.710  0.2605  0.0304  1.0477
  301MPD2    C2 4531   1.074   4.018   1.628  0.1642  0.1518 -0.2802
  301MPD2    C3 4532   1.188   3.946   1.671  0.0126 -0.1917 -0.3464
  301MPD2    C4 4533   1.232   3.962   1.800 -0.3624  0.1278 -0.0499
  301MPD2    C5 4534   1.179   4.054   1.882 -0.4722  0.3507  0.9218
  301MPD2     H 4535   1.038   4.010   1.527  0.4086 -0.8063 -0.2939
  301MPD2    H1 4536   1.310   3.896   1.837  0.9243  0.6150 -1.8354
  301MPD2    H2 4537   1.032   4.198   1.907 -0.5613 -1.2182  0.9309
  301MPD2    H3 4538   1.210   4.068   1.985  1.8970  0.4211  0.1859
  301MPD2     N 4539   1.257   3.851   1.593 -0.4775 -0.6747  0.6853
  301MPD2    H5 4540   1.346   3.813   1.625  0.2624  0.4470 -0.0483
  301MPD2    N1 4541   0.903   4.190   1.676  0.1280  0.1554 -0.6511
  301MPD2    H7 4542   0.845   4.148   1.604 -1.6322  0.8407  0.3552
  302TMC3    C1 4543   1.289   3.687   1.431  0.0200 -0.9540 -0.5363
  302TMC3    C2 4544   1.406   3.641   1.497  0.6059  0.9533  1.2151
  302TMC3    C3 4545   1.479   3.545   1.439 -0.2190  0.6619  0.2109
  302TMC3    C4 4546   1.256   3.638   1.305 -0.4255  0.0758  0.7997
  302TMC3    C5 4547   1.345   3.552   1.241 -0.0228 -0.2250 -0.9888
  302TMC3    C6 4548   1.450   3.500   1.307  0.3786 -0.5284 -0.0242
  302TMC3     C 4549   1.212   3.803   1.471  0.4224  0.1096 -0.1149
  302TMC3     O 4550   1.125   3.847   1.400  0.1254  0.1982  0.4220
  302TMC3     H 4551   1.445   3.692   1.584  1.6260  1.1517  0.6451
  302TMC3    H1 4552   1.170   3.684   1.258  0.4122  0.8058 -0.0484
  302TMC3    H2 4553   1.508   3.416   1.270 -1.4979 -0.9649 -1.9901
  302TMC3    C7 4554   1.314   3.490   1.117 -0.9972  0.4925 -0.1645
  302TMC3    C8 4555   1.610   3.505   1.494  0.0353 -0.1547  0.2558
  302TMC3    O1 4556   1.404   3.423   1.065 -0.1406 -0.2076  0.3508
  302TMC3    O2 4557   1.696   3.494   1.411  0.8755  0.1024  0.0241
  303MPD2     C 4558   1.316   2.370  10.206 -0.2822 -0.1292 -0.7481
  303MPD2    C1 4559   1.279   2.235  10.198  1.0401 -0.1325  0.3286
  303MPD2    C2 4560   1.309   2.162  10.084  0.1448  0.4463  0.0208
  303MPD2    C3 4561   1.369   2.218   9.975 -0.1480  0.3825 -0.5820
  303MPD2    C4 4562   1.425   2.346   9.985  0.3332 -0.2113 -0.2566
  303MPD2    C5 4563   1.397   2.418  10.106  0.2713  0.3085 -0.2321
  303MPD2     H 4564   1.268   2.062  10.082 -1.6575  1.1139  2.8397
  303MPD2    H1 4565   1.480   2.403   9.910  1.7704  1.2300  1.8831
  303MPD2    H2 4566   1.296   2.436  10.290 -0.7979  0.3471 -1.2469
  303MPD2    H3 4567   1.436   2.518  10.123 -0.2712  0.2589  1.2806
  303MPD2     N 4568   1.366   2.167   9.844 -0.5650 -0.4385  0.0384
  303MPD2    H5 4569   1.424   2.212   9.775 -1.5183 -0.8297 -1.0216
  303MPD2    N1 4570   1.207   2.179  10.303 -0.1951 -0.1235  0.2531
  303MPD2    H7 4571   1.178   2.243  10.376 -0.4041 -2.1853  1.9674
  304TMC3    C1 4572   1.079   2.035  10.420 -0.1673 -0.0442 -0.1943
  304TMC3    C2 4573   0.960   2.104  10.419 -0.4528 -0.2486  0.9893
  304TMC3    C3 4574   0.857   2.056  10.496  0.3565 -0.1229  0.3499
  304TMC3    C4 4575   1.096   1.923  10.496 -0.4875  0.5964 -0.6147
  304TMC3    C5 4576   0.990   1.879  10.573  0.0095  0.3410  0.4901
  304TMC3    C6 4577   0.868   1.946  10.578  0.8984  0.1117 -0.3179
  304TMC3     C 4578   1.169   2.048  10.314  0.4677 -0.0584 -1.4665
  304TMC3     O 4579   1.204   1.947  10.260  0.3808 -0.5035 -0.2356
  304TMC3     H 4580   0.946   2.181  10.345 -0.8041 -0.3711  0.9269
  304TMC3    H1 4581   1.182   1.860  10.477  0.6342  1.4922  1.6054
  304TMC3    H2 4582   0.778   1.900  10.617  1.2152 -0.6142 -0.4549
  304TMC3    C7 4583   0.975   1.735  10.576  0.4910 -0.5425 -0.6456
  304TMC3    C8 4584   0.744   2.034  10.403  0.1582  0.0741  0.3043
  304TMC3    O1 4585   0.863   1.695  10.579 -0.3495  0.2593 -0.7674
  304TMC3    O2 4586   0.697   2.131  10.348 -0.3012  0.1991  0.5887
  305MPD2     C 4587   4.116   0.556  13.982 -0.5151 -0.1727 -0.1441
  305MPD2    C1 4588   4.146   0.426  14.024 -0.1233  0.0792  0.2257
  305MPD2    C2 4589   4.153   0.321  13.933 -0.0866  0.3756  1.0336
  305MPD2    C3 4590   4.158   0.356  13.798 -0.6277 -0.4631  0.3518
  305MPD2    C4 4591   4.130   0.483  13.752 -0.3364  0.1183  0.4258
  305MPD2    C5 4592   4.109   0.581  13.845 -0.1917 -0.2595  0.0311
  305MPD2     H 4593   4.177   0.221  13.968 -1.8546  0.0697  1.3723
  305MPD2    H1 4594   4.107   0.490  13.646 -1.9056 -2.0927  0.6070
  305MPD2    H2 4595   4.099   0.634  14.055  0.2648  1.5459 -1.7991
  305MPD2    H3 4596   4.089   0.674  13.792 -0.2649  1.0536  2.3639
  305MPD2     N 4597   4.167   0.256  13.700 -0.6454 -0.0380  0.5172
  305MPD2    H5 4598   4.180   0.291  13.606  0.6735 -0.7095  0.4602
  305MPD2    N1 4599   4.172   0.414  14.165 -0.6199  0.3982 -0.1961
  305MPD2    H7 4600   4.177   0.502  14.214  2.7208  0.1732 -0.1223
  306TMC3    C1 4601   4.293   0.348  14.349  0.5579 -0.1865  0.2639
  306TMC3    C2 4602   4.316   0.262  14.446 -0.1054  0.0687  0.9304
  306TMC3    C3 4603   4.393   0.296  14.557 -0.4636 -0.6911  0.7199
  306TMC3    C4 4604   4.340   0.473  14.365  0.0934 -0.1311  0.5758
  306TMC3    C5 4605   4.423   0.510  14.471  0.3385 -0.0909  0.8299
  306TMC3    C6 4606   4.446   0.422  14.576 -0.0933 -0.1055  0.2221
  306TMC3     C 4607   4.233   0.308  14.223 -0.5324 -0.8267  0.8844
  306TMC3     O 4608   4.230   0.193  14.187  0.3591  0.1505 -0.5470
  306TMC3     H 4609   4.294   0.157  14.434 -0.6113  0.0449  2.0902
  306TMC3    H1 4610   4.321   0.552  14.294 -0.2462  0.0643  0.8819
  306TMC3    H2 4611   4.530   0.436  14.642  1.7308  2.0739 -2.5366
  306TMC3    C7 4612   4.529   0.610  14.457 -0.1914  0.1277  0.2918
  306TMC3    C8 4613   4.442   0.187  14.621 -0.2732  0.1815 -0.2806
  306TMC3    O1 4614   4.591   0.612  14.349 -0.0688  0.6414 -0.5510
  306TMC3    O2 4615   4.463   0.080  14.568 -0.1940  0.8386 -0.2983
  307MPD2     C 4616   2.421   2.537   1.380  0.5627 -0.0647 -0.4863
  307MPD2    C1 4617   2.340   2.548   1.268  0.5480  0.0000  0.1754
  307MPD2    C2 4618   2.206   2.550   1.281  0.0056  0.1151  0.1397
  307MPD2    C3 4619   2.150   2.532   1.405 -0.0894  0.0603  0.0054
  307MPD2    C4 4620   2.225   2.536   1.518 -0.1780  0.3012 -0.5179
  307MPD2    C5 4621   2.364   2.530   1.504  0.0216 -0.5928  0.4656
  307MPD2     H 4622   2.138   2.534   1.198 -0.7596 -0.1973  0.8286
  307MPD2    H1 4623   2.195   2.524   1.621  0.9326  0.7678 -0.1327
  307MPD2    H2 4624   2.529   2.534   1.367  0.4568 -0.6051 -1.2325
  307MPD2    H3 4625   2.419   2.510   1.595 -0.2389  0.6082  0.8846
  307MPD2     N 4626   2.006   2.513   1.415 -0.5701  0.0490  0.2205
  307MPD2    H5 4627   1.970   2.513   1.320  1.7308  0.6794 -0.6664
  307MPD2    N1 4628   2.393   2.570   1.143  0.0971 -0.3428 -0.0049
  307MPD2    H7 4629   2.321   2.593   1.075  1.2895  0.9370 -0.8547
  308TMC3    C1 4630   1.617   2.399   1.374  0.9489 -0.7552  0.0624
  308TMC3    C2 4631   1.520   2.483   1.419 -0.6224 -0.0203 -0.6910
  308TMC3    C3 4632   1.561   2.590   1.493  0.2668 -0.4714 -0.6202
  308TMC3    C4 4633   1.753   2.417   1.396 -0.3189  0.2989  0.1809
  308TMC3    C5 4634   1.786   2.527   1.467  0.2634 -0.3850  0.2322
  308TMC3    C6 4635   1.693   2.614   1.514  0.6299 -0.2646 -0.2778
  308TMC3     C 4636   1.575   2.351   1.253  0.1902  0.1185 -0.7864
  308TMC3     O 4637   1.603   2.235   1.228  0.3092 -0.0877  0.7357
  308TMC3     H 4638   1.416   2.460   1.402 -0.6014 -0.6922  0.1334
  308TMC3    H1 4639   1.828   2.347   1.361  0.9525  1.1185  1.2602
  308TMC3    H2 4640   1.726   2.691   1.583 -0.1170  1.1337 -1.4728
  308TMC3    C7 4641   1.924   2.530   1.519 -0.0007  0.4112  0.0209
  308TMC3    C8 4642   1.476   2.700   1.498 -0.4266  0.7512 -0.2903
  308TMC3    O1 4643   1.956   2.582   1.621 -0.4405  0.2238 -0.0259
  308TMC3    O2 4644   1.360   2.682   1.542  0.0266 -0.4382 -0.2539
  309MPD2     C 4645   1.309   2.965  17.182  0.6178  1.0208 -0.3034
  309MPD2    C1 4646   1.225   3.034  17.101  0.0301  0.3851 -0.7100
  309MPD2    C2 4647   1.117   3.099  17.151 -0.2143 -0.2143 -0.0379
  309MPD2    C3 4648   1.085   3.095  17.283  0.0036 -0.9739 -0.0980
  309MPD2    C4 4649   1.166   3.020  17.362 -0.0465  0.0291 -0.4099
  309MPD2    C5 4650   1.277   2.962  17.314 -0.0095  0.8356 -0.0583
  309MPD2     H 4651   1.062   3.167  17.086 -0.7670  0.1228  0.7882
  309MPD2    H1 4652   1.150   3.009  17.469 -3.3847  1.4820 -0.7418
  309MPD2    H2 4653   1.406   2.926  17.155  1.3254  2.7896 -0.3360
  309MPD2    H3 4654   1.342   2.921  17.391 -0.9076  0.6581  0.6084
  309MPD2     N 4655   0.975   3.164  17.345  0.8084 -0.4050 -0.2302
  309MPD2    H5 4656   0.963   3.148  17.445 -1.4513 -0.8997 -0.5628
  309MPD2    N1 4657   1.257   3.055  16.963 -0.2340  0.2737 -0.0172
  309MPD2    H7 4658   1.203   3.120  16.907  1.0711  2.5995  1.4409
  310TMC3    C1 4659   1.375   3.013  16.754 -0.1086 -0.5953  0.2440
  310TMC3    C2 4660   1.303   3.107  16.683 -0.1721  0.5358  0.0094
  310TMC3    C3 4661   1.354   3.158  16.568 -0.1375  0.1502 -0.2363
  310TMC3    C4 4662   1.503   2.973  16.712 -0.6830 -0.7260  0.1410
  310TMC3    C5 4663   1.552   3.026  16.597  0.1857 -0.3388  0.0108
  310TMC3    C6 4664   1.474   3.115  16.518 -0.4996  0.4703 -0.1383
  310TMC3     C 4665   1.344   2.975  16.894 -0.3200  0.3658 -0.3365
  310TMC3     O 4666   1.409   2.886  16.937  0.3904  0.6927 -0.3635
  310TMC3     H 4667   1.203   3.126  16.722  0.7811  0.2399  2.5698
  310TMC3    H1 4668   1.568   2.911  16.772  1.0021  2.2964  1.4530
  310TMC3    H2 4669   1.517   3.163  16.431 -1.8162  1.8939 -0.0053
  310TMC3    C7 4670   1.682   2.977  16.555  0.6433  0.0792  0.0979
  310TMC3    C8 4671   1.272   3.244  16.485  0.6068 -0.1018  0.0935
  310TMC3    O1 4672   1.704   2.860  16.575  0.0346 -0.3658  0.1336
  310TMC3    O2 4673   1.305   3.253  16.365  0.1586  0.0504  0.2072
  311MPD2     C 4674   3.298   4.267  12.974  0.1051 -0.6757  0.1852
  311MPD2    C1 4675   3.315   4.390  13.047 -0.3360 -0.0670  0.8461
  311MPD2    C2 4676   3.206   4.430  13.127  0.2932  0.3973 -0.2696
  311MPD2    C3 4677   3.089   4.357  13.131  0.3914  0.4575 -0.7142
  311MPD2    C4 4678   3.075   4.241  13.056 -0.7735  0.3908  0.5718
  311MPD2    C5 4679   3.180   4.197  12.976 -0.4402 -0.0769  0.2421
  311MPD2     H 4680   3.225   4.520  13.185 -1.4345  0.7255 -0.1951
  311MPD2    H1 4681   2.977   4.195  13.053 -0.5241  0.0132 -1.9598
  311MPD2    H2 4682   3.374   4.230  12.906 -0.7682 -1.6909 -0.2391
  311MPD2    H3 4683   3.171   4.101  12.927  1.1042  1.2829 -2.6891
  311MPD2     N 4684   2.980   4.398  13.212 -0.0683  0.3991  0.1291
  311MPD2    H5 4685   2.921   4.324  13.248 -0.5621  0.8590  0.2534
  311MPD2    N1 4686   3.422   4.473  13.029 -0.0243  0.0241 -0.0822
  311MPD2    H7 4687   3.427   4.557  13.086  0.1027 -0.1605  0.1745
  312TMC3    C1 4688   2.801   4.535  13.267  0.5141  0.0574 -0.5399
  312TMC3    C2 4689   2.721   4.605  13.185  0.5775 -0.7306 -0.3277
  312TMC3    C3 4690   2.587   4.592  13.207  0.0622 -0.1378 -0.4937
  312TMC3    C4 4691   2.761   4.461  13.375  0.1644  0.9304  0.0938
  312TMC3    C5 4692   2.628   4.450  13.397 -0.3131 -0.1109 -0.8140
  312TMC3    C6 4693   2.543   4.509  13.308 -0.2811 -0.3119  0.5151
  312TMC3     C 4694   2.938   4.527  13.226 -0.3500 -0.4709 -0.8938
  312TMC3     O 4695   2.989   4.624  13.182 -0.6556  0.1092 -0.0522
  312TMC3     H 4696   2.776   4.646  13.101  0.2318  0.0033 -0.1935
  312TMC3    H1 4697   2.837   4.421  13.441  0.6422 -0.8838 -1.5809
  312TMC3    H2 4698   2.436   4.501  13.317 -0.0790 -1.2849  2.1346
  312TMC3    C7 4699   2.589   4.383  13.517 -0.1655  0.0221  0.1335
  312TMC3    C8 4700   2.509   4.573  13.089  0.4166  0.3857 -0.1655
  312TMC3    O1 4701   2.486   4.314  13.510  0.3740 -0.0668  0.8210
  312TMC3    O2 4702   2.458   4.459  13.085  0.0519  0.5685 -0.0986
  313MPD2     C 4703   2.988   3.868  11.226 -0.1623 -0.6925  0.2490
  313MPD2    C1 4704   2.862   3.812  11.234 -0.3745 -0.0352 -0.2965
  313MPD2    C2 4705   2.807   3.748  11.128 -0.2866  0.4723  0.8300
  313MPD2    C3 4706   2.879   3.767  11.009 -0.1874  0.8744  0.3756
  313MPD2    C4 4707   3.007   3.808  10.999  0.5031  0.5070 -0.0693
  313MPD2    C5 4708   3.064   3.857  11.114 -0.2274  0.1379  0.0354
  313MPD2     H 4709   2.708   3.702  11.123 -0.1282  0.3235 -1.2050
  313MPD2    H1 4710   3.070   3.814  10.912  0.0327  2.3860 -0.2804
  313MPD2    H2 4711   3.028   3.915  11.315 -2.2052 -0.4597  1.0447
  313MPD2    H3 4712   3.165   3.895  11.112 -0.2443  0.1721 -0.1544
  313MPD2     N 4713   2.813   3.725  10.891 -0.7850  0.9157 -0.1187
  313MPD2    H5 4714   2.725   3.675  10.898  0.7786 -1.7147  0.8965
  313MPD2    N1 4715   2.801   3.821  11.363 -0.2904 -0.0835  0.0492
  313MPD2    H7 4716   2.856   3.870  11.433 -1.8538  2.0838 -0.2161
  314TMC3    C1 4717   2.605   3.884  11.480  0.4197  0.1635 -0.2115
  314TMC3    C2 4718   2.693   3.982  11.500  0.0571 -0.1962  0.4429
  314TMC3    C3 4719   2.672   4.097  11.429  0.4541  0.1361  0.6849
  314TMC3    C4 4720   2.487   3.900  11.424  0.4097  0.0464  0.2138
  314TMC3    C5 4721   2.484   3.999  11.334 -0.1522 -0.5235  0.3253
  314TMC3    C6 4722   2.570   4.102  11.338  0.2313  0.2950  0.1855
  314TMC3     C 4723   2.675   3.784  11.398  0.2397 -0.3621 -0.5557
  314TMC3     O 4724   2.589   3.721  11.340 -0.0434  0.1464  0.1653
  314TMC3     H 4725   2.768   3.973  11.578  0.6042  1.1620  0.0643
  314TMC3    H1 4726   2.417   3.817  11.422  2.3029 -1.5490 -0.7700
  314TMC3    H2 4727   2.540   4.189  11.280 -0.6157  0.7082  1.2323
  314TMC3    C7 4728   2.417   3.972  11.207 -0.4181  0.1018 -0.1830
  314TMC3    C8 4729   2.783   4.181  11.401 -0.2991 -0.1590  0.0011
  314TMC3    O1 4730   2.313   3.911  11.220 -0.0859  0.0108  0.1776
  314TMC3    O2 4731   2.764   4.264  11.312  0.1300 -0.1930 -0.1369
  315MPD2     C 4732   2.618   3.130   0.280  0.5824 -0.8719  1.0081
  315MPD2    C1 4733   2.698   3.189   0.383 -0.0539 -0.3072  0.5243
  315MPD2    C2 4734   2.754   3.317   0.365  0.1809 -0.0046  0.1564
  315MPD2    C3 4735   2.732   3.392   0.248 -0.4574 -0.2594 -0.0348
  315MPD2    C4 4736   2.650   3.334   0.155  0.4728 -0.1907  0.1398
  315MPD2    C5 4737   2.595   3.205   0.169  0.4190  0.2860  0.0419
  315MPD2     H 4738   2.819   3.365   0.438 -0.7950 -0.4792  1.3275
  315MPD2    H1 4739   2.621   3.388   0.065 -1.2392 -1.1210  0.1367
  315MPD2    H2 4740   2.570   3.033   0.284  0.8676 -1.0594 -0.0013
  315MPD2    H3 4741   2.526   3.177   0.091 -1.6923 -2.1259  2.8034
  315MPD2     N 4742   2.803   3.512   0.234  0.6479 -0.1760 -0.0534
  315MPD2    H5 4743   2.874   3.539   0.302 -1.3299  3.2080  0.6622
  315MPD2    N1 4744   2.732   3.129   0.503 -0.4950  0.5467 -0.2728
  315MPD2    H7 4745   2.800   3.180   0.559 -1.6177  0.4860  1.1465
  316TMC3    C1 4746   2.901   3.704   0.157  0.3076  0.2883  0.4120
  316TMC3    C2 4747   2.947   3.738   0.288  0.7151 -0.0127 -0.0050
  316TMC3    C3 4748   3.021   3.857   0.298 -0.6583  0.9452 -0.1770
  316TMC3    C4 4749   2.921   3.789   0.051 -0.0180 -0.4815  0.9817
  316TMC3    C5 4750   2.990   3.911   0.070  0.2680  0.3263 -0.0550
  316TMC3    C6 4751   3.042   3.945   0.191 -0.6376  0.3637 -0.2492
  316TMC3     C 4752   2.804   3.605   0.131 -0.3158 -0.4551 -0.0284
  316TMC3     O 4753   2.738   3.615   0.029 -0.5913  0.2063  0.0121
  316TMC3     H 4754   2.939   3.669   0.371 -0.8211 -1.3528 -1.2637
  316TMC3    H1 4755   2.899   3.746  17.651 -4.5740 -1.3400  2.4083
  316TMC3    H2 4756   3.107   4.032   0.195 -1.7868  1.1137  2.2605
  316TMC3    C7 4757   3.021   3.990  17.646  0.1396 -0.0171 -0.0062
  316TMC3    C8 4758   3.105   3.880   0.412 -0.0185 -0.4525 -0.1032
  316TMC3    O1 4759   3.113   4.069  17.665 -0.0612  0.3450 -0.1099
  316TMC3    O2 4760   3.107   4.000   0.452 -0.1942 -0.1475 -0.0375
  317MPD2     C 4761   4.084   1.862  13.330  0.6937  0.7950  0.2820
  317MPD2    C1 4762   4.092   1.730  13.292  0.0629 -0.3265 -0.3141
  317MPD2    C2 4763   4.202   1.653  13.330  0.1366  0.2770  0.4573
  317MPD2    C3 4764   4.314   1.715  13.386 -0.3333 -0.3409  0.3742
  317MPD2    C4 4765   4.300   1.849  13.419 -0.4365  0.6540 -0.1168
  317MPD2    C5 4766   4.191   1.926  13.386  0.0187 -0.2773 -0.7402
  317MPD2     H 4767   4.209   1.547  13.307  1.4571  0.5757 -0.4917
  317MPD2    H1 4768   4.380   1.902  13.469  0.7892 -0.4783 -0.8847
  317MPD2    H2 4769   3.998   1.924  13.307  0.6797  1.3764  1.9529
  317MPD2    H3 4770   4.182   2.033  13.404 -1.0702 -0.5261  0.2231
  317MPD2     N 4771   4.436   1.640  13.417 -0.0047  0.4936 -0.5698
  317MPD2    H5 4772   4.429   1.541  13.399  0.6833  0.0112  1.9292
  317MPD2    N1 4773   3.992   1.664  13.215  0.3938  0.3114 -0.4491
  317MPD2    H7 4774   4.004   1.569  13.184  2.7691  0.2343  0.7166
  318TMC3    C1 4775   4.665   1.599  13.408 -0.8324 -0.7342  1.2301
  318TMC3    C2 4776   4.667   1.484  13.481  0.7548 -0.8192  0.5868
  318TMC3    C3 4777   0.066   1.416  13.502  0.5431  0.3182 -0.0274
  318TMC3    C4 4778   0.060   1.652  13.358 -0.2406 -0.9639  0.7082
  318TMC3    C5 4779   0.174   1.577  13.369 -0.0582 -0.2037 -0.7550
  318TMC3    C6 4780   0.183   1.464  13.448  0.2170  0.6215 -0.1466
  318TMC3     C 4781   4.557   1.699  13.418  0.1401 -0.5221 -0.5156
  318TMC3     O 4782   4.575   1.818  13.395  0.1741  0.2359 -0.6814
  318TMC3     H 4783   4.572   1.456  13.524  1.3042 -2.9707  0.3878
  318TMC3    H1 4784   0.062   1.737  13.291 -0.5733 -2.1026 -0.7494
  318TMC3    H2 4785   0.275   1.411  13.470  0.4178  1.8666  2.0692
  318TMC3    C7 4786   0.274   1.616  13.275  0.1859 -0.5225 -0.0466
  318TMC3    C8 4787   0.051   1.284  13.550 -0.0042 -0.6718 -0.0294
  318TMC3    O1 4788   0.253   1.665  13.169  0.0664  0.2174 -0.0162
  318TMC3    O2 4789   0.151   1.223  13.580  0.5351 -0.4281  0.1972
  319MPD2     C 4790   0.136   2.836  17.335 -0.7109 -0.1693  0.0163
  319MPD2    C1 4791   0.178   2.713  17.300  0.0083 -0.5504  0.4742
  319MPD2    C2 4792   0.167   2.664  17.167 -0.5774 -0.2094 -0.2567
  319MPD2    C3 4793   0.133   2.749  17.063 -0.5846 -0.5605  0.1330
  319MPD2    C4 4794   0.098   2.878  17.092 -0.0549  0.2768  0.3868
  319MPD2    C5 4795   0.094   2.913  17.230  0.0121 -0.5266 -0.5363
  319MPD2     H 4796   0.192   2.560  17.147  1.5401 -0.1295  2.0363
  319MPD2    H1 4797   0.082   2.953  17.015  3.1474  2.6117  1.9787
  319MPD2    H2 4798   0.141   2.869  17.438 -0.5645 -2.0288  0.6005
  319MPD2    H3 4799   0.071   3.016  17.252  1.0772 -0.9455  2.6011
  319MPD2     N 4800   0.115   2.701  16.929  0.0864 -0.3201  0.6013
  319MPD2    H5 4801   0.082   2.759  16.853 -1.1534 -0.5189  0.9971
  319MPD2    N1 4802   0.238   2.616  17.380 -0.7985 -0.3057 -0.0331
  319MPD2    H7 4803   0.287   2.537  17.341  0.1860 -0.9090  2.3996
  320TMC3    C1 4804   0.169   2.565  16.746  0.4836 -0.2023 -0.2101
  320TMC3    C2 4805   0.111   2.657  16.669 -0.2592  0.7159  0.6102
  320TMC3    C3 4806   0.110   2.637  16.531  0.4720 -1.1742  0.3010
  320TMC3    C4 4807   0.245   2.461  16.697  0.5157 -0.1125 -1.0507
  320TMC3    C5 4808   0.263   2.456  16.556 -0.4819  0.0566 -0.0753
  320TMC3    C6 4809   0.183   2.534  16.473 -0.5288  0.2681  0.4864
  320TMC3     C 4810   0.181   2.588  16.884  0.1872 -0.6304  0.1381
  320TMC3     O 4811   0.247   2.502  16.946 -0.4240  0.3297 -0.5510
  320TMC3     H 4812   0.073   2.752  16.706 -1.0059  0.0964  1.4536
  320TMC3    H1 4813   0.290   2.385  16.760  0.3092 -0.0842 -0.8658
  320TMC3    H2 4814   0.209   2.540  16.368 -3.3828 -2.3275 -0.3804
  320TMC3    C7 4815   0.327   2.345  16.485 -0.4100  0.3592  0.5438
  320TMC3    C8 4816   0.050   2.744  16.448 -0.0151 -0.8878  0.3703
  320TMC3    O1 4817   0.328   2.349  16.361 -0.0119  1.0850  0.6904
  320TMC3    O2 4818   0.001   2.845  16.498 -0.0507 -0.0729  0.0093
  321TMC3    C1 4819   0.342   2.525  17.570 -0.8562 -0.0673 -0.0186
  321TMC3    C2 4820   0.406   2.446  17.481  0.2008  0.7195  0.1952
  321TMC3    C3 4821   0.479   2.345  17.536  0.3237 -0.0579  0.1681
  321TMC3    C4 4822   0.342   2.509   0.012 -0.0134  0.1963  0.0439
  321TMC3    C5 4823   0.414   2.401   0.056  1.0061 -0.2147  0.3030
  321TMC3    C6 4824   0.484   2.323  17.667  0.2648  0.6539 -0.7342
  321TMC3     C 4825   0.263   2.630  17.512  0.9658 -0.6173 -0.1908
  321TMC3     O 4826   0.213   2.713  17.582 -0.2020  0.0837  0.0057
  321TMC3     H 4827   0.426   2.472  17.378 -0.6714  1.8561  0.3101
  321TMC3    H1 4828   0.283   2.570   0.078  0.0658  0.0407  0.2596
  321TMC3    H2 4829   0.540   2.238   0.009  0.1592  1.3807  1.0549
  321TMC3    C7 4830   0.499   2.439   0.169  0.7711  0.2115 -0.3477
  321TMC3    C8 4831   0.624   2.346  17.495 -0.0107  0.2429  0.1168
  321TMC3    O1 4832   0.450   2.444   0.279 -0.4009  0.0393  0.5070
  321TMC3    O2 4833   0.700   2.299  17.582 -0.2930 -0.6644  0.8944
  322MPD2     C 4834   4.170   4.438  13.830  0.8727  0.0219 -0.6597
  322MPD2    C1 4835   4.109   4.363  13.924  0.0287 -0.4344 -0.6870
  322MPD2    C2 4836   4.082   4.228  13.897  0.0019 -0.2281  0.0437
  322MPD2    C3 4837   4.120   4.177  13.771 -0.1329 -0.3677 -0.7244
  322MPD2    C4 4838   4.156   4.261  13.669 -0.3890 -0.5358 -0.0923
  322MPD2    C5 4839   4.190   4.390  13.698 -0.0226  0.2000 -0.0109
  322MPD2     H 4840   4.050   4.158  13.974  0.4675 -0.9629 -0.4293
  322MPD2    H1 4841   4.191   4.220  13.575 -0.2970  1.7538 -1.0664
  322MPD2    H2 4842   4.210   4.534  13.858  0.1819  0.4968 -1.3028
  322MPD2    H3 4843   4.235   4.450  13.619  0.0205 -0.9870 -0.8881
  322MPD2     N 4844   4.098   4.040  13.754 -0.1925 -0.3776 -0.1119
  322MPD2    H5 4845   4.057   3.989  13.831 -0.4324  0.4090  0.2773
  322MPD2    N1 4846   4.105   4.430  14.047  0.1213  0.0993 -0.8900
  322MPD2    H7 4847   4.140   4.525  14.045 -1.3323  0.6871  1.4704
  323TMC3    C1 4848   4.136   4.455  14.288  0.0313  0.3755  0.1604
  323TMC3    C2 4849   4.231   4.552  14.264 -0.1362  0.1383 -1.0038
  323TMC3    C3 4850   4.300   4.599  14.377 -0.4008  0.7028 -0.5613
  323TMC3    C4 4851   4.115   4.405  14.415  0.2469 -1.2745 -0.0304
  323TMC3    C5 4852   4.203   4.436  14.520 -0.3838 -0.6381  0.5194
  323TMC3    C6 4853   4.287   4.546  14.503  0.8376  0.4272 -0.3986
  323TMC3     C 4854   4.090   4.373  14.172 -0.4171 -0.4967 -0.8171
  323TMC3     O 4855   4.086   4.255  14.205 -0.3109 -0.2213 -0.4508
  323TMC3     H 4856   4.269   4.578  14.166 -1.2880  1.7498 -1.0300
  323TMC3    H1 4857   4.045   4.323  14.431 -2.2779  0.9908  0.5172
  323TMC3    H2 4858   4.357   4.577  14.580  0.8996  0.6469 -0.5400
  323TMC3    C7 4859   4.270   4.319  14.584  0.1632 -0.0759  0.3538
  323TMC3    C8 4860   4.437   4.619  14.343 -0.0126  0.1347  0.5067
  323TMC3    O1 4861   4.266   4.213  14.522 -0.0854 -0.5144  0.3283
  323TMC3    O2 4862   4.521   4.566  14.410  0.6399  0.0433 -0.4241
  324MPD2     C 4863   1.568   0.539  14.733  0.9249  0.1950  0.0886
  324MPD2    C1 4864   1.589   0.668  14.690  0.5384  0.3029 -0.2224
  324MPD2    C2 4865   1.495   0.740  14.627  0.0140 -0.0346  0.4737
  324MPD2    C3 4866   1.364   0.688  14.605  0.1731 -0.2858 -0.6230
  324MPD2    C4 4867   1.337   0.559  14.654  0.0234 -0.6708  0.0601
  324MPD2    C5 4868   1.441   0.487  14.704 -0.0775  0.1267 -0.0196
  324MPD2     H 4869   1.521   0.843  14.605 -0.5003 -0.0903 -0.3718
  324MPD2    H1 4870   1.244   0.506  14.641 -1.3404  1.4650  1.1661
  324MPD2    H2 4871   1.652   0.482  14.771  1.0486 -0.6814 -1.4630
  324MPD2    H3 4872   1.424   0.383  14.729  0.8828 -0.2960 -1.1552
  324MPD2     N 4873   1.253   0.757  14.550  0.1561  0.4529 -0.4907
  324MPD2    H5 4874   1.169   0.700  14.540  2.4813 -2.8780 -0.9625
  324MPD2    N1 4875   1.719   0.721  14.719  0.0850  0.8183 -0.3488
  324MPD2    H7 4876   1.783   0.671  14.780 -0.7837  1.0544  0.7573
  325TMC3    C1 4877   1.106   0.923  14.455 -0.0935 -0.7019 -0.4654
  325TMC3    C2 4878   1.016   0.819  14.456 -0.5937  0.3927 -0.0396
  325TMC3    C3 4879   0.883   0.859  14.443  0.0494  0.3827 -0.0075
  325TMC3    C4 4880   1.069   1.054  14.445  0.2301 -0.1740  0.3824
  325TMC3    C5 4881   0.938   1.084  14.431  0.8762 -0.6053 -0.0364
  325TMC3    C6 4882   0.843   0.988  14.444 -0.3272 -0.1033 -0.0685
  325TMC3     C 4883   1.240   0.887  14.503 -0.2117 -0.1518  0.5865
  325TMC3     O 4884   1.331   0.969  14.502  0.1063 -0.5828  0.4135
  325TMC3     H 4885   1.035   0.714  14.437 -0.9775  0.1778  0.7583
  325TMC3    H1 4886   1.147   1.130  14.440 -1.7144  1.8407  0.4099
  325TMC3    H2 4887   0.739   1.010  14.421 -0.6614 -0.0251  1.5563
  325TMC3    C7 4888   0.901   1.218  14.404  0.2293 -0.4375 -0.1875
  325TMC3    C8 4889   0.806   0.787  14.348 -0.5016  0.0149  1.1639
  325TMC3    O1 4890   0.968   1.284  14.327  0.2395 -0.3339  0.4236
  325TMC3    O2 4891   0.865   0.716  14.270 -0.4219 -0.2574  0.2618
  326MPD2     C 4892   2.002   1.601  11.169  0.7015 -0.5348  0.4253
  326MPD2    C1 4893   1.920   1.654  11.067  0.1894  0.6339 -0.0963
  326MPD2    C2 4894   1.972   1.760  10.996 -0.4845 -0.2456  0.2047
  326MPD2    C3 4895   2.090   1.818  11.037 -0.0834 -0.2846  0.2039
  326MPD2    C4 4896   2.160   1.770  11.146  0.1857  0.2819  0.0459
  326MPD2    C5 4897   2.118   1.656  11.213  0.3818 -1.3117 -0.6906
  326MPD2     H 4898   1.915   1.788  10.908 -0.6894  2.8575  1.3267
  326MPD2    H1 4899   2.250   1.821  11.178  0.3376 -0.2311  0.4240
  326MPD2    H2 4900   1.965   1.515  11.223 -0.9852  0.7900  1.4107
  326MPD2    H3 4901   2.159   1.607  11.301  2.5975  0.2768 -0.8485
  326MPD2     N 4902   2.155   1.914  10.956 -0.5920 -0.4822 -0.1388
  326MPD2    H5 4903   2.219   1.980  10.999 -0.6147 -1.8858  2.0324
  326MPD2    N1 4904   1.803   1.593  11.021  0.1645  0.5664  0.4176
  326MPD2    H7 4905   1.748   1.649  10.956 -0.2864 -1.0761 -0.6288
  327TMC3    C1 4906   1.652   1.427  10.977 -0.8890  0.9138  0.3226
  327TMC3    C2 4907   1.576   1.523  10.920  0.1171  0.8820  0.0527
  327TMC3    C3 4908   1.536   1.511  10.786 -0.5677  0.4168  0.1470
  327TMC3    C4 4909   1.689   1.315  10.904 -0.9173  0.1486  1.0884
  327TMC3    C5 4910   1.661   1.311  10.770 -0.3994 -0.0502  0.2077
  327TMC3    C6 4911   1.588   1.410  10.706 -0.7828 -0.4567 -1.1987
  327TMC3     C 4912   1.754   1.470  11.062 -0.5671  0.4647 -0.2078
  327TMC3     O 4913   1.810   1.382  11.132  0.4247  0.2898  0.1972
  327TMC3     H 4914   1.546   1.608  10.981 -1.5401  0.6202 -0.3762
  327TMC3    H1 4915   1.757   1.240  10.942 -0.0271  0.6568  0.4894
  327TMC3    H2 4916   1.563   1.403  10.601 -0.4757  0.7151 -1.3512
  327TMC3    C7 4917   1.782   1.268  10.698 -0.3774 -0.1222  0.2065
  327TMC3    C8 4918   1.510   1.640  10.714 -0.1889 -0.0569  0.6985
  327TMC3    O1 4919   1.872   1.206  10.757 -0.4285  0.6510 -0.1218
  327TMC3    O2 4920   1.555   1.643  10.601  0.4705  0.7637 -0.4854
  328MPD2     C 4921   0.059   1.038  16.975 -0.1755  0.0456 -0.2951
  328MPD2    C1 4922   0.087   1.109  17.092 -0.3719 -0.2417  0.3352
  328MPD2    C2 4923   0.030   1.234  17.106  0.1371 -0.1428  0.4550
  328MPD2    C3 4924   4.666   1.287  17.012 -0.2172 -0.7143 -0.2216
  328MPD2    C4 4925   4.627   1.206  16.903  0.6294  0.2126 -1.0538
  328MPD2    C5 4926   4.696   1.091  16.878  0.5634  0.0218  0.6517
  328MPD2     H 4927   0.049   1.284  17.200  0.7088 -1.8053  1.2201
  328MPD2    H1 4928   4.556   1.238  16.827 -1.5707  1.3264  1.4606
  328MPD2    H2 4929   0.103   0.939  16.965 -0.7784 -0.2833  0.3371
  328MPD2    H3 4930   4.676   1.023  16.795 -0.9525 -1.1188  1.9480
  328MPD2     N 4931   4.584   1.398  17.039 -0.1067  0.0912 -0.5662
  328MPD2    H5 4932   4.508   1.423  16.977 -0.6410 -0.4858 -0.1503
  328MPD2    N1 4933   0.164   1.046  17.188  0.5140  0.0329 -0.0671
  328MPD2    H7 4934   0.185   0.948  17.168 -2.6317 -1.0595  2.0597
  329TMC3    C1 4935   0.277   1.017  17.402  0.2801 -0.3742  0.3686
  329TMC3    C2 4936   0.334   1.079  17.504  0.4718 -0.1928 -0.1034
  329TMC3    C3 4937   0.330   1.009  17.623  0.2930  0.0860 -0.3463
  329TMC3    C4 4938   0.215   0.894  17.408 -0.3484 -0.3481 -0.0926
  329TMC3    C5 4939   0.221   0.833  17.531 -0.1678 -0.1395  0.2107
  329TMC3    C6 4940   0.276   0.891  17.638 -0.4207 -0.2987 -0.2026
  329TMC3     C 4941   0.218   1.110  17.296 -0.6307  0.1353  0.4598
  329TMC3     O 4942   0.237   1.227  17.319  0.0615  0.5233  0.5543
  329TMC3     H 4943   0.369   1.181  17.494  0.1868  0.0076  0.9173
  329TMC3    H1 4944   0.162   0.850  17.324 -1.2913  0.6765 -0.0312
  329TMC3    H2 4945   0.275   0.832   0.033 -2.8971  1.6846  1.0597
  329TMC3    C7 4946   0.183   0.689  17.543 -0.4649  0.2210 -0.1424
  329TMC3    C8 4947   0.403   1.064   0.043  0.1823  0.1495 -0.5306
  329TMC3    O1 4948   0.177   0.635  17.653 -0.0788  0.4638  0.6326
  329TMC3    O2 4949   0.452   0.983   0.120  0.1630  0.4278  0.2962
  330TMC3    C1 4950   2.537   0.857   9.885  0.1835 -0.3740 -0.0679
  330TMC3    C2 4951   2.478   0.797   9.775  0.1410 -0.2544 -0.2220
  330TMC3    C3 4952   2.499   0.664   9.762 -0.8625 -0.0886  0.3868
  330TMC3    C4 4953   2.609   0.791   9.981 -0.6227  0.6669 -0.1544
  330TMC3    C5 4954   2.634   0.657   9.962 -0.3605  0.1019  0.3716
  330TMC3    C6 4955   2.584   0.601   9.847 -0.1691 -0.6159  0.1161
  330TMC3     C 4956   2.501   0.997   9.916 -0.5058  0.3884 -0.8112
  330TMC3     O 4957   2.547   1.059  10.009 -0.0426 -0.0872 -0.2411
  330TMC3     H 4958   2.426   0.855   9.699  0.8698  3.5513  2.1767
  330TMC3    H1 4959   2.657   0.848  10.060 -0.4768 -0.7397  0.7783
  330TMC3    H2 4960   2.631   0.509   9.812  0.7244 -0.4301  0.8310
  330TMC3    C7 4961   2.734   0.592  10.056 -0.0702  0.3042  0.8517
  330TMC3    C8 4962   2.436   0.607   9.647  0.1915  0.5953  0.6075
  330TMC3    O1 4963   2.791   0.664  10.136  0.7312 -0.2446 -0.3776
  330TMC3    O2 4964   2.414   0.682   9.550  0.2711 -0.3762  0.1593
  331MPD2     C 4965   0.352   0.197  13.020 -0.5481  0.1834  0.2907
  331MPD2    C1 4966   0.480   0.249  13.003  0.2424  0.6001 -0.2375
  331MPD2    C2 4967   0.581   0.158  12.972  0.0319 -0.1280  0.0518
  331MPD2    C3 4968   0.558   0.024  12.948  0.3059  1.1858  0.5439
  331MPD2    C4 4969   0.431   4.698  12.969  0.6105  0.0246  0.8603
  331MPD2    C5 4970   0.337   0.055  13.010 -0.2351  0.1782  0.8479
  331MPD2     H 4971   0.680   0.198  12.951 -0.7024  0.6369 -1.9859
  331MPD2    H1 4972   0.408   4.594  12.949 -0.6722  0.7435 -1.3742
  331MPD2    H2 4973   0.273   0.271  13.030 -0.4426  0.5628 -1.7080
  331MPD2    H3 4974   0.241   0.011  13.033  0.4865 -0.8582  1.9163
  331MPD2     N 4975   0.668   4.664  12.900  0.6398  0.4470 -0.2937
  331MPD2    H5 4976   0.748   4.716  12.864 -0.4817  1.6861 -0.9781
  331MPD2    N1 4977   0.496   0.388  13.020 -0.1467  0.2556  0.1934
  331MPD2    H7 4978   0.418   0.445  13.051  1.1920  2.1546  0.0443
  332TMC3    C1 4979   0.762   4.494  12.778  0.3228  0.2342 -0.2725
  332TMC3    C2 4980   0.808   4.576  12.681  0.1782 -0.1758  0.7967
  332TMC3    C3 4981   0.933   4.554  12.632  0.7186  1.0766  0.7278
  332TMC3    C4 4982   0.835   4.384  12.813  0.4916  0.4383 -0.0377
  332TMC3    C5 4983   0.964   4.363  12.761 -0.2524  0.2191 -0.7375
  332TMC3    C6 4984   1.015   4.455  12.670  0.0830 -0.2726  0.2101
  332TMC3     C 4985   0.659   4.529  12.875  0.2080  0.1601 -0.2552
  332TMC3     O 4986   0.591   4.451  12.944  0.5924  0.1082 -0.1429
  332TMC3     H 4987   0.753   4.667  12.662  1.7275  0.0810 -2.4938
  332TMC3    H1 4988   0.792   4.312  12.882 -1.4505 -0.0077 -1.7305
  332TMC3    H2 4989   1.120   4.453  12.642 -0.1985 -3.0399 -0.6177
  332TMC3    C7 4990   1.045   4.254  12.812  0.5613 -0.4133  0.0575
  332TMC3    C8 4991   0.992   4.663  12.558 -0.4843 -0.3741 -0.0931
  332TMC3    O1 4992   0.990   4.160  12.871  0.0479 -0.8446 -0.3722
  332TMC3    O2 4993   1.109   4.668  12.533  0.3246 -0.1475  0.1420
  333MPD2     C 4994   0.673   4.326  11.394  0.3845 -0.0218  0.3422
  333MPD2    C1 4995   0.796   4.285  11.435 -0.0837  0.5512  0.4393
  333MPD2    C2 4996   0.802   4.244  11.568  0.1312  0.1174 -0.0186
  333MPD2    C3 4997   0.697   4.264  11.657  0.7911  0.1580 -0.7757
  333MPD2    C4 4998   0.573   4.298  11.606  0.0819  0.4598  0.8137
  333MPD2    C5 4999   0.563   4.334  11.477  0.3052  0.0101  0.5046
  333MPD2     H 5000   0.899   4.209  11.600  0.1127 -0.6838 -0.8475
  333MPD2    H1 5001   0.490   4.302  11.675 -0.0949 -1.8476  0.7320
  333MPD2    H2 5002   0.671   4.366  11.294 -0.1171  0.4349  0.5332
  333MPD2    H3 5003   0.467   4.367  11.440  0.9079  0.0703 -0.9767
  333MPD2     N 5004   0.704   4.235  11.794 -0.7761  0.6051 -0.5286
  333MPD2    H5 5005   0.788   4.185  11.822 -0.1055  2.0428  0.0245
  333MPD2    N1 5006   0.900   4.285  11.340  0.0687  0.3036  0.3371
  333MPD2    H7 5007   0.873   4.321  11.249 -1.2852 -1.5141  0.0274
  334TMC3    C1 5008   1.115   4.274  11.244 -0.6595 -0.0414  0.7525
  334TMC3    C2 5009   1.202   4.177  11.206 -0.7961 -0.1625  0.5063
  334TMC3    C3 5010   1.267   4.204  11.092  0.4090  0.0321  0.2339
  334TMC3    C4 5011   1.089   4.390  11.181 -0.8092 -0.2100 -0.0204
  334TMC3    C5 5012   1.151   4.399  11.065  0.2488  0.3424 -0.3572
  334TMC3    C6 5013   1.234   4.308  11.014  0.0399  0.5759  0.1408
  334TMC3     C 5014   1.029   4.242  11.357  0.5984 -0.2954 -0.4833
  334TMC3     O 5015   1.079   4.179  11.449 -0.1752 -0.2598  0.2489
  334TMC3     H 5016   1.224   4.095  11.273  0.7175  0.7680  1.1532
  334TMC3    H1 5017   1.018   4.465  11.215  1.5476  1.7947  0.5070
  334TMC3    H2 5018   1.286   4.337  10.923  0.1015  1.7956  0.5664
  334TMC3    C7 5019   1.123   4.509  10.976 -0.3298 -0.7331 -0.5566
  334TMC3    C8 5020   1.396   4.142  11.066  0.0588  0.2998 -0.7791
  334TMC3    O1 5021   1.060   4.604  11.025  0.3313  0.0653  0.5284
  334TMC3    O2 5022   1.411   4.028  11.103 -0.0087  0.2726 -0.6459
  335TMC3    C1 5023   1.083   1.161   0.137 -0.2226 -0.1604  0.2796
  335TMC3    C2 5024   0.972   1.126   0.060 -0.3914  1.0060  0.2646
  335TMC3    C3 5025   0.900   1.219  17.687 -1.1685 -0.8277  0.3637
  335TMC3    C4 5026   1.113   1.293   0.153  0.1777  0.0671 -0.0358
  335TMC3    C5 5027   1.039   1.381   0.079  0.1757  0.4816  0.2835
  335TMC3    C6 5028   0.932   1.350   0.002 -0.6370 -0.7229  0.0811
  335TMC3     C 5029   1.196   1.075   0.125  0.6135 -0.0844 -0.9795
  335TMC3     O 5030   1.174   0.966   0.074  0.0458 -0.0972 -0.2843
  335TMC3     H 5031   0.953   1.023   0.033 -0.1935  1.6341 -2.2801
  335TMC3    H1 5032   1.190   1.327   0.222  0.0382  0.7476 -0.2186
  335TMC3    H2 5033   0.886   1.418  17.628  0.7272  1.4287  1.3048
  335TMC3    C7 5034   1.117   1.502   0.056 -0.3308  0.9118  0.6839
  335TMC3    C8 5035   0.819   1.175  17.576 -0.4751  0.0064 -0.3872
  335TMC3    O1 5036   1.231   1.501   0.095 -0.4784  0.3183 -0.1695
  335TMC3    O2 5037   0.829   1.244  17.478  0.0520  0.3654  0.3495
  336MPD2     C 5038   0.602   4.046  16.292 -0.5242  0.0350  0.5288
  336MPD2    C1 5039   0.582   3.954  16.191 -0.9113  0.6278 -0.2470
  336MPD2    C2 5040   0.558   3.826  16.220 -0.6058  0.1375 -0.1705
  336MPD2    C3 5041   0.573   3.773  16.346 -0.4310  0.0742  0.9434
  336MPD2    C4 5042   0.583   3.864  16.450  0.2879 -0.3960  0.1223
  336MPD2    C5 5043   0.593   4.002  16.423 -0.8156 -0.3841 -0.3717
  336MPD2     H 5044   0.547   3.766  16.130  0.9240  0.0484 -0.3054
  336MPD2    H1 5045   0.579   3.826  16.551 -0.2181 -0.3290  0.1284
  336MPD2    H2 5046   0.604   4.153  16.273  2.5004 -0.3248 -1.2477
  336MPD2    H3 5047   0.592   4.070  16.507 -0.4682  0.0137 -0.6940
  336MPD2     N 5048   0.577   3.631  16.372 -0.5722  0.1821  0.0177
  336MPD2    H5 5049   0.579   3.610  16.471  1.2319  0.0199 -0.0507
  336MPD2    N1 5050   0.547   4.006  16.062 -0.0245  1.6251  0.5086
  336MPD2    H7 5051   0.502   3.940  15.999 -1.3760  1.8981  1.1928
  337TMC3    C1 5052   0.525   4.175  15.896  0.4812 -0.0889 -0.2530
  337TMC3    C2 5053   0.395   4.213  15.926 -0.3179 -0.4277 -0.1035
  337TMC3    C3 5054   0.327   4.273  15.826  0.5062  0.1723 -0.3212
  337TMC3    C4 5055   0.597   4.210  15.787 -0.2747 -0.9190  0.8643
  337TMC3    C5 5056   0.529   4.295  15.696  0.5880 -0.0346  0.1466
  337TMC3    C6 5057   0.393   4.324  15.721  0.4753  0.4076 -0.2909
  337TMC3     C 5058   0.599   4.126  16.014 -0.1368 -1.0275 -0.0543
  337TMC3     O 5059   0.699   4.187  16.050 -0.6104  0.3633 -0.0775
  337TMC3     H 5060   0.338   4.169  16.007 -0.6754  0.0897 -0.0769
  337TMC3    H1 5061   0.699   4.175  15.775  0.1064  1.8218 -3.9715
  337TMC3    H2 5062   0.339   4.382  15.648  0.0560 -0.2513 -0.5074
  337TMC3    C7 5063   0.592   4.303  15.563  0.5110  0.2240 -0.4727
  337TMC3    C8 5064   0.198   4.335  15.856 -0.4406  0.4444  0.1675
  337TMC3    O1 5065   0.706   4.248  15.553 -0.4463  0.1536  0.2452
  337TMC3    O2 5066   0.196   4.364  15.975  0.0973  0.6049  0.3435
  338MPD2     C 5067   0.928   3.132   1.149 -0.8318 -0.2573  0.2695
  338MPD2    C1 5068   0.850   3.074   1.049 -0.1528 -0.1998  0.4466
  338MPD2    C2 5069   0.720   3.043   1.070 -0.4362  0.5373  0.1085
  338MPD2    C3 5070   0.664   3.053   1.191 -0.1202 -0.4888 -0.3253
  338MPD2    C4 5071   0.738   3.119   1.285  0.1324  0.7594 -0.0900
  338MPD2    C5 5072   0.872   3.158   1.267 -0.4372 -0.1212 -0.4039
  338MPD2     H 5073   0.653   3.018   0.988  0.6987 -2.0157 -0.0297
  338MPD2    H1 5074   0.693   3.143   1.381 -2.2134  0.6501 -1.1505
  338MPD2    H2 5075   1.030   3.164   1.129 -1.5184  0.2259 -2.4783
  338MPD2    H3 5076   0.929   3.209   1.343 -1.0633 -1.4834  0.9919
  338MPD2     N 5077   0.524   3.014   1.193 -0.3471  0.7574 -0.0786
  338MPD2    H5 5078   0.484   2.974   1.108 -2.2918 -0.2529  1.3093
  338MPD2    N1 5079   0.902   3.050   0.919 -0.2514 -0.0418  0.2222
  338MPD2    H7 5080   0.843   2.995   0.858 -0.4255 -1.2409  1.4438
  339TMC3    C1 5081   0.293   3.026   1.270 -0.5795  0.2040  0.7573
  339TMC3    C2 5082   0.217   3.034   1.377  0.4353 -0.8021  0.1402
  339TMC3    C3 5083   0.086   3.070   1.359 -0.2692 -0.3747  0.1113
  339TMC3    C4 5084   0.245   3.043   1.147 -0.1175 -0.1705  0.6300
  339TMC3    C5 5085   0.119   3.083   1.128  0.1642 -0.0899 -0.0772
  339TMC3    C6 5086   0.035   3.115   1.239 -0.1199 -0.0150  0.3552
  339TMC3     C 5087   0.437   3.029   1.300  0.0885 -0.3086 -0.1808
  339TMC3     O 5088   0.470   3.061   1.414  0.3784 -0.0216 -0.3485
  339TMC3     H 5089   0.258   3.021   1.477 -0.8363 -1.6606  0.5477
  339TMC3    H1 5090   0.311   3.040   1.061 -0.2349 -2.6442  0.6255
  339TMC3    H2 5091   4.659   3.154   1.223 -1.2222 -2.4191  1.4028
  339TMC3    C7 5092   0.078   3.117   0.999 -0.2103 -0.2696 -0.1217
  339TMC3    C8 5093   0.002   3.069   1.479  0.1580  0.7471  0.5462
  339TMC3    O1 5094   0.027   3.229   0.974  0.1833 -0.1526 -0.0883
  339TMC3    O2 5095   0.060   3.066   1.585 -0.0772 -0.2040 -0.3953
  340MPD2     C 5096   1.214   0.875   9.549 -0.2223 -0.4842  0.1503
  340MPD2    C1 5097   1.232   0.770   9.636  0.6109  0.1586 -0.1378
  340MPD2    C2 5098   1.273   0.800   9.763 -0.0064 -0.5444  0.2338
  340MPD2    C3 5099   1.291   0.927   9.807  0.2442  0.1427 -0.0500
  340MPD2    C4 5100   1.243   1.026   9.726  0.0931 -0.8973  0.2181
  340MPD2    C5 5101   1.225   1.003   9.593  0.4400  0.2111 -0.5890
  340MPD2     H 5102   1.283   0.716   9.831  0.4862 -1.4845 -1.0035
  340MPD2    H1 5103   1.254   1.131   9.754 -2.6138 -1.4277  3.2733
  340MPD2    H2 5104   1.173   0.852   9.451 -0.3394 -2.4189  0.6499
  340MPD2    H3 5105   1.214   1.089   9.527  0.3145 -0.3707 -1.3196
  340MPD2     N 5106   1.339   0.960   9.935 -0.3496  0.0338 -0.3048
  340MPD2    H5 5107   1.340   1.059   9.959  0.6806 -0.0783  0.0991
  340MPD2    N1 5108   1.209   0.636   9.589  0.4640  0.1537 -0.2643
  340MPD2    H7 5109   1.155   0.631   9.504 -0.0954  0.1313  0.0925
  341TMC3    C1 5110   1.202   0.404   9.573 -0.8837  0.8585 -0.1874
  341TMC3    C2 5111   1.081   0.418   9.515 -0.3879 -0.2265 -0.0288
  341TMC3    C3 5112   1.041   0.313   9.442 -0.3101 -0.7518 -0.3021
  341TMC3    C4 5113   1.273   0.290   9.558 -0.0337 -0.1956 -0.2050
  341TMC3    C5 5114   1.232   0.191   9.475 -0.4952 -0.3826 -0.1921
  341TMC3    C6 5115   1.108   0.196   9.419 -0.2370  0.3631  0.2296
  341TMC3     C 5116   1.255   0.518   9.648  0.2202  0.5371 -0.1008
  341TMC3     O 5117   1.338   0.496   9.738 -0.1980  0.0695 -0.4122
  341TMC3     H 5118   0.999   0.486   9.536 -1.7163 -0.9646 -2.7731
  341TMC3    H1 5119   1.367   0.290   9.611 -0.1541  2.5506 -0.0183
  341TMC3    H2 5120   1.070   0.118   9.354  0.6229 -1.5653  2.0578
  341TMC3    C7 5121   1.280   0.055   9.504  0.6317 -0.5182  0.3726
  341TMC3    C8 5122   0.895   0.300   9.431  0.4479  0.0742 -0.1166
  341TMC3    O1 5123   1.370   0.040   9.588 -0.1980 -0.0695 -0.9388
  341TMC3    O2 5124   0.811   0.306   9.517  0.9340 -0.1355  0.5251
  342MPD2     C 5125   3.499   4.662   0.135  0.2627  0.7179  0.6242
  342MPD2    C1 5126   3.608   4.663   0.045 -0.3323 -1.1105  0.1460
  342MPD2    C2 5127   3.685   0.056   0.038  0.2816 -0.9076  0.1393
  342MPD2    C3 5128   3.651   0.169   0.112 -0.0826 -0.1278 -0.2618
  342MPD2    C4 5129   3.540   0.161   0.192  0.2367  0.2001  0.9759
  342MPD2    C5 5130   3.467   0.047   0.212  0.3900 -0.1781  1.0361
  342MPD2     H 5131   3.769   0.066  17.666  0.8732  1.2458  1.1992
  342MPD2    H1 5132   3.497   0.243   0.248  1.6907  1.5730  0.0946
  342MPD2    H2 5133   3.433   4.577   0.146  1.0908 -0.2374 -1.8729
  342MPD2    H3 5134   3.384   0.033   0.280 -1.0322 -2.4765 -1.1662
  342MPD2     N 5135   3.718   0.294   0.115  0.0896 -0.0101  0.1490
  342MPD2    H5 5136   3.697   0.354   0.195 -0.4447  0.7124 -0.5354
  342MPD2    N1 5137   3.643   4.554  17.655  0.4982  0.3196 -0.4427
  342MPD2    H7 5138   3.708   4.571  17.579 -1.8592  0.3454 -2.4418
  343TMC3    C1 5139   3.687   4.330  17.594 -0.3457 -0.0569  0.2769
  343TMC3    C2 5140   3.751   4.367  17.477 -0.0137  0.0982 -0.0876
  343TMC3    C3 5141   3.786   4.261  17.395 -0.2382 -0.6241  0.1167
  343TMC3    C4 5142   3.673   4.194  17.625  0.2301 -0.2887  0.5223
  343TMC3    C5 5143   3.705   4.100  17.540  0.1214  0.7460 -0.1420
  343TMC3    C6 5144   3.769   4.124  17.427  0.3798 -0.6172 -0.6448
  343TMC3     C 5145   3.616   4.423  17.676 -0.2598  0.2276  0.0088
  343TMC3     O 5146   3.537   4.382   0.065  0.1468  0.1179  0.1251
  343TMC3     H 5147   3.756   4.469  17.442 -2.4095  0.5455  0.8396
  343TMC3    H1 5148   3.616   4.175   0.020  2.2919 -1.4171  1.5897
  343TMC3    H2 5149   3.813   4.039  17.376  2.0288  0.9410 -1.7795
  343TMC3    C7 5150   3.675   3.960  17.564  0.2435  0.1926 -0.2882
  343TMC3    C8 5151   3.872   4.299  17.281  0.5844 -0.5595  0.1916
  343TMC3    O1 5152   3.669   3.879  17.470  0.0048  0.1784  0.5964
  343TMC3    O2 5153   3.889   4.415  17.256  0.2450  0.5400 -0.2129
  344MPD2     C 5154   4.651   3.029  10.254 -0.4980 -0.5229  0.3806
  344MPD2    C1 5155   4.561   3.131  10.281  0.1556  0.4761 -0.2002
  344MPD2    C2 5156   4.573   3.254  10.218 -0.2106  0.1190 -0.2124
  344MPD2    C3 5157   4.687   3.281  10.145  0.9272 -0.4386 -0.6790
  344MPD2    C4 5158   0.051   3.182  10.119 -0.0027  0.3350 -0.1667
  344MPD2    C5 5159   0.034   3.055  10.170 -0.4235 -1.0211  0.0560
  344MPD2     H 5160   4.515   3.336  10.259 -1.1503 -1.8805  2.4403
  344MPD2    H1 5161   0.128   3.195  10.044  2.8079  0.0973  2.6803
  344MPD2    H2 5162   4.648   2.936  10.310  3.0038 -0.3814  0.8495
  344MPD2    H3 5163   0.109   2.977  10.162  1.0338  0.2969  0.7178
  344MPD2     N 5164   0.000   3.408  10.092 -0.6644  0.5690 -0.2430
  344MPD2    H5 5165   0.095   3.417  10.056 -1.0621 -0.3858 -1.5385
  344MPD2    N1 5166   4.461   3.107  10.372 -0.0080  0.1958  0.2116
  344MPD2    H7 5167   4.390   3.179  10.376 -2.1251 -1.9055  0.1319
  345TMC3    C1 5168   4.689   3.626  10.020  0.2926  0.2896 -0.3769
  345TMC3    C2 5169   0.096   3.656  10.032  0.2909 -0.6204  0.2230
  345TMC3    C3 5170   0.137   3.776   9.980 -0.1523 -0.1396  0.3196
  345TMC3    C4 5171   4.599   3.705   9.955  0.2099 -0.6705 -0.5955
  345TMC3    C5 5172   4.646   3.821   9.897 -0.2635 -0.3195 -0.3318
  345TMC3    C6 5173   0.052   3.859   9.910 -0.2348  0.3699 -0.1813
  345TMC3     C 5174   4.635   3.513  10.084  0.5722  0.1896  0.7349
  345TMC3     O 5175   4.510   3.507  10.094 -0.5404  0.4180 -0.3746
  345TMC3     H 5176   0.173   3.599  10.083 -1.0780 -2.7364 -0.0636
  345TMC3    H1 5177   4.492   3.688   9.953  0.1386 -0.2716 -0.1013
  345TMC3    H2 5178   0.080   3.953   9.864 -0.9704  1.4234  1.5514
  345TMC3    C7 5179   4.553   3.930   9.875 -0.0655  0.6269 -0.2428
  345TMC3    C8 5180   0.275   3.805   9.970 -0.4592 -0.7847  0.0010
  345TMC3    O1 5181   4.595   4.044   9.909  0.0751  0.0525 -0.5457
  345TMC3    O2 5182   0.305   3.923   9.983 -0.2316 -0.0730 -0.2421
  346MPD2     C 5183   4.666   0.984  14.258 -0.2807 -0.0919 -0.7199
  346MPD2    C1 5184   0.065   1.049  14.245  0.1652  0.0245  0.7310
  346MPD2    C2 5185   0.097   1.135  14.343 -0.2469  0.0573 -0.1043
  346MPD2    C3 5186   0.018   1.163  14.457 -0.1086  0.2418  0.2750
  346MPD2    C4 5187   4.632   1.079  14.481  0.5043 -0.6792  0.3612
  346MPD2    C5 5188   4.597   0.990  14.383  0.2746  0.1872  0.8653
  346MPD2     H 5189   0.197   1.178  14.346 -1.2727  2.5089 -0.8480
  346MPD2    H1 5190   4.567   1.090  14.566  0.2381  1.8893 -0.1782
  346MPD2    H2 5191   4.636   0.911  14.184 -0.5102 -0.4735 -0.2548
  346MPD2    H3 5192   4.513   0.922  14.394  1.6581 -1.8333 -1.2535
  346MPD2     N 5193   0.058   1.259  14.548  0.1097  0.7004 -0.0729
  346MPD2    H5 5194   0.153   1.283  14.523  0.6987 -0.1209  1.3858
  346MPD2    N1 5195   0.150   1.040  14.130  0.0481  0.0361  0.0347
  346MPD2    H7 5196   0.239   1.087  14.142 -1.0920  2.1245  0.3369
  347TMC3    C1 5197   0.058   1.420  14.719  0.0824 -0.2091  0.8003
  347TMC3    C2 5198   0.185   1.448  14.663 -0.0476 -0.0860  0.7823
  347TMC3    C3 5199   0.276   1.483  14.760 -1.0770  0.9133  0.0863
  347TMC3    C4 5200   0.036   1.406  14.854 -0.5065 -0.5867  0.2490
  347TMC3    C5 5201   0.140   1.448  14.938 -0.7333 -0.4970  0.3074
  347TMC3    C6 5202   0.259   1.484  14.893  0.3577  0.3675 -0.2164
  347TMC3     C 5203   4.707   1.317  14.650 -0.0135  0.0221  0.2964
  347TMC3     O 5204   4.589   1.298  14.688  0.3632  0.6165 -0.4060
  347TMC3     H 5205   0.219   1.434  14.561  2.3959  0.7853  1.4623
  347TMC3    H1 5206   4.659   1.385  14.890 -1.4724 -0.3474 -2.3322
  347TMC3    H2 5207   0.348   1.501  14.952  0.3529 -1.2003  0.2427
  347TMC3    C7 5208   0.105   1.465  15.076  0.1814 -0.4747  0.5879
  347TMC3    C8 5209   0.411   1.480  14.721  0.2917 -0.2545  0.1375
  347TMC3    O1 5210   0.005   1.401  15.114  0.4369  0.4080 -0.1633
  347TMC3    O2 5211   0.482   1.412  14.790 -0.0604 -0.2570 -0.4737
  348MPD2     C 5212   3.016   0.239  12.175 -0.1162  0.0258 -0.2506
  348MPD2    C1 5213   3.136   0.301  12.136 -0.5478  0.0291  0.0564
  348MPD2    C2 5214   3.131   0.357  12.012 -0.2008  0.5072  0.2328
  348MPD2    C3 5215   3.020   0.374  11.933  0.0462 -0.4105  0.4464
  348MPD2    C4 5216   2.904   0.320  11.969  0.5767 -0.0052  0.3393
  348MPD2    C5 5217   2.903   0.246  12.086 -0.0368 -1.1846 -0.2884
  348MPD2     H 5218   3.221   0.407  11.976  0.6625 -0.0556  1.6307
  348MPD2    H1 5219   2.816   0.323  11.905  0.0983 -1.4836  0.9327
  348MPD2    H2 5220   2.997   0.187  12.268  2.0841  1.0075  0.7466
  348MPD2    H3 5221   2.818   0.190  12.124  0.5480 -1.6265  0.3800
  348MPD2     N 5222   3.043   0.442  11.811 -0.3272  0.5211  0.3283
  348MPD2    H5 5223   3.136   0.474  11.784 -0.1982 -0.2601 -0.1630
  348MPD2    N1 5224   3.262   0.295  12.207  0.0381 -0.3007  0.5163
  348MPD2    H7 5225   3.343   0.319  12.151 -1.4460  1.1577 -1.0305
  349TMC3    C1 5226   3.418   0.180  12.359  0.3665 -0.5578  0.1555
  349TMC3    C2 5227   3.418   0.054  12.417  0.4118 -0.7320  0.2883
  349TMC3    C3 5228   3.529   4.708  12.392  0.6814  0.1503 -0.1763
  349TMC3    C4 5229   3.520   0.240  12.296 -0.1046 -0.2695  0.5905
  349TMC3    C5 5230   3.637   0.167  12.297 -0.3421  0.3750 -0.1290
  349TMC3    C6 5231   3.637   0.035  12.324  0.1568 -0.3485  0.3731
  349TMC3     C 5232   3.285   0.223  12.323  0.1346  0.2752  0.1868
  349TMC3     O 5233   3.194   0.191  12.397  0.3512 -0.1074  0.0431
  349TMC3     H 5234   3.337   0.010  12.474 -0.9468  0.5392 -0.6858
  349TMC3    H1 5235   3.506   0.346  12.281 -2.5439 -0.8952 -1.5447
  349TMC3    H2 5236   3.733   4.708  12.319 -0.8697 -2.1067 -1.5235
  349TMC3    C7 5237   3.734   0.215  12.198 -0.2412 -0.2106  0.1452
  349TMC3    C8 5238   3.541   4.573  12.440 -0.7244  0.1183  0.5371
  349TMC3    O1 5239   3.800   0.131  12.140 -0.2707 -0.0526 -0.0775
  349TMC3    O2 5240   3.468   4.532  12.527  0.2441 -0.5196 -0.5062
  350MPD2     C 5241   3.033   3.411   9.869 -0.1486 -0.4409 -0.2571
  350MPD2    C1 5242   2.915   3.360   9.912 -0.7662  0.1037  0.7285
  350MPD2    C2 5243   2.849   3.419  10.021  0.2165 -0.6813 -0.0878
  350MPD2    C3 5244   2.907   3.521  10.092 -0.1547  0.6992  0.2348
  350MPD2    C4 5245   3.034   3.573  10.053  0.4210  0.2226  0.5259
  350MPD2    C5 5246   3.086   3.522   9.935  0.4644  0.1105 -1.0373
  350MPD2     H 5247   2.760   3.365  10.054  1.9446 -2.8237  1.0556
  350MPD2    H1 5248   3.070   3.660  10.106 -0.8296  1.2547 -0.2997
  350MPD2    H2 5249   3.069   3.381   9.771  1.9861  0.2577  0.3123
  350MPD2    H3 5250   3.171   3.572   9.889  0.4472  0.0766 -1.1060
  350MPD2     N 5251   2.833   3.559  10.207  0.1284 -0.4807  0.7981
  350MPD2    H5 5252   2.747   3.510  10.230 -0.2724  0.4356  1.2744
  350MPD2    N1 5253   2.843   3.247   9.853 -0.3523  0.7703 -0.2737
  350MPD2    H7 5254   2.743   3.233   9.860  0.1437 -3.2327 -1.0848
  351TMC3    C1 5255   2.825   3.054   9.720 -0.8545 -0.1542 -0.7249
  351TMC3    C2 5256   2.874   2.928   9.726  0.4497  0.3905  0.5257
  351TMC3    C3 5257   2.800   2.816   9.701 -0.6035 -0.0736 -0.1264
  351TMC3    C4 5258   2.698   3.071   9.697  0.6300 -0.2780  0.6228
  351TMC3    C5 5259   2.618   2.962   9.669  0.8304 -0.1551  0.1027
  351TMC3    C6 5260   2.668   2.830   9.664 -0.1999 -0.1173  0.1397
  351TMC3     C 5261   2.911   3.161   9.772  0.1076 -0.0411 -0.0501
  351TMC3     O 5262   3.031   3.153   9.740 -0.0523 -0.0579  0.6241
  351TMC3     H 5263   2.980   2.932   9.747  0.8478  0.9766 -1.6490
  351TMC3    H1 5264   2.656   3.171   9.687 -0.7511 -0.7477  1.6907
  351TMC3    H2 5265   2.617   2.745   9.620 -0.8068  0.8916 -1.1280
  351TMC3    C7 5266   2.489   2.963   9.725  0.1516  0.0922 -0.5416
  351TMC3    C8 5267   2.818   2.697   9.773 -0.0522 -0.1618 -1.0549
  351TMC3    O1 5268   2.441   3.068   9.755 -0.5715  0.4737  0.1363
  351TMC3    O2 5269   2.726   2.626   9.802 -0.1752 -0.4572  0.0139
  352MPD2     C 5270   0.364   0.315   1.912  0.0482 -0.3290  0.1566
  352MPD2    C1 5271   0.373   0.308   1.777 -0.1537 -0.4981 -0.8392
  352MPD2    C2 5272   0.422   0.199   1.720 -0.1448 -0.1186  0.1094
  352MPD2    C3 5273   0.480   0.101   1.796 -0.5775  0.3503  0.0103
  352MPD2    C4 5274   0.480   0.111   1.933 -0.3330 -0.5689 -0.0260
  352MPD2    C5 5275   0.412   0.209   1.990 -0.1511  0.6980 -0.0383
  352MPD2     H 5276   0.424   0.192   1.612 -1.6642 -1.8608  0.1911
  352MPD2    H1 5277   0.538   0.045   1.996 -0.8636 -1.7975 -0.8108
  352MPD2    H2 5278   0.306   0.397   1.952  1.3651  1.3848 -1.4294
  352MPD2    H3 5279   0.400   0.209   2.098 -3.3865  0.9136 -0.3884
  352MPD2     N 5280   0.545   4.710   1.744 -0.3732 -0.5061 -0.3177
  352MPD2    H5 5281   0.580   4.643   1.812 -0.5677 -1.2943 -1.0060
  352MPD2    N1 5282   0.320   0.425   1.709  0.0122  0.2197 -0.3019
  352MPD2    H7 5283   0.284   0.501   1.766  0.1607 -0.4183  0.6589
  353TMC3    C1 5284   0.592   4.529   1.606  0.7103  0.2767 -0.1149
  353TMC3    C2 5285   0.704   4.484   1.673 -0.3502 -0.5420 -0.1222
  353TMC3    C3 5286   0.731   4.354   1.667 -0.2696 -0.1529  0.5140
  353TMC3    C4 5287   0.509   4.444   1.539 -0.6777 -0.0746 -0.3446
  353TMC3    C5 5288   0.536   4.311   1.542  0.6796 -0.2489  0.5654
  353TMC3    C6 5289   0.648   4.261   1.607  0.1055  0.3531  0.0063
  353TMC3     C 5290   0.553   4.671   1.614  0.6857 -0.2531  0.2822
  353TMC3     O 5291   0.485   4.718   1.522 -0.1182 -0.0591 -0.8934
  353TMC3     H 5292   0.767   4.555   1.726 -0.6344 -0.1002 -0.3784
  353TMC3    H1 5293   0.438   4.482   1.467  0.0638  0.9827 -0.5227
  353TMC3    H2 5294   0.663   4.153   1.604 -0.9363  0.2021  0.2593
  353TMC3    C7 5295   0.465   4.222   1.455 -0.3361  0.4379  0.2862
  353TMC3    C8 5296   0.858   4.311   1.732 -0.0490 -0.6031  0.4271
  353TMC3    O1 5297   0.422   4.273   1.352  0.7319  0.2784  0.5594
  353TMC3    O2 5298   0.915   4.385   1.811 -0.1974 -0.6849 -0.5276
  354TMC3    C1 5299   2.076   1.609  13.457 -0.4315  0.6219  0.0616
  354TMC3    C2 5300   1.998   1.693  13.381  0.0728  0.5744 -0.4286
  354TMC3    C3 5301   1.982   1.662  13.250  0.2013  0.0939 -0.5811
  354TMC3    C4 5302   2.101   1.483  13.408 -0.6534  0.0804 -0.3067
  354TMC3    C5 5303   2.078   1.449  13.278  0.4930 -0.0163  0.3633
  354TMC3    C6 5304   2.016   1.539  13.198  0.3453  1.2718  0.5028
  354TMC3     C 5305   2.093   1.639  13.599 -0.3004  0.0634  0.2451
  354TMC3     O 5306   2.007   1.716  13.639 -0.2016  0.1166  0.8077
  354TMC3     H 5307   1.962   1.786  13.423 -2.7218 -0.0919 -1.3542
  354TMC3    H1 5308   2.164   1.410  13.457 -0.2770  0.1226 -0.7299
  354TMC3    H2 5309   2.009   1.529  13.090  1.0840 -1.4463  0.7026
  354TMC3    C7 5310   2.150   1.341  13.224  1.0591  0.0514  0.2939
  354TMC3    C8 5311   1.948   1.770  13.150 -0.6342 -0.6156  0.6905
  354TMC3    O1 5312   2.136   1.223  13.263  0.2956 -0.4705  0.0675
  354TMC3    O2 5313   2.005   1.770  13.041 -0.1237  0.0680 -0.1870
  355MPD2     C 5314   2.221   2.764  11.781  0.4523  0.2188  0.0016
  355MPD2    C1 5315   2.297   2.807  11.667 -0.0101 -0.5193  0.3033
  355MPD2    C2 5316   2.434   2.779  11.668  1.1145  0.3175 -0.0734
  355MPD2    C3 5317   2.495   2.741  11.788 -0.1971  0.0976  0.6241
  355MPD2    C4 5318   2.417   2.718  11.900 -0.1119  0.6692 -0.9340
  355MPD2    C5 5319   2.284   2.725  11.896  0.2243 -0.0879 -0.0804
  355MPD2     H 5320   2.493   2.813  11.584  0.1793  0.6010 -0.6098
  355MPD2    H1 5321   2.463   2.688  11.993  0.4316 -0.5339 -1.5863
  355MPD2    H2 5322   2.113   2.779  11.781  0.5682  1.0701 -4.6533
  355MPD2    H3 5323   2.235   2.708  11.991  0.2419 -0.3530 -0.1183
  355MPD2     N 5324   2.634   2.732  11.804  0.1053  0.4781 -0.2488
  355MPD2    H5 5325   2.665   2.705  11.897  0.4048 -0.8759 -0.7407
  355MPD2    N1 5326   2.224   2.867  11.557 -0.3488  0.0711  0.3019
  355MPD2    H7 5327   2.123   2.865  11.572 -0.4192 -0.4647 -0.2443
  356TMC3    C1 5328   2.861   2.763  11.754  0.1869 -0.0523  0.0976
  356TMC3    C2 5329   2.951   2.796  11.662 -0.0240 -0.2997  0.0581
  356TMC3    C3 5330   3.085   2.812  11.702  0.4750 -0.4118  0.0334
  356TMC3    C4 5331   2.897   2.741  11.883 -1.1632  0.3465 -0.1816
  356TMC3    C5 5332   3.030   2.751  11.917  0.2860  0.8202 -0.0049
  356TMC3    C6 5333   3.124   2.791  11.829 -0.0905  0.0352 -0.6178
  356TMC3     C 5334   2.724   2.750  11.703  0.0546 -0.2270 -0.1834
  356TMC3     O 5335   2.710   2.751  11.580 -0.5824 -0.4510 -0.0273
  356TMC3     H 5336   2.929   2.825  11.560 -1.1054  1.8131  0.8655
  356TMC3    H1 5337   2.833   2.716  11.967 -0.7902  1.1387  0.3380
  356TMC3    H2 5338   3.228   2.790  11.857 -0.8384 -1.2725  2.1107
  356TMC3    C7 5339   3.066   2.743  12.058 -0.1236 -0.3044 -0.2047
  356TMC3    C8 5340   3.174   2.871  11.598  0.1782  0.4055 -0.3415
  356TMC3    O1 5341   3.005   2.663  12.130  0.0968  0.2903  0.4480
  356TMC3    O2 5342   3.126   2.900  11.488  0.3003 -0.0572 -0.7005
  357MPD2     C 5343   1.714   2.358   1.816 -0.2890  0.3118  0.9624
  357MPD2    C1 5344   1.756   2.272   1.717 -0.3889 -0.0808 -0.3480
  357MPD2    C2 5345   1.651   2.203   1.650 -0.5250  0.4242  0.0079
  357MPD2    C3 5346   1.517   2.233   1.663  0.1901  0.1535 -0.1226
  357MPD2    C4 5347   1.481   2.332   1.744 -0.2566 -0.3834 -0.2528
  357MPD2    C5 5348   1.574   2.395   1.822 -0.3827 -0.4053 -0.2046
  357MPD2     H 5349   1.687   2.139   1.570  1.4757  1.6736 -0.0817
  357MPD2    H1 5350   1.380   2.369   1.738  0.0527  0.4520 -0.2866
  357MPD2    H2 5351   1.788   2.409   1.876  1.1607 -0.6891  0.0322
  357MPD2    H3 5352   1.558   2.474   1.894 -0.1090 -1.1274  0.6470
  357MPD2     N 5353   1.414   2.176   1.579 -0.3019 -0.2767 -0.2453
  357MPD2    H5 5354   1.325   2.221   1.599 -1.7451 -3.6696  0.8830
  357MPD2    N1 5355   1.897   2.249   1.689  0.0668  0.2481 -0.0469
  357MPD2    H7 5356   1.955   2.309   1.747 -0.4184  0.1670  0.5258
  358TMC3    C1 5357   2.090   2.179   1.565  0.0995  0.3757 -0.7636
  358TMC3    C2 5358   2.139   2.150   1.440  0.2521 -0.9103 -0.1287
  358TMC3    C3 5359   2.277   2.175   1.424 -0.0053 -0.4559  0.5045
  358TMC3    C4 5360   2.164   2.237   1.665  0.6336 -0.7507  0.6461
  358TMC3    C5 5361   2.296   2.250   1.646  0.9658 -0.0535  0.1662
  358TMC3    C6 5362   2.358   2.216   1.528 -0.4073  0.1819 -0.1683
  358TMC3     C 5363   1.948   2.178   1.584 -0.2699 -0.3141 -0.2394
  358TMC3     O 5364   1.890   2.128   1.491 -0.1339 -1.3653 -0.0252
  358TMC3     H 5365   2.082   2.113   1.356 -0.0994 -2.0581  0.6123
  358TMC3    H1 5366   2.120   2.282   1.753  1.0620  1.2949 -0.1925
  358TMC3    H2 5367   2.454   2.254   1.496 -0.6578  1.1535  0.2318
  358TMC3    C7 5368   2.377   2.298   1.760  0.9963  0.4242  0.3233
  358TMC3    C8 5369   2.327   2.194   1.291  0.5376  0.2201 -0.1699
  358TMC3    O1 5370   2.311   2.346   1.852 -0.4365 -0.1613 -0.3105
  358TMC3    O2 5371   2.446   2.180   1.283 -0.0898 -0.4601 -0.1066
  359MPD2     C 5372   3.213   0.798  12.076 -0.5628 -0.0277 -0.1732
  359MPD2    C1 5373   3.115   0.834  11.989 -0.6095 -0.3356  0.0887
  359MPD2    C2 5374   2.995   0.767  12.003 -0.4151 -0.0521 -0.0524
  359MPD2    C3 5375   2.975   0.669  12.101 -0.4272 -0.1941  0.2628
  359MPD2    C4 5376   3.072   0.644  12.195 -0.5504  0.0095  0.4387
  359MPD2    C5 5377   3.188   0.713  12.185 -0.5795  0.1025  0.7595
  359MPD2     H 5378   2.913   0.790  11.936  1.4037  2.2595 -1.4922
  359MPD2    H1 5379   3.062   0.575  12.278  1.5651 -2.2126 -1.1870
  359MPD2    H2 5380   3.316   0.830  12.065 -0.8134  0.6443 -0.5514
  359MPD2    H3 5381   3.272   0.680  12.245  0.3455 -0.3381 -0.8008
  359MPD2     N 5382   2.850   0.607  12.128  0.2401  0.2436  0.2349
  359MPD2    H5 5383   2.850   0.541  12.205 -2.1436 -0.2578 -0.1937
  359MPD2    N1 5384   3.128   0.919  11.871 -0.1354  0.3308  0.0301
  359MPD2    H7 5385   3.047   0.931  11.810 -0.7783  1.4564  1.0814
  360TMC3    C1 5386   3.231   1.078  11.728 -0.4286 -0.2367  0.1250
  360TMC3    C2 5387   3.336   1.174  11.718  0.2697 -0.2279  0.5852
  360TMC3    C3 5388   3.331   1.268  11.621  0.0540  0.6196 -0.2263
  360TMC3    C4 5389   3.134   1.074  11.636  0.0344 -0.2780  1.3062
  360TMC3    C5 5390   3.141   1.167  11.532  0.0599  0.8096 -0.8873
  360TMC3    C6 5391   3.241   1.259  11.526  0.4716  0.5737 -0.4182
  360TMC3     C 5392   3.243   0.982  11.836 -0.0993  0.1293 -0.0700
  360TMC3     O 5393   3.350   0.984  11.900  0.8601  0.3077  0.0949
  360TMC3     H 5394   3.423   1.174  11.782 -0.9487  0.4414  2.2230
  360TMC3    H1 5395   3.076   0.983  11.632 -2.6098  1.4342  0.7909
  360TMC3    H2 5396   3.249   1.332  11.446 -0.1523 -0.5487 -1.4896
  360TMC3    C7 5397   3.024   1.196  11.455  0.3732  0.5787  0.3289
  360TMC3    C8 5398   3.450   1.342  11.610  0.2194 -0.2895 -0.5986
  360TMC3    O1 5399   2.998   1.307  11.415  0.7022  0.0058  0.3211
  360TMC3    O2 5400   3.497   1.380  11.716  0.3357  0.4919 -0.1143
  361MPD2     C 5401   4.691   0.148  16.783 -0.1670 -0.0746 -1.0039
  361MPD2    C1 5402   4.620   0.119  16.900 -0.3518 -0.2522 -0.3088
  361MPD2    C2 5403   4.673   0.020  16.983 -0.2866  0.9337 -0.4272
  361MPD2    C3 5404   0.061   4.673  16.955 -0.3695  0.2229 -0.2909
  361MPD2    C4 5405   0.126   4.699  16.839  1.0173  0.5210  0.2636
  361MPD2    C5 5406   0.079   0.073  16.752  1.0895 -0.2932  0.5805
  361MPD2     H 5407   4.609   4.718  17.067 -0.1607  1.8513 -0.0434
  361MPD2    H1 5408   0.209   4.640  16.802 -0.7229 -1.2143 -0.9125
  361MPD2    H2 5409   4.643   0.218  16.715  2.2628  0.5704 -2.0969
  361MPD2    H3 5410   0.127   0.087  16.656 -0.9109 -0.4235 -0.4332
  361MPD2     N 5411   0.120   4.587  17.043  0.3040  0.1077 -0.0048
  361MPD2    H5 5412   0.193   4.524  17.012  0.4111 -0.6467  1.7436
  361MPD2    N1 5413   4.504   0.197  16.941  0.6110  0.1305 -0.0263
  361MPD2    H7 5414   4.459   0.158  17.024  2.5413 -1.8502  0.0724
  362TMC3    C1 5415   4.328   0.352  16.953 -0.1841  0.3030  0.0218
  362TMC3    C2 5416   4.341   0.362  17.091 -0.3822 -0.0007  0.3314
  362TMC3    C3 5417   4.257   0.446  17.155  0.6904 -0.0572 -1.1403
  362TMC3    C4 5418   4.226   0.409  16.885 -0.5619 -0.3852  0.0812
  362TMC3    C5 5419   4.138   0.483  16.955 -0.2518 -0.4748 -0.1877
  362TMC3    C6 5420   4.166   0.519  17.082  0.7700  0.4593  0.6946
  362TMC3     C 5421   4.439   0.301  16.873 -0.2267  0.4002 -0.0016
  362TMC3     O 5422   4.451   0.342  16.757 -0.2169  0.3577 -0.2043
  362TMC3     H 5423   4.412   0.308  17.151 -0.2843  0.0554  0.2660
  362TMC3    H1 5424   4.220   0.410  16.776  0.4343 -0.8196  0.0145
  362TMC3    H2 5425   4.109   0.600  17.126 -1.1857  0.5806 -2.1091
  362TMC3    C7 5426   4.031   0.561  16.882 -0.3004  0.0088 -0.6953
  362TMC3    C8 5427   4.270   0.474  17.297 -0.2435 -0.4263 -0.0608
  362TMC3    O1 5428   4.000   0.673  16.927  0.2192 -0.0404 -0.0016
  362TMC3    O2 5429   4.365   0.419  17.351 -0.0660  0.5071  0.1774
  363TMC3    C1 5430   2.799   2.206   9.288 -0.0741  0.3082  0.1182
  363TMC3    C2 5431   2.902   2.141   9.357  0.1286  0.4003 -0.1779
  363TMC3    C3 5432   2.982   2.219   9.441 -0.3682 -0.5187 -0.4087
  363TMC3    C4 5433   2.776   2.339   9.297  0.2080 -0.3166  0.3614
  363TMC3    C5 5434   2.864   2.409   9.371  0.3765  0.0230  0.3220
  363TMC3    C6 5435   2.968   2.356   9.440  0.0292 -0.3904 -0.1238
  363TMC3     C 5436   2.727   2.126   9.192  0.1243  0.2226 -1.0991
  363TMC3     O 5437   2.767   2.014   9.171 -0.1917 -0.3149 -0.4121
  363TMC3     H 5438   2.905   2.033   9.351 -1.2992  0.3034  0.9320
  363TMC3    H1 5439   2.702   2.392   9.238 -0.6141  1.8858  3.4051
  363TMC3    H2 5440   3.035   2.414   9.502 -2.0381 -1.3444  2.9820
  363TMC3    C7 5441   2.832   2.551   9.383  0.1164  0.1363 -0.2729
  363TMC3    C8 5442   3.059   2.161   9.553 -0.8025  0.1509 -0.1034
  363TMC3    O1 5443   2.718   2.590   9.363  0.2046  0.9040  0.4413
  363TMC3    O2 5444   3.125   2.240   9.619 -0.3915 -0.1131  0.4623
  364MPD2     C 5445   1.317   2.120  10.679  0.2522  0.1690  0.3855
  364MPD2    C1 5446   1.421   2.063  10.615 -0.3595  0.3916  0.9759
  364MPD2    C2 5447   1.439   1.925  10.629  0.4202 -0.5001 -0.4439
  364MPD2    C3 5448   1.375   1.851  10.734  0.3587 -0.4072  0.4912
  364MPD2    C4 5449   1.275   1.919  10.799  0.1425  0.2313 -0.0312
  364MPD2    C5 5450   1.243   2.046  10.764 -0.1232 -0.3594  0.4606
  364MPD2     H 5451   1.516   1.878  10.568 -1.1176  0.7859 -3.3966
  364MPD2    H1 5452   1.221   1.873  10.882  2.2175  0.1959  1.2956
  364MPD2    H2 5453   1.294   2.226  10.675 -1.1719 -0.1335  0.7065
  364MPD2    H3 5454   1.156   2.080  10.819  1.9985 -0.0918  3.6800
  364MPD2     N 5455   1.421   1.722  10.778  0.2501  0.2784  0.4830
  364MPD2    H5 5456   1.372   1.683  10.858 -1.0275  0.8977  0.0057
  364MPD2    N1 5457   1.481   2.139  10.513 -0.6912  0.4458 -0.6729
  364MPD2    H7 5458   1.468   2.240  10.508 -1.1335  0.6460  4.5215
  365TMC3    C1 5459   1.601   2.191  10.320  0.3768 -0.1997  0.2501
  365TMC3    C2 5460   1.670   2.145  10.210  0.0997  0.7324 -0.4828
  365TMC3    C3 5461   1.735   2.235  10.130  0.0390  0.2100 -0.9575
  365TMC3    C4 5462   1.601   2.321  10.362  0.2166  0.2333  0.7462
  365TMC3    C5 5463   1.675   2.401  10.281 -0.0544 -0.5219  0.0951
  365TMC3    C6 5464   1.734   2.365  10.163 -0.9639  0.4803  0.0049
  365TMC3     C 5465   1.566   2.089  10.416 -0.2212  0.1028 -0.3069
  365TMC3     O 5466   1.622   1.982  10.400  0.2242 -0.0621 -0.5477
  365TMC3     H 5467   1.661   2.042  10.179  1.4427  0.2180  0.8393
  365TMC3    H1 5468   1.563   2.357  10.457 -0.7654  1.1326  0.0080
  365TMC3    H2 5469   1.791   2.439  10.107 -0.6439  0.7380  0.6736
  365TMC3    C7 5470   1.707   2.531  10.319  0.0187 -0.3519 -0.4563
  365TMC3    C8 5471   1.846   2.186  10.049  0.0940  0.2138  0.7794
  365TMC3    O1 5472   1.765   2.603  10.243 -0.1131 -0.0151 -0.3361
  365TMC3    O2 5473   1.912   2.274  10.001 -0.1353 -0.1444 -0.2516
  366MPD2     C 5474   4.581   3.080  15.664 -0.7916 -0.0346  0.1880
  366MPD2    C1 5475   4.657   3.176  15.605  0.1335 -0.6936  1.1984
  366MPD2    C2 5476   0.038   3.140  15.519 -0.3909  0.1454 -0.1581
  366MPD2    C3 5477   0.079   3.011  15.516  0.3207  0.9285  1.1233
  366MPD2    C4 5478   0.018   2.915  15.594  0.3256  0.1737  0.0609
  366MPD2    C5 5479   4.627   2.952  15.666  0.1720  0.5885  0.8606
  366MPD2     H 5480   0.089   3.219  15.466  0.4896 -2.1327 -2.7631
  366MPD2    H1 5481   0.055   2.813  15.585 -0.2018  0.0039 -0.1698
  366MPD2    H2 5482   4.506   3.114  15.734 -0.2564 -0.2910  0.8922
  366MPD2    H3 5483   4.579   2.873  15.723  0.6351 -0.3959 -0.1068
  366MPD2     N 5484   0.198   2.994  15.441 -0.1005 -0.2441 -0.6323
  366MPD2    H5 5485   0.235   3.069  15.383 -0.4743  1.2798  1.0893
  366MPD2    N1 5486   4.632   3.311  15.624 -0.2784  0.2695 -0.6112
  366MPD2    H7 5487   4.700   3.379  15.593 -0.3664  0.5225 -0.2562
  367TMC3    C1 5488   4.528   3.521  15.700 -0.0818  0.0459 -0.0970
  367TMC3    C2 5489   4.655   3.571  15.736 -0.4666  0.5883 -0.9224
  367TMC3    C3 5490   4.691   3.690  15.688 -0.3997  0.3309  0.4248
  367TMC3    C4 5491   4.447   3.594  15.613  0.1765  0.0520 -0.4669
  367TMC3    C5 5492   4.499   3.698  15.546 -0.4173  0.1752 -0.2602
  367TMC3    C6 5493   4.622   3.752  15.586 -0.2018  0.3313 -0.2510
  367TMC3     C 5494   4.516   3.372  15.683 -0.2508  0.7064 -0.9602
  367TMC3     O 5495   4.402   3.325  15.683  0.1128 -1.0354  0.3559
  367TMC3     H 5496   4.712   3.516  15.811  0.5436  0.3880 -1.8324
  367TMC3    H1 5497   4.353   3.549  15.582  0.0270  0.0196  0.0395
  367TMC3    H2 5498   4.667   3.828  15.524  1.0914 -0.7557 -0.6724
  367TMC3    C7 5499   4.443   3.768  15.436  0.2105  0.1055  0.9469
  367TMC3    C8 5500   0.103   3.729  15.729 -0.2052  0.5527 -0.0209
  367TMC3    O1 5501   4.505   3.865  15.394 -0.2686 -0.3702 -0.4501
  367TMC3    O2 5502   0.149   3.686  15.833 -0.6256 -1.1578 -0.5890
  368MPD2     C 5503   1.668   0.816  13.469  0.0392 -0.3824  0.2700
  368MPD2    C1 5504   1.612   0.834  13.345  0.1206  0.7091 -0.1670
  368MPD2    C2 5505   1.664   0.769  13.234 -0.2691 -0.1915  0.0396
  368MPD2    C3 5506   1.772   0.684  13.251  0.3634 -0.0683 -0.5885
  368MPD2    C4 5507   1.822   0.663  13.379 -0.2125 -0.4263  0.2661
  368MPD2    C5 5508   1.773   0.726  13.491 -0.4289 -0.0628 -0.3866
  368MPD2     H 5509   1.617   0.790  13.138 -2.1652  0.5997  1.1300
  368MPD2    H1 5510   1.908   0.600  13.397 -0.1115 -0.4230 -0.2041
  368MPD2    H2 5511   1.624   0.865  13.555 -0.1798  2.1760 -1.2988
  368MPD2    H3 5512   1.821   0.725  13.588 -0.8999 -0.1309 -0.1577
  368MPD2     N 5513   1.839   0.616  13.147  0.2002  0.5769  0.0488
  368MPD2    H5 5514   1.922   0.562  13.170  0.4828  0.0573 -2.1835
  368MPD2    N1 5515   1.514   0.937  13.336  0.0057 -0.6920  0.2725
  368MPD2    H7 5516   1.486   0.976  13.425 -0.8192  1.6306 -1.0217
  369TMC3    C1 5517   1.381   1.103  13.239  0.6448  0.8350 -0.7507
  369TMC3    C2 5518   1.388   1.189  13.136  0.6115 -0.0749 -0.1166
  369TMC3    C3 5519   1.270   1.214  13.064  0.0311 -0.3877  0.2379
  369TMC3    C4 5520   1.255   1.055  13.274  0.5303 -0.3427 -0.3465
  369TMC3    C5 5521   1.144   1.082  13.200 -0.5209 -0.1848  0.1294
  369TMC3    C6 5522   1.148   1.166  13.096 -0.0761  0.5178 -0.1100
  369TMC3     C 5523   1.480   1.002  13.220 -0.0305  0.1164  0.2379
  369TMC3     O 5524   1.524   0.992  13.106 -0.2196 -0.4267  0.0990
  369TMC3     H 5525   1.488   1.221  13.108  2.0117 -2.3021  2.4182
  369TMC3    H1 5526   1.256   0.988  13.359 -0.3532 -2.0633 -1.7042
  369TMC3    H2 5527   1.074   1.180  13.019 -1.2779 -0.9195  0.7875
  369TMC3    C7 5528   1.037   0.989  13.227  0.6501  0.5480  0.0232
  369TMC3    C8 5529   1.287   1.264  12.934 -0.1495 -0.0787  0.0375
  369TMC3    O1 5530   1.071   0.887  13.275  0.5106  0.6155 -0.0783
  369TMC3    O2 5531   1.198   1.332  12.891 -0.1816 -0.1007 -0.2230
  370TMC3    C1 5532   0.740   0.686  16.566  0.0046  0.6210 -0.1076
  370TMC3    C2 5533   0.725   0.596  16.676 -0.2703  0.1461 -0.2718
  370TMC3    C3 5534   0.804   0.482  16.677  0.0914 -0.3848 -0.0727
  370TMC3    C4 5535   0.818   0.649  16.459  0.2680 -0.6009 -0.3213
  370TMC3    C5 5536   0.894   0.537  16.468  0.7125 -0.2178 -0.9325
  370TMC3    C6 5537   0.889   0.450  16.575 -1.0491 -0.0150 -0.3166
  370TMC3     C 5538   0.710   0.826  16.607 -0.4108 -0.0630 -0.6522
  370TMC3     O 5539   0.659   0.838  16.718 -0.6747 -0.2060  0.3727
  370TMC3     H 5540   0.661   0.617  16.761 -2.0986 -1.1836 -1.3069
  370TMC3    H1 5541   0.822   0.713  16.372 -1.4779  0.9798  0.7727
  370TMC3    H2 5542   0.937   0.353  16.577 -2.2555 -0.5419  2.1141
  370TMC3    C7 5543   0.958   0.498  16.341 -0.5860 -0.3200  0.6692
  370TMC3    C8 5544   0.825   0.402  16.793 -0.2195 -0.3779 -0.3167
  370TMC3    O1 5545   0.907   0.544  16.239  0.8043 -0.4826  0.0363
  370TMC3    O2 5546   0.790   0.290  16.782 -0.2079  0.2003  0.5582
  371TMC3    C1 5547   2.128   3.800  15.719  0.6014  0.1664  0.2784
  371TMC3    C2 5548   2.095   3.839  15.847  0.1905 -0.1754 -0.0333
  371TMC3    C3 5549   2.056   3.970  15.868 -0.6172  0.1390 -0.1093
  371TMC3    C4 5550   2.150   3.892  15.628  0.2664 -0.6531 -0.2508
  371TMC3    C5 5551   2.120   4.025  15.655 -0.9065  0.3473  0.0181
  371TMC3    C6 5552   2.075   4.061  15.772  0.0194  0.1730  0.6716
  371TMC3     C 5553   2.187   3.672  15.699  0.5408  0.1100  1.0694
  371TMC3     O 5554   2.287   3.659  15.630 -0.4631  0.4205 -0.3487
  371TMC3     H 5555   2.094   3.778  15.937  0.1496 -2.4354 -1.5594
  371TMC3    H1 5556   2.199   3.870  15.534 -1.3048  1.6794 -1.5991
  371TMC3    H2 5557   2.063   4.166  15.795 -1.9405  0.6030 -2.3383
  371TMC3    C7 5558   2.201   4.129  15.593  0.2294 -0.0241  0.4092
  371TMC3    C8 5559   2.090   4.015  16.002 -0.4810 -0.2045  0.1306
  371TMC3    O1 5560   2.228   4.221  15.670  0.2428 -0.0069  0.7819
  371TMC3    O2 5561   2.178   3.948  16.057  0.3573 -0.0315 -0.3969
  372MPD2     C 5562   1.375   0.784  13.678 -0.3448 -0.0622  0.3531
  372MPD2    C1 5563   1.413   0.742  13.806  0.8282 -0.6513 -0.5345
  372MPD2    C2 5564   1.400   0.610  13.841  0.6294 -0.2281  0.0114
  372MPD2    C3 5565   1.377   0.509  13.750  0.3187 -0.6372 -0.1766
  372MPD2    C4 5566   1.349   0.555  13.624  0.4284  0.3126 -0.5026
  372MPD2    C5 5567   1.347   0.686  13.587  0.0843  0.2401 -0.7106
  372MPD2     H 5568   1.445   0.580  13.935  2.4530  1.5676 -0.2883
  372MPD2    H1 5569   1.332   0.481  13.547 -0.0991  0.8825 -0.9402
  372MPD2    H2 5570   1.387   0.887  13.647 -0.0453  0.3085  1.6948
  372MPD2    H3 5571   1.335   0.717  13.484 -0.5618 -0.8416 -0.9581
  372MPD2     N 5572   1.376   0.373  13.795  0.2652 -0.2040 -0.0871
  372MPD2    H5 5573   1.380   0.360  13.896 -1.0561  0.6536  0.0768
  372MPD2    N1 5574   1.476   0.827  13.900  0.4924  0.5012  0.2235
  372MPD2    H7 5575   1.514   0.779  13.981  1.8386 -0.1145 -0.7777
  373TMC3    C1 5576   1.336   0.144  13.781  0.2294 -0.2094 -0.4410
  373TMC3    C2 5577   1.312   0.141  13.921 -0.4319 -0.0985  0.3659
  373TMC3    C3 5578   1.310   0.016  13.974  0.6501 -0.3728  0.1624
  373TMC3    C4 5579   1.364   0.025  13.708 -0.3423  0.4328 -0.0400
  373TMC3    C5 5580   1.368   4.623  13.772 -0.0148 -0.6435 -0.0037
  373TMC3    C6 5581   1.336   4.623  13.906  0.1873 -0.0751 -0.6106
  373TMC3     C 5582   1.354   0.271  13.712 -0.1752  0.2139  0.1940
  373TMC3     O 5583   1.350   0.269  13.590 -0.6416 -0.0261  0.2407
  373TMC3     H 5584   1.298   0.228  13.986  1.6808  0.6417 -0.1730
  373TMC3    H1 5585   1.384   0.029  13.602  1.0127 -0.9886  0.1569
  373TMC3    H2 5586   1.340   4.533  13.967  0.2065  1.0374  1.0052
  373TMC3    C7 5587   1.434   4.516  13.703 -0.2962  0.1743 -0.4424
  373TMC3    C8 5588   1.336   0.005  14.111 -0.1796  0.1338 -0.2830
  373TMC3    O1 5589   1.477   4.545  13.592  0.1267 -0.1489  0.1784
  373TMC3    O2 5590   1.418   4.642  14.143 -0.1345  0.3797 -0.4042
  374TMC3    C1 5591   1.878   0.156   9.683  0.3018  0.3197  0.9018
  374TMC3    C2 5592   1.933   0.263   9.749  0.2396 -0.3109 -0.3883
  374TMC3    C3 5593   1.989   0.358   9.668 -0.5344  0.2053 -0.3683
  374TMC3    C4 5594   1.889   0.148   9.546  0.0862  0.9273 -0.0433
  374TMC3    C5 5595   1.942   0.246   9.466  0.2502 -0.4255  0.1686
  374TMC3    C6 5596   1.992   0.356   9.526  0.1834  0.4722 -0.6540
  374TMC3     C 5597   1.879   0.026   9.753 -0.1367 -0.5091  0.2804
  374TMC3     O 5598   1.938   0.008   9.860 -0.0403 -0.5881  0.4368
  374TMC3     H 5599   1.936   0.260   9.857  1.6114 -0.3908 -0.4338
  374TMC3    H1 5600   1.862   0.059   9.490  0.4936 -0.4021  1.8313
  374TMC3    H2 5601   2.042   0.442   9.481  3.3288 -1.4788 -0.8755
  374TMC3    C7 5602   1.900   0.238   9.330 -0.7366 -0.8440  0.2465
  374TMC3    C8 5603   2.050   0.481   9.728 -0.2943 -0.3013 -0.1246
  374TMC3    O1 5604   1.863   0.133   9.285  0.1840 -0.0535  0.0408
  374TMC3    O2 5605   2.051   0.583   9.656 -0.2835  0.1633  0.1265
  375MPD2     C 5606   2.178   1.381  17.409  0.1990  0.0461 -0.4116
  375MPD2    C1 5607   2.111   1.453  17.313  0.1438 -0.5065  0.3555
  375MPD2    C2 5608   2.138   1.436  17.179 -0.1229 -0.4051  0.4821
  375MPD2    C3 5609   2.239   1.346  17.142 -0.5780 -0.1971 -0.0518
  375MPD2    C4 5610   2.305   1.274  17.246  0.5132  0.3451  0.5104
  375MPD2    C5 5611   2.274   1.289  17.374 -0.4112 -0.4229 -0.6759
  375MPD2     H 5612   2.088   1.484  17.096 -1.1344  1.6741  2.3043
  375MPD2    H1 5613   2.375   1.196  17.219 -0.4773  0.2703 -1.8437
  375MPD2    H2 5614   2.167   1.410  17.513  1.8498  1.8666 -0.7222
  375MPD2    H3 5615   2.319   1.232  17.454 -0.3168 -0.6474 -0.8896
  375MPD2     N 5616   2.281   1.312  17.009  0.9558 -0.0712  0.2234
  375MPD2    H5 5617   2.365   1.254  17.008  0.0974 -1.3428  2.1361
  375MPD2    N1 5618   2.011   1.547  17.344 -0.3494 -0.8512  0.4670
  375MPD2    H7 5619   1.964   1.584  17.262  1.3550  1.1808  0.4037
  376TMC3    C1 5620   2.271   1.318  16.770 -0.4063 -0.4475  0.3584
  376TMC3    C2 5621   2.408   1.302  16.763 -0.3104 -0.6295 -0.0280
  376TMC3    C3 5622   2.458   1.276  16.636  0.3243 -0.3080 -0.1454
  376TMC3    C4 5623   2.185   1.325  16.663 -0.1754 -0.1417 -0.2624
  376TMC3    C5 5624   2.242   1.292  16.541 -0.2720  0.5190 -0.1734
  376TMC3    C6 5625   2.375   1.277  16.524 -0.4447  0.4778  0.1317
  376TMC3     C 5626   2.205   1.339  16.896 -0.3140 -0.1770  0.1805
  376TMC3     O 5627   2.091   1.388  16.893  0.0229 -0.3703 -0.3644
  376TMC3     H 5628   2.466   1.314  16.854 -2.9199 -0.2711  1.5895
  376TMC3    H1 5629   2.078   1.321  16.677 -0.2137 -0.5673 -0.6757
  376TMC3    H2 5630   2.413   1.271  16.423 -1.8791 -2.4838 -0.2593
  376TMC3    C7 5631   2.157   1.289  16.422 -0.0619  0.1432 -0.4169
  376TMC3    C8 5632   2.599   1.272  16.607  1.2129 -1.0771 -1.0058
  376TMC3    O1 5633   2.045   1.341  16.429  0.3419  0.0091 -0.0569
  376TMC3    O2 5634   2.638   1.264  16.492  0.1954  0.5680  0.1550
  377MPD2     C 5635   4.612   1.063  12.366 -0.1092  0.6146 -0.1873
  377MPD2    C1 5636   4.694   1.128  12.459  0.1320 -0.4386 -0.3544
  377MPD2    C2 5637   4.664   1.102  12.593 -0.1610 -0.0315  0.3345
  377MPD2    C3 5638   4.553   1.027  12.626  0.5094  0.1728  0.6977
  377MPD2    C4 5639   4.472   0.976  12.526  0.0909 -0.0141 -0.7400
  377MPD2    C5 5640   4.499   0.997  12.395 -0.3511  0.3014 -0.2567
  377MPD2     H 5641   4.702   1.166  12.671 -0.8163  0.4374  0.2666
  377MPD2    H1 5642   4.388   0.909  12.540 -0.5371  0.4849 -2.0704
  377MPD2    H2 5643   4.645   1.064  12.262  0.0723  1.2051 -0.1268
  377MPD2    H3 5644   4.434   0.968  12.313 -0.4316 -1.1622  0.3328
  377MPD2     N 5645   4.513   1.009  12.761  0.3307 -0.1984 -0.1088
  377MPD2    H5 5646   4.435   0.946  12.776  0.4188  0.2827  2.4324
  377MPD2    N1 5647   0.093   1.183  12.403 -0.4830 -0.3231  0.5371
  377MPD2    H7 5648   0.103   1.176  12.302 -0.8453  0.6270  0.4405
  378TMC3    C1 5649   0.408   1.118  12.272  0.1437 -0.4766 -0.3113
  378TMC3    C2 5650   0.301   1.204  12.299  0.7173 -0.0887  0.6333
  378TMC3    C3 5651   0.309   1.266  12.416 -0.2375  0.0401  0.2223
  378TMC3    C4 5652   0.517   1.096  12.351  0.8083  0.3078  0.8014
  378TMC3    C5 5653   0.512   1.161  12.471  0.8516  0.6017  0.4370
  378TMC3    C6 5654   0.407   1.245  12.508  0.7432 -0.2642  0.6492
  378TMC3     C 5655   0.417   1.065  12.141 -0.0031 -0.6070  0.7294
  378TMC3     O 5656   0.308   1.062  12.082  0.4125 -1.0389  0.3963
  378TMC3     H 5657   0.235   1.240  12.222  4.0151 -0.0593 -2.2016
  378TMC3    H1 5658   0.589   1.020  12.325 -0.3531  0.1844 -2.1082
  378TMC3    H2 5659   0.401   1.296  12.604  0.7094  1.5742 -0.3360
  378TMC3    C7 5660   0.626   1.145  12.564  0.0227  0.2423 -0.1225
  378TMC3    C8 5661   0.177   1.260  12.478 -0.5463  0.5938  0.5005
  378TMC3    O1 5662   0.608   1.172  12.684  0.7471 -0.2061  0.1139
  378TMC3    O2 5663   0.174   1.283  12.602  0.4137  0.6213 -0.0207
  379MPD2     C 5664   0.901   3.608  16.434 -0.1838  0.2138 -0.3406
  379MPD2    C1 5665   0.972   3.538  16.343  0.0976  0.5336  0.1568
  379MPD2    C2 5666   1.068   3.446  16.384 -0.2899 -0.0723  0.6208
  379MPD2    C3 5667   1.093   3.417  16.515 -0.2213  0.2267  0.7890
  379MPD2    C4 5668   1.012   3.486  16.606 -0.5739  0.4461  0.6459
  379MPD2    C5 5669   0.922   3.574  16.564 -0.2172  0.6714 -0.0617
  379MPD2     H 5670   1.126   3.391  16.310 -0.5286 -0.2853  0.5938
  379MPD2    H1 5671   1.023   3.469  16.712  0.2445 -2.4870  0.1007
  379MPD2    H2 5672   0.821   3.679  16.416  0.3335  0.4049 -1.8299
  379MPD2    H3 5673   0.862   3.626  16.638 -0.8622 -0.6431  0.3255
  379MPD2     N 5674   1.183   3.321  16.555 -0.3991 -0.1537 -0.7052
  379MPD2    H5 5675   1.174   3.300  16.654 -1.5023  0.5554 -0.6529
  379MPD2    N1 5676   0.939   3.564  16.205  0.2042  0.4197  0.2925
  379MPD2    H7 5677   0.880   3.645  16.186  0.6785  0.4230 -1.1349
  380TMC3    C1 5678   0.948   3.583  15.974 -0.4579 -0.1396  0.5199
  380TMC3    C2 5679   1.039   3.580  15.869 -0.5066 -1.2213 -0.2030
  380TMC3    C3 5680   0.994   3.622  15.747 -0.0536 -0.3770 -0.1988
  380TMC3    C4 5681   0.821   3.627  15.950  0.5523 -0.2377  0.4391
  380TMC3    C5 5682   0.783   3.658  15.826  0.0775  0.3766  0.0341
  380TMC3    C6 5683   0.863   3.654  15.722 -0.2141  0.3615 -0.0459
  380TMC3     C 5684   0.982   3.501  16.096  0.0759  0.7275  0.5671
  380TMC3     O 5685   1.050   3.400  16.103  0.0635  0.0812  0.6440
  380TMC3     H 5686   1.143   3.554  15.886 -0.0514  1.4444  1.0834
  380TMC3    H1 5687   0.749   3.633  16.031  0.4594 -2.4514  0.5206
  380TMC3    H2 5688   0.830   3.668  15.619 -1.4718 -1.4815  0.1133
  380TMC3    C7 5689   0.644   3.697  15.798  0.3305  0.1495  1.2465
  380TMC3    C8 5690   1.093   3.674  15.664 -0.2912  0.3654  0.2349
  380TMC3    O1 5691   0.559   3.666  15.882 -0.2969  0.2192  0.4411
  380TMC3    O2 5692   1.199   3.705  15.719 -0.5976 -0.5472  0.0590
  381TMC3    C1 5693   0.998   4.532  16.573 -0.4803 -0.6792 -0.1786
  381TMC3    C2 5694   1.057   4.654  16.596  0.1136 -0.3525 -0.3344
  381TMC3    C3 5695   0.992   0.020  16.667  0.1630 -0.4634 -0.0925
  381TMC3    C4 5696   0.895   4.490  16.658 -0.0833 -0.6547 -0.4714
  381TMC3    C5 5697   0.829   4.583  16.737 -0.3868 -0.6657 -0.1385
  381TMC3    C6 5698   0.882   4.712  16.739  0.4978 -0.3430 -0.2745
  381TMC3     C 5699   1.097   4.438  16.520 -0.6062 -0.6557  0.1000
  381TMC3     O 5700   1.216   4.464  16.508  0.1570  0.4352  0.0603
  381TMC3     H 5701   1.147   4.682  16.541  1.7796 -3.6593  0.6732
  381TMC3    H1 5702   0.861   4.388  16.649 -0.9508 -0.5712  2.1274
  381TMC3    H2 5703   0.830   0.062  16.800  0.9368 -0.3019  0.0531
  381TMC3    C7 5704   0.741   4.533  16.842 -0.2964 -0.5907  0.4250
  381TMC3    C8 5705   1.058   0.145  16.694 -0.1893  0.2014 -0.7680
  381TMC3    O1 5706   0.757   4.416  16.867 -0.0473  0.1092  0.3710
  381TMC3    O2 5707   1.131   0.197  16.610 -0.2623 -0.7004 -0.6709
  382MPD2     C 5708   4.345   2.982  17.147  0.7092  0.7731  0.1630
  382MPD2    C1 5709   4.434   2.965  17.253  0.4805  0.2126  0.0193
  382MPD2    C2 5710   4.468   2.831  17.282 -0.1042 -0.1715 -0.1923
  382MPD2    C3 5711   4.424   2.725  17.202 -0.2504 -0.1592  0.1267
  382MPD2    C4 5712   4.342   2.754  17.092 -0.0051 -0.2786  0.8157
  382MPD2    C5 5713   4.303   2.876  17.064 -1.1199 -0.1167 -0.3625
  382MPD2     H 5714   4.542   2.820  17.359 -0.3735  2.9490  0.5281
  382MPD2    H1 5715   4.299   2.669  17.039  3.2054 -0.9335 -0.7294
  382MPD2    H2 5716   4.322   3.087  17.136  1.3677  0.9412  0.3762
  382MPD2    H3 5717   4.235   2.887  16.980 -0.1240  1.3334 -0.9884
  382MPD2     N 5718   4.461   2.593  17.231  0.1494  0.2413 -0.2113
  382MPD2    H5 5719   4.425   2.519  17.172  1.3732  0.1857 -0.8890
  382MPD2    N1 5720   4.491   3.075  17.320 -0.5067 -0.1346 -0.3439
  382MPD2    H7 5721   4.466   3.170  17.295  0.5148 -0.0542 -1.0496
  383TMC3    C1 5722   4.561   2.413  17.316  0.6689  0.2865 -0.7795
  383TMC3    C2 5723   4.466   2.336  17.255  1.0476  0.6600 -0.2157
  383TMC3    C3 5724   4.497   2.210  17.233 -0.4498 -0.6748 -0.2989
  383TMC3    C4 5725   4.687   2.366  17.350 -1.2412  0.1686 -0.5322
  383TMC3    C5 5726   4.715   2.240  17.308  0.3020  0.3025 -0.1846
  383TMC3    C6 5727   4.620   2.156  17.255  0.2642  0.0072  0.4275
  383TMC3     C 5728   4.544   2.552  17.330  0.3181  0.3059  0.0691
  383TMC3     O 5729   4.604   2.613  17.416 -0.0999 -0.1867  0.0249
  383TMC3     H 5730   4.364   2.371  17.244  0.4697 -0.3384  1.9867
  383TMC3    H1 5731   0.039   2.433  17.390 -0.9490 -0.2813 -0.3349
  383TMC3    H2 5732   4.653   2.073  17.193  1.3637  0.7411  0.0346
  383TMC3    C7 5733   0.133   2.214  17.283  0.1686 -0.8705  0.1045
  383TMC3    C8 5734   4.377   2.122  17.212 -0.6690  0.5717 -0.0144
  383TMC3    O1 5735   0.212   2.306  17.311  0.2215 -0.7140 -0.5566
  383TMC3    O2 5736   4.274   2.175  17.177  0.1272  0.1422 -0.1640
  384MPD2     C 5737   2.038   3.650  12.471 -0.6646  0.3579 -0.0857
  384MPD2    C1 5738   2.029   3.516  12.489 -0.3541 -0.4175  0.2678
  384MPD2    C2 5739   2.078   3.425  12.395 -0.3018 -0.3326  0.8285
  384MPD2    C3 5740   2.133   3.479  12.279 -0.2110 -0.7789 -0.0732
  384MPD2    C4 5741   2.135   3.617  12.261 -0.6224  0.0777  0.0321
  384MPD2    C5 5742   2.073   3.696  12.353 -0.1647 -0.1378  0.7893
  384MPD2     H 5743   2.057   3.321  12.416 -2.4429 -0.1285 -0.2965
  384MPD2    H1 5744   2.169   3.657  12.167  0.7664  1.4648  1.1152
  384MPD2    H2 5745   2.009   3.721  12.546 -1.3706  0.2649 -0.2745
  384MPD2    H3 5746   2.075   3.803  12.336  1.2479 -0.4665 -1.1300
  384MPD2     N 5747   2.169   3.389  12.173 -0.4984 -0.5228  0.7914
  384MPD2    H5 5748   2.186   3.439  12.086 -0.8076 -0.0333  1.0147
  384MPD2    N1 5749   1.968   3.465  12.605 -0.4444 -0.2341 -0.2982
  384MPD2    H7 5750   1.973   3.364  12.610 -0.6009 -0.2445 -0.3768
  385TMC3    C1 5751   2.169   3.187  12.052  0.0161  0.5448 -0.3474
  385TMC3    C2 5752   2.112   3.249  11.949 -0.5111  0.0507 -0.4241
  385TMC3    C3 5753   2.037   3.173  11.867 -0.5891  0.5739  0.3313
  385TMC3    C4 5754   2.160   3.051  12.068 -0.2538  0.8164  0.3289
  385TMC3    C5 5755   2.082   2.974  11.987 -0.3027 -0.1291 -0.2859
  385TMC3    C6 5756   2.019   3.035  11.879 -0.6728 -0.3965 -0.1059
  385TMC3     C 5757   2.172   3.254  12.184  0.0140  0.0705  0.1436
  385TMC3     O 5758   2.158   3.181  12.283  0.4394 -0.5428  0.2884
  385TMC3     H 5759   2.113   3.357  11.938 -1.8542  0.0574 -0.4373
  385TMC3    H1 5760   2.228   3.007  12.140  1.8692 -0.0136 -2.2159
  385TMC3    H2 5761   1.975   2.981  11.795 -0.7308 -0.0751 -0.2810
  385TMC3    C7 5762   1.994   2.891  12.066  0.3684  0.5625 -0.6465
  385TMC3    C8 5763   2.019   3.241  11.735  0.6844  0.0426  0.1904
  385TMC3    O1 5764   1.943   2.792  12.011 -0.4017 -0.5564 -0.0612
  385TMC3    O2 5765   2.080   3.343  11.722  0.0041  0.1585  0.0983
  386TMC3    C1 5766   1.757   0.865  11.453  0.2825 -0.2678  0.5000
  386TMC3    C2 5767   1.700   0.775  11.366  0.2735  0.1694 -0.2076
  386TMC3    C3 5768   1.568   0.766  11.351 -0.3412 -0.0812 -0.1199
  386TMC3    C4 5769   1.677   0.948  11.527  0.2028  0.0278 -0.0224
  386TMC3    C5 5770   1.541   0.935  11.509  0.7116 -0.6889 -0.6890
  386TMC3    C6 5771   1.486   0.840  11.429 -0.4159 -0.6489  0.1665
  386TMC3     C 5772   1.899   0.882  11.462  0.0761 -0.0136  0.6783
  386TMC3     O 5773   1.940   0.981  11.523 -0.1520  0.6143  0.4114
  386TMC3     H 5774   1.767   0.704  11.318 -0.3459  0.6515 -1.7826
  386TMC3    H1 5775   1.718   1.023  11.594  0.9153 -0.1537 -0.2609
  386TMC3    H2 5776   1.379   0.828  11.416 -0.7317  1.2729  0.9527
  386TMC3    C7 5777   1.449   1.031  11.590  0.2270  0.2913 -0.6242
  386TMC3    C8 5778   1.505   0.689  11.242 -0.1133  0.4743  0.4374
  386TMC3    O1 5779   1.491   1.097  11.688 -0.4463  0.1223  0.2918
  386TMC3    O2 5780   1.384   0.672  11.246 -0.0110 -0.5525 -0.0629
  387MPD2     C 5781   3.907   0.676   9.850 -0.1707  0.3759 -0.5946
  387MPD2    C1 5782   3.987   0.631   9.950 -0.2489  0.3623 -0.5437
  387MPD2    C2 5783   4.028   0.495   9.945 -0.2241 -0.3345  0.3674
  387MPD2    C3 5784   3.992   0.410   9.847  0.8279  0.0330  0.6411
  387MPD2    C4 5785   3.913   0.455   9.744 -0.1401 -0.1289 -0.4720
  387MPD2    C5 5786   3.874   0.584   9.754  0.5320 -0.7883  0.8311
  387MPD2     H 5787   4.093   0.457  10.023  0.5907 -2.1562 -1.1954
  387MPD2    H1 5788   3.879   0.393   9.662  1.3461 -0.3247 -0.9522
  387MPD2    H2 5789   3.881   0.780   9.836  0.8843  0.8286  0.8492
  387MPD2    H3 5790   3.809   0.613   9.672 -0.3675  1.0778  2.2303
  387MPD2     N 5791   4.054   0.284   9.849 -0.1088  0.6681  0.4250
  387MPD2    H5 5792   4.105   0.261   9.934 -0.6432 -0.3692  0.4620
  387MPD2    N1 5793   4.037   0.720  10.054 -0.1050  0.2160  0.3553
  387MPD2    H7 5794   4.019   0.817  10.031 -1.8481  0.1197  1.3019
  388TMC3    C1 5795   4.191   0.769  10.233  0.8291 -0.2318 -0.5123
  388TMC3    C2 5796   4.261   0.859  10.159 -0.1831  0.1428  0.3856
  388TMC3    C3 5797   4.392   0.885  10.201  0.4360 -0.3034  0.9455
  388TMC3    C4 5798   4.237   0.711  10.346 -0.0264 -0.0382 -0.1142
  388TMC3    C5 5799   4.367   0.738  10.379 -0.5810 -0.0852  0.3298
  388TMC3    C6 5800   4.442   0.827  10.311  0.3997  0.2860 -0.0079
  388TMC3     C 5801   4.110   0.675  10.162  0.0798  0.0961  0.0876
  388TMC3     O 5802   4.090   0.567  10.219 -0.1142 -0.0164  0.0039
  388TMC3     H 5803   4.225   0.901  10.066  0.1088  2.0460  1.1293
  388TMC3    H1 5804   4.182   0.637  10.403  2.7989 -3.1751 -1.4406
  388TMC3    H2 5805   4.545   0.856  10.327  0.9159 -1.1151 -0.8714
  388TMC3    C7 5806   4.434   0.622  10.424 -0.3249 -0.2389 -0.4336
  388TMC3    C8 5807   4.483   0.923  10.093 -0.1200 -0.2117  0.1039
  388TMC3    O1 5808   4.539   0.644  10.484  0.7097  0.1449  0.0267
  388TMC3    O2 5809   4.416   0.965  10.000 -0.2964  0.6616  0.0117
  389MPD2     C 5810   4.221   3.395  11.481 -0.1779 -0.7635 -0.5952
  389MPD2    C1 5811   4.110   3.324  11.451 -0.2156  0.1452 -0.6245
  389MPD2    C2 5812   3.986   3.369  11.502  0.5417 -0.7633  1.6174
  389MPD2    C3 5813   3.975   3.481  11.586  0.2519 -0.1990  0.0027
  389MPD2    C4 5814   4.089   3.545  11.626  0.4562 -0.2689  0.2675
  389MPD2    C5 5815   4.211   3.492  11.582  0.8295 -1.2430  0.6195
  389MPD2     H 5816   3.898   3.315  11.469  0.9274 -0.5774  0.2702
  389MPD2    H1 5817   4.091   3.626  11.697 -1.8645  0.9631 -1.0490
  389MPD2    H2 5818   4.313   3.378  11.427  1.5095 -1.9525  2.6243
  389MPD2    H3 5819   4.296   3.549  11.618  0.8746 -0.8946 -0.0428
  389MPD2     N 5820   3.852   3.522  11.637 -0.0835  0.1945  0.1405
  389MPD2    H5 5821   3.859   3.586  11.716 -1.3119  1.0360 -0.4331
  389MPD2    N1 5822   4.120   3.225  11.353 -0.3151  0.9477  0.0905
  389MPD2    H7 5823   4.210   3.225  11.304 -0.0016 -1.6123  0.6562
  390TMC3    C1 5824   3.603   3.498  11.655 -0.6805 -0.1195 -0.1805
  390TMC3    C2 5825   3.511   3.403  11.614  0.0041 -0.5281  0.1252
  390TMC3    C3 5826   3.396   3.390  11.696  0.0683 -0.6455  0.3658
  390TMC3    C4 5827   3.590   3.567  11.770  0.0954  0.4189 -0.1173
  390TMC3    C5 5828   3.473   3.567  11.841 -0.0168 -0.0150  0.1659
  390TMC3    C6 5829   3.369   3.473  11.809  0.2094  0.6942  0.0937
  390TMC3     C 5830   3.725   3.501  11.573  0.1478  0.3124 -0.0314
  390TMC3     O 5831   3.707   3.447  11.466 -0.7922  0.7144 -0.4226
  390TMC3     H 5832   3.532   3.325  11.542 -0.2122 -0.7312  0.2801
  390TMC3    H1 5833   3.667   3.639  11.794  0.1228  0.5960 -0.7312
  390TMC3    H2 5834   3.271   3.476  11.855  0.6612 -2.4532  1.2848
  390TMC3    C7 5835   3.443   3.669  11.938  0.3040 -0.4205 -0.5873
  390TMC3    C8 5836   3.291   3.303  11.655 -0.3141  0.3429 -0.1537
  390TMC3    O1 5837   3.538   3.735  11.971 -0.4225 -0.3457  0.4749
  390TMC3    O2 5838   3.294   3.260  11.542  0.0277  0.8343 -0.4337
  391MPD2     C 5839   2.696   0.156  11.158  0.9320  0.1496 -0.5495
  391MPD2    C1 5840   2.777   0.265  11.137 -1.0500 -0.9666 -0.0896
  391MPD2    C2 5841   2.784   0.318  11.009 -0.6781 -0.7107  0.1871
  391MPD2    C3 5842   2.693   0.278  10.909  0.5386 -0.1633  0.7550
  391MPD2    C4 5843   2.599   0.187  10.939  0.7500 -0.4776  0.1011
  391MPD2    C5 5844   2.603   0.130  11.058 -0.1403  0.6410 -0.0255
  391MPD2     H 5845   2.838   0.407  10.977 -0.3502 -1.2213 -0.6645
  391MPD2    H1 5846   2.538   0.142  10.862 -1.2388  0.3566  1.1828
  391MPD2    H2 5847   2.683   0.113  11.257  2.0197  0.8411 -0.1092
  391MPD2    H3 5848   2.528   0.057  11.090  2.3306 -2.0783 -0.3856
  391MPD2     N 5849   2.696   0.343  10.784  0.0769  0.3326 -0.2222
  391MPD2    H5 5850   2.780   0.397  10.764  2.5636 -2.4377  2.7052
  391MPD2    N1 5851   2.843   0.312  11.250 -0.1761 -0.2606  0.2136
  391MPD2    H7 5852   2.817   0.281  11.344  2.0958  0.3319  1.0222
  392TMC3    C1 5853   2.627   0.424  10.572  0.5804 -0.5318  0.5916
  392TMC3    C2 5854   2.537   0.420  10.471  0.3835 -0.3438 -0.4358
  392TMC3    C3 5855   2.529   0.517  10.381 -0.3756 -0.2875  0.8630
  392TMC3    C4 5856   2.715   0.528  10.584  0.1853 -0.7452  0.4051
  392TMC3    C5 5857   2.712   0.621  10.480 -0.3155  0.3024 -0.0705
  392TMC3    C6 5858   2.615   0.623  10.381 -0.1521 -0.1214  0.9318
  392TMC3     C 5859   2.598   0.340  10.689 -0.2213  0.4463 -0.0425
  392TMC3     O 5860   2.499   0.268  10.684 -0.2121  0.3366 -0.4226
  392TMC3     H 5861   2.474   0.333  10.456 -0.4353  0.2443 -0.4039
  392TMC3    H1 5862   2.794   0.535  10.658 -0.4930  2.2213  0.8300
  392TMC3    H2 5863   2.613   0.700  10.305 -0.6348 -0.1412  0.9195
  392TMC3    C7 5864   2.793   0.738  10.508 -0.8325 -0.6449 -0.5098
  392TMC3    C8 5865   2.434   0.495  10.278 -0.8703  0.2095  0.2713
  392TMC3    O1 5866   2.827   0.745  10.621 -0.5565 -0.0915  0.0191
  392TMC3    O2 5867   2.411   0.384  10.231 -0.3646 -0.1031 -0.1012
  393TMC3    C1 5868   1.715   3.236  10.250 -0.2212 -0.4743  0.3693
  393TMC3    C2 5869   1.584   3.208  10.270  0.4597 -0.5420  0.0723
  393TMC3    C3 5870   1.545   3.184  10.405  0.1824 -0.6994  0.4012
  393TMC3    C4 5871   1.798   3.274  10.353  0.6003 -0.3462 -0.5373
  393TMC3    C5 5872   1.755   3.277  10.483  0.3712  0.5679  0.4302
  393TMC3    C6 5873   1.633   3.221  10.507 -0.3021 -0.4921 -0.2591
  393TMC3     C 5874   1.770   3.231  10.117  0.0779  0.3138  1.5765
  393TMC3     O 5875   1.693   3.205  10.027 -0.3326  0.0079 -0.5252
  393TMC3     H 5876   1.510   3.183  10.194 -0.9206  2.1574  0.5513
  393TMC3    H1 5877   1.887   3.332  10.330  0.5191 -0.9588 -2.4093
  393TMC3    H2 5878   1.608   3.212  10.612 -2.0864 -3.9405 -0.9782
  393TMC3    C7 5879   1.836   3.327  10.607  0.2392 -0.8545  0.5578
  393TMC3    C8 5880   1.393   3.176  10.422  0.6803  0.1172  0.4406
  393TMC3    O1 5881   1.788   3.290  10.716  0.2001  0.2783 -0.3826
  393TMC3    O2 5882   1.333   3.147  10.320 -0.8366 -0.1054  0.5343
  394TMC3    C1 5883   4.033   3.105  11.172  0.1116 -0.1451 -0.4021
  394TMC3    C2 5884   3.915   3.068  11.116 -0.0266  0.7427 -0.0124
  394TMC3    C3 5885   3.889   3.101  10.990 -0.0929 -1.4145 -1.3391
  394TMC3    C4 5886   4.127   3.160  11.091 -0.3707  0.4216 -0.2038
  394TMC3    C5 5887   4.100   3.190  10.962 -0.5506 -0.5096  0.2243
  394TMC3    C6 5888   3.977   3.168  10.909  0.1068  0.2571 -0.6586
  394TMC3     C 5889   4.017   3.147  11.312 -0.4027  0.5172  0.0523
  394TMC3     O 5890   3.934   3.096  11.384  0.2187 -0.0914 -0.3569
  394TMC3     H 5891   3.851   3.002  11.174  2.9232 -0.4199  1.9402
  394TMC3    H1 5892   4.222   3.187  11.136  0.0221 -0.4831 -0.4928
  394TMC3    H2 5893   3.952   3.197  10.807 -1.0150  1.6564  0.0228
  394TMC3    C7 5894   4.204   3.236  10.868 -0.2160  0.2053  0.6111
  394TMC3    C8 5895   3.750   3.110  10.961 -0.6897  0.0015 -0.1728
  394TMC3    O1 5896   4.164   3.281  10.762 -0.1809  0.4295  0.5902
  394TMC3    O2 5897   3.673   3.045  11.029 -0.5216 -0.2231  0.0494
  395TMC3    C1 5898   3.446   1.144  14.836  0.0082 -0.5055 -0.2197
  395TMC3    C2 5899   3.323   1.140  14.788  0.3426 -0.4383 -0.0235
  395TMC3    C3 5900   3.279   1.263  14.741 -0.4071 -0.3728  0.0150
  395TMC3    C4 5901   3.539   1.235  14.801  0.0419  0.3934 -0.5891
  395TMC3    C5 5902   3.499   1.358  14.748 -0.2432 -0.2510 -0.1479
  395TMC3    C6 5903   3.363   1.370  14.723 -0.7095 -0.0878  0.0387
  395TMC3     C 5904   3.479   1.048  14.935 -0.0094 -0.7997  0.0984
  395TMC3     O 5905   3.600   1.015  14.935  0.1732  0.1562  0.2361
  395TMC3     H 5906   3.262   1.059  14.826 -0.2551 -0.2371 -0.5447
  395TMC3    H1 5907   3.631   1.232  14.858 -0.4520 -2.1075  0.1038
  395TMC3    H2 5908   3.321   1.468  14.705  0.4843  0.0119 -2.2645
  395TMC3    C7 5909   3.562   1.476  14.810 -0.1434 -0.1753 -0.8976
  395TMC3    C8 5910   3.148   1.283  14.698  0.4212  0.3174 -0.3148
  395TMC3    O1 5911   3.501   1.578  14.825 -0.0593 -0.1154  0.0041
  395TMC3    O2 5912   3.108   1.398  14.686 -0.5114  0.1631 -0.1201
  396MPD2     C 5913   3.638   2.001  17.438 -0.1103  0.3459  0.3713
  396MPD2    C1 5914   3.535   2.020  17.353  0.4779  0.0135 -0.0767
  396MPD2    C2 5915   3.511   2.142  17.286 -0.1110 -0.2205  0.2965
  396MPD2    C3 5916   3.600   2.252  17.305 -0.6044 -0.0790 -0.2463
  396MPD2    C4 5917   3.705   2.231  17.393 -0.0507 -0.2463 -0.2393
  396MPD2    C5 5918   3.716   2.111  17.461 -0.1936  0.0099  0.4117
  396MPD2     H 5919   3.425   2.146  17.221  0.5364 -0.4898 -0.5825
  396MPD2    H1 5920   3.777   2.305  17.427 -1.9649  0.9297  1.2552
  396MPD2    H2 5921   3.636   1.910  17.497  0.6459  0.1996  0.1610
  396MPD2    H3 5922   3.787   2.102  17.543 -0.9935 -0.7283  1.0205
  396MPD2     N 5923   3.578   2.372  17.232  0.0048  0.4323  0.4310
  396MPD2    H5 5924   3.495   2.374  17.173  0.3673 -0.0131 -0.0979
  396MPD2    N1 5925   3.451   1.905  17.333  0.1876  0.1591 -0.3500
  396MPD2    H7 5926   3.471   1.825  17.393  0.6725  0.1473 -0.5241
  397TMC3    C1 5927   3.273   1.783  17.261 -0.4001 -0.9028 -0.3003
  397TMC3    C2 5928   3.178   1.768  17.165  0.1556  0.6220  0.2437
  397TMC3    C3 5929   3.098   1.661  17.175  0.2963  0.4975  0.2254
  397TMC3    C4 5930   3.250   1.728  17.381  0.1732 -0.1355  0.1630
  397TMC3    C5 5931   3.155   1.628  17.394 -0.5011  0.2645  0.1926
  397TMC3    C6 5932   3.079   1.592  17.289 -0.4205 -0.1754 -0.3344
  397TMC3     C 5933   3.354   1.895  17.235  0.7086 -0.3053  0.0212
  397TMC3     O 5934   3.330   1.966  17.135 -0.4080  0.2672  0.1826
  397TMC3     H 5935   3.206   1.790  17.063  0.8752  0.1504  0.3365
  397TMC3    H1 5936   3.332   1.725  17.453 -0.2999  0.4948  0.7324
  397TMC3    H2 5937   3.006   1.511  17.293  0.0320 -0.6374 -1.8092
  397TMC3    C7 5938   3.181   1.535  17.496 -0.2168  0.6178  0.3486
  397TMC3    C8 5939   2.999   1.653  17.070 -1.1789  0.1868  0.2665
  397TMC3    O1 5940   3.149   1.418  17.473  0.5441 -0.7848 -0.5902
  397TMC3    O2 5941   3.041   1.672  16.956  0.1894 -0.2451 -1.0612
  398MPD2     C 5942   1.262   2.708   0.345  0.1006  0.3470  0.6490
  398MPD2    C1 5943   1.344   2.676   0.451  0.2800  0.2254 -0.2466
  398MPD2    C2 5944   1.392   2.773   0.525  0.5841 -0.1150 -0.5395
  398MPD2    C3 5945   1.351   2.907   0.509  0.4599  0.6385  0.6578
  398MPD2    C4 5946   1.267   2.938   0.412 -0.0253 -0.9799 -0.3389
  398MPD2    C5 5947   1.226   2.843   0.324 -0.9462  0.0514  0.1363
  398MPD2     H 5948   1.446   2.753   0.617  0.0004 -0.0270 -0.1818
  398MPD2    H1 5949   1.225   3.035   0.388 -0.1924 -0.9374  0.1199
  398MPD2    H2 5950   1.214   2.635   0.280 -1.1589  1.4954  0.3031
  398MPD2    H3 5951   1.159   2.879   0.247  1.9533 -0.4739 -2.6422
  398MPD2     N 5952   1.411   3.001   0.592  0.2366 -0.3201  0.1222
  398MPD2    H5 5953   1.491   2.972   0.648  0.7660 -3.9698 -2.5311
  398MPD2    N1 5954   1.381   2.539   0.469  0.1060 -0.5147  0.1205
  398MPD2    H7 5955   1.352   2.480   0.391 -1.3436  2.5117 -1.6071
  399TMC3    C1 5956   1.491   2.344   0.560 -0.5364  0.1681 -0.1765
  399TMC3    C2 5957   1.611   2.308   0.619  0.0727 -0.1993 -0.0517
  399TMC3    C3 5958   1.635   2.172   0.637  0.4151 -1.0918 -0.1650
  399TMC3    C4 5959   1.396   2.255   0.524  0.6013 -0.0509 -0.1496
  399TMC3    C5 5960   1.423   2.124   0.541 -0.1807 -0.1493 -0.0945
  399TMC3    C6 5961   1.545   2.080   0.588  0.7618 -0.6127  0.1958
  399TMC3     C 5962   1.461   2.491   0.574  0.0244  0.4383  0.0973
  399TMC3     O 5963   1.517   2.547   0.667  0.1176  0.5954 -0.0781
  399TMC3     H 5964   1.685   2.378   0.654  0.9453 -1.0091 -0.2853
  399TMC3    H1 5965   1.294   2.287   0.506 -0.1745 -2.3949  0.0925
  399TMC3    H2 5966   1.554   1.979   0.626  2.0208 -0.4518  0.3102
  399TMC3    C7 5967   1.324   2.018   0.515  0.5797  0.5512  0.2615
  399TMC3    C8 5968   1.780   2.151   0.656 -0.4477  0.4371 -0.7017
  399TMC3    O1 5969   1.325   1.913   0.584 -0.0888  0.2907  0.1393
  399TMC3    O2 5970   1.839   2.229   0.727  0.6571  0.6656  0.5836
  400TMC3    C1 5971   4.541   1.611  17.119 -0.0238  0.4873 -1.0766
  400TMC3    C2 5972   4.408   1.584  17.099  0.2319 -0.2352  0.7184
  400TMC3    C3 5973   4.331   1.672  17.026 -0.5293 -0.0736 -0.2136
  400TMC3    C4 5974   4.598   1.727  17.062  0.0295  0.2887  0.3085
  400TMC3    C5 5975   4.519   1.803  16.977  0.1492 -0.4064 -0.4242
  400TMC3    C6 5976   4.386   1.772  16.953  0.4712  0.2079  0.2327
  400TMC3     C 5977   4.630   1.497  17.125  0.3046 -0.4576  0.3379
  400TMC3     O 5978   0.021   1.510  17.174 -0.3362 -0.0397  0.0626
  400TMC3     H 5979   4.361   1.490  17.123  1.4165 -0.3503  2.5778
  400TMC3    H1 5980   4.701   1.752  17.084  0.1769  0.3990 -0.5069
  400TMC3    H2 5981   4.344   1.819  16.865  0.6049 -1.6099 -0.7817
  400TMC3    C7 5982   4.582   1.926  16.919  0.7180  1.2514  0.1078
  400TMC3    C8 5983   4.207   1.619  16.971  0.1235  0.0297 -0.7117
  400TMC3    O1 5984   4.702   1.923  16.925  0.4897  0.0433 -0.1830
  400TMC3    O2 5985   4.184   1.628  16.851 -0.4212 -0.1147 -0.0344
  401MPD2     C 5986   3.087   0.326   0.705 -0.3760 -0.2543 -0.4678
  401MPD2    C1 5987   3.146   0.305   0.826 -0.2178 -0.2284 -0.5651
  401MPD2    C2 5988   3.183   0.177   0.869  0.1744  0.2505 -0.0090
  401MPD2    C3 5989   3.183   0.070   0.778 -0.0127  0.2197  0.4795
  401MPD2    C4 5990   3.128   0.091   0.648  0.1011  0.7079  0.1841
  401MPD2    C5 5991   3.076   0.216   0.621  0.6222 -0.7370  0.0296
  401MPD2     H 5992   3.221   0.161   0.970 -1.0316 -0.2932  0.3631
  401MPD2    H1 5993   3.110   0.015   0.573  3.1017 -0.1700  0.3408
  401MPD2    H2 5994   3.060   0.422   0.664  0.2642 -0.3013 -1.0016
  401MPD2    H3 5995   3.035   0.239   0.523  0.8652 -0.4479 -0.0040
  401MPD2     N 5996   3.235   4.666   0.825 -0.6901 -0.1419 -0.7627
  401MPD2    H5 5997   3.256   4.656   0.924  0.0709  3.7846 -0.5267
  401MPD2    N1 5998   3.150   0.409   0.922  0.3133 -0.0141 -0.4679
  401MPD2    H7 5999   3.195   0.375   1.007 -1.6710  0.7114  0.8753
  402TMC3    C1 6000   3.330   4.443   0.815  0.4633 -0.4308 -0.5312
  402TMC3    C2 6001   3.343   4.443   0.954  0.2378  0.0659  0.0025
  402TMC3    C3 6002   3.392   4.331   1.009  0.2798  0.1036  0.2627
  402TMC3    C4 6003   3.383   4.346   0.737  0.7832 -0.0154  0.2899
  402TMC3    C5 6004   3.449   4.248   0.798 -1.1413  0.0254 -1.2168
  402TMC3    C6 6005   3.440   4.233   0.931  0.3502 -0.5381 -0.2409
  402TMC3     C 6006   3.269   4.559   0.744  0.4989 -0.3274  0.2846
  402TMC3     O 6007   3.249   4.541   0.623 -0.0363 -0.7267 -0.0600
  402TMC3     H 6008   3.299   4.522   1.014  0.1831  0.3117 -0.3576
  402TMC3    H1 6009   3.402   4.360   0.631 -0.1399  0.5897  0.2023
  402TMC3    H2 6010   3.470   4.141   0.980  0.8265  0.9374  2.2523
  402TMC3    C7 6011   3.494   4.140   0.712  0.0531  0.4197 -0.2232
  402TMC3    C8 6012   3.394   4.309   1.153 -0.1852  0.7484 -0.3111
  402TMC3    O1 6013   3.447   4.134   0.601  0.1084 -0.1874 -0.1123
  402TMC3    O2 6014   3.452   4.208   1.190  0.1405 -0.3309  0.2330
  403MPD2     C 6015   0.855   3.676  13.880 -0.1812  0.9925 -0.2121
  403MPD2    C1 6016   0.966   3.596  13.878 -0.4086  0.0083  0.5229
  403MPD2    C2 6017   1.091   3.649  13.920  0.3375  0.2112  1.1924
  403MPD2    C3 6018   1.102   3.781  13.965  0.2006 -0.1310  0.3449
  403MPD2    C4 6019   0.987   3.861  13.978  0.1628 -0.2851 -0.4479
  403MPD2    C5 6020   0.862   3.807  13.934 -0.7480 -0.1461  0.1739
  403MPD2     H 6021   1.179   3.585  13.914 -1.5386 -2.6541  3.8108
  403MPD2    H1 6022   0.994   3.961  14.022 -1.4974 -0.3377 -0.0617
  403MPD2    H2 6023   0.760   3.637  13.845  0.7965 -0.0651 -1.6475
  403MPD2    H3 6024   0.779   3.877  13.939 -0.1595  0.4460  1.6297
  403MPD2     N 6025   1.225   3.823  14.012  0.2800  0.1835 -0.3899
  403MPD2    H5 6026   1.295   3.749  14.009 -1.5701 -1.4648 -2.2545
  403MPD2    N1 6027   0.950   3.463  13.827 -0.2654 -0.3228 -0.2930
  403MPD2    H7 6028   0.859   3.434  13.792  0.3203  0.7356 -2.6574
  404TMC3    C1 6029   1.014   3.253  13.729 -0.0508  0.1213 -0.2758
  404TMC3    C2 6030   0.944   3.180  13.821 -0.8922  0.0038  0.0248
  404TMC3    C3 6031   0.944   3.042  13.804  0.9322 -0.3208  0.2038
  404TMC3    C4 6032   1.091   3.202  13.630  0.7558  0.7276 -0.0834
  404TMC3    C5 6033   1.082   3.068  13.614  0.1328  0.1584  0.5885
  404TMC3    C6 6034   1.020   2.983  13.702 -0.5753  0.0642  0.5353
  404TMC3     C 6035   1.053   3.384  13.783  0.4751  0.1155  0.0228
  404TMC3     O 6036   1.176   3.403  13.792  0.7221  0.1448  0.0731
  404TMC3     H 6037   0.896   3.232  13.903 -0.8773  1.3880 -0.8525
  404TMC3    H1 6038   1.125   3.268  13.551 -1.4632  0.0249 -1.5992
  404TMC3    H2 6039   1.039   2.876  13.703  1.0072  0.3317 -0.8745
  404TMC3    C7 6040   1.106   3.020  13.480 -1.1980  0.2586  0.1088
  404TMC3    C8 6041   0.964   2.976  13.927  0.6090  0.6165  0.4590
  404TMC3    O1 6042   1.203   3.065  13.420  0.0499 -0.4648 -0.6209
  404TMC3    O2 6043   1.072   2.914  13.934 -0.4085  0.0671  0.0881
  405MPD2     C 6044   1.134   4.002  14.936 -0.0896  0.0578 -0.3448
  405MPD2    C1 6045   1.092   3.936  14.824 -0.5547 -0.1981  0.0206
  405MPD2    C2 6046   1.101   3.997  14.702 -0.7404 -0.3283  0.2345
  405MPD2    C3 6047   1.158   4.123  14.691 -0.1469 -0.0864 -0.0515
  405MPD2    C4 6048   1.182   4.195  14.813 -0.3937 -0.8023 -0.0668
  405MPD2    C5 6049   1.180   4.133  14.931  0.4986 -0.3203  0.2308
  405MPD2     H 6050   1.070   3.950  14.609  0.8698  0.8973 -0.9422
  405MPD2    H1 6051   1.216   4.298  14.810 -1.9161 -0.3666 -2.4016
  405MPD2    H2 6052   1.128   3.954  15.033 -2.0061 -2.3253 -1.6425
  405MPD2    H3 6053   1.216   4.190  15.017  0.5059  2.3384 -1.5270
  405MPD2     N 6054   1.167   4.182  14.562  0.0510  0.8770  0.1142
  405MPD2    H5 6055   1.125   4.137  14.481  0.8426 -0.0396  0.2155
  405MPD2    N1 6056   1.039   3.803  14.826 -0.2528 -0.4805 -0.2347
  405MPD2    H7 6057   1.001   3.779  14.917 -0.4745  0.2568 -0.1329
  406TMC3    C1 6058   1.073   4.516  14.268  0.2872  0.4993 -0.0712
  406TMC3    C2 6059   1.030   4.422  14.170 -0.1408  0.3034  0.1259
  406TMC3    C3 6060   1.052   4.293  14.206  0.2563 -0.3248  0.0334
  406TMC3    C4 6061   1.152   4.483  14.380  0.2325 -0.2398 -0.1983
  406TMC3    C5 6062   1.180   4.346  14.397  0.8611 -0.8178  0.0019
  406TMC3    C6 6063   1.127   4.257  14.312 -0.0051 -0.0155 -0.2945
  406TMC3     C 6064   0.975   4.622  14.287  0.1311 -0.6605  0.2022
  406TMC3     O 6065   0.931   4.681  14.188  0.1213 -0.1195 -0.2102
  406TMC3     H 6066   0.965   4.455  14.090 -0.5002  0.8398  0.6434
  406TMC3    H1 6067   1.157   4.552  14.463  1.2919  1.2846 -1.5196
  406TMC3    H2 6068   1.170   4.158  14.315  1.0147  0.5410  3.7358
  406TMC3    C7 6069   1.220   4.306  14.535 -0.6086 -0.1623 -0.2345
  406TMC3    C8 6070   0.941   4.203  14.177 -0.0602  1.0102  1.1965
  406TMC3    O1 6071   1.243   4.401  14.611 -0.1332  0.5502  0.3261
  406TMC3    O2 6072   0.857   4.245  14.100 -0.9026  0.4237  0.6445
  407MPD2     C 6073   3.859   0.139   9.215 -0.3190  0.0272  0.2075
  407MPD2    C1 6074   3.850   0.050   9.323  0.5825  0.0468 -0.1361
  407MPD2    C2 6075   3.765   0.074   9.427 -0.3805  0.7066  0.0062
  407MPD2    C3 6076   3.695   0.194   9.440  0.3657 -0.7854 -0.6477
  407MPD2    C4 6077   3.700   0.277   9.328  0.3526 -0.1447  0.6585
  407MPD2    C5 6078   3.778   0.248   9.212 -0.3286  0.4349 -0.2530
  407MPD2     H 6079   3.780   0.006   9.510  0.8764  3.3197  1.9297
  407MPD2    H1 6080   3.649   0.373   9.323 -1.1902 -0.9218  1.3448
  407MPD2    H2 6081   3.931   0.121   9.136 -2.1055 -1.2168 -1.1245
  407MPD2    H3 6082   3.780   0.328   9.138  1.2267 -0.9856 -1.7481
  407MPD2     N 6083   3.624   0.225   9.555 -0.6717 -0.0506 -0.8156
  407MPD2    H5 6084   3.601   0.323   9.571 -2.7465 -1.2645  3.7661
  407MPD2    N1 6085   3.916   4.647   9.327  0.1920  0.2546  0.5020
  407MPD2    H7 6086   3.893   4.579   9.399  0.2891  0.6949  0.9502
  408TMC3    C1 6087   4.072   4.478   9.282  0.2387 -0.2124 -0.3197
  408TMC3    C2 6088   4.201   4.455   9.324  0.0450 -1.0377 -0.1438
  408TMC3    C3 6089   4.224   4.330   9.375 -0.3041  0.4012 -0.5860
  408TMC3    C4 6090   3.971   4.382   9.279  0.1439 -0.1786 -0.1854
  408TMC3    C5 6091   4.000   4.258   9.337  0.3000 -0.5939  0.5832
  408TMC3    C6 6092   4.128   4.227   9.388  0.1458 -0.5096  0.0088
  408TMC3     C 6093   4.036   4.618   9.258  0.4848 -0.1380  0.1006
  408TMC3     O 6094   4.114   4.689   9.198 -0.7581 -0.2978  0.0084
  408TMC3     H 6095   4.280   4.527   9.303  0.7369 -1.6553  0.3300
  408TMC3    H1 6096   3.875   4.413   9.240 -0.0533 -0.4338  0.1039
  408TMC3    H2 6097   4.152   4.128   9.425  2.6098 -0.2317 -0.8172
  408TMC3    C7 6098   3.923   4.138   9.306  1.0250  0.4669 -0.3910
  408TMC3    C8 6099   4.335   4.319   9.475 -0.5814  0.1620 -0.3323
  408TMC3    O1 6100   3.962   4.026   9.343  0.0767 -0.6520 -0.3667
  408TMC3    O2 6101   4.366   4.207   9.506 -0.1289 -0.3650 -0.5467
  409MPD2     C 6102   3.353   1.177  17.362  0.1347  0.1805 -0.1061
  409MPD2    C1 6103   3.425   1.270  17.434  0.0914 -0.5564 -0.3987
  409MPD2    C2 6104   3.452   1.387  17.374  0.7669 -0.1315 -0.4417
  409MPD2    C3 6105   3.418   1.407  17.240 -0.5727 -0.1495 -0.2290
  409MPD2    C4 6106   3.348   1.313  17.174 -0.1823  0.4003 -0.1150
  409MPD2    C5 6107   3.308   1.200  17.238  0.8498  0.0560 -0.3574
  409MPD2     H 6108   3.510   1.467  17.419 -0.4172  1.5798 -1.9830
  409MPD2    H1 6109   3.316   1.312  17.071  0.3560 -2.1307 -0.2618
  409MPD2    H2 6110   3.333   1.079  17.404  1.4181 -0.6664 -1.4628
  409MPD2    H3 6111   3.256   1.123  17.183 -0.6280 -0.5840  1.9564
  409MPD2     N 6112   3.468   1.517  17.162 -1.0214 -0.3256  0.0584
  409MPD2    H5 6113   3.427   1.520  17.069 -0.2561  0.2328 -0.2704
  409MPD2    N1 6114   3.497   1.234  17.553  0.2139 -0.0105  0.0784
  409MPD2    H7 6115   3.558   1.299  17.601  0.4434  0.8254 -1.3828
  410TMC3    C1 6116   3.618   1.705  17.108  0.6471  0.4637  0.3339
  410TMC3    C2 6117   3.721   1.774  17.150  0.3113 -0.3067  0.2265
  410TMC3    C3 6118   3.805   1.820  17.052  0.2297 -0.1375 -0.0022
  410TMC3    C4 6119   3.597   1.678  16.973  0.3520  0.2716  0.4063
  410TMC3    C5 6120   3.678   1.728  16.885 -0.2573  0.7372  0.1132
  410TMC3    C6 6121   3.790   1.809  16.916 -0.2487  0.5018  0.1566
  410TMC3     C 6122   3.545   1.624  17.207  0.5805 -0.0946 -0.8692
  410TMC3     O 6123   3.574   1.648  17.330 -0.2393 -0.1730 -0.1704
  410TMC3     H 6124   3.728   1.800  17.255 -2.0668  2.3820 -0.2811
  410TMC3    H1 6125   3.510   1.619  16.948  0.8801 -0.6696  0.7789
  410TMC3    H2 6126   3.847   1.855  16.837 -3.9314  1.1592 -2.1160
  410TMC3    C7 6127   3.648   1.691  16.751 -0.4322 -0.8670  0.3087
  410TMC3    C8 6128   3.939   1.854  17.095 -0.5644  0.3476 -0.0695
  410TMC3    O1 6129   3.595   1.582  16.736 -0.6240  0.8715  0.4091
  410TMC3    O2 6130   4.009   1.915  17.015  0.3274 -0.5845 -0.6432
  411MPD2     C 6131   3.752   2.289  14.646 -0.1936 -0.2800  1.1450
  411MPD2    C1 6132   3.645   2.323  14.721 -0.8475  0.7334  0.1852
  411MPD2    C2 6133   3.537   2.234  14.725 -0.2422 -0.5206  0.2358
  411MPD2    C3 6134   3.560   2.101  14.697 -0.6803 -0.4575 -0.1833
  411MPD2    C4 6135   3.687   2.061  14.664 -1.2118  0.9550 -0.4200
  411MPD2    C5 6136   3.777   2.156  14.620 -0.6644  0.3853  1.2216
  411MPD2     H 6137   3.437   2.265  14.753  0.5370 -0.6333  3.1220
  411MPD2    H1 6138   3.691   1.965  14.615  1.3342 -0.4766  2.6227
  411MPD2    H2 6139   3.828   2.366  14.633 -2.1798  1.2559 -1.4697
  411MPD2    H3 6140   3.875   2.127  14.584 -0.7691  1.6467 -0.0592
  411MPD2     N 6141   3.452   2.008  14.693  1.1113 -0.3282 -0.0493
  411MPD2    H5 6142   3.477   1.914  14.666  0.1279 -0.7930  0.6470
  411MPD2    N1 6143   3.627   2.457  14.739  0.3618 -0.1963 -0.5819
  411MPD2    H7 6144   3.693   2.518  14.691 -0.1130 -1.0743 -2.3599
  412TMC3    C1 6145   3.228   1.945  14.655  0.1571 -0.3866  0.7740
  412TMC3    C2 6146   3.100   1.923  14.714 -0.0290 -0.4513  0.0671
  412TMC3    C3 6147   3.008   1.848  14.647 -0.2682  0.8647 -0.1063
  412TMC3    C4 6148   3.269   1.879  14.539 -0.3767  0.1240 -0.3859
  412TMC3    C5 6149   3.174   1.803  14.482  0.4126  0.4327 -0.2689
  412TMC3    C6 6150   3.047   1.781  14.540 -0.1754  0.7085  0.0306
  412TMC3     C 6151   3.315   2.038  14.722  0.1434  0.8082 -0.3899
  412TMC3     O 6152   3.276   2.108  14.812  0.3923 -0.0257 -0.1703
  412TMC3     H 6153   3.068   1.980  14.800  0.4964 -2.2617  1.4672
  412TMC3    H1 6154   3.366   1.891  14.493  0.3559  2.0898  1.6461
  412TMC3    H2 6155   2.979   1.700  14.517  0.0293  0.7808 -0.8565
  412TMC3    C7 6156   3.147   1.827  14.343  0.3708 -1.2154 -0.3630
  412TMC3    C8 6157   2.881   1.910  14.631  0.7667 -0.4308 -0.6313
  412TMC3    O1 6158   3.046   1.770  14.309  0.0305 -0.0912 -0.0220
  412TMC3    O2 6159   2.847   1.993  14.715  1.0226 -0.4692  0.1120
  413MPD2     C 6160   0.276   0.667  15.698  0.8130  0.0521 -0.0749
  413MPD2    C1 6161   0.312   0.704  15.570  0.4031  0.3359 -0.3394
  413MPD2    C2 6162   0.430   0.654  15.522 -1.2036 -0.3183  0.5089
  413MPD2    C3 6163   0.514   0.567  15.595 -0.0941 -0.3179  0.2993
  413MPD2    C4 6164   0.471   0.530  15.724  0.5507 -0.4159  0.3848
  413MPD2    C5 6165   0.347   0.580  15.775  0.5881 -0.5718 -0.2448
  413MPD2     H 6166   0.470   0.681  15.426 -0.0277 -0.1044  1.0544
  413MPD2    H1 6167   0.532   0.462  15.783 -1.0983 -1.7473  0.5636
  413MPD2    H2 6168   0.174   0.691  15.724  0.8173  0.3474 -0.3221
  413MPD2    H3 6169   0.302   0.537  15.864  3.2759 -1.5719  0.6198
  413MPD2     N 6170   0.633   0.528  15.528 -0.4570  0.7029 -0.5072
  413MPD2    H5 6171   0.647   0.570  15.437  0.2412  0.2149 -0.6278
  413MPD2    N1 6172   0.228   0.794  15.500 -0.6210  0.3434 -0.1941
  413MPD2    H7 6173   0.154   0.830  15.559 -0.2026  2.1022 -0.7190
  414TMC3    C1 6174   0.844   0.405  15.501 -0.1842  0.2474 -0.3810
  414TMC3    C2 6175   0.900   0.276  15.523 -0.9661 -0.2454 -0.2694
  414TMC3    C3 6176   0.993   0.230  15.432 -0.3851 -0.8822  0.4647
  414TMC3    C4 6177   0.895   0.489  15.402  0.3479  0.3668 -0.2487
  414TMC3    C5 6178   0.996   0.438  15.325  0.2225  0.1899  0.2370
  414TMC3    C6 6179   1.039   0.310  15.327  0.2842  0.5040 -0.0236
  414TMC3     C 6180   0.715   0.430  15.572 -0.8953 -0.0996  0.3692
  414TMC3     O 6181   0.693   0.359  15.672 -0.2232  0.7888 -0.3908
  414TMC3     H 6182   0.853   0.201  15.586  1.6483 -1.0402  0.7089
  414TMC3    H1 6183   0.861   0.592  15.397  0.3291  0.2808 -1.8408
  414TMC3    H2 6184   1.117   0.279  15.259 -1.2153 -1.7731 -0.7303
  414TMC3    C7 6185   1.010   0.522  15.204  0.6523  0.4951 -1.2193
  414TMC3    C8 6186   1.086   0.137  15.478 -1.0210  0.4908  0.1056
  414TMC3    O1 6187   0.906   0.569  15.158 -0.0550  0.0822  0.6335
  414TMC3    O2 6188   1.165   0.101  15.392 -0.4544 -0.2888  0.7741
  415TMC3    C1 6189   1.313   2.019   9.672 -0.3198  0.3640  0.8641
  415TMC3    C2 6190   1.347   2.119   9.589  0.0499  0.3603 -0.8430
  415TMC3    C3 6191   1.349   2.085   9.456  0.4113 -0.0454 -0.5365
  415TMC3    C4 6192   1.271   1.893   9.635 -0.8299 -0.0774  0.5902
  415TMC3    C5 6193   1.251   1.872   9.503  0.6123  0.8453  0.2804
  415TMC3    C6 6194   1.295   1.963   9.412 -0.0960 -0.3300 -0.1392
  415TMC3     C 6195   1.308   2.049   9.810 -0.2744  0.7415  0.6355
  415TMC3     O 6196   1.230   1.978   9.868  0.5113 -0.4220 -0.0517
  415TMC3     H 6197   1.370   2.220   9.623 -0.6104  1.0109 -2.3209
  415TMC3    H1 6198   1.267   1.807   9.701 -0.7981 -0.7200 -0.2386
  415TMC3    H2 6199   1.284   1.932   9.309  0.8105  2.0008 -0.9417
  415TMC3    C7 6200   1.178   1.754   9.455 -0.5058  0.1972 -0.2794
  415TMC3    C8 6201   1.377   2.185   9.358 -0.2530  0.5480  0.2322
  415TMC3    O1 6202   1.198   1.726   9.339  0.2787  0.0156  0.0749
  415TMC3    O2 6203   1.346   2.171   9.242  0.2438 -0.1506  0.3670
  416MPD2     C 6204   2.734   2.276  11.186  0.1176  0.5217 -0.0613
  416MPD2    C1 6205   2.683   2.206  11.288 -0.1577  0.5831 -0.0588
  416MPD2    C2 6206   2.634   2.079  11.264 -0.2459 -0.3133 -0.0084
  416MPD2    C3 6207   2.610   2.037  11.132  0.2099 -0.3833  0.0239
  416MPD2    C4 6208   2.656   2.116  11.029 -0.3035 -0.1071 -0.0068
  416MPD2    C5 6209   2.726   2.229  11.057 -1.1855  0.6809 -0.0568
  416MPD2     H 6210   2.613   2.023  11.354  2.6654 -0.4699  0.5707
  416MPD2    H1 6211   2.658   2.091  10.924  0.5956  0.1515 -0.0566
  416MPD2    H2 6212   2.788   2.368  11.205  1.6818 -0.6766  1.2954
  416MPD2    H3 6213   2.773   2.275  10.970  1.1471  0.5380  1.1291
  416MPD2     N 6214   2.567   1.900  11.110  0.3370 -0.2378  0.6636
  416MPD2    H5 6215   2.558   1.836  11.188 -0.5937 -1.4648 -0.4560
  416MPD2    N1 6216   2.681   2.280  11.409 -0.9101  1.1876  0.1362
  416MPD2    H7 6217   2.703   2.378  11.392  1.0996  0.8398  0.7548
  417TMC3    C1 6218   2.577   2.350  11.616 -0.3831  0.2207  0.2615
  417TMC3    C2 6219   2.528   2.295  11.731 -0.1980 -0.2423  0.2258
  417TMC3    C3 6220   2.404   2.335  11.776 -0.5039 -0.1017  0.4047
  417TMC3    C4 6221   2.497   2.432  11.531  0.2761  0.2327 -0.2699
  417TMC3    C5 6222   2.371   2.459  11.577  0.1981 -0.2069 -0.5776
  417TMC3    C6 6223   2.322   2.413  11.697  0.1131  0.2893  0.3979
  417TMC3     C 6224   2.629   2.243  11.529 -0.1383  0.1870  0.2427
  417TMC3     O 6225   2.614   2.130  11.569 -0.6226  0.6055  0.1044
  417TMC3     H 6226   2.590   2.225  11.784 -1.2460 -3.3344 -2.6008
  417TMC3    H1 6227   2.536   2.474  11.440  0.8572  1.4769  0.5598
  417TMC3    H2 6228   2.230   2.452  11.739 -0.9439 -0.9764 -0.7478
  417TMC3    C7 6229   2.277   2.508  11.482  0.7473 -0.0520 -0.3267
  417TMC3    C8 6230   2.373   2.336  11.921  0.6472  0.5798 -0.6300
  417TMC3    O1 6231   2.327   2.569  11.390 -0.2693  0.2718  0.5516
  417TMC3    O2 6232   2.271   2.389  11.961  0.2156  0.2687 -0.0858
  418TMC3    C1 6233   1.686   3.275   0.698  0.6858  0.0190 -0.1154
  418TMC3    C2 6234   1.568   3.261   0.623  0.2563  0.0836  0.0099
  418TMC3    C3 6235   1.459   3.210   0.685  0.3099 -0.5747  0.5534
  418TMC3    C4 6236   1.688   3.251   0.832 -0.2420  0.0533  0.0745
  418TMC3    C5 6237   1.569   3.207   0.894  0.4279 -0.0097  0.6577
  418TMC3    C6 6238   1.459   3.180   0.818  0.3116  0.1339  0.5020
  418TMC3     C 6239   1.812   3.269   0.625  0.6277 -0.0310 -0.5663
  418TMC3     O 6240   1.794   3.295   0.508 -0.0217 -0.2572 -0.0939
  418TMC3     H 6241   1.571   3.267   0.515 -2.1619 -0.6812 -0.1013
  418TMC3    H1 6242   1.781   3.278   0.882  0.3571 -3.8818  1.1145
  418TMC3    H2 6243   1.373   3.136   0.866 -0.3000  1.6158  0.7611
  418TMC3    C7 6244   1.579   3.129   1.009 -0.1131  0.6048 -0.0387
  418TMC3    C8 6245   1.382   3.131   0.594 -0.4005 -0.7795 -0.3451
  418TMC3    O1 6246   1.659   3.033   1.000  0.1365 -0.1387  0.3690
  418TMC3    O2 6247   1.329   3.202   0.510  0.1840 -0.0083 -0.4061
  419MPD2     C 6248   3.830   1.928  12.796 -0.4924 -0.4927 -0.3087
  419MPD2    C1 6249   3.942   1.939  12.880 -0.7019 -0.6709 -0.2013
  419MPD2    C2 6250   3.930   2.023  12.992 -0.1283  0.1504  0.3485
  419MPD2    C3 6251   3.815   2.087  13.028  0.1447 -0.2613 -0.0292
  419MPD2    C4 6252   3.707   2.076  12.941  0.2345  0.2051 -0.3670
  419MPD2    C5 6253   3.711   1.997  12.826 -0.1987  0.0454 -0.0285
  419MPD2     H 6254   4.018   2.027  13.055  1.3195  0.7281 -1.6934
  419MPD2    H1 6255   3.614   2.127  12.963 -0.5722 -1.5794  0.2931
  419MPD2    H2 6256   3.833   1.881  12.699 -1.1976 -1.5320  0.1729
  419MPD2    H3 6257   3.628   1.995  12.757  0.3377  0.1094 -0.6814
  419MPD2     N 6258   3.818   2.162  13.152  0.4674  0.5526  0.4824
  419MPD2    H5 6259   3.903   2.155  13.207  0.7536 -2.5743 -0.3508
  419MPD2    N1 6260   4.070   1.882  12.852 -0.0095  0.2228 -0.1765
  419MPD2    H7 6261   4.147   1.912  12.910  0.4808 -0.2149 -0.6009
  420TMC3    C1 6262   3.730   2.268  13.341 -0.4285  0.2657 -0.0010
  420TMC3    C2 6263   3.678   2.390  13.375 -0.3682 -0.3559 -0.7716
  420TMC3    C3 6264   3.687   2.429  13.505  0.1170 -0.3998 -0.4006
  420TMC3    C4 6265   3.789   2.186  13.426 -0.0611  0.1153  0.6265
  420TMC3    C5 6266   3.802   2.236  13.551  0.0652 -1.0650  0.5485
  420TMC3    C6 6267   3.760   2.354  13.601  0.1746 -0.0501  0.3479
  420TMC3     C 6268   3.714   2.231  13.206 -0.4357 -0.3392  0.0111
  420TMC3     O 6269   3.613   2.269  13.151  0.1983 -0.2858  0.2723
  420TMC3     H 6270   3.607   2.436  13.308  0.6038  2.7813  0.3442
  420TMC3    H1 6271   3.827   2.094  13.384  1.5122  1.6296 -1.2629
  420TMC3    H2 6272   3.780   2.392  13.701  1.1304 -0.2479  0.2298
  420TMC3    C7 6273   3.883   2.163  13.653 -0.2876 -0.3318 -0.0418
  420TMC3    C8 6274   3.598   2.534  13.550 -0.5753 -0.2471  0.7803
  420TMC3    O1 6275   3.921   2.222  13.752  0.6891 -0.6497  0.2024
  420TMC3    O2 6276   3.565   2.616  13.464 -0.1196  0.3990  0.3317
  421TMC3    C1 6277   1.399   3.948  14.123  0.1917  0.5270  0.5577
  421TMC3    C2 6278   1.440   4.073  14.173  0.3639 -0.5604 -0.0022
  421TMC3    C3 6279   1.535   4.085  14.269 -0.0768  0.5914 -0.1511
  421TMC3    C4 6280   1.457   3.832  14.171  0.1679 -0.9189  0.7339
  421TMC3    C5 6281   1.558   3.853  14.265  0.2069 -0.3641  0.0551
  421TMC3    C6 6282   1.604   3.974  14.309  0.1623 -0.0798  0.2958
  421TMC3     C 6283   1.264   3.945  14.069  0.2452 -0.1842  0.0594
  421TMC3     O 6284   1.205   4.050  14.054 -0.5138  0.1380  0.4476
  421TMC3     H 6285   1.385   4.164  14.152  2.0223  0.1783 -1.1612
  421TMC3    H1 6286   1.431   3.737  14.125  1.4866 -0.6871 -0.4634
  421TMC3    H2 6287   1.672   3.965  14.393  0.2882 -2.5425 -0.0777
  421TMC3    C7 6288   1.612   3.741  14.338  0.0243 -0.1871 -0.3186
  421TMC3    C8 6289   1.558   4.205  14.350  0.4280  0.1226  0.6606
  421TMC3    O1 6290   1.731   3.747  14.353  0.1917  0.5914  0.4779
  421TMC3    O2 6291   1.469   4.291  14.355 -0.6586 -0.1418 -0.0314
  422TMC3    C1 6292   3.793   4.684  12.834  0.4292 -0.7761 -0.2927
  422TMC3    C2 6293   3.808   0.054  12.930 -0.8546 -0.1164  0.3664
  422TMC3    C3 6294   3.726   0.027  13.035 -0.7204  0.4622  0.3510
  422TMC3    C4 6295   3.708   4.572  12.839 -0.1726  0.3628  0.0013
  422TMC3    C5 6296   3.630   4.552  12.949  0.2758  0.3413  0.6267
  422TMC3    C6 6297   3.646   4.640  13.054 -0.4769 -0.6239  0.0458
  422TMC3     C 6298   3.859   4.717  12.714 -0.4121  0.0898 -0.1294
  422TMC3     O 6299   3.858   0.109  12.684  0.4026 -0.2170 -0.4527
  422TMC3     H 6300   3.869   0.142  12.922 -1.1535 -0.0182 -0.8198
  422TMC3    H1 6301   3.681   4.514  12.752 -3.0984 -1.5904  2.2410
  422TMC3    H2 6302   3.601   4.612  13.149  0.0470  1.1019  0.7931
  422TMC3    C7 6303   3.531   4.446  12.945  0.1315 -0.1878 -0.7951
  422TMC3    C8 6304   3.730   0.133  13.129 -0.2684 -0.2931 -0.3011
  422TMC3    O1 6305   3.535   4.371  12.848 -0.0451  0.1432  0.0576
  422TMC3    O2 6306   3.777   0.242  13.099 -0.3615  0.0866 -0.0523
  423MPD2     C 6307   0.319   0.838   0.934 -0.0335  0.5235 -0.8172
  423MPD2    C1 6308   0.342   0.716   0.978  0.4579  0.3156 -0.3832
  423MPD2    C2 6309   0.407   0.625   0.899  0.0926 -0.2725  0.5454
  423MPD2    C3 6310   0.438   0.655   0.766  0.0040 -0.2619  0.3578
  423MPD2    C4 6311   0.412   0.778   0.714  0.2102  0.2516 -0.2465
  423MPD2    C5 6312   0.355   0.870   0.802 -0.4939  0.5219  0.0530
  423MPD2     H 6313   0.443   0.532   0.941 -2.3093  0.2678  3.8146
  423MPD2    H1 6314   0.429   0.807   0.611  0.8371 -1.2951 -0.5662
  423MPD2    H2 6315   0.276   0.921   0.990 -0.6853  1.0282 -2.0517
  423MPD2    H3 6316   0.331   0.968   0.762 -1.1617  0.3821  0.1230
  423MPD2     N 6317   0.504   0.558   0.676  0.2682  0.6456 -0.0834
  423MPD2    H5 6318   0.539   0.597   0.589  0.5847 -1.0242 -0.7006
  423MPD2    N1 6319   0.313   0.679   1.119  0.1513  0.2050  0.3929
  423MPD2    H7 6320   0.348   0.587   1.145 -2.6748 -0.8304  0.5869
  424TMC3    C1 6321   0.201   0.690   1.339 -0.2214  0.4210  0.3086
  424TMC3    C2 6322   0.270   0.584   1.386  0.1500  0.9371 -0.1884
  424TMC3    C3 6323   0.251   0.553   1.523  0.4533 -0.2019  0.6283
  424TMC3    C4 6324   0.105   0.753   1.419 -0.1314 -0.2860 -0.7512
  424TMC3    C5 6325   0.081   0.704   1.546  0.6559 -0.7268  0.0117
  424TMC3    C6 6326   0.155   0.606   1.602 -0.4933 -0.4476  0.1580
  424TMC3     C 6327   0.235   0.752   1.206 -0.5936  0.1550  0.5164
  424TMC3     O 6328   0.166   0.854   1.186 -0.3073  0.1803  1.1033
  424TMC3     H 6329   0.339   0.528   1.324  0.6000 -0.3812  1.4801
  424TMC3    H1 6330   0.054   0.835   1.370  0.9956  0.1914 -1.1347
  424TMC3    H2 6331   0.128   0.569   1.701  0.0449 -0.6093  0.2444
  424TMC3    C7 6332   4.681   0.733   1.620  0.3856 -0.0148  0.4220
  424TMC3    C8 6333   0.336   0.444   1.574 -0.6231 -0.2878  0.0394
  424TMC3    O1 6334   4.651   0.657   1.709 -0.5410 -0.1247  0.0569
  424TMC3    O2 6335   0.406   0.382   1.497 -0.4741  0.0138  0.4975
  425MPD2     C 6336   4.645   0.264   0.304 -0.2379  0.0863 -0.5106
  425MPD2    C1 6337   4.571   0.228   0.196  0.3188 -0.1393 -0.2019
  425MPD2    C2 6338   4.451   0.291   0.169 -0.3812  0.2878 -0.7125
  425MPD2    C3 6339   4.407   0.396   0.248 -0.0865  0.2591 -0.0951
  425MPD2    C4 6340   4.488   0.431   0.358  0.0606 -0.1382  0.3761
  425MPD2    C5 6341   4.601   0.361   0.384  0.2985 -0.2415 -0.0661
  425MPD2     H 6342   4.382   0.250   0.096 -1.6935  0.8663  0.1847
  425MPD2    H1 6343   4.463   0.515   0.423  0.0059  0.6605 -0.6844
  425MPD2    H2 6344   0.018   0.218   0.314 -0.2453  0.2592  0.3212
  425MPD2    H3 6345   4.649   0.388   0.477 -0.2832  0.0511  0.1507
  425MPD2     N 6346   4.279   0.446   0.215  0.1657 -0.0402 -0.0154
  425MPD2    H5 6347   4.234   0.409   0.132  0.0104  0.1942 -0.0371
  425MPD2    N1 6348   4.614   0.115   0.113  0.4977 -1.0795 -0.1538
  425MPD2    H7 6349   4.700   0.066   0.136  0.4178 -0.2043  2.0818
  426TMC3    C1 6350   4.594   4.670  17.660 -0.3311 -0.1486  0.6690
  426TMC3    C2 6351   4.557   4.630  17.540 -0.3522  0.3448  0.5591
  426TMC3    C3 6352   4.535   4.500  17.508  0.5671  0.1171 -0.1544
  426TMC3    C4 6353   4.626   4.578   0.063  0.3047  0.8670  0.4549
  426TMC3    C5 6354   4.597   4.446   0.030 -0.6005  0.0860 -0.1852
  426TMC3    C6 6355   4.559   4.403  17.599  0.2051 -0.0314 -0.1975
  426TMC3     C 6356   4.543   0.074   0.002  0.3318  0.3634 -0.1848
  426TMC3     O 6357   4.440   0.113  17.637 -0.8207 -0.2561  0.5846
  426TMC3     H 6358   4.526   4.711  17.475  1.4822  0.4663 -0.1590
  426TMC3    H1 6359   4.648   4.613   0.164 -0.3521  0.4634  0.7380
  426TMC3    H2 6360   4.548   4.297  17.578  0.3441 -0.0476 -0.1911
  426TMC3    C7 6361   4.617   4.334   0.119 -0.8722  0.2177 -0.1479
  426TMC3    C8 6362   4.513   4.464  17.369 -0.2159 -0.1783 -0.8174
  426TMC3    O1 6363   4.619   4.226   0.073  0.7656 -0.1597  0.4801
  426TMC3    O2 6364   4.561   4.362  17.327 -0.0401 -0.3999  0.1909
  427MPD2     C 6365   2.606   2.412  14.965 -0.2876  0.2522  0.7005
  427MPD2    C1 6366   2.575   2.314  15.055  0.4566  0.2775 -0.1262
  427MPD2    C2 6367   2.445   2.294  15.100  0.1094  1.0012  0.6399
  427MPD2    C3 6368   2.348   2.389  15.069 -0.6048 -0.0060  0.5046
  427MPD2    C4 6369   2.376   2.487  14.978  0.1583  0.2955 -0.6987
  427MPD2    C5 6370   2.503   2.496  14.927 -0.1539 -0.0734 -0.0447
  427MPD2     H 6371   2.426   2.213  15.169  1.4627 -2.3720 -2.9358
  427MPD2    H1 6372   2.304   2.562  14.948  0.3456 -0.1264 -2.1909
  427MPD2    H2 6373   2.701   2.431  14.918 -0.1225  0.4786  1.1290
  427MPD2    H3 6374   2.532   2.565  14.849 -0.9373  2.7456  2.1681
  427MPD2     N 6375   2.220   2.387  15.120 -0.5190  0.4608 -0.1884
  427MPD2    H5 6376   2.156   2.456  15.082  0.2815  1.6503  0.6670
  427MPD2    N1 6377   2.677   2.228  15.119  0.1202  0.5864 -0.8538
  427MPD2    H7 6378   2.650   2.158  15.187  1.9284 -0.0677 -0.8118
  428TMC3    C1 6379   2.895   2.142  15.164  0.1053 -0.5768  0.0492
  428TMC3    C2 6380   2.843   2.029  15.224  0.2190 -0.2354  0.5251
  428TMC3    C3 6381   2.938   1.939  15.265  0.6657 -0.5694 -0.0300
  428TMC3    C4 6382   3.026   2.163  15.140 -0.2784  0.3018 -0.4648
  428TMC3    C5 6383   3.115   2.076  15.199  0.3532  0.2188  0.4878
  428TMC3    C6 6384   3.074   1.964  15.256  0.2124  0.1155  0.0974
  428TMC3     C 6385   2.807   2.236  15.096  0.0759  0.0431  0.0620
  428TMC3     O 6386   2.859   2.298  15.006 -0.4190 -0.2394 -0.1321
  428TMC3     H 6387   2.738   2.000  15.224  0.1767 -0.0845 -0.2389
  428TMC3    H1 6388   3.053   2.256  15.093 -0.9386  0.3007 -0.8452
  428TMC3    H2 6389   3.140   1.888  15.296  0.4455  0.1792 -0.1640
  428TMC3    C7 6390   3.239   2.126  15.256  0.4368  0.9687 -0.7651
  428TMC3    C8 6391   2.904   1.801  15.316 -0.4976  0.6506 -0.3886
  428TMC3    O1 6392   3.283   2.050  15.338 -0.4501  0.8025  0.1288
  428TMC3    O2 6393   2.993   1.720  15.335  0.1805  0.0496 -0.0173
  429MPD2     C 6394   4.325   2.438  17.618  0.5105 -0.5542  0.2594
  429MPD2    C1 6395   4.258   2.333  17.557 -0.3209 -0.6207  0.6705
  429MPD2    C2 6396   4.159   2.364  17.465  1.0409 -0.3771 -0.1931
  429MPD2    C3 6397   4.141   2.495  17.413 -0.0019 -0.6592 -0.7521
  429MPD2    C4 6398   4.203   2.598  17.480  0.2840 -0.4103  0.4361
  429MPD2    C5 6399   4.293   2.570  17.581  0.1063 -0.0795  0.1428
  429MPD2     H 6400   4.107   2.278  17.424  1.5379  0.2194 -2.0694
  429MPD2    H1 6401   4.198   2.698  17.441 -2.4592 -0.6663  0.1292
  429MPD2    H2 6402   4.412   2.425  17.680 -0.4060  0.4900  1.7544
  429MPD2    H3 6403   4.362   2.646  17.614  1.8306 -1.1897 -0.9445
  429MPD2     N 6404   4.059   2.503  17.297 -0.6527 -0.7622 -0.3372
  429MPD2    H5 6405   4.028   2.413  17.263 -0.8943 -0.7586 -0.1325
  429MPD2    N1 6406   4.281   2.197  17.599 -0.0738  0.1944 -0.1780
  429MPD2    H7 6407   4.215   2.132  17.557 -1.8866  2.4369 -0.8673
  430TMC3    C1 6408   3.987   2.600  17.106 -0.6657 -0.5700 -0.2584
  430TMC3    C2 6409   3.966   2.723  17.041 -0.4279  0.2957  0.0600
  430TMC3    C3 6410   4.011   2.739  16.913 -0.2527  0.2476 -0.0152
  430TMC3    C4 6411   4.062   2.503  17.043 -0.2851 -0.5096  0.3068
  430TMC3    C5 6412   4.104   2.524  16.917  0.0261 -0.0076 -0.3174
  430TMC3    C6 6413   4.084   2.639  16.850  0.8869  0.0236  0.2731
  430TMC3     C 6414   4.025   2.617  17.238 -0.3202  0.1328  0.4024
  430TMC3     O 6415   4.027   2.730  17.289 -0.2699 -0.2595 -0.4221
  430TMC3     H 6416   3.908   2.799  17.093 -1.3802 -0.5755  0.2635
  430TMC3    H1 6417   4.097   2.408  17.081  0.9515  0.8334  2.5422
  430TMC3    H2 6418   4.121   2.648  16.749 -0.3969  0.9137 -0.1187
  430TMC3    C7 6419   4.183   2.418  16.874  0.5696 -0.1072  0.2745
  430TMC3    C8 6420   3.928   2.821  16.830 -0.0919  0.0892 -0.3972
  430TMC3    O1 6421   4.137   2.306  16.890  0.4122  0.3587 -0.0819
  430TMC3    O2 6422   3.873   2.916  16.881 -0.5000 -0.0328  0.4920
  431MPD2     C 6423   4.689   2.257  13.190  0.8444  0.1399  0.2425
  431MPD2    C1 6424   0.031   2.245  13.069 -0.3841  0.2040 -0.2759
  431MPD2    C2 6425   4.690   2.161  12.978  1.1827  0.6820 -0.1857
  431MPD2    C3 6426   4.593   2.069  13.015  0.0373  0.0456  0.8613
  431MPD2    C4 6427   4.537   2.086  13.140 -0.2451 -0.4139  0.1077
  431MPD2    C5 6428   4.578   2.180  13.224  0.3217  0.1559 -0.3185
  431MPD2     H 6429   0.002   2.171  12.875 -3.0191  1.4270 -1.5598
  431MPD2    H1 6430   4.467   2.010  13.171 -0.2699 -0.2799  0.3881
  431MPD2    H2 6431   0.007   2.328  13.261 -0.8880 -0.7727  2.1699
  431MPD2    H3 6432   4.542   2.198  13.324 -1.8392 -0.4287 -0.9804
  431MPD2     N 6433   4.534   1.973  12.928  0.2949 -0.1541 -0.4712
  431MPD2    H5 6434   4.460   1.917  12.968  1.6993 -1.4830  0.2340
  431MPD2    N1 6435   0.141   2.328  13.030  0.2759  0.3989 -0.9638
  431MPD2    H7 6436   0.182   2.319  12.938 -3.2068 -2.0392 -2.2373
  432TMC3    C1 6437   4.470   1.867  12.734 -0.4987  0.5931  0.6832
  432TMC3    C2 6438   4.511   1.784  12.632  0.4543  0.0610 -0.4047
  432TMC3    C3 6439   4.415   1.707  12.570  0.9622  0.2173 -0.0777
  432TMC3    C4 6440   4.343   1.872  12.772  0.0099 -0.4677 -0.3556
  432TMC3    C5 6441   4.248   1.792  12.711 -0.1533 -0.0687 -0.3059
  432TMC3    C6 6442   4.281   1.708  12.613  0.8717  0.4340  1.0962
  432TMC3     C 6443   4.571   1.947  12.798  0.4355 -0.3890 -0.9273
  432TMC3     O 6444   4.667   1.987  12.736 -0.0787  0.2861  0.2182
  432TMC3     H 6445   4.617   1.792  12.610  0.3982  1.4363 -0.2185
  432TMC3    H1 6446   4.317   1.940  12.853  0.7644 -0.5975 -0.0111
  432TMC3    H2 6447   4.206   1.648  12.563 -0.9854  2.7820  1.0612
  432TMC3    C7 6448   4.105   1.804  12.745  0.4623 -0.0901  0.6284
  432TMC3    C8 6449   4.445   1.643  12.446  0.2934  0.2198  0.3605
  432TMC3    O1 6450   4.035   1.732  12.675  0.0353  0.7185  0.1121
  432TMC3    O2 6451   4.351   1.598  12.379  0.1901 -0.2451 -0.1788
  433MPD2     C 6452   3.540   0.818  10.524  0.5034  0.8317 -0.4619
  433MPD2    C1 6453   3.661   0.750  10.549 -0.2890 -0.0519 -0.5210
  433MPD2    C2 6454   3.756   0.815  10.627 -0.3249  0.2049 -0.5595
  433MPD2    C3 6455   3.737   0.946  10.672  0.1969  0.7145  0.4296
  433MPD2    C4 6456   3.625   1.015  10.636  0.0927 -0.9801 -0.3436
  433MPD2    C5 6457   3.521   0.943  10.577 -0.4584 -0.9278 -0.0899
  433MPD2     H 6458   3.845   0.768  10.666 -0.1561  1.1310  0.1696
  433MPD2    H1 6459   3.615   1.122  10.645  1.6792 -0.9929  1.4781
  433MPD2    H2 6460   3.463   0.776  10.460  0.2880  2.4745 -1.2930
  433MPD2    H3 6461   3.428   0.993  10.551  0.7034  0.8720 -0.8381
  433MPD2     N 6462   3.842   1.004  10.750 -0.5203 -0.2165  0.2757
  433MPD2    H5 6463   3.922   0.948  10.776  0.1700 -0.0726 -1.5336
  433MPD2    N1 6464   3.681   0.611  10.525 -0.4966 -0.2324  0.0853
  433MPD2    H7 6465   3.751   0.570  10.586 -0.5432 -1.2865 -0.5665
  434TMC3    C1 6466   3.601   0.398  10.502  0.1109 -0.4497  0.1547
  434TMC3    C2 6467   3.664   0.377  10.625  0.2329  0.2420  0.4717
  434TMC3    C3 6468   3.721   0.252  10.644  0.0027 -0.2059  0.3692
  434TMC3    C4 6469   3.586   0.299  10.408 -0.2907  0.8271  0.0637
  434TMC3    C5 6470   3.633   0.169  10.442  0.5268  0.8906 -0.1575
  434TMC3    C6 6471   3.711   0.152  10.554  0.1138 -0.1878  0.5660
  434TMC3     C 6472   3.587   0.530  10.463 -0.3818 -0.7919  0.2630
  434TMC3     O 6473   3.526   0.554  10.360  0.3916 -0.2054  0.9287
  434TMC3     H 6474   3.656   0.439  10.714  1.4656  0.5770  0.3512
  434TMC3    H1 6475   3.531   0.321  10.318 -1.0072  0.4255  0.3993
  434TMC3    H2 6476   3.733   0.051  10.589 -0.0531 -0.3892  0.0838
  434TMC3    C7 6477   3.594   0.053  10.367  0.2749 -0.0938  0.0926
  434TMC3    C8 6478   3.830   0.244  10.743  0.2250 -0.4963  0.2595
  434TMC3    O1 6479   3.510   0.067  10.278 -0.4080  0.1446 -0.2060
  434TMC3    O2 6480   3.837   0.328  10.832 -0.1931 -0.0833 -0.8964
  435MPD2     C 6481   1.201   0.662  15.879  0.6385  0.2016 -0.0488
  435MPD2    C1 6482   1.113   0.685  15.982 -0.1212 -0.5811  0.3180
  435MPD2    C2 6483   1.172   0.706  16.108  0.2935  0.0064 -0.1952
  435MPD2    C3 6484   1.309   0.713  16.122 -0.7022 -0.4262  0.3854
  435MPD2    C4 6485   1.395   0.683  16.023  0.0447 -0.0844  0.0344
  435MPD2    C5 6486   1.337   0.669  15.897 -0.1925  0.1861  0.6578
  435MPD2     H 6487   1.109   0.714  16.196 -0.3146 -2.7958 -0.3597
  435MPD2    H1 6488   1.503   0.687  16.032  0.2057 -2.2444 -0.8683
  435MPD2    H2 6489   1.169   0.652  15.776  1.3715  0.2859 -0.2845
  435MPD2    H3 6490   1.402   0.657  15.812 -1.3594  1.9560 -0.4734
  435MPD2     N 6491   1.353   0.744  16.260  0.2941  0.2099  0.4263
  435MPD2    H5 6492   1.290   0.781  16.330  0.1176 -1.2989  1.0593
  435MPD2    N1 6493   0.970   0.662  15.968 -0.0983  0.5778  0.1278
  435MPD2    H7 6494   0.915   0.663  16.053  0.0987  1.8975  0.2516
  436TMC3    C1 6495   0.621   0.728  16.052  0.2502  0.8185 -0.1764
  436TMC3    C2 6496   0.712   0.641  16.000  0.0253 -0.5476  0.0672
  436TMC3    C3 6497   0.754   0.655  15.873 -0.2603  0.1347 -0.0759
  436TMC3    C4 6498   0.551   0.810  15.966 -0.0604 -0.2489  0.1804
  436TMC3    C5 6499   0.595   0.821  15.840 -0.2845  0.5982  0.5335
  436TMC3    C6 6500   0.696   0.748  15.790  0.1701 -0.5408 -0.0507
  436TMC3     C 6501   0.560   0.680  16.175 -0.1710  0.1090 -0.2691
  436TMC3     O 6502   0.542   0.559  16.189 -0.1306  0.8336  0.2164
  436TMC3     H 6503   0.762   0.569  16.064 -0.1068 -0.9728 -0.3004
  436TMC3    H1 6504   0.478   0.873  16.016  0.8906  0.1965  1.0088
  436TMC3    H2 6505   0.740   0.773  15.695 -1.6438 -1.2397 -1.0687
  436TMC3    C7 6506   0.541   0.921  15.756 -1.0409  0.8755 -0.4975
  436TMC3    C8 6507   0.902   0.644  15.852 -0.2031 -0.0611 -0.1408
  436TMC3    O1 6508   0.613   0.962  15.662 -0.3027  0.0767 -0.3849
  436TMC3    O2 6509   0.945   0.648  15.741 -0.1651 -0.2452  0.1258
  437TMC3    C1 6510   0.018   3.080  12.546 -1.0862  0.1351  0.1599
  437TMC3    C2 6511   4.702   3.166  12.445 -0.1151  0.3526 -0.0979
  437TMC3    C3 6512   0.059   3.161  12.330  0.7067 -0.2390 -0.1577
  437TMC3    C4 6513   0.134   3.001  12.538  0.0042 -0.0838  0.2727
  437TMC3    C5 6514   0.214   3.005  12.425 -0.3840  0.4549  0.0508
  437TMC3    C6 6515   0.174   3.084  12.320 -0.8043  0.2638  0.8092
  437TMC3     C 6516   4.648   3.071  12.649  0.0380 -0.6429  0.3245
  437TMC3     O 6517   4.528   3.101  12.629  0.1931 -0.1113 -0.8729
  437TMC3     H 6518   4.610   3.223  12.449 -0.1896  0.2511 -0.3662
  437TMC3    H1 6519   0.153   2.920  12.607  0.0424  0.5840  1.0475
  437TMC3    H2 6520   0.239   3.081  12.233  0.2420  0.0065  1.5857
  437TMC3    C7 6521   0.342   2.937  12.423 -0.3665 -0.1794 -0.2979
  437TMC3    C8 6522   0.002   3.220  12.208 -0.1106  0.1930  0.5476
  437TMC3    O1 6523   0.397   2.929  12.315  0.2019  0.2065  0.2231
  437TMC3    O2 6524   4.609   3.260  12.214 -0.0891  0.1106  0.3144
  438MPD2     C 6525   2.356   2.994  17.556 -0.1503 -0.2600 -0.0354
  438MPD2    C1 6526   2.331   3.102  17.471 -0.1288  0.2814 -0.1595
  438MPD2    C2 6527   2.246   3.201  17.510  0.8767 -0.1049 -0.7020
  438MPD2    C3 6528   2.184   3.202  17.634 -0.1672 -0.7279 -0.3816
  438MPD2    C4 6529   2.224   3.099   0.033 -0.0105  0.3441  0.2018
  438MPD2    C5 6530   2.314   3.002  17.685 -0.4388 -0.2863 -0.0524
  438MPD2     H 6531   2.217   3.275  17.436  2.8886  2.4839  1.0806
  438MPD2    H1 6532   2.182   3.083   0.131  1.8549  1.3272  1.1511
  438MPD2    H2 6533   2.418   2.913  17.520  0.5308 -0.6140  1.9002
  438MPD2    H3 6534   2.331   2.916   0.053  1.0852  2.7243  3.5788
  438MPD2     N 6535   2.082   3.292  17.670  0.5224 -0.4632 -0.2235
  438MPD2    H5 6536   2.037   3.268   0.062  0.4891  2.7186  0.5944
  438MPD2    N1 6537   2.402   3.103  17.348  0.4893 -0.2010  0.1618
  438MPD2    H7 6538   2.458   3.022  17.323  1.5523  0.4241  0.4834
  439TMC3    C1 6539   2.493   3.172  17.140 -0.4410  0.3233 -0.7953
  439TMC3    C2 6540   2.496   3.047  17.090  0.3667 -0.0262  0.0371
  439TMC3    C3 6541   2.574   3.036  16.979  0.5768  0.3359  0.4231
  439TMC3    C4 6542   2.555   3.279  17.088 -0.3565  0.0742  0.2707
  439TMC3    C5 6543   2.636   3.256  16.983  0.6091 -0.4649  0.7478
  439TMC3    C6 6544   2.643   3.137  16.923  0.0308 -0.1579 -0.2833
  439TMC3     C 6545   2.410   3.208  17.255 -0.2529  0.1998  0.0070
  439TMC3     O 6546   2.363   3.320  17.254  0.3285  0.5370 -0.0137
  439TMC3     H 6547   2.435   2.965  17.127 -0.0866  0.4827  0.4244
  439TMC3    H1 6548   2.550   3.375  17.138  1.8263  0.1713  0.2748
  439TMC3    H2 6549   2.709   3.113  16.841 -0.9054  3.0109 -1.9404
  439TMC3    C7 6550   2.751   3.338  16.984 -0.2951  0.3773  0.0801
  439TMC3    C8 6551   2.601   2.901  16.931 -0.8771 -0.0158 -0.9895
  439TMC3    O1 6552   2.775   3.397  17.088  0.3682 -0.1091 -0.0396
  439TMC3    O2 6553   2.637   2.884  16.815 -0.4159  0.1607 -0.1125
  440MPD2     C 6554   1.221   4.649  14.863  0.1766  0.8127  0.1347
  440MPD2    C1 6555   1.171   4.653  14.993 -0.1596 -0.5860 -0.7553
  440MPD2    C2 6556   1.244   4.582  15.089 -0.2237  0.1406  0.5615
  440MPD2    C3 6557   1.368   4.531  15.053  0.2934  0.3167 -0.4267
  440MPD2    C4 6558   1.414   4.528  14.920  0.5188 -0.0247 -0.2216
  440MPD2    C5 6559   1.333   4.585  14.821  0.4926 -0.1312 -0.0632
  440MPD2     H 6560   1.217   4.577  15.193  0.2025 -0.0436  0.6632
  440MPD2    H1 6561   1.507   4.485  14.884  0.1691 -0.3674 -0.7207
  440MPD2    H2 6562   1.158   4.698  14.790  2.3357 -0.1368 -2.3797
  440MPD2    H3 6563   1.364   4.589  14.718 -1.3544  0.5753 -0.5937
  440MPD2     N 6564   1.446   4.453  15.142  0.4535 -0.2455 -0.1230
  440MPD2    H5 6565   1.524   4.407  15.096 -1.2897 -1.5965 -1.7584
  440MPD2    N1 6566   1.035   4.695  15.035  0.6455  0.3119 -0.3203
  440MPD2    H7 6567   1.003   4.659  15.125 -0.0926  1.5817 -0.0846
  441TMC3    C1 6568   1.528   4.380  15.343 -0.2050 -0.2050 -0.2958
  441TMC3    C2 6569   1.578   4.433  15.457 -0.6591 -0.4643 -0.1355
  441TMC3    C3 6570   1.578   4.353  15.566 -0.5644 -0.5980 -0.1065
  441TMC3    C4 6571   1.466   4.257  15.336 -0.0072 -0.8829  0.2689
  441TMC3    C5 6572   1.467   4.176  15.447 -0.0285 -0.0535  0.1805
  441TMC3    C6 6573   1.521   4.228  15.561 -0.2432  0.4722 -0.1781
  441TMC3     C 6574   1.445   4.479  15.272  0.1803 -0.1090 -0.3277
  441TMC3     O 6575   1.402   4.577  15.331 -0.1079 -0.2312 -0.3607
  441TMC3     H 6576   1.621   4.532  15.462 -1.4277 -0.1793  0.7903
  441TMC3    H1 6577   1.395   4.240  15.256 -0.1467 -2.2478  0.6687
  441TMC3    H2 6578   1.491   4.183  15.656  0.7546 -0.0233 -0.0937
  441TMC3    C7 6579   1.403   4.046  15.463 -0.2958  0.3381 -0.3609
  441TMC3    C8 6580   1.535   4.426  15.687 -0.0582 -0.3993  0.9556
  441TMC3    O1 6581   1.404   4.006  15.578  0.0723  0.1603  0.0531
  441TMC3    O2 6582   1.531   4.363  15.791 -0.0730 -0.0892 -0.2373
  442MPD2     C 6583   3.804   0.024  16.496 -0.1162  0.6588 -0.8267
  442MPD2    C1 6584   3.748   4.659  16.586 -0.1683 -0.2222 -0.0491
  442MPD2    C2 6585   3.758   4.521  16.551 -0.4355 -0.4347 -0.3904
  442MPD2    C3 6586   3.830   4.481  16.438 -0.4665 -0.2080  0.7387
  442MPD2    C4 6587   3.892   4.572  16.358  0.1386  0.4645 -0.1862
  442MPD2    C5 6588   3.876   4.705  16.385 -0.1227  0.2092 -0.3040
  442MPD2     H 6589   3.709   4.449  16.615 -1.5433 -1.1625 -2.0621
  442MPD2    H1 6590   3.947   4.553  16.266 -0.5898  1.9899 -0.9442
  442MPD2    H2 6591   3.807   0.132  16.507 -1.5711  0.7602 -1.4066
  442MPD2    H3 6592   3.922   0.061  16.328 -2.4956  2.8147  1.4340
  442MPD2     N 6593   3.855   4.340  16.413 -0.0470  0.6481  0.1420
  442MPD2    H5 6594   3.913   4.322  16.332  0.6426 -0.4222  0.8854
  442MPD2    N1 6595   3.683   4.702  16.704 -0.4280  0.9388 -0.8429
  442MPD2    H7 6596   3.651   4.629  16.766 -2.1128  1.1022 -1.5232
  443TMC3    C1 6597   3.572   0.135  16.848 -0.8607 -0.2185 -0.4386
  443TMC3    C2 6598   3.473   0.228  16.844 -0.4802  0.4746 -0.2301
  443TMC3    C3 6599   3.370   0.198  16.923 -0.3066 -0.1896  0.0254
  443TMC3    C4 6600   3.588   0.043  16.948 -0.5501  0.9050  0.9023
  443TMC3    C5 6601   3.494   0.040  17.049  0.7650  0.1822 -0.6310
  443TMC3    C6 6602   3.381   0.120  17.036  0.0435  0.1229  0.3096
  443TMC3     C 6603   3.657   0.110  16.734  0.3869 -0.1932 -0.5683
  443TMC3     O 6604   3.678   0.213  16.674  0.3172  0.2439  0.0162
  443TMC3     H 6605   3.465   0.298  16.762  2.9457  0.4591 -0.5717
  443TMC3    H1 6606   3.666   4.691  16.947 -2.0509 -0.6422  0.1569
  443TMC3    H2 6607   3.296   0.092  17.097 -0.9461  2.9416  0.2311
  443TMC3    C7 6608   3.488   4.647  17.140 -0.6866  0.4575  0.9810
  443TMC3    C8 6609   3.245   0.277  16.912 -0.3611 -0.2274 -0.4994
  443TMC3    O1 6610   3.526   4.539  17.094 -0.3429 -0.5723 -0.0407
  443TMC3    O2 6611   3.200   0.324  17.013  0.8357  0.1398  0.3367
  444MPD2     C 6612   4.091   4.272  17.080  0.2170  0.2521 -0.0257
  444MPD2    C1 6613   4.031   4.174  17.146  0.1443 -0.0318  0.3183
  444MPD2    C2 6614   4.079   4.045  17.128 -0.4832  0.3755  1.0071
  444MPD2    C3 6615   4.183   4.017  17.051  0.2589  0.1675  0.5295
  444MPD2    C4 6616   4.233   4.114  16.968 -0.0649  0.0400  0.0632
  444MPD2    C5 6617   4.191   4.245  16.988 -0.7445  0.3261  0.0326
  444MPD2     H 6618   4.031   3.965  17.183  1.3724  0.1761  2.3192
  444MPD2    H1 6619   4.323   4.096  16.910  0.8400  0.8672  1.2241
  444MPD2    H2 6620   4.063   4.376  17.084  2.8518  0.9826 -0.3611
  444MPD2    H3 6621   4.235   4.330  16.938  2.3359 -0.8042  0.7827
  444MPD2     N 6622   4.229   3.880  17.053  0.4932  0.3246 -0.0435
  444MPD2    H5 6623   4.181   3.817  17.116  0.7425 -0.1787 -0.3612
  444MPD2    N1 6624   3.920   4.185  17.228 -0.3745  0.3054 -0.2800
  444MPD2    H7 6625   3.881   4.100  17.268  1.0055 -0.5286 -0.7265
  445TMC3    C1 6626   4.399   3.715  17.035  0.6524  1.1995 -0.2131
  445TMC3    C2 6627   4.341   3.645  17.139 -0.4392 -0.2235 -0.1631
  445TMC3    C3 6628   4.370   3.513  17.148  0.4188  0.2126  0.1004
  445TMC3    C4 6629   4.485   3.649  16.955  0.6983  0.4165 -0.3036
  445TMC3    C5 6630   4.510   3.516  16.974 -0.4395  0.1227 -1.0942
  445TMC3    C6 6631   4.463   3.444  17.078 -0.3742  0.0529  0.0727
  445TMC3     C 6632   4.341   3.837  16.982  0.2310 -0.4766  0.0235
  445TMC3     O 6633   4.403   3.890  16.887  0.3796  0.0688 -0.0478
  445TMC3     H 6634   4.262   3.685  17.201 -1.1795  1.1196 -1.9758
  445TMC3    H1 6635   4.526   3.698  16.868  0.8153  0.1423 -0.4033
  445TMC3    H2 6636   4.493   3.340  17.085  0.2507  0.1878 -0.4990
  445TMC3    C7 6637   4.615   3.459  16.901 -0.2390  0.1327  0.5910
  445TMC3    C8 6638   4.342   3.445  17.266 -0.0130 -0.3317  0.5369
  445TMC3    O1 6639   4.608   3.472  16.776 -0.0094  0.2145  0.0478
  445TMC3    O2 6640   4.347   3.320  17.259  0.6032  0.1443 -0.0623
  446MPD2     C 6641   3.491   0.514  11.236  0.0961  0.1461 -0.4125
  446MPD2    C1 6642   3.506   0.426  11.140  0.0421  0.8830 -0.5296
  446MPD2    C2 6643   3.623   0.443  11.066 -0.5923 -0.0384 -0.0161
  446MPD2    C3 6644   3.730   0.528  11.105 -0.1721  0.3879  0.5162
  446MPD2    C4 6645   3.705   0.626  11.203 -0.7130 -0.1181  0.2588
  446MPD2    C5 6646   3.579   0.614  11.262  0.2735 -0.6815  0.3233
  446MPD2     H 6647   3.641   0.375  10.982 -1.2976 -0.7975  0.4479
  446MPD2    H1 6648   3.785   0.692  11.237 -1.8247 -0.2831  3.1293
  446MPD2    H2 6649   3.400   0.525  11.295 -0.5974  0.2143 -1.4929
  446MPD2    H3 6650   3.560   0.678  11.347  2.0851 -1.1151  1.0644
  446MPD2     N 6651   3.846   0.532  11.027 -0.4476  0.0599 -0.0403
  446MPD2    H5 6652   3.858   0.469  10.948 -0.5304  0.8056 -0.6446
  446MPD2    N1 6653   3.415   0.321  11.113  0.3947 -0.2839  0.5536
  446MPD2    H7 6654   3.434   0.273  11.025  0.2362  1.0094 -0.1834
  447TMC3    C1 6655   4.042   0.595  10.940  0.1254  0.1177  0.2899
  447TMC3    C2 6656   4.003   0.567  10.810 -1.2073 -0.7112  0.6123
  447TMC3    C3 6657   4.095   0.519  10.725 -0.3085  0.0802 -0.8600
  447TMC3    C4 6658   4.174   0.589  10.976  0.5686  0.1326 -0.4427
  447TMC3    C5 6659   4.263   0.540  10.890 -0.0539 -0.1206 -0.5702
  447TMC3    C6 6660   4.226   0.497  10.761 -0.3857  0.4322  0.1576
  447TMC3     C 6661   3.949   0.616  11.042  0.1110 -0.3134 -0.6377
  447TMC3     O 6662   3.984   0.681  11.136 -0.1602  0.5429 -0.2192
  447TMC3     H 6663   3.903   0.577  10.768 -0.9503 -0.8220 -0.0261
  447TMC3    H1 6664   4.204   0.626  11.074  1.8800  0.8584 -1.1203
  447TMC3    H2 6665   4.304   0.459  10.698 -1.0157 -0.4358 -0.0938
  447TMC3    C7 6666   4.364   0.471  10.953 -0.0862  0.1934  0.8874
  447TMC3    C8 6667   4.051   0.475  10.598  0.1677 -0.8797 -0.4278
  447TMC3    O1 6668   4.368   0.350  10.924  0.0981 -0.3487  0.3288
  447TMC3    O2 6669   3.942   0.511  10.558  0.1788  0.4834 -0.0903
  448TMC3    C1 6670   2.040   0.159  16.962  0.0275  0.6130  0.6247
  448TMC3    C2 6671   2.050   0.027  16.945 -0.9984  0.1875 -0.2056
  448TMC3    C3 6672   2.174   4.695  16.971 -0.5322  0.3871 -0.5970
  448TMC3    C4 6673   2.140   0.233  17.018  0.6458  0.2540 -0.1046
  448TMC3    C5 6674   2.255   0.168  17.054 -0.3573  0.3537  0.2199
  448TMC3    C6 6675   2.274   0.036  17.032  0.5224  0.6875  0.0139
  448TMC3     C 6676   1.933   0.232  16.900  0.2650 -0.0277 -0.7435
  448TMC3     O 6677   1.960   0.341  16.853 -0.5486  0.1522 -0.1615
  448TMC3     H 6678   1.971   4.699  16.892  1.2747 -3.0353 -0.4323
  448TMC3    H1 6679   2.126   0.339  17.036  0.1804  0.1093  0.3923
  448TMC3    H2 6680   2.370   4.715  17.051  0.4996  0.0950 -1.2699
  448TMC3    C7 6681   2.326   0.247  17.158  0.4490 -0.1647  0.3626
  448TMC3    C8 6682   2.193   4.555  16.948 -0.6022  0.5119 -0.0986
  448TMC3    O1 6683   2.325   0.366  17.141 -0.0341 -0.2800  0.1125
  448TMC3    O2 6684   2.285   4.496  17.007 -0.4188 -0.0151 -0.4684
  449MPD2     C 6685   3.789   4.120  14.092 -0.1735 -0.4539 -0.8231
  449MPD2    C1 6686   3.742   4.025  14.002  0.3894  0.0099 -0.6496
  449MPD2    C2 6687   3.742   3.893  14.040 -0.1676 -0.7728  0.0257
  449MPD2    C3 6688   3.774   3.854  14.166 -0.1445 -0.5450 -0.3068
  449MPD2    C4 6689   3.818   3.947  14.261  0.6137 -0.3775 -0.2530
  449MPD2    C5 6690   3.820   4.080  14.218 -0.3941  0.5691 -0.3351
  449MPD2     H 6691   3.705   3.813  13.978  1.1012 -0.6431 -0.8954
  449MPD2    H1 6692   3.861   3.912  14.354  0.7946 -0.6799 -0.4522
  449MPD2    H2 6693   3.784   4.226  14.068  0.7330 -0.1223  0.4124
  449MPD2    H3 6694   3.851   4.155  14.290 -2.0027  1.6472 -0.7591
  449MPD2     N 6695   3.748   3.720  14.205 -0.1317  0.2151  0.2680
  449MPD2    H5 6696   3.724   3.660  14.127  0.5003 -0.1045  0.3275
  449MPD2    N1 6697   3.704   4.053  13.871  0.2659  1.0225  0.2260
  449MPD2    H7 6698   3.648   3.981  13.828  1.3350  1.0155 -1.1646
  450TMC3    C1 6699   3.643   4.146  13.667 -0.4968  0.0934 -0.1086
  450TMC3    C2 6700   3.756   4.127  13.583 -0.3180  0.2731 -0.7112
  450TMC3    C3 6701   3.740   4.025  13.495  0.2689  0.3431 -0.2911
  450TMC3    C4 6702   3.544   4.053  13.670  0.3180 -0.1841  0.2365
  450TMC3    C5 6703   3.545   3.942  13.587 -0.1351 -0.9977  0.6053
  450TMC3    C6 6704   3.645   3.924  13.498 -0.3009  0.0467  0.3521
  450TMC3     C 6705   3.695   4.170  13.801 -0.4013 -0.1065  0.5722
  450TMC3     O 6706   3.736   4.282  13.833  0.0444 -0.2000 -0.2372
  450TMC3     H 6707   3.834   4.201  13.572  0.2220 -0.2043 -0.0975
  450TMC3    H1 6708   3.466   4.067  13.745 -0.0046 -0.5752 -0.0262
  450TMC3    H2 6709   3.638   3.851  13.419 -0.0874 -0.0466  0.4211
  450TMC3    C7 6710   3.523   3.825  13.656 -0.5430  0.8180 -0.1594
  450TMC3    C8 6711   3.843   4.031  13.391 -0.0360  0.4678  0.3086
  450TMC3    O1 6712   3.611   3.787  13.730  0.3206  0.0049 -0.1410
  450TMC3    O2 6713   3.913   4.130  13.371 -0.2911 -0.7138  0.2114
  451MPD2     C 6714   0.437   2.198   2.025  0.4258 -0.5290  0.2308
  451MPD2    C1 6715   0.397   2.211   1.891 -0.3467 -0.3138 -0.1143
  451MPD2    C2 6716   0.444   2.116   1.798  0.6761  0.8753  0.0314
  451MPD2    C3 6717   0.523   2.003   1.834  0.5852 -0.9665  0.8550
  451MPD2    C4 6718   0.562   1.988   1.966  0.0557 -0.7312 -1.0554
  451MPD2    C5 6719   0.512   2.083   2.055 -0.3285  1.0068 -0.7190
  451MPD2     H 6720   0.421   2.129   1.693  1.3061 -1.2398 -0.3812
  451MPD2    H1 6721   0.614   1.906   2.014  0.9920  1.7670  2.2204
  451MPD2    H2 6722   0.411   2.256   2.112  1.8587  0.8494 -0.2565
  451MPD2    H3 6723   0.546   2.069   2.157 -0.3670 -2.0835 -1.1116
  451MPD2     N 6724   0.565   1.907   1.749  0.4591  0.2779  0.7213
  451MPD2    H5 6725   0.623   1.836   1.791  1.2098 -0.0080 -0.8129
  451MPD2    N1 6726   0.310   2.318   1.868  0.4720  0.2599  0.0901
  451MPD2    H7 6727   0.281   2.373   1.948 -2.4861 -0.9847 -0.1066
  452TMC3    C1 6728   0.529   1.748   1.579  0.0550  1.3289  0.1475
  452TMC3    C2 6729   0.527   1.652   1.673  0.1651  0.3341 -0.5661
  452TMC3    C3 6730   0.521   1.523   1.638  0.3609  0.2838  0.1167
  452TMC3    C4 6731   0.506   1.718   1.449 -0.7482 -0.5219 -0.1913
  452TMC3    C5 6732   0.482   1.585   1.416  0.4428  0.5268 -0.3231
  452TMC3    C6 6733   0.487   1.483   1.509 -0.1453  0.4626 -0.1573
  452TMC3     C 6734   0.503   1.883   1.629 -0.9660  0.5849  0.2038
  452TMC3     O 6735   0.419   1.945   1.571 -0.2511 -0.2984  1.0258
  452TMC3     H 6736   0.545   1.669   1.778 -0.2310 -1.8056 -0.1626
  452TMC3    H1 6737   0.493   1.799   1.379 -0.8293 -2.2752 -2.2089
  452TMC3    H2 6738   0.497   1.382   1.472  1.7162  0.9041 -0.8756
  452TMC3    C7 6739   0.498   1.557   1.275 -0.1387 -0.0774  0.7817
  452TMC3    C8 6740   0.554   1.419   1.734 -0.0838  0.1420  0.4580
  452TMC3    O1 6741   0.542   1.643   1.203  0.1210  0.1220 -0.2025
  452TMC3    O2 6742   0.522   1.444   1.847  0.2298  0.5253 -0.6391
  453TMC3    C1 6743   1.164   4.685  12.135  0.7324  0.7180  0.0685
  453TMC3    C2 6744   1.071   4.613  12.202 -0.2279 -0.1296 -0.6411
  453TMC3    C3 6745   0.961   4.582  12.130  0.4925 -0.7546  0.8510
  453TMC3    C4 6746   1.155   0.003  12.005 -0.2442  0.2325  0.2066
  453TMC3    C5 6747   1.038   4.701  11.944  0.1213 -0.0531 -0.0640
  453TMC3    C6 6748   0.936   4.632  12.008 -0.2945 -0.4979  0.7233
  453TMC3     C 6749   1.290   0.002  12.197 -0.3103  0.1896  0.4584
  453TMC3     O 6750   1.376   0.050  12.123 -0.7746 -0.1567  0.1579
  453TMC3     H 6751   1.084   4.582  12.306  1.2722 -3.4045 -1.8128
  453TMC3    H1 6752   1.236   0.059  11.960 -1.0923  1.2862 -0.0024
  453TMC3    H2 6753   0.838   4.623  11.961  0.9821 -1.7827 -1.6448
  453TMC3    C7 6754   1.056   4.658  11.808 -0.2740 -0.4818 -0.3996
  453TMC3    C8 6755   0.860   4.505  12.196  0.5965  0.4053  0.4973
  453TMC3    O1 6756   1.008   4.545  11.786 -0.3810  0.3240 -0.2543
  453TMC3    O2 6757   0.746   4.549  12.186 -0.1188  0.2942  0.0984
  454MPD2     C 6758   0.244   3.664  16.655  0.0529 -0.2367 -0.1291
  454MPD2    C1 6759   0.241   3.734  16.531  0.1537  0.7027 -0.1571
  454MPD2    C2 6760   0.246   3.874  16.543 -0.3808 -0.9752  0.5776
  454MPD2    C3 6761   0.223   3.935  16.663 -0.6716 -0.0000 -0.2698
  454MPD2    C4 6762   0.219   3.862  16.781  0.3402  0.3611 -0.4724
  454MPD2    C5 6763   0.237   3.727  16.775 -0.5798 -0.0111  0.3228
  454MPD2     H 6764   0.256   3.934  16.453 -2.0796  1.3360  1.9263
  454MPD2    H1 6765   0.207   3.917  16.873  2.6607  0.8439 -0.4460
  454MPD2    H2 6766   0.275   3.561  16.642 -0.9389 -0.5666  0.1492
  454MPD2    H3 6767   0.244   3.668  16.866  0.2915 -0.5784 -0.1218
  454MPD2     N 6768   0.181   4.071  16.677 -0.4262 -0.0822  0.4952
  454MPD2    H5 6769   0.130   4.093  16.762 -1.2586  0.8089 -0.2452
  454MPD2    N1 6770   0.232   3.672  16.402  0.1862  0.6335 -0.1675
  454MPD2    H7 6771   0.243   3.734  16.323 -0.0527  0.0670 -0.6466
  455TMC3    C1 6772   0.066   4.242  16.575 -0.6022  0.6025 -0.3440
  455TMC3    C2 6773   0.018   4.298  16.694  0.2254  0.3179  0.0284
  455TMC3    C3 6774   4.609   4.304  16.713  0.6126  0.7333 -0.4005
  455TMC3    C4 6775   4.707   4.191  16.483  1.3045  0.0794  0.2455
  455TMC3    C5 6776   4.574   4.205  16.504  0.6445  0.2603 -0.6380
  455TMC3    C6 6777   4.519   4.274  16.612  0.1862  0.0827 -1.2520
  455TMC3     C 6778   0.185   4.162  16.575  0.2672  1.2480  0.0270
  455TMC3     O 6779   0.246   4.164  16.470  0.5792  0.0738  0.2037
  455TMC3     H 6780   0.087   4.324  16.774  0.5971 -0.2241 -0.1147
  455TMC3    H1 6781   0.025   4.123  16.409  0.1045 -1.9899  1.4533
  455TMC3    H2 6782   4.412   4.291  16.617  0.9916  4.2128  1.6012
  455TMC3    C7 6783   4.496   4.085  16.496  0.3012  0.4034 -0.6524
  455TMC3    C8 6784   4.574   4.348  16.845  0.0133  0.0531  0.4983
  455TMC3    O1 6785   4.381   4.096  16.460  0.1405 -0.1631 -0.4361
  455TMC3    O2 6786   4.653   4.320  16.935  0.1495  0.0720  0.1490
  456MPD2     C 6787   2.476   3.163  16.523 -0.7454 -0.2254 -0.1587
  456MPD2    C1 6788   2.598   3.216  16.536  0.1026 -0.6731  0.0534
  456MPD2    C2 6789   2.615   3.333  16.612 -0.4719 -0.0171 -0.7931
  456MPD2    C3 6790   2.511   3.387  16.683 -0.9015  0.3552 -0.5006
  456MPD2    C4 6791   2.392   3.313  16.683 -0.3994  0.4945  0.4720
  456MPD2    C5 6792   2.375   3.204  16.605 -0.0996 -0.2285 -0.1230
  456MPD2     H 6793   2.711   3.383  16.605 -0.3982  0.1472  1.4138
  456MPD2    H1 6794   2.306   3.352  16.736 -1.3989 -2.2986  0.8959
  456MPD2    H2 6795   2.461   3.076  16.460  0.3331 -1.3911  1.2020
  456MPD2    H3 6796   2.278   3.157  16.598 -0.4037  0.6147 -1.6280
  456MPD2     N 6797   2.531   3.506  16.766 -0.3417 -0.5200  0.1280
  456MPD2    H5 6798   2.612   3.562  16.743  0.0765 -1.5853 -1.0124
  456MPD2    N1 6799   2.710   3.164  16.470 -0.2391 -0.2606 -0.0856
  456MPD2    H7 6800   2.694   3.091  16.402  0.1908  0.1833 -0.6586
  457TMC3    C1 6801   2.483   3.697  16.899  0.7564 -0.1829 -0.1350
  457TMC3    C2 6802   2.406   3.808  16.868 -0.0203 -0.8173  0.6716
  457TMC3    C3 6803   2.463   3.932  16.903 -0.2954 -0.3857 -0.1889
  457TMC3    C4 6804   2.615   3.718  16.944 -0.0283 -0.1067 -0.0451
  457TMC3    C5 6805   2.658   3.842  16.980  0.5863  0.0692  0.2731
  457TMC3    C6 6806   2.582   3.954  16.962 -0.0538  0.0109 -0.0041
  457TMC3     C 6807   2.435   3.567  16.848 -0.3839 -0.0519  0.0092
  457TMC3     O 6808   2.316   3.543  16.859  0.9378  0.1265 -0.1238
  457TMC3     H 6809   2.309   3.793  16.822  0.1895  1.6495 -0.6114
  457TMC3    H1 6810   2.684   3.637  16.963  0.1101  0.2106  0.8359
  457TMC3    H2 6811   2.618   4.048  17.001 -1.2629 -0.2206  1.6555
  457TMC3    C7 6812   2.778   3.843  17.062 -0.4943  1.0493  0.1490
  457TMC3    C8 6813   2.377   4.055  16.902  0.1637 -0.0143  0.6849
  457TMC3    O1 6814   2.815   3.746  17.122 -0.4463 -0.5471 -0.1578
  457TMC3    O2 6815   2.400   4.135  16.989 -0.7315  0.5470  0.8682
  458MPD2     C 6816   0.751   2.822  12.703  0.2961  0.1745 -0.2431
  458MPD2    C1 6817   0.662   2.882  12.785 -0.3780 -0.2909 -0.4962
  458MPD2    C2 6818   0.536   2.900  12.730  0.1939  0.7015 -0.5972
  458MPD2    C3 6819   0.513   2.874  12.596 -0.0898 -0.8343 -0.5048
  458MPD2    C4 6820   0.601   2.818  12.518  0.8278 -0.5853 -0.4056
  458MPD2    C5 6821   0.719   2.785  12.574 -0.1059 -0.1360 -0.3472
  458MPD2     H 6822   0.470   2.967  12.784  0.0978 -2.2209  2.8627
  458MPD2    H1 6823   0.588   2.787  12.415  2.5399 -1.5102 -0.3528
  458MPD2    H2 6824   0.846   2.789  12.742  1.2896  1.4889 -1.5328
  458MPD2    H3 6825   0.790   2.737  12.508  1.7824 -0.4989  1.9150
  458MPD2     N 6826   0.384   2.911  12.549  1.0532  0.6288  0.0192
  458MPD2    H5 6827   0.314   2.936  12.619  2.0161  0.2539  1.1254
  458MPD2    N1 6828   0.713   2.928  12.910 -0.4410 -0.5184  0.3398
  458MPD2    H7 6829   0.813   2.933  12.927  0.1276  1.2145 -3.7182
  459TMC3    C1 6830   0.708   3.046  13.111  0.4004  0.0573  0.0752
  459TMC3    C2 6831   0.839   3.088  13.089 -0.3841  0.3187 -0.8718
  459TMC3    C3 6832   0.899   3.174  13.179  0.4954 -0.4447  0.0911
  459TMC3    C4 6833   0.639   3.100  13.214  0.2462 -0.6343  0.0050
  459TMC3    C5 6834   0.703   3.179  13.311  0.4954  0.3912  0.1546
  459TMC3    C6 6835   0.829   3.224  13.287  0.3777 -0.0369 -0.5244
  459TMC3     C 6836   0.637   2.982  13.005  0.3282  0.1244 -0.0870
  459TMC3     O 6837   0.514   2.965  13.018  0.8487  0.1823 -0.0745
  459TMC3     H 6838   0.904   3.039  13.018 -0.9816 -2.7018  0.6599
  459TMC3    H1 6839   0.536   3.067  13.223 -0.8123  2.7872  0.7081
  459TMC3    H2 6840   0.874   3.279  13.369  1.2164  0.4372 -1.3037
  459TMC3    C7 6841   0.667   3.166  13.447 -0.0798 -0.0424  0.2373
  459TMC3    C8 6842   1.021   3.229  13.128  0.1962  0.3173 -0.1455
  459TMC3    O1 6843   0.758   3.171  13.532 -0.3364  0.4346 -0.3780
  459TMC3    O2 6844   1.098   3.158  13.066 -0.0973  0.0544  0.7843
  460MPD2     C 6845   4.172   0.173  10.435  0.3337 -0.5698  0.3734
  460MPD2    C1 6846   4.100   0.287  10.448  0.0044  0.3100 -0.3922
  460MPD2    C2 6847   4.005   0.312  10.354  0.4892  0.1541  0.3812
  460MPD2    C3 6848   3.974   0.222  10.248  0.3509 -0.0774  0.4884
  460MPD2    C4 6849   4.046   0.108  10.249 -0.1530  0.3209  0.1132
  460MPD2    C5 6850   4.143   0.079  10.339  0.6198 -1.2035 -0.3154
  460MPD2     H 6851   3.945   0.402  10.356  2.7853  1.6888 -0.6230
  460MPD2    H1 6852   4.039   0.036  10.168  2.2488  0.8581 -0.5893
  460MPD2    H2 6853   4.252   0.152  10.505  2.4402  1.8654 -1.2789
  460MPD2    H3 6854   4.192   4.706  10.353  0.2553 -1.3401  0.0117
  460MPD2     N 6855   3.863   0.243  10.162  0.0912 -0.2242  0.6149
  460MPD2    H5 6856   3.823   0.336  10.151 -0.8269 -0.9227 -1.8893
  460MPD2    N1 6857   4.130   0.371  10.556 -0.3001 -0.0569 -0.1182
  460MPD2    H7 6858   4.214   0.344  10.607  0.1259  2.6489  0.5973
  461TMC3    C1 6859   3.694   0.200  10.011 -0.3293 -0.0556 -0.4679
  461TMC3    C2 6860   3.663   0.136   9.892  0.4377 -0.0210 -0.1759
  461TMC3    C3 6861   3.601   0.204   9.791 -0.5902 -0.0159  0.1061
  461TMC3    C4 6862   3.652   0.336  10.030 -0.0888 -0.2535  0.5299
  461TMC3    C5 6863   3.589   0.393   9.923  0.2358 -0.3066 -0.8324
  461TMC3    C6 6864   3.570   0.335   9.802  0.3065 -0.7645 -0.3281
  461TMC3     C 6865   3.804   0.143  10.084 -0.0121 -0.2753  0.0924
  461TMC3     O 6866   3.846   0.031  10.052 -0.1551  0.5355  0.4744
  461TMC3     H 6867   3.703   0.036   9.877  2.3321  0.7325 -0.1477
  461TMC3    H1 6868   3.660   0.387  10.126  0.8457  1.5164 -0.4952
  461TMC3    H2 6869   3.496   0.373   9.732  0.3146  2.5875  1.5305
  461TMC3    C7 6870   3.560   0.534   9.926 -0.2067 -0.2880 -0.2626
  461TMC3    C8 6871   3.616   0.139   9.663  0.4068  1.0656  0.4239
  461TMC3    O1 6872   3.478   0.568   9.841 -0.1516 -0.3780  0.3987
  461TMC3    O2 6873   3.637   0.016   9.662 -0.1252 -0.2053 -0.5304
  462TMC3    C1 6874   0.347   1.966   0.554 -0.4596 -0.0012 -0.2622
  462TMC3    C2 6875   0.445   1.893   0.482  0.1524 -0.0811 -0.8476
  462TMC3    C3 6876   0.402   1.778   0.423  0.3683  0.7828 -0.7037
  462TMC3    C4 6877   0.219   1.921   0.562 -0.4077 -0.2120 -0.6412
  462TMC3    C5 6878   0.183   1.811   0.496 -0.0966 -0.3836 -0.0301
  462TMC3    C6 6879   0.274   1.730   0.436  0.1918 -0.1464 -0.3002
  462TMC3     C 6880   0.400   2.057   0.659  1.1138 -0.1435  0.1697
  462TMC3     O 6881   0.344   2.045   0.764 -0.0301 -0.3822 -0.4006
  462TMC3     H 6882   0.551   1.906   0.500  0.4721 -2.7413 -0.8918
  462TMC3    H1 6883   0.143   1.963   0.628  1.3016  0.3097  0.9699
  462TMC3    H2 6884   0.244   1.627   0.421  0.4776 -0.3288  0.4008
  462TMC3    C7 6885   0.075   1.736   0.575  0.6687  0.3269 -0.5115
  462TMC3    C8 6886   0.503   1.677   0.391 -0.0980  0.3064  0.4386
  462TMC3    O1 6887   4.684   1.785   0.576  0.3034 -0.5046 -0.3649
  462TMC3    O2 6888   0.607   1.669   0.457 -0.5083 -0.3675  0.3573
  463MPD2     C 6889   4.385   0.892   2.081 -0.6829  0.7652  0.0665
  463MPD2    C1 6890   4.487   0.804   2.062 -0.4490 -0.0551 -0.3459
  463MPD2    C2 6891   4.600   0.851   2.003 -0.3919 -0.1977 -0.4558
  463MPD2    C3 6892   4.605   0.983   1.968  0.0791  1.4048 -0.2203
  463MPD2    C4 6893   4.509   1.072   1.993  0.7887  0.1946  0.2512
  463MPD2    C5 6894   4.396   1.025   2.054 -0.5261 -0.0333  0.3037
  463MPD2     H 6895   4.678   0.781   1.977 -1.9088 -1.7403 -0.8615
  463MPD2    H1 6896   4.531   1.174   1.963 -0.7614 -0.1742 -2.1451
  463MPD2    H2 6897   4.289   0.867   2.123 -1.9772 -1.4000 -4.1340
  463MPD2    H3 6898   4.314   1.092   2.077 -1.3942 -0.7726 -0.6927
  463MPD2     N 6899   4.708   1.047   1.891  0.8876  0.1069 -0.0561
  463MPD2    H5 6900   4.704   1.148   1.879  0.2849  0.2679  1.5254
  463MPD2    N1 6901   4.476   0.669   2.091  0.5049 -0.4226 -0.2307
  463MPD2    H7 6902   4.546   0.602   2.061 -0.4645 -1.0563 -1.0744
  464TMC3    C1 6903   4.406   0.484   2.218  0.3328  0.1571 -0.6433
  464TMC3    C2 6904   4.540   0.449   2.238  0.3237 -0.1239 -0.0023
  464TMC3    C3 6905   4.558   0.340   2.319  0.5106  0.1388 -0.1102
  464TMC3    C4 6906   4.307   0.414   2.276 -0.2123  0.0183  0.2886
  464TMC3    C5 6907   4.329   0.305   2.361 -0.4399  0.2395 -0.6852
  464TMC3    C6 6908   4.457   0.268   2.377 -0.2074 -0.3636 -0.0459
  464TMC3     C 6909   4.369   0.613   2.165  0.0424  0.2921  0.0304
  464TMC3     O 6910   4.255   0.654   2.178  0.2584 -0.3938 -0.5304
  464TMC3     H 6911   4.616   0.525   2.222  0.8644 -0.9243 -1.2234
  464TMC3    H1 6912   4.208   0.438   2.238 -0.6097 -0.4894  1.0178
  464TMC3    H2 6913   4.489   0.180   2.431  2.0408 -0.5782 -1.7445
  464TMC3    C7 6914   4.221   0.219   2.391  0.2757  0.6184 -0.5066
  464TMC3    C8 6915   4.692   0.281   2.304 -0.0985 -0.5762  0.1337
  464TMC3    O1 6916   4.120   0.276   2.428  0.8092  0.6390  0.0848
  464TMC3    O2 6917   0.022   0.314   2.196  0.5016 -0.0552  0.1202
  465MPD2     C 6918   1.797   2.932  17.040 -0.2512 -0.1355  0.2102
  465MPD2    C1 6919   1.730   2.961  17.155  0.5570 -0.0011  0.0025
  465MPD2    C2 6920   1.640   3.071  17.162 -0.5489 -0.5831  0.1531
  465MPD2    C3 6921   1.627   3.155  17.060 -0.1067  0.5258 -0.1984
  465MPD2    C4 6922   1.697   3.129  16.946  0.3502 -0.2880  0.2893
  465MPD2    C5 6923   1.779   3.021  16.939  0.2478  0.0435  0.7045
  465MPD2     H 6924   1.586   3.087  17.255 -2.0908  2.9524 -1.3538
  465MPD2    H1 6925   1.693   3.190  16.856  0.7902  0.5253  0.8235
  465MPD2    H2 6926   1.856   2.842  17.030 -0.3326 -0.2457  0.7350
  465MPD2    H3 6927   1.822   2.995  16.843  1.1286 -2.1972  1.6940
  465MPD2     N 6928   1.536   3.257  17.073  0.3814 -0.3592 -0.1585
  465MPD2    H5 6929   1.486   3.266  17.161 -3.2463 -0.0416 -2.2230
  465MPD2    N1 6930   1.742   2.884  17.272  0.1737  0.6996  0.4836
  465MPD2    H7 6931   1.683   2.912  17.350  1.2425  1.4131  1.0224
  466TMC3    C1 6932   1.280   3.505  17.232 -0.6606 -0.0823 -0.5269
  466TMC3    C2 6933   1.257   3.626  17.177 -0.2756 -0.8235 -0.2409
  466TMC3    C3 6934   1.290   3.640  17.045 -0.0955  0.1440 -0.3980
  466TMC3    C4 6935   1.335   3.398  17.164  0.3602  0.4857  0.3890
  466TMC3    C5 6936   1.391   3.435  17.040  0.1855 -0.1551 -0.5704
  466TMC3    C6 6937   1.358   3.547  16.975  0.5721  0.0622 -0.2275
  466TMC3     C 6938   1.251   3.494  17.367 -0.3329 -0.0391  0.2516
  466TMC3     O 6939   1.169   3.576  17.410 -0.1307  0.6879 -0.2957
  466TMC3     H 6940   1.196   3.704  17.221  1.8572  1.8741 -2.0544
  466TMC3    H1 6941   1.327   3.298  17.203  3.3451 -0.0078 -0.2055
  466TMC3    H2 6942   1.371   3.549  16.867 -0.0953  0.6790 -0.3017
  466TMC3    C7 6943   1.492   3.346  16.983  0.1744 -0.5837  0.4090
  466TMC3    C8 6944   1.214   3.729  16.955 -0.3944  0.2446 -0.6806
  466TMC3    O1 6945   1.538   3.367  16.870 -0.7692 -0.5093 -0.2227
  466TMC3    O2 6946   1.211   3.696  16.835  0.2193  0.6562  0.2497
  467TMC3    C1 6947   2.505   2.571  13.984  0.6554  0.2835 -0.5351
  467TMC3    C2 6948   2.527   2.590  13.846 -0.6845 -0.7665  0.3435
  467TMC3    C3 6949   2.436   2.663  13.777  0.1971  0.0805  0.0416
  467TMC3    C4 6950   2.394   2.621  14.048 -0.2797 -0.2037 -0.1024
  467TMC3    C5 6951   2.305   2.698  13.974  0.4291 -0.3017  1.2580
  467TMC3    C6 6952   2.324   2.711  13.834  0.0403  0.3000  0.3986
  467TMC3     C 6953   2.628   2.590  14.059  0.7209  0.0544 -0.0255
  467TMC3     O 6954   2.635   2.670  14.148  1.0620 -0.3518 -0.0514
  467TMC3     H 6955   2.620   2.553  13.806 -1.0737 -2.4260  0.9635
  467TMC3    H1 6956   2.379   2.613  14.155 -2.2738  2.1052 -0.2198
  467TMC3    H2 6957   2.239   2.739  13.774  2.5757  1.6108 -2.5590
  467TMC3    C7 6958   2.190   2.763  14.032  0.2999  0.3124 -0.1359
  467TMC3    C8 6959   2.481   2.733  13.659 -0.0072  0.3660  0.1607
  467TMC3    O1 6960   2.130   2.846  13.964  0.4316 -0.3059 -0.1361
  467TMC3    O2 6961   2.403   2.821  13.623 -0.0880 -0.1269 -0.5357
  468MPD2     C 6962   0.944   4.680  10.531  0.4911 -0.6631 -0.2753
  468MPD2    C1 6963   0.983   0.022  10.645 -0.3251 -0.2660 -0.3307
  468MPD2    C2 6964   1.036   4.675  10.749 -0.7610 -1.1612 -1.0425
  468MPD2    C3 6965   1.056   4.540  10.747  0.0431  0.6568 -0.1514
  468MPD2    C4 6966   1.005   4.471  10.633  0.3613 -0.1988 -0.1175
  468MPD2    C5 6967   0.957   4.540  10.521 -0.1746  0.1197  0.5745
  468MPD2     H 6968   1.056   0.004  10.842 -1.8909 -0.9906 -0.8855
  468MPD2    H1 6969   1.019   4.365  10.620  2.6549 -0.0064  0.8646
  468MPD2    H2 6970   0.914   0.014  10.444 -1.3724 -1.3087 -0.0813
  468MPD2    H3 6971   0.942   4.494  10.423  0.9750 -3.3173  2.0080
  468MPD2     N 6972   1.112   4.460  10.848 -0.5675 -0.3438 -0.0805
  468MPD2    H5 6973   1.138   4.366  10.818  1.5460 -0.7146  2.9812
  468MPD2    N1 6974   0.963   0.162  10.657 -0.1499 -0.2572  0.2372
  468MPD2    H7 6975   0.978   0.193  10.752  1.9272  0.8797 -0.4548
  469TMC3    C1 6976   0.910   0.393  10.610  0.5648  0.1831 -0.6541
  469TMC3    C2 6977   1.035   0.426  10.667 -0.5298  0.0578 -0.1757
  469TMC3    C3 6978   1.084   0.549  10.657 -0.5249 -0.0463  0.3201
  469TMC3    C4 6979   0.847   0.482  10.523 -0.0792  0.1544 -0.2982
  469TMC3    C5 6980   0.900   0.606  10.516 -0.6205  0.5474 -0.6791
  469TMC3    C6 6981   1.017   0.643  10.582 -0.6408 -0.2842  0.0194
  469TMC3     C 6982   0.900   0.253  10.569 -0.7078 -1.1006 -0.4504
  469TMC3     O 6983   0.861   0.231  10.456 -0.2129  0.2608 -0.3892
  469TMC3     H 6984   1.098   0.349  10.711 -0.5110  0.8813  1.2331
  469TMC3    H1 6985   0.747   0.460  10.489  0.6986 -1.7874 -1.3000
  469TMC3    H2 6986   1.059   0.743  10.585  0.2023 -0.6182 -0.8619
  469TMC3    C7 6987   0.812   0.711  10.457 -0.7687  0.1667  0.6559
  469TMC3    C8 6988   1.228   0.559  10.659 -0.0107  0.4446  0.2509
  469TMC3    O1 6989   0.741   0.691  10.357 -0.7137  0.1016  0.3300
  469TMC3    O2 6990   1.281   0.596  10.558 -0.1708 -0.2280  0.2723
  470TMC3    C1 6991   3.619   1.818   1.236 -0.1298  0.4195 -0.4886
  470TMC3    C2 6992   3.664   1.948   1.266  0.0756  0.1838  0.1086
  470TMC3    C3 6993   3.621   2.001   1.386 -0.4194  0.5287 -0.0767
  470TMC3    C4 6994   3.534   1.745   1.319 -0.1968  0.0126 -0.7082
  470TMC3    C5 6995   3.494   1.809   1.430  0.2944 -0.6034 -0.4639
  470TMC3    C6 6996   3.531   1.934   1.465  0.1958  0.3790  0.1314
  470TMC3     C 6997   3.650   1.757   1.104  0.4255 -0.2342  0.0834
  470TMC3     O 6998   3.572   1.674   1.058 -0.3201 -0.4734 -0.3661
  470TMC3     H 6999   3.729   2.005   1.200 -0.7037 -0.1049 -0.9013
  470TMC3    H1 7000   3.509   1.642   1.294  0.3619 -0.2359 -0.2465
  470TMC3    H2 7001   3.510   1.974   1.564  1.3606 -3.8480  2.0923
  470TMC3    C7 7002   3.469   1.724   1.537 -0.0932  0.3727  0.3910
  470TMC3    C8 7003   3.697   2.102   1.448  0.5023 -0.2291 -0.3959
  470TMC3    O1 7004   3.514   1.611   1.550 -0.3811 -0.2427  0.0332
  470TMC3    O2 7005   3.658   2.156   1.546 -0.5590  0.2670  0.4317
  471MPD2     C 7006   3.576   2.837  16.457 -0.4578 -0.0289  0.1908
  471MPD2    C1 7007   3.635   2.711  16.457  0.3589  0.1557  0.2844
  471MPD2    C2 7008   3.741   2.681  16.543  0.2945 -0.4263 -0.4903
  471MPD2    C3 7009   3.787   2.783  16.632 -0.2259 -0.1994  0.1680
  471MPD2    C4 7010   3.725   2.898  16.639  0.4400 -0.7359 -0.4764
  471MPD2    C5 7011   3.615   2.926  16.553  0.1822 -0.0817  0.0472
  471MPD2     H 7012   3.787   2.583  16.544 -0.2478 -0.6698  0.2111
  471MPD2    H1 7013   3.747   2.983  16.703  0.7099 -1.8268  0.8709
  471MPD2    H2 7014   3.490   2.863  16.397 -1.3076 -1.2699  0.8443
  471MPD2    H3 7015   3.557   3.017  16.560  0.8968  0.4210 -0.4789
  471MPD2     N 7016   3.891   2.749  16.714 -0.7662 -0.0195 -0.3784
  471MPD2    H5 7017   3.938   2.659  16.716  0.3788  0.5983  0.8056
  471MPD2    N1 7018   3.596   2.605  16.364 -0.3173 -0.5267 -0.2232
  471MPD2    H7 7019   3.626   2.510  16.384  0.8352  0.4108  2.5696
  472TMC3    C1 7020   3.493   2.485  16.193 -0.3302  0.3073 -0.5494
  472TMC3    C2 7021   3.373   2.464  16.124  0.7472  0.6773  0.2536
  472TMC3    C3 7022   3.331   2.331  16.108  0.3681  0.4915 -0.3906
  472TMC3    C4 7023   3.577   2.383  16.224 -0.0688  0.0594 -0.0647
  472TMC3    C5 7024   3.539   2.254  16.203  0.2723  0.1227 -0.3733
  472TMC3    C6 7025   3.412   2.222  16.152  0.1622  0.4588 -0.6049
  472TMC3     C 7026   3.501   2.617  16.263  0.4070  0.3976  1.0759
  472TMC3     O 7027   3.422   2.710  16.236 -0.3971  0.3134 -0.0865
  472TMC3     H 7028   3.303   2.543  16.097 -1.7893 -1.4126  0.7525
  472TMC3    H1 7029   3.670   2.396  16.278  0.0938 -0.1567 -0.2900
  472TMC3    H2 7030   3.378   2.119  16.144  0.2562  0.4887 -1.4081
  472TMC3    C7 7031   3.610   2.149  16.284  0.7442 -0.4000 -0.9192
  472TMC3    C8 7032   3.208   2.310  16.036  0.5238 -0.4458  0.2021
  472TMC3    O1 7033   3.682   2.190  16.374 -0.2266 -0.1093 -0.6427
  472TMC3    O2 7034   3.161   2.412  15.984  0.6483  0.1428  0.2702
  473MPD2     C 7035   3.916   4.688  14.408  0.1078  0.5332 -0.3578
  473MPD2    C1 7036   3.820   0.041  14.342  0.0015  0.7147  0.1872
  473MPD2    C2 7037   3.801   0.169  14.366 -0.4160 -0.0056  0.2635
  473MPD2    C3 7038   3.898   0.237  14.435 -0.1332 -0.2105 -0.0280
  473MPD2    C4 7039   4.000   0.166  14.490 -0.2218 -0.0567  0.3716
  473MPD2    C5 7040   4.004   0.027  14.488 -0.3125 -0.5616 -0.1333
  473MPD2     H 7041   3.711   0.216  14.330 -0.0359  1.0756  0.7030
  473MPD2    H1 7042   4.065   0.215  14.562 -0.1454  0.5862 -0.1373
  473MPD2    H2 7043   3.926   4.581  14.412 -1.4186  0.3407 -1.4849
  473MPD2    H3 7044   4.076   4.689  14.541  1.5321 -1.0682 -3.2547
  473MPD2     N 7045   3.892   0.373  14.481  0.4665 -0.3159 -0.1381
  473MPD2    H5 7046   3.973   0.400  14.537 -0.5897 -0.6846  1.5481
  473MPD2    N1 7047   3.729   4.706  14.254 -0.2988  0.4227  0.4793
  473MPD2    H7 7048   3.659   0.046  14.217  0.8652  0.2391 -2.0504
  474TMC3    C1 7049   3.829   0.607  14.497  0.3151 -0.3520 -0.1536
  474TMC3    C2 7050   3.728   0.696  14.504 -0.0390  1.1944  0.1761
  474TMC3    C3 7051   3.754   0.828  14.535 -0.4355 -0.6778 -0.4541
  474TMC3    C4 7052   3.954   0.641  14.528 -0.1004 -0.1167 -0.1682
  474TMC3    C5 7053   3.974   0.771  14.563  0.1222 -0.4328  0.1861
  474TMC3    C6 7054   3.877   0.873  14.560 -0.0651  0.0265 -0.0350
  474TMC3     C 7055   3.795   0.467  14.450 -0.1078  0.6970 -1.1600
  474TMC3     O 7056   3.689   0.451  14.392  1.0060 -0.3709 -0.1281
  474TMC3     H 7057   3.634   0.682  14.451 -0.2525  0.6468  0.7059
  474TMC3    H1 7058   4.037   0.572  14.519  1.0204  1.2205 -0.0739
  474TMC3    H2 7059   3.898   0.979  14.575  0.9846 -0.1227 -0.4488
  474TMC3    C7 7060   4.103   0.814  14.611  0.2370 -0.1935  0.0795
  474TMC3    C8 7061   3.649   0.925  14.510 -0.3522 -0.1170  0.5077
  474TMC3    O1 7062   4.194   0.832  14.529 -0.1858 -0.4039 -0.1879
  474TMC3    O2 7063   3.535   0.882  14.512  0.7667 -0.5783 -0.1116
  475MPD2     C 7064   2.214   3.582  10.839 -0.0319 -0.2915 -0.0705
  475MPD2    C1 7065   2.253   3.564  10.705 -0.3022  0.0507  0.2759
  475MPD2    C2 7066   2.166   3.500  10.617  0.7613 -0.3881 -0.0040
  475MPD2    C3 7067   2.046   3.446  10.663  0.1666 -0.8578 -0.4416
  475MPD2    C4 7068   2.007   3.466  10.794  0.5861  0.3765 -0.1857
  475MPD2    C5 7069   2.093   3.537  10.877  0.9900 -0.2102  0.3242
  475MPD2     H 7070   2.195   3.500  10.512  0.1738 -0.5433 -0.1676
  475MPD2    H1 7071   1.913   3.429  10.833  0.0979  0.8410 -0.9257
  475MPD2    H2 7072   2.266   3.631  10.921 -1.7122 -2.2251  2.1959
  475MPD2    H3 7073   2.066   3.550  10.981 -1.6232  1.1823 -0.5182
  475MPD2     N 7074   1.955   3.391  10.571  0.0111  0.1541  0.2428
  475MPD2    H5 7075   1.981   3.392  10.473  4.6933 -2.7077  1.5011
  475MPD2    N1 7076   2.390   3.605  10.678  0.1658  0.3897  0.2687
  475MPD2    H7 7077   2.434   3.661  10.750 -1.2049  1.2998  0.4078
  476TMC3    C1 7078   2.595   3.620  10.551  0.3238  0.6833  0.7707
  476TMC3    C2 7079   2.661   3.619  10.427 -0.8359 -0.2060  0.6095
  476TMC3    C3 7080   2.792   3.665  10.424 -0.8343 -0.2374  0.3428
  476TMC3    C4 7081   2.654   3.668  10.665  0.1899 -0.6031 -0.1836
  476TMC3    C5 7082   2.784   3.703  10.658  0.9350  0.2188 -0.0945
  476TMC3    C6 7083   2.854   3.705  10.542 -0.1532  0.2335 -0.2585
  476TMC3     C 7084   2.449   3.597  10.549 -0.1158  0.6516  0.2100
  476TMC3     O 7085   2.392   3.563  10.444  0.0066 -0.0588 -0.2076
  476TMC3     H 7086   2.596   3.601  10.342 -0.8270 -0.1207  0.5841
  476TMC3    H1 7087   2.599   3.689  10.756  3.4208  3.0013  0.9121
  476TMC3    H2 7088   2.958   3.734  10.557  0.7104 -1.8552 -2.2717
  476TMC3    C7 7089   2.858   3.765  10.766 -0.5859 -0.5485  0.4670
  476TMC3    C8 7090   2.880   3.647  10.303 -0.1273 -0.5233  0.2392
  476TMC3    O1 7091   2.930   3.862  10.733 -0.0129  0.0605  0.2411
  476TMC3    O2 7092   2.992   3.700  10.305 -0.0282 -0.3744 -0.1560
  477MPD2     C 7093   4.630   0.414  11.929  0.6668 -0.3823  0.1927
  477MPD2    C1 7094   4.540   0.316  11.888  0.4701  0.1339 -0.0903
  477MPD2    C2 7095   4.499   0.223  11.981  0.0874 -0.2443  0.8553
  477MPD2    C3 7096   4.533   0.229  12.115  0.2208 -0.8669 -0.6475
  477MPD2    C4 7097   4.614   0.336  12.159 -0.6474 -0.6559 -0.0985
  477MPD2    C5 7098   4.660   0.423  12.059 -0.4735  0.4273  0.1717
  477MPD2     H 7099   4.451   0.135  11.941 -0.2106 -0.1682  1.0451
  477MPD2    H1 7100   4.635   0.365  12.261 -1.7154 -2.7247  0.7058
  477MPD2    H2 7101   4.665   0.485  11.855  0.3589 -0.0536  0.3612
  477MPD2    H3 7102   4.718   0.506  12.097 -0.8089 -1.4543  4.8691
  477MPD2     N 7103   4.483   0.125  12.201  0.0098 -0.1342 -0.7095
  477MPD2    H5 7104   4.433   0.050  12.155 -2.3027  0.3347  1.0589
  477MPD2    N1 7105   4.515   0.314  11.747 -0.5486 -0.0445 -0.2461
  477MPD2    H7 7106   4.555   0.391  11.693  0.5783 -1.2044 -1.0478
  478TMC3    C1 7107   4.405   0.254  11.542 -0.1318 -0.4407  0.6608
  478TMC3    C2 7108   4.387   0.391  11.520 -0.1291  0.2581 -0.1995
  478TMC3    C3 7109   4.330   0.427  11.404  0.3874 -0.4656  0.2259
  478TMC3    C4 7110   4.355   0.156  11.462 -0.0108 -0.1147  0.0608
  478TMC3    C5 7111   4.288   0.201  11.347 -0.3168 -0.2424 -0.0406
  478TMC3    C6 7112   4.270   0.339  11.320 -0.1070 -0.2062 -0.2209
  478TMC3     C 7113   4.445   0.216  11.674 -0.3942 -0.2905  0.0499
  478TMC3     O 7114   4.411   0.103  11.710 -0.4380 -0.5596 -0.5358
  478TMC3     H 7115   4.398   0.461  11.601  0.2357  1.8962 -1.6553
  478TMC3    H1 7116   4.358   0.049  11.481  0.7725 -0.1929 -0.4743
  478TMC3    H2 7117   4.254   0.389  11.226 -3.0855 -0.2569  0.2626
  478TMC3    C7 7118   4.264   0.105  11.243 -0.0095  0.2500 -0.0482
  478TMC3    C8 7119   4.293   0.562  11.387 -0.1774  0.4962  0.0763
  478TMC3    O1 7120   4.314   4.719  11.269  0.5640 -0.3430  0.3213
  478TMC3    O2 7121   4.195   0.585  11.316  0.3643  0.8827  0.1026
  479MPD2     C 7122   3.432   2.442  15.249  0.3010  0.0069 -0.3579
  479MPD2    C1 7123   3.384   2.322  15.295  0.5367 -0.9070  0.2123
  479MPD2    C2 7124   3.417   2.289  15.426 -0.1178 -0.5598  1.3118
  479MPD2    C3 7125   3.489   2.369  15.503 -0.0549 -0.0978  0.5151
  479MPD2    C4 7126   3.557   2.473  15.443  0.3908  0.2419 -0.4487
  479MPD2    C5 7127   3.520   2.513  15.321 -0.3445  0.1579  0.5048
  479MPD2     H 7128   3.372   2.204  15.475  1.0809 -0.8726  1.8570
  479MPD2    H1 7129   3.623   2.541  15.496 -0.8629 -0.6219  2.2440
  479MPD2    H2 7130   3.404   2.477  15.150  2.9090  1.4578 -0.5614
  479MPD2    H3 7131   3.560   2.602  15.273 -0.3333 -1.9316 -3.4102
  479MPD2     N 7132   3.516   2.352  15.642 -0.1620 -0.6054  0.1901
  479MPD2    H5 7133   3.599   2.403  15.668 -1.7075  1.1217  1.7130
  479MPD2    N1 7134   3.292   2.250  15.215 -0.0213 -0.4240  0.4230
  479MPD2    H7 7135   3.250   2.289  15.131  0.5048 -2.9309 -1.0021
  480TMC3    C1 7136   3.177   2.039  15.679  0.6715  0.4182  0.7196
  480TMC3    C2 7137   3.076   2.113  15.620 -0.4309  0.6853  0.3462
  480TMC3    C3 7138   3.103   2.243  15.603 -0.0705  0.1387  0.1143
  480TMC3    C4 7139   3.298   2.087  15.707 -0.0875 -0.0685  0.0527
  480TMC3    C5 7140   3.318   2.225  15.699  0.8981 -0.6166  0.5817
  480TMC3    C6 7141   3.219   2.304  15.643 -0.0950 -0.3578 -0.2602
  480TMC3     C 7142   3.151   1.915  15.735  0.5399 -0.0544 -0.3762
  480TMC3     O 7143   3.238   1.875  15.809 -0.6023 -0.0781  0.2806
  480TMC3     H 7144   2.976   2.080  15.594  0.2668 -1.8610  0.9270
  480TMC3    H1 7145   3.381   2.023  15.734 -0.8064 -0.6273  0.9802
  480TMC3    H2 7146   3.231   2.411  15.659 -0.7377 -0.1045 -1.4541
  480TMC3    C7 7147   3.455   2.273  15.736  0.0702 -0.2411  0.4323
  480TMC3    C8 7148   2.999   2.327  15.542 -0.0133 -0.1215  0.5326
  480TMC3    O1 7149   3.496   2.240  15.847 -0.2053  0.0096  0.8072
  480TMC3    O2 7150   2.880   2.298  15.545  0.2746  0.2020 -0.5147
  481MPD2     C 7151   0.394   2.048  14.199  0.0160  0.1311  0.2214
  481MPD2    C1 7152   0.266   2.022  14.219  0.5440  0.4248 -0.2750
  481MPD2    C2 7153   0.222   1.987  14.346 -0.0615 -0.6456 -0.0511
  481MPD2    C3 7154   0.317   1.988  14.455 -0.5134  0.3095 -0.6156
  481MPD2    C4 7155   0.446   2.027  14.428  0.3446  0.0985  0.8302
  481MPD2    C5 7156   0.486   2.058  14.299  0.5090  0.3206 -0.2169
  481MPD2     H 7157   0.119   1.955  14.357 -0.3258 -0.5005 -2.0934
  481MPD2    H1 7158   0.528   2.024  14.500  0.2977  0.0688  0.8826
  481MPD2    H2 7159   0.432   2.060  14.098 -0.1832 -0.5485  0.0677
  481MPD2    H3 7160   0.589   2.084  14.282  0.0083  3.9001  2.1286
  481MPD2     N 7161   0.295   1.947  14.589 -0.0415 -0.1962  0.2160
  481MPD2    H5 7162   0.370   1.976  14.651  1.5205 -1.5186 -1.0531
  481MPD2    N1 7163   0.174   2.036  14.111  0.0089  0.3921 -0.5127
  481MPD2    H7 7164   0.207   2.075  14.023 -0.1523 -1.1894 -1.2727
  482TMC3    C1 7165   4.704   2.008  13.978  0.2831 -0.9088  0.3847
  482TMC3    C2 7166   0.051   1.937  13.889 -0.5700  0.1158 -0.4650
  482TMC3    C3 7167   4.709   1.888  13.777  0.1449 -0.0038 -0.1200
  482TMC3    C4 7168   4.567   2.002  13.975  0.3385 -0.0480  0.1383
  482TMC3    C5 7169   4.502   1.937  13.874 -0.1681 -0.7324  0.3406
  482TMC3    C6 7170   4.578   1.895  13.767  0.4830 -0.9241 -0.1616
  482TMC3     C 7171   0.035   2.028  14.110 -0.3168 -0.1908 -0.2097
  482TMC3     O 7172   4.678   1.999  14.198  0.4866  0.0874 -0.5535
  482TMC3     H 7173   0.154   1.907  13.903 -0.5729  0.8611  1.1900
  482TMC3    H1 7174   4.505   2.035  14.058  1.1535  0.9365  0.3620
  482TMC3    H2 7175   4.527   1.860  13.678  1.3762 -2.3578 -0.1002
  482TMC3    C7 7176   4.364   1.973  13.842 -0.0902 -0.0626  1.0247
  482TMC3    C8 7177   0.035   1.766  13.724  0.5244  0.5173 -0.1941
  482TMC3    O1 7178   4.325   2.083  13.867  0.1805 -0.2902  0.1003
  482TMC3    O2 7179   4.692   1.664  13.724  0.3800  0.4511 -0.1740
  483TMC3    C1 7180   3.166   0.617   1.030 -0.4158 -0.0241  0.0546
  483TMC3    C2 7181   3.245   0.723   1.012 -0.7528  0.2582 -1.1317
  483TMC3    C3 7182   3.308   0.765   1.124 -0.0571  0.3525 -0.2109
  483TMC3    C4 7183   3.132   0.556   1.146  0.0805  0.4685 -1.0564
  483TMC3    C5 7184   3.185   0.605   1.259 -0.3442 -0.2392 -0.2049
  483TMC3    C6 7185   3.281   0.707   1.250  0.5507  0.6643  0.1040
  483TMC3     C 7186   3.135   0.540   0.904  0.0820 -0.6737  0.0025
  483TMC3     O 7187   3.101   0.603   0.805 -0.2347 -0.3800  0.2691
  483TMC3     H 7188   3.268   0.760   0.912  2.7619 -0.1492 -0.4705
  483TMC3    H1 7189   3.076   0.463   1.150 -1.6132  1.6455  2.2192
  483TMC3    H2 7190   3.353   0.730   1.328  0.7218  2.1857 -0.5039
  483TMC3    C7 7191   3.220   0.503   1.350 -0.0280 -0.4763  0.2880
  483TMC3    C8 7192   3.419   0.852   1.112  0.1797  0.0591 -0.2988
  483TMC3    O1 7193   3.204   0.380   1.325  0.3139  0.1653  0.0656
  483TMC3    O2 7194   3.504   0.832   1.026  0.2270 -0.3951  0.0134
  484MPD2     C 7195   1.147   3.578  13.154  0.7164  0.3651 -0.3486
  484MPD2    C1 7196   1.148   3.442  13.115 -0.3707  0.0611 -0.6487
  484MPD2    C2 7197   1.262   3.403  13.041  0.3707  0.6079  0.5592
  484MPD2    C3 7198   1.360   3.496  13.010  0.3469  0.0609 -0.7577
  484MPD2    C4 7199   1.349   3.631  13.039  0.1618  0.0695  0.8416
  484MPD2    C5 7200   1.247   3.670  13.123 -0.4564 -0.0439 -0.1059
  484MPD2     H 7201   1.274   3.301  13.008 -0.1169  0.7290  0.0054
  484MPD2    H1 7202   1.410   3.706  12.992  0.0350 -0.4815 -0.2144
  484MPD2    H2 7203   1.060   3.617  13.206 -0.0119 -1.6193 -0.0895
  484MPD2    H3 7204   1.242   3.774  13.151 -2.1857 -0.6340  1.7592
  484MPD2     N 7205   1.475   3.462  12.927 -0.2710 -0.5182 -0.1590
  484MPD2    H5 7206   1.534   3.541  12.903  0.2669 -0.5486  1.0890
  484MPD2    N1 7207   1.035   3.364  13.155  0.0043 -0.7081 -0.2875
  484MPD2    H7 7208   0.953   3.407  13.196  1.4160  1.3807  0.3666
  485TMC3    C1 7209   1.654   3.340  12.833 -0.4183 -0.1051  0.0352
  485TMC3    C2 7210   1.699   3.209  12.795 -0.6425 -0.2054 -0.2541
  485TMC3    C3 7211   1.827   3.210  12.762 -0.5997  0.1702 -0.0136
  485TMC3    C4 7212   1.732   3.453  12.837  0.3239 -0.3243 -0.1240
  485TMC3    C5 7213   1.864   3.447  12.806 -0.0223 -0.0410 -0.3232
  485TMC3    C6 7214   1.914   3.321  12.782  0.4065  0.2121 -0.1137
  485TMC3     C 7215   1.527   3.337  12.901 -1.0849  0.0257  0.1175
  485TMC3     O 7216   1.485   3.227  12.934  0.1342  0.2454  0.9204
  485TMC3     H 7217   1.637   3.120  12.797 -0.3438 -0.4149 -0.3030
  485TMC3    H1 7218   1.681   3.547  12.823 -0.9704 -1.1952 -1.2271
  485TMC3    H2 7219   2.021   3.314  12.768  0.2360 -0.3680 -1.0907
  485TMC3    C7 7220   1.899   3.537  12.707 -0.0769 -0.6514 -1.2335
  485TMC3    C8 7221   1.879   3.119  12.664 -0.0219  0.1227  0.4482
  485TMC3    O1 7222   1.850   3.648  12.704  0.0243  0.3861  0.1424
  485TMC3    O2 7223   1.990   3.151  12.616 -0.2091 -0.0165 -0.6150
  486MPD2     C 7224   2.404   2.148  12.712  0.8905 -0.0374  0.3291
  486MPD2    C1 7225   2.533   2.130  12.663 -1.2788 -0.1316  0.1833
  486MPD2    C2 7226   2.602   2.239  12.610  0.3001 -0.7697 -0.5686
  486MPD2    C3 7227   2.541   2.369  12.612 -0.1727 -0.2614 -0.0408
  486MPD2    C4 7228   2.412   2.379  12.667  0.0159 -0.0484  0.2350
  486MPD2    C5 7229   2.344   2.270  12.714 -0.3531 -0.1505 -0.2677
  486MPD2     H 7230   2.700   2.226  12.566  0.1082  2.8265 -2.1084
  486MPD2    H1 7231   2.363   2.475  12.669 -2.0649 -1.1119  0.1763
  486MPD2    H2 7232   2.365   2.064  12.768 -2.9924  0.9435 -0.9671
  486MPD2    H3 7233   2.245   2.293  12.752 -0.5983  0.0985 -1.0387
  486MPD2     N 7234   2.606   2.481  12.563  0.0476 -0.5516 -0.1527
  486MPD2    H5 7235   2.693   2.458  12.517 -0.5630 -0.3149 -1.4364
  486MPD2    N1 7236   2.591   1.999  12.683  0.5727  0.8721  0.2287
  486MPD2    H7 7237   2.526   1.924  12.707  0.8034 -0.0726 -2.0969
  487TMC3    C1 7238   2.751   1.822  12.688 -0.0154  0.0831  0.4601
  487TMC3    C2 7239   2.661   1.729  12.650 -0.5184  0.4246  0.6916
  487TMC3    C3 7240   2.685   1.602  12.686  0.4393 -0.4432 -0.7876
  487TMC3    C4 7241   2.856   1.797  12.762  0.4456  0.3859  0.1932
  487TMC3    C5 7242   2.870   1.676  12.817 -0.1818  0.2621 -0.1696
  487TMC3    C6 7243   2.786   1.575  12.777 -0.1006  0.2467  0.0198
  487TMC3     C 7244   2.721   1.962  12.655  0.1731  0.1975 -0.8344
  487TMC3     O 7245   2.814   2.038  12.637  0.1152  0.3286 -0.2711
  487TMC3     H 7246   2.575   1.747  12.587  0.6039  1.9995 -0.3846
  487TMC3    H1 7247   2.910   1.886  12.792  1.4671 -0.9242  2.2234
  487TMC3    H2 7248   2.828   1.475  12.782  0.3185  0.3440 -1.4896
  487TMC3    C7 7249   2.876   1.683  12.966 -0.2697  0.0914  0.6698
  487TMC3    C8 7250   2.563   1.542  12.742  0.4519  0.2035 -0.7594
  487TMC3    O1 7251   2.889   1.795  13.017 -0.2765  0.2325 -0.2166
  487TMC3    O2 7252   2.482   1.626  12.784 -0.5027 -0.6787  0.0100
  488MPD2     C 7253   3.425   3.866  16.581 -0.0711 -0.7737  0.0455
  488MPD2    C1 7254   3.448   3.981  16.649  0.3675 -0.3186 -0.3794
  488MPD2    C2 7255   3.459   3.972  16.787 -0.4473 -0.4516  0.3435
  488MPD2    C3 7256   3.435   3.853  16.859  1.2299  0.9979  0.1994
  488MPD2    C4 7257   3.423   3.736  16.783  0.4772 -0.1468 -0.3279
  488MPD2    C5 7258   3.413   3.750  16.649 -0.4015  0.3530  0.3132
  488MPD2     H 7259   3.480   4.064  16.840 -0.8528 -0.3281  0.2895
  488MPD2    H1 7260   3.419   3.638  16.829 -1.9749  0.3842  0.5846
  488MPD2    H2 7261   3.413   3.866  16.473  1.6080  0.8865 -0.1371
  488MPD2    H3 7262   3.384   3.661  16.593  1.8280  0.7705 -1.5130
  488MPD2     N 7263   3.429   3.859  16.996 -0.3346  0.2513 -0.0273
  488MPD2    H5 7264   3.414   3.949  17.040 -0.9789  0.6519 -1.0651
  488MPD2    N1 7265   3.464   4.103  16.574  0.2682  0.7581 -0.2741
  488MPD2    H7 7266   3.474   4.186  16.632  0.6890  1.9022 -2.0043
  489TMC3    C1 7267   3.416   3.798  17.217  0.0284 -0.3496  0.5242
  489TMC3    C2 7268   3.451   3.933  17.230 -0.3736  0.2828 -0.2014
  489TMC3    C3 7269   3.403   4.003  17.338 -0.0568 -0.3698 -0.4309
  489TMC3    C4 7270   3.341   3.742  17.311  0.1732 -0.7247  0.1964
  489TMC3    C5 7271   3.296   3.813  17.418 -0.3057 -0.0266 -0.2140
  489TMC3    C6 7272   3.323   3.947  17.437  1.0249  0.2347 -0.0606
  489TMC3     C 7273   3.415   3.752  17.080  0.8325  0.5365  0.2107
  489TMC3     O 7274   3.388   3.635  17.059  0.1893  0.2754  0.4579
  489TMC3     H 7275   3.532   3.978  17.173 -0.3324 -0.2465 -0.5621
  489TMC3    H1 7276   3.321   3.636  17.307 -4.0524  0.0548  0.9892
  489TMC3    H2 7277   3.287   4.001  17.523  1.9475 -2.1381  1.8059
  489TMC3    C7 7278   3.246   3.730  17.522 -0.0262  0.4455 -0.5274
  489TMC3    C8 7279   3.414   4.143  17.320  0.1770  0.2227 -0.4988
  489TMC3    O1 7280   3.281   3.765  17.632  0.2621 -0.1981  0.0687
  489TMC3    O2 7281   3.456   4.182  17.212 -0.0091  0.7171  0.6330
  490MPD2     C 7282   4.148   4.106  17.501  0.0411  0.2630  0.5290
  490MPD2    C1 7283   4.113   4.046  17.615  0.8572 -0.3978 -0.2651
  490MPD2    C2 7284   4.129   4.118   0.038  0.9128 -0.1784 -0.2329
  490MPD2    C3 7285   4.190   4.240   0.031 -0.3135  0.4515  0.2630
  490MPD2    C4 7286   4.220   4.298  17.611  0.7075  0.5193 -0.1348
  490MPD2    C5 7287   4.206   4.230  17.493 -0.6322 -0.2376 -0.0367
  490MPD2     H 7288   4.098   4.080   0.134  0.1735  0.4732 -0.2171
  490MPD2    H1 7289   4.263   4.398  17.612  1.8779 -0.0320  3.5168
  490MPD2    H2 7290   4.123   4.062  17.405  1.5555  0.7340 -0.0849
  490MPD2    H3 7291   4.225   4.282  17.400 -0.5106 -1.1519 -0.5326
  490MPD2     N 7292   4.213   4.319   0.148 -0.6326 -0.3882 -0.3002
  490MPD2    H5 7293   4.251   4.412   0.140 -1.1920 -0.1104  0.2758
  490MPD2    N1 7294   4.061   3.918  17.620 -0.8790 -0.2654  0.0421
  490MPD2    H7 7295   4.034   3.888   0.017 -1.0219 -0.6907 -0.1323
  491TMC3    C1 7296   3.998   3.706  17.548 -0.3091 -0.4514 -0.1581
  491TMC3    C2 7297   4.014   3.657  17.680  0.1317  0.0195 -0.4950
  491TMC3    C3 7298   3.997   3.523   0.008 -0.3289  0.0799  0.4227
  491TMC3    C4 7299   3.951   3.622  17.453 -0.2788 -0.2798  0.0953
  491TMC3    C5 7300   3.924   3.495  17.488  0.5056  0.2638  0.2457
  491TMC3    C6 7301   3.949   3.441  17.612 -0.5054  0.1759 -0.5892
  491TMC3     C 7302   4.054   3.831  17.510  0.3026  0.3253 -0.4963
  491TMC3     O 7303   4.069   3.853  17.391 -0.1637 -0.6112  0.0452
  491TMC3     H 7304   4.045   3.724   0.064 -0.6084  2.4216 -2.2003
  491TMC3    H1 7305   3.936   3.661  17.353 -1.5150  0.9618  0.7696
  491TMC3    H2 7306   3.936   3.336  17.636  1.0198 -0.6227 -3.2567
  491TMC3    C7 7307   3.869   3.394  17.387 -0.5201 -0.6054 -0.0755
  491TMC3    C8 7308   3.991   3.468   0.143  0.1737 -0.7266  0.2287
  491TMC3    O1 7309   3.875   3.280  17.424  0.0236  0.7544 -0.4161
  491TMC3    O2 7310   3.946   3.356   0.158 -0.7613 -0.2128  0.5285
  492MPD2     C 7311   4.441   2.862  11.094  0.0530  0.1748  0.3749
  492MPD2    C1 7312   4.314   2.855  11.045  0.0653 -0.0848 -0.2473
  492MPD2    C2 7313   4.208   2.827  11.131  0.2034 -0.0482  0.0288
  492MPD2    C3 7314   4.223   2.844  11.261  0.7237 -0.1690 -0.4290
  492MPD2    C4 7315   4.351   2.870  11.310 -0.3276 -0.2867 -0.7386
  492MPD2    C5 7316   4.462   2.870  11.228 -0.6032  0.3311  0.2986
  492MPD2     H 7317   4.108   2.809  11.093  0.2622  0.3119 -0.2939
  492MPD2    H1 7318   4.367   2.875  11.417 -2.2975  0.3263 -0.4602
  492MPD2    H2 7319   4.527   2.876  11.030 -0.1791 -0.3246 -0.0496
  492MPD2    H3 7320   4.563   2.881  11.267 -2.3732  0.9417  4.7862
  492MPD2     N 7321   4.121   2.837  11.355  0.5071  0.2841 -0.1537
  492MPD2    H5 7322   4.156   2.868  11.446  2.0424 -1.6334 -0.0886
  492MPD2    N1 7323   4.294   2.865  10.905 -0.8879  0.0426 -0.1444
  492MPD2    H7 7324   4.371   2.887  10.843 -0.2533  0.4991  0.7993
  493TMC3    C1 7325   4.196   2.900  10.705  0.0313  0.0353 -0.6356
  493TMC3    C2 7326   4.320   2.943  10.659  0.6396 -0.3267 -0.6975
  493TMC3    C3 7327   4.329   3.017  10.542 -0.0572 -0.4126 -0.3401
  493TMC3    C4 7328   4.077   2.924  10.640 -0.0780  0.0092 -0.2675
  493TMC3    C5 7329   4.094   2.995  10.523 -0.1550 -0.3072  0.1454
  493TMC3    C6 7330   4.210   3.051  10.474 -0.3851  0.6243  0.3491
  493TMC3     C 7331   4.173   2.865  10.840  0.0165  0.5213 -0.7402
  493TMC3     O 7332   4.056   2.846  10.874  0.1275 -1.0655  0.3115
  493TMC3     H 7333   4.408   2.897  10.703 -0.0280 -0.2783  0.6789
  493TMC3    H1 7334   3.985   2.881  10.677 -1.1543  2.6893  0.1606
  493TMC3    H2 7335   4.222   3.074  10.369  0.4100  0.5115  0.4118
  493TMC3    C7 7336   3.981   3.032  10.441  0.4520  0.5147  0.0700
  493TMC3    C8 7337   4.452   3.008  10.469 -0.3572 -0.1592  0.4784
  493TMC3    O1 7338   3.987   3.134  10.378 -0.1396  0.3192  0.1879
  493TMC3    O2 7339   4.543   2.938  10.513 -0.4914  0.2797 -0.2158
  494TMC3    C1 7340   0.203   0.151   0.978 -0.1646 -0.2832 -0.2054
  494TMC3    C2 7341   0.258   0.024   0.986 -0.1220  0.4389 -0.6065
  494TMC3    C3 7342   0.285   4.678   0.867  0.2782  0.5923 -0.3786
  494TMC3    C4 7343   0.143   0.198   0.865  0.0842  0.2468 -0.6500
  494TMC3    C5 7344   0.170   0.129   0.750  0.1554 -0.3851  0.2630
  494TMC3    C6 7345   0.239   0.006   0.745 -0.3439 -0.8956  0.9538
  494TMC3     C 7346   0.155   0.210   1.101 -0.3817 -0.2714  0.3888
  494TMC3     O 7347   0.144   0.332   1.090  0.0332  0.0903  0.2304
  494TMC3     H 7348   0.322   4.723   1.070  1.2958  1.8755 -1.2911
  494TMC3    H1 7349   0.084   0.288   0.870  0.1790  0.3635 -1.6286
  494TMC3    H2 7350   0.259   4.675   0.654  0.4181 -1.1318  1.2605
  494TMC3    C7 7351   0.176   0.199   0.628 -0.2973  0.6240 -0.0713
  494TMC3    C8 7352   0.380   4.572   0.873  0.7119  0.2098 -0.1380
  494TMC3    O1 7353   0.167   0.133   0.521 -0.4175 -0.2905 -0.6742
  494TMC3    O2 7354   0.386   4.479   0.954 -0.0465 -0.1455 -0.1375
  495TMC3    C1 7355   3.525   2.643  14.838 -0.2333  0.1925  0.4527
  495TMC3    C2 7356   3.460   2.675  14.723  0.4588  0.3878  0.5578
  495TMC3    C3 7357   3.336   2.731  14.726 -0.2591 -0.4371 -1.0938
  495TMC3    C4 7358   3.481   2.689  14.958  0.4693 -0.0166 -0.4929
  495TMC3    C5 7359   3.356   2.750  14.964  0.2616  0.0293  0.5103
  495TMC3    C6 7360   3.283   2.775  14.847 -0.4047  0.0535  0.5018
  495TMC3     C 7361   3.542   2.495  14.843  0.0920  0.5203  0.6988
  495TMC3     O 7362   3.485   2.429  14.929 -0.2603 -0.3916  0.9924
  495TMC3     H 7363   3.497   2.643  14.627 -2.1106  0.7970 -0.5599
  495TMC3    H1 7364   3.532   2.663  15.050 -0.8285 -2.5750 -0.5054
  495TMC3    H2 7365   3.184   2.818  14.852 -0.8225 -0.9051  0.5286
  495TMC3    C7 7366   3.276   2.723  15.083  0.6656  0.0160 -0.2248
  495TMC3    C8 7367   3.236   2.684  14.637 -0.2524 -0.1187 -0.6829
  495TMC3    O1 7368   3.336   2.708  15.189 -0.0124 -0.3935  0.4479
  495TMC3    O2 7369   3.149   2.765  14.611 -0.4499 -0.1033 -0.3695
  496MPD2     C 7370   0.668   2.478  15.523  0.1444  0.0074  0.8285
  496MPD2    C1 7371   0.739   2.456  15.638 -0.0107 -0.6960 -0.2292
  496MPD2    C2 7372   0.694   2.507  15.757 -0.2404 -0.3770 -0.1722
  496MPD2    C3 7373   0.576   2.580  15.766  0.2597 -0.4897 -0.0702
  496MPD2    C4 7374   0.508   2.604  15.653  0.0682  0.1404  0.6090
  496MPD2    C5 7375   0.556   2.557  15.534  0.0169 -0.0683 -0.1173
  496MPD2     H 7376   0.749   2.495  15.850  1.3609  2.4549 -0.7404
  496MPD2    H1 7377   0.412   2.655  15.650  0.0721  0.0558 -0.9152
  496MPD2    H2 7378   0.692   2.439  15.425  0.6794 -2.3491  1.8981
  496MPD2    H3 7379   0.502   2.576  15.442 -0.8302 -1.2155  0.1503
  496MPD2     N 7380   0.520   2.645  15.877  0.3087 -0.2488 -0.1130
  496MPD2    H5 7381   0.441   2.706  15.857 -0.5842 -1.3871 -0.0625
  496MPD2    N1 7382   0.862   2.381  15.625 -0.9540 -0.5757 -0.5187
  496MPD2    H7 7383   0.886   2.341  15.535 -1.4521 -0.3286 -0.7583
  497TMC3    C1 7384   0.498   2.730  16.093  0.2639  0.3181  0.0207
  497TMC3    C2 7385   0.413   2.829  16.043  0.5316  0.3897 -0.6195
  497TMC3    C3 7386   0.361   2.915  16.135  0.5661  0.2350 -0.2753
  497TMC3    C4 7387   0.511   2.705  16.230  0.3176 -0.0253 -0.4547
  497TMC3    C5 7388   0.446   2.792  16.314  0.2050 -0.8068 -0.7915
  497TMC3    C6 7389   0.371   2.898  16.276  0.0001  0.2675  0.7265
  497TMC3     C 7390   0.569   2.638  16.005 -0.0419  0.4292 -0.7127
  497TMC3     O 7391   0.654   2.557  16.046  0.2723 -0.0480  0.1436
  497TMC3     H 7392   0.421   2.858  15.939  0.9134  1.2416 -0.3509
  497TMC3    H1 7393   0.557   2.613  16.265  1.6499  1.1729  0.9204
  497TMC3    H2 7394   0.309   2.954  16.345 -0.0276  1.1743 -0.0278
  497TMC3    C7 7395   0.456   2.781  16.461 -0.6561 -0.3395 -0.5277
  497TMC3    C8 7396   0.326   3.054  16.087  0.4807  0.2541  0.2477
  497TMC3    O1 7397   0.365   2.831  16.530  0.3161 -0.4045 -0.7994
  497TMC3    O2 7398   0.323   3.136  16.179 -0.2227 -0.2351 -0.1030
  498MPD2     C 7399   1.534   2.645   9.212 -0.2459  0.3857 -0.6255
  498MPD2    C1 7400   1.609   2.602   9.318 -0.5721 -0.7263  0.5893
  498MPD2    C2 7401   1.571   2.487   9.383  0.1274  0.0911 -0.5227
  498MPD2    C3 7402   1.476   2.409   9.342 -0.5358 -0.6194 -0.7248
  498MPD2    C4 7403   1.395   2.451   9.236 -0.6732 -0.1444 -0.6425
  498MPD2    C5 7404   1.417   2.571   9.178 -1.0061  0.2462  0.3503
  498MPD2     H 7405   1.633   2.459   9.468 -0.1357 -1.4907 -0.8439
  498MPD2    H1 7406   1.313   2.392   9.199  0.4079 -0.9989 -1.6989
  498MPD2    H2 7407   1.558   2.737   9.159  2.1238 -0.6256 -1.3145
  498MPD2    H3 7408   1.353   2.610   9.101  0.5503  2.6788  0.2725
  498MPD2     N 7409   1.459   2.282   9.407  0.4574 -0.1000  0.1286
  498MPD2    H5 7410   1.510   2.259   9.492  0.7759 -0.9335 -0.2921
  498MPD2    N1 7411   1.723   2.677   9.365  0.6621 -0.1191 -0.0353
  498MPD2    H7 7412   1.783   2.633   9.434  1.8455  1.5955  0.0272
  499TMC3    C1 7413   1.885   2.856   9.376  0.0971  0.7375 -1.1980
  499TMC3    C2 7414   1.976   2.765   9.429  0.2127  0.2501  0.2607
  499TMC3    C3 7415   2.104   2.820   9.456 -0.1988 -0.3175  0.1862
  499TMC3    C4 7416   1.917   2.987   9.343 -0.2489 -0.4050 -0.3235
  499TMC3    C5 7417   2.050   3.032   9.371  1.0909  0.4296 -0.4367
  499TMC3    C6 7418   2.145   2.947   9.429  0.1345 -0.8589  0.3178
  499TMC3     C 7419   1.753   2.807   9.328  0.5078  0.0032  0.1626
  499TMC3     O 7420   1.671   2.894   9.298  0.5880 -0.6138  0.4237
  499TMC3     H 7421   1.958   2.661   9.450  0.9462  0.0546 -0.0883
  499TMC3    H1 7422   1.849   3.053   9.290 -2.5432 -3.7652 -1.5013
  499TMC3    H2 7423   2.240   2.992   9.454 -0.3799  1.4338 -1.7640
  499TMC3    C7 7424   2.088   3.153   9.325 -0.4172  0.5249 -0.2363
  499TMC3    C8 7425   2.219   2.730   9.495 -0.5338 -0.0059 -0.0563
  499TMC3    O1 7426   2.164   3.219   9.398 -0.6139 -0.2583  0.6755
  499TMC3    O2 7427   2.334   2.762   9.470  0.6615 -0.1268 -0.4488
  500MPD2     C 7428   3.458   3.739  10.703 -0.0926 -0.4720  0.2630
  500MPD2    C1 7429   3.488   3.852  10.634 -0.0831 -0.5186 -0.5585
  500MPD2    C2 7430   3.376   3.931  10.592 -1.0609 -0.0015  0.6320
  500MPD2    C3 7431   3.243   3.896  10.615 -0.4180  0.0224 -0.4797
  500MPD2    C4 7432   3.221   3.781  10.678  0.0489 -0.0409  0.5926
  500MPD2    C5 7433   3.327   3.710  10.723  0.4408  0.6708 -0.3123
  500MPD2     H 7434   3.403   4.025  10.544 -1.3638 -0.1989  0.0687
  500MPD2    H1 7435   3.120   3.753  10.703  0.2372 -0.3224  1.0443
  500MPD2    H2 7436   3.529   3.692  10.769 -0.4019 -1.1155  0.1391
  500MPD2    H3 7437   3.320   3.621  10.786 -1.1210  1.0114 -0.0121
  500MPD2     N 7438   3.125   3.968  10.573 -0.1634 -0.6230  0.4715
  500MPD2    H5 7439   3.035   3.934  10.604  0.0624 -1.2943  0.3796
  500MPD2    N1 7440   3.618   3.883  10.592  0.6073  1.0449 -0.2696
  500MPD2    H7 7441   3.630   3.973  10.547 -0.0346  0.7446 -1.0273
  501TMC3    C1 7442   3.843   3.900  10.589 -0.2252  0.1262 -0.1077
  501TMC3    C2 7443   3.831   4.004  10.501 -0.1964 -0.0018 -0.0942
  501TMC3    C3 7444   3.943   4.086  10.490  0.9302 -0.3686  0.3947
  501TMC3    C4 7445   3.957   3.877  10.673  0.6727  0.5099 -0.1564
  501TMC3    C5 7446   4.063   3.965  10.647 -0.2258  0.0018  0.2256
  501TMC3    C6 7447   4.061   4.074  10.562 -0.3508 -0.0052  0.3319
  501TMC3     C 7448   3.732   3.814  10.629  0.4059 -0.1123 -0.1414
  501TMC3     O 7449   3.741   3.707  10.686 -0.2194  0.4614  0.3391
  501TMC3     H 7450   3.749   4.009  10.431  0.1230  0.2942 -0.4545
  501TMC3    H1 7451   3.963   3.795  10.744 -0.9741  2.2448  1.9587
  501TMC3    H2 7452   4.154   4.116  10.526 -0.1512 -0.6157  0.1288
  501TMC3    C7 7453   4.187   3.889  10.673 -0.7411  0.8991 -0.1944
  501TMC3    C8 7454   3.938   4.211  10.418  0.5666 -0.1395  0.8503
  501TMC3    O1 7455   4.180   3.766  10.678  0.2571  0.0996  0.4066
  501TMC3    O2 7456   4.011   4.308  10.447  0.1148  0.7190 -0.3254
  502TMC3    C1 7457   2.753   3.101  15.598 -0.0847 -0.0027  0.1156
  502TMC3    C2 7458   2.762   3.219  15.529  0.7553  0.4852  0.3512
  502TMC3    C3 7459   2.646   3.252  15.461  0.1924 -0.4524 -0.5166
  502TMC3    C4 7460   2.644   3.028  15.598  0.0374 -0.6851  0.6888
  502TMC3    C5 7461   2.538   3.054  15.519 -0.0034 -0.3904 -0.3142
  502TMC3    C6 7462   2.535   3.173  15.452 -0.5099 -0.2606  0.5327
  502TMC3     C 7463   2.875   3.071  15.674 -0.6871 -0.8630 -0.0636
  502TMC3     O 7464   2.982   3.111  15.628  0.1278  0.3664  0.5714
  502TMC3     H 7465   2.851   3.280  15.534 -0.0530  1.6745 -0.0613
  502TMC3    H1 7466   2.647   2.930  15.644 -0.8127 -0.6378  0.8477
  502TMC3    H2 7467   2.461   3.200  15.377 -0.7135  2.1981  1.5983
  502TMC3    C7 7468   2.410   2.991  15.542 -0.0160  0.2913 -0.4963
  502TMC3    C8 7469   2.621   3.395  15.463 -0.1830  0.0809 -0.8117
  502TMC3    O1 7470   2.400   2.885  15.603  0.3872  0.7234  0.0536
  502TMC3    O2 7471   2.548   3.434  15.375 -0.0053 -0.0655  0.1120
  503MPD2     C 7472   0.209   3.832  17.131 -0.2846 -0.2181 -0.4317
  503MPD2    C1 7473   0.321   3.890  17.190  0.2445 -0.5308 -0.0841
  503MPD2    C2 7474   0.413   3.809  17.250 -0.1047 -0.5639  0.3157
  503MPD2    C3 7475   0.405   3.670  17.243  0.1776 -0.2853  0.2904
  503MPD2    C4 7476   0.294   3.611  17.180 -0.3626  0.2733  0.6266
  503MPD2    C5 7477   0.199   3.695  17.128 -0.0966 -0.6587  0.1308
  503MPD2     H 7478   0.496   3.859  17.298 -1.9838  1.6306  1.2847
  503MPD2    H1 7479   0.274   3.505  17.170  0.0817  0.2349  0.1678
  503MPD2    H2 7480   0.132   3.891  17.082 -0.7386 -1.2604 -0.9734
  503MPD2    H3 7481   0.120   3.643  17.074  0.3988 -0.5775 -0.6753
  503MPD2     N 7482   0.497   3.588  17.309 -0.3781  0.2197  0.2716
  503MPD2    H5 7483   0.579   3.634  17.346  0.9545 -3.1030  1.4623
  503MPD2    N1 7484   0.326   4.027  17.218  0.1677 -0.2775  0.2674
  503MPD2    H7 7485   0.392   4.061  17.288  1.1506  0.1325 -0.8621
  504TMC3    C1 7486   0.576   3.395  17.413 -0.5385  0.1045 -0.4819
  504TMC3    C2 7487   0.536   3.317  17.522 -0.1651  0.4635  0.2170
  504TMC3    C3 7488   0.624   3.211  17.552 -0.0886  0.4078 -1.1422
  504TMC3    C4 7489   0.693   3.378  17.340  0.0520  0.0028  0.0699
  504TMC3    C5 7490   0.760   3.266  17.373  0.7489 -0.7594  0.4757
  504TMC3    C6 7491   0.732   3.179  17.477  0.8034 -0.0540  0.1920
  504TMC3     C 7492   0.470   3.457  17.342 -0.0611 -0.4094 -0.1356
  504TMC3     O 7493   0.362   3.400  17.355  0.1720  0.0569 -0.1753
  504TMC3     H 7494   0.441   3.339  17.571 -0.6446 -0.1926 -0.4131
  504TMC3    H1 7495   0.710   3.427  17.245  3.2015 -1.6155 -0.2017
  504TMC3    H2 7496   0.788   3.090  17.506 -0.6751 -1.1513 -0.2853
  504TMC3    C7 7497   0.875   3.236  17.287 -0.3200  0.2364  0.4692
  504TMC3    C8 7498   0.562   3.106  17.622 -0.4069  0.0990 -0.4209
  504TMC3    O1 7499   0.873   3.276  17.170  0.0566 -0.3463 -0.1643
  504TMC3    O2 7500   0.436   3.106  17.622  0.1795 -0.6072  0.3357
  505MPD2     C 7501   0.492   1.740  10.073 -0.7030 -0.5185 -0.2651
  505MPD2    C1 7502   0.586   1.663  10.142  0.5396  1.4637  0.2150
  505MPD2    C2 7503   0.663   1.719  10.245  0.2355 -0.3856 -0.2813
  505MPD2    C3 7504   0.642   1.847  10.278  0.5851  0.5778  0.2552
  505MPD2    C4 7505   0.545   1.924  10.214 -0.0770 -0.0500 -0.1534
  505MPD2    C5 7506   0.471   1.873  10.108  0.3289  0.3802  1.4417
  505MPD2     H 7507   0.738   1.665  10.301 -1.2760 -2.5952 -0.4073
  505MPD2    H1 7508   0.514   2.020  10.254 -2.8684 -1.6746  1.6005
  505MPD2    H2 7509   0.426   1.709   9.992  0.4783  0.1444 -1.4888
  505MPD2    H3 7510   0.395   1.931  10.057  0.2381  0.1314  1.2946
  505MPD2     N 7511   0.727   1.899  10.378  0.0673 -0.0505 -0.2975
  505MPD2    H5 7512   0.795   1.841  10.427 -0.4355 -0.8618 -0.5456
  505MPD2    N1 7513   0.595   1.529  10.110 -0.2597 -0.1963 -0.2794
  505MPD2    H7 7514   0.544   1.496  10.029 -1.3638 -0.9069  0.7012
  506TMC3    C1 7515   0.671   1.308  10.125 -0.2953  0.3381 -0.5109
  506TMC3    C2 7516   0.719   1.310   9.997 -0.5021  0.5812  0.6460
  506TMC3    C3 7517   0.825   1.224   9.970 -0.0871  0.2808  0.0239
  506TMC3    C4 7518   0.718   1.218  10.223  1.1896  0.0761  0.2003
  506TMC3    C5 7519   0.825   1.139  10.192 -0.8027  0.1549 -0.4173
  506TMC3    C6 7520   0.873   1.135  10.064 -0.1424 -0.6995  0.0658
  506TMC3     C 7521   0.670   1.437  10.177 -0.1943 -0.5296  0.0035
  506TMC3     O 7522   0.711   1.443  10.291  0.2125  0.0088 -1.1001
  506TMC3     H 7523   0.683   1.384   9.927 -0.6595 -1.2886 -1.2419
  506TMC3    H1 7524   0.669   1.212  10.319  2.3331  0.9675  0.8388
  506TMC3    H2 7525   0.965   1.080  10.048  0.2937  0.2162 -0.5709
  506TMC3    C7 7526   0.932   1.142  10.293  0.2792  0.4405 -0.7796
  506TMC3    C8 7527   0.885   1.220   9.844  0.3251  0.1260  0.7058
  506TMC3    O1 7528   1.039   1.085  10.275  0.5181  0.5964 -0.8333
  506TMC3    O2 7529   0.916   1.114   9.792  0.3246 -0.5047 -0.0909
  507TMC3    C1 7530   0.724   3.624  14.899  0.4875 -0.2196  0.7035
  507TMC3    C2 7531   0.635   3.616  14.789 -0.1287  0.0564  0.0308
  507TMC3    C3 7532   0.687   3.594  14.665 -0.6072 -0.7329  0.5610
  507TMC3    C4 7533   0.857   3.616  14.888  0.0135  0.8347  0.0082
  507TMC3    C5 7534   0.913   3.609  14.758 -0.3770 -0.4655  0.7212
  507TMC3    C6 7535   0.824   3.589  14.655 -0.0698  0.0642 -0.2454
  507TMC3     C 7536   0.660   3.616  15.028  0.0892 -0.6603  0.1733
  507TMC3     O 7537   0.557   3.685  15.042  0.0470 -0.2907 -0.0062
  507TMC3     H 7538   0.530   3.641  14.798 -0.0980 -0.1818  0.9815
  507TMC3    H1 7539   0.925   3.626  14.972 -1.0014  0.3468  0.8878
  507TMC3    H2 7540   0.856   3.558  14.557 -2.1861 -1.6735 -0.3969
  507TMC3    C7 7541   1.002   3.719  14.717  0.0638 -0.3100 -0.1182
  507TMC3    C8 7542   0.630   3.679  14.562 -0.1699 -0.1291 -0.4725
  507TMC3    O1 7543   0.999   3.745  14.597  0.2987  0.4669  0.2328
  507TMC3    O2 7544   0.511   3.675  14.535  0.0686 -0.4818  0.2897
  508MPD2     C 7545   2.237   1.107  16.112 -0.6629 -0.0477 -0.0361
  508MPD2    C1 7546   2.163   1.188  16.190 -0.5982 -0.5004 -0.3343
  508MPD2    C2 7547   2.045   1.247  16.134  0.1620 -0.9597  0.7162
  508MPD2    C3 7548   2.019   1.238  15.999  0.4017 -0.3767 -0.2472
  508MPD2    C4 7549   2.089   1.134  15.931  0.5693 -0.5191 -0.1775
  508MPD2    C5 7550   2.188   1.072  15.989 -0.2732  0.0369  0.1610
  508MPD2     H 7551   1.978   1.311  16.189  1.6282  0.3051  1.0327
  508MPD2    H1 7552   2.070   1.102  15.829  1.4462 -0.1939 -0.4438
  508MPD2    H2 7553   2.324   1.055  16.151 -1.6370 -0.4787  1.5535
  508MPD2    H3 7554   2.238   0.998  15.928  2.0373  2.9743 -1.4906
  508MPD2     N 7555   1.903   1.292  15.951 -0.0372 -0.1373 -0.2653
  508MPD2    H5 7556   1.829   1.319  16.015  0.3571 -2.3147  1.1353
  508MPD2    N1 7557   2.207   1.209  16.323  0.6291  0.0132  0.1418
  508MPD2    H7 7558   2.293   1.161  16.345  0.0110 -1.3793 -0.4638
  509TMC3    C1 7559   1.577   1.518  15.761  0.5776  0.4240 -0.9062
  509TMC3    C2 7560   1.567   1.506  15.628  0.1149  0.5969 -0.2914
  509TMC3    C3 7561   1.661   1.429  15.563 -0.1486 -0.1889 -0.6361
  509TMC3    C4 7562   1.681   1.455  15.833  0.6088 -0.1933 -0.3490
  509TMC3    C5 7563   1.763   1.368  15.768  0.2582 -0.0455  0.5521
  509TMC3    C6 7564   1.740   1.339  15.632 -0.3957  0.6319  0.5573
  509TMC3     C 7565   1.550   1.652  15.803  0.0862 -0.6334 -0.4948
  509TMC3     O 7566   1.547   1.671  15.926  0.1256  0.1299  0.3922
  509TMC3     H 7567   1.487   1.551  15.570 -1.4776  1.3366  2.4731
  509TMC3    H1 7568   1.687   1.493  15.935  3.6771  1.4029 -1.1487
  509TMC3    H2 7569   1.806   1.264  15.589 -2.1476 -0.5562 -0.0480
  509TMC3    C7 7570   1.893   1.321  15.814  0.0577  0.1040  0.3574
  509TMC3    C8 7571   1.743   1.525  15.478 -0.2521 -0.7674  0.0784
  509TMC3    O1 7572   1.977   1.305  15.723 -0.1354 -0.0308 -0.5059
  509TMC3    O2 7573   1.689   1.632  15.462  0.6549 -0.7704 -0.1467
  510MPD2     C 7574   4.406   3.176  14.516  0.4325 -0.2948 -0.5995
  510MPD2    C1 7575   4.438   3.128  14.640 -0.2709 -0.7131 -0.2027
  510MPD2    C2 7576   4.575   3.110  14.665  0.5646  0.4270  0.2458
  510MPD2    C3 7577   4.666   3.127  14.566  0.0099  0.4987 -0.3390
  510MPD2    C4 7578   4.630   3.159  14.437 -0.6676 -0.5612  0.6755
  510MPD2    C5 7579   4.499   3.186  14.416 -0.5111 -0.7688 -0.2528
  510MPD2     H 7580   4.606   3.063  14.758  0.3581 -1.2856 -0.5466
  510MPD2    H1 7581   4.704   3.157  14.358  0.3467  0.2323  1.5990
  510MPD2    H2 7582   4.302   3.181  14.488  0.5939 -0.9134 -1.3219
  510MPD2    H3 7583   4.469   3.217  14.316  3.5203 -0.0780 -1.2456
  510MPD2     N 7584   0.072   3.076  14.590 -0.0950  1.0494 -0.0878
  510MPD2    H5 7585   0.089   3.044  14.685 -0.7383  0.9295 -0.0092
  510MPD2    N1 7586   4.340   3.102  14.735 -0.1829 -0.2190  0.2022
  510MPD2    H7 7587   4.242   3.092  14.708 -0.0336  1.2208 -0.8229
  511TMC3    C1 7588   4.269   3.040  14.947 -0.3593  0.0741 -0.4484
  511TMC3    C2 7589   4.270   3.067  15.080  0.6097  0.0996 -0.5574
  511TMC3    C3 7590   4.262   2.968  15.176 -0.3258 -0.3151 -0.0823
  511TMC3    C4 7591   4.251   2.910  14.910 -0.2566 -0.2689 -0.2241
  511TMC3    C5 7592   4.237   2.817  15.010 -0.2585 -0.3077  0.0994
  511TMC3    C6 7593   4.255   2.836  15.142  0.0538  0.2040 -0.0150
  511TMC3     C 7594   4.358   3.108  14.869  0.2948  0.8288  0.2404
  511TMC3     O 7595   4.457   3.154  14.930  0.7013 -0.5058 -0.1817
  511TMC3     H 7596   4.279   3.170  15.114 -1.9514  1.0390 -2.7540
  511TMC3    H1 7597   4.250   2.888  14.804  0.5001  2.4161 -0.7833
  511TMC3    H2 7598   4.272   2.756  15.213 -2.1482 -0.8989 -0.7445
  511TMC3    C7 7599   4.263   2.685  14.947  0.1309  0.2573 -0.1247
  511TMC3    C8 7600   4.241   3.011  15.315  0.1168  0.3709  0.4296
  511TMC3    O1 7601   4.305   2.666  14.831 -0.4680  0.6480 -0.0433
  511TMC3    O2 7602   4.236   3.131  15.340  0.0232 -0.6442  0.1021
  512TMC3    C1 7603   3.586   1.990  13.773  0.9737 -0.2881 -0.3236
  512TMC3    C2 7604   3.684   1.993  13.867 -0.5472  0.5627  0.4421
  512TMC3    C3 7605   3.731   1.876  13.915 -0.6628 -0.3410 -0.4444
  512TMC3    C4 7606   3.531   1.871  13.746 -0.1459 -0.3039 -0.2203
  512TMC3    C5 7607   3.595   1.753  13.784 -0.2215 -0.8578 -0.5287
  512TMC3    C6 7608   3.688   1.748  13.879 -0.3070  0.0033 -0.2438
  512TMC3     C 7609   3.534   2.114  13.723 -0.0554 -0.4461  0.5500
  512TMC3     O 7610   3.555   2.214  13.789 -0.0357  0.9334  0.2319
  512TMC3     H 7611   3.720   2.089  13.901  0.8321  0.7513 -1.6019
  512TMC3    H1 7612   3.451   1.862  13.673  0.1601 -0.5282 -0.5258
  512TMC3    H2 7613   3.731   1.658  13.922  0.5531  1.4204  1.8491
  512TMC3    C7 7614   3.566   1.633  13.701  0.0305 -0.2300 -0.0147
  512TMC3    C8 7615   3.851   1.872  14.002 -0.6855 -0.3080 -0.1035
  512TMC3    O1 7616   3.481   1.638  13.612  0.0593  0.7323 -0.1877
  512TMC3    O2 7617   3.872   1.776  14.077 -1.0131  0.4459  0.6340
  513MPD2     C 7618   0.103   2.032  13.384  0.3222  0.4655  0.1722
  513MPD2    C1 7619   0.240   2.052  13.357 -0.3604  0.7914  0.0884
  513MPD2    C2 7620   0.323   2.100  13.456  0.1106  0.3235 -0.1700
  513MPD2    C3 7621   0.269   2.143  13.575 -1.0762 -0.1684 -0.6601
  513MPD2    C4 7622   0.133   2.117  13.602  0.3499  0.1743  0.2061
  513MPD2    C5 7623   0.050   2.078  13.500 -0.1234  0.0299 -0.0997
  513MPD2     H 7624   0.427   2.123  13.434  0.2631  1.5230  1.7965
  513MPD2    H1 7625   0.083   2.153  13.691 -0.0656  1.2261 -0.4423
  513MPD2    H2 7626   0.040   1.995  13.304  1.2215  1.4509 -0.9846
  513MPD2    H3 7627   4.666   2.082  13.512  0.0697  1.2721  1.1536
  513MPD2     N 7628   0.362   2.196  13.666 -0.7245  0.1219  0.1836
  513MPD2    H5 7629   0.447   2.238  13.627 -0.8582  2.9395  2.9329
  513MPD2    N1 7630   0.287   2.016  13.232 -0.5536  0.1239 -0.2495
  513MPD2    H7 7631   0.218   1.984  13.165  0.9545 -1.3524 -1.1104
  514TMC3    C1 7632   0.465   1.994  13.063 -0.7865  0.1812 -0.8744
  514TMC3    C2 7633   0.385   2.054  12.976 -0.0175  0.4206  0.2986
  514TMC3    C3 7634   0.440   2.123  12.869 -0.2017 -0.0957 -0.7253
  514TMC3    C4 7635   0.600   1.984  13.036  0.5205 -0.3994  0.4008
  514TMC3    C5 7636   0.656   2.052  12.933 -0.0897  0.1089  0.3644
  514TMC3    C6 7637   0.573   2.124  12.850  0.0942 -0.0780 -0.5255
  514TMC3     C 7638   0.423   1.999  13.206 -0.5325  0.3533 -0.0580
  514TMC3     O 7639   0.523   1.994  13.279 -0.4551  0.3274  0.0325
  514TMC3     H 7640   0.277   2.052  12.983  0.0844  1.3435  1.9902
  514TMC3    H1 7641   0.672   1.933  13.099 -0.9846 -2.1236  0.7431
  514TMC3    H2 7642   0.611   2.175  12.763  0.6353  1.6544  0.7279
  514TMC3    C7 7643   0.767   2.135  12.984  0.7357  0.6195  0.0113
  514TMC3    C8 7644   0.337   2.133  12.762  0.2775 -0.0150 -0.5529
  514TMC3    O1 7645   0.847   2.176  12.901 -0.7647 -0.3505 -0.2739
  514TMC3    O2 7646   0.239   2.201  12.792  0.2403  0.2668  0.6020
  515MPD2     C 7647   3.575   4.191  15.561  0.1176 -0.1134  0.0862
  515MPD2    C1 7648   3.586   4.171  15.425  0.2581  0.4461 -0.5001
  515MPD2    C2 7649   3.683   4.253  15.354  0.6511 -0.1378 -0.4000
  515MPD2    C3 7650   3.781   4.326  15.422  0.0263 -0.5287  0.1872
  515MPD2    C4 7651   3.763   4.335  15.553 -0.1827 -0.4183  0.3151
  515MPD2    C5 7652   3.665   4.273  15.620 -0.0791 -0.3326  0.5788
  515MPD2     H 7653   3.673   4.251  15.246  1.9558  0.7827 -0.5385
  515MPD2    H1 7654   3.820   4.400  15.618 -1.3727  2.5404 -1.6100
  515MPD2    H2 7655   3.503   4.132  15.615 -0.3742  0.8142  0.4529
  515MPD2    H3 7656   3.639   4.298  15.723 -0.0748  0.0757  0.4819
  515MPD2     N 7657   3.882   4.400  15.358  0.0742 -0.2176  0.2265
  515MPD2    H5 7658   3.943   4.463  15.410  0.3828 -0.5988  0.3281
  515MPD2    N1 7659   3.503   4.097  15.340  0.0454 -0.5521 -0.3648
  515MPD2    H7 7660   3.521   4.087  15.241 -3.0298 -0.3271 -0.9496
  516TMC3    C1 7661   3.357   3.938  15.281 -0.0571 -0.3119  0.0979
  516TMC3    C2 7662   3.352   3.993  15.154  0.2742 -0.0593 -0.2749
  516TMC3    C3 7663   3.286   3.916  15.063  0.5776 -0.3693  0.4352
  516TMC3    C4 7664   3.305   3.820  15.319 -0.7159 -0.4091 -0.2778
  516TMC3    C5 7665   3.246   3.748  15.218  0.0293 -0.9691  0.2954
  516TMC3    C6 7666   3.238   3.796  15.093  0.3521  0.0166  0.4078
  516TMC3     C 7667   3.400   4.021  15.389  0.3765 -0.3199 -0.1521
  516TMC3     O 7668   3.355   4.014  15.503  0.1861 -0.4160 -0.3928
  516TMC3     H 7669   3.376   4.094  15.126 -1.7912  0.7761  1.0212
  516TMC3    H1 7670   3.304   3.777  15.419  1.9161  1.9906  0.7694
  516TMC3    H2 7671   3.191   3.744  15.010  0.9272  0.4780 -0.2121
  516TMC3    C7 7672   3.175   3.625  15.243  0.1252 -0.6647 -0.5566
  516TMC3    C8 7673   3.249   3.967  14.934  0.3194 -0.1244  0.0149
  516TMC3    O1 7674   3.184   3.581  15.355  0.0426  0.0609  0.9149
  516TMC3    O2 7675   3.152   3.917  14.885  0.6392 -0.1164 -0.4000
  517MPD2     C 7676   3.628   0.986   0.383 -0.1159  0.1775 -0.2523
  517MPD2    C1 7677   3.762   0.965   0.386  0.7775  0.0836 -1.3910
  517MPD2    C2 7678   3.843   1.065   0.452 -0.1626 -0.4830  0.4555
  517MPD2    C3 7679   3.790   1.182   0.512  0.5857 -0.7335  0.2219
  517MPD2    C4 7680   3.656   1.199   0.495  0.1692  0.5774 -0.2648
  517MPD2    C5 7681   3.574   1.109   0.421  0.8896 -0.1059 -0.2415
  517MPD2     H 7682   3.947   1.035   0.467  0.2720  0.0571 -1.4795
  517MPD2    H1 7683   3.603   1.292   0.516  0.1003  0.4499  0.1164
  517MPD2    H2 7684   3.554   0.916   0.349 -0.7070  0.9544 -0.5730
  517MPD2    H3 7685   3.468   1.129   0.413  0.6414 -1.2314  0.1828
  517MPD2     N 7686   3.866   1.275   0.587  0.0347  0.4454  0.5720
  517MPD2    H5 7687   3.818   1.354   0.630  1.1643 -0.7154  3.9505
  517MPD2    N1 7688   3.836   0.857   0.328  0.4296 -0.0722 -0.0129
  517MPD2    H7 7689   3.934   0.856   0.354 -0.2172 -2.3561  2.1923
  518TMC3    C1 7690   3.863   0.646   0.226 -0.0847 -0.2177 -0.0014
  518TMC3    C2 7691   3.816   0.554   0.137 -0.0694  0.2412  0.0621
  518TMC3    C3 7692   3.896   0.449   0.100 -0.0053  0.1610  0.6922
  518TMC3    C4 7693   3.989   0.637   0.278  0.3249  0.1170  0.1930
  518TMC3    C5 7694   4.067   0.535   0.237 -0.5115 -0.9328  0.1836
  518TMC3    C6 7695   4.021   0.442   0.149 -0.8671 -0.0250 -0.0963
  518TMC3     C 7696   3.775   0.755   0.254 -0.3883 -0.5809 -0.1012
  518TMC3     O 7697   3.661   0.746   0.206  0.0150 -0.3527 -0.5094
  518TMC3     H 7698   3.715   0.561   0.100  0.1054  2.0813 -0.0812
  518TMC3    H1 7699   4.029   0.703   0.354  1.3446 -0.6672  0.3277
  518TMC3    H2 7700   4.066   0.344   0.136 -1.1994 -0.1190 -0.5346
  518TMC3    C7 7701   4.201   0.529   0.292 -0.1123  0.0519  0.6282
  518TMC3    C8 7702   3.835   0.327   0.046 -0.3006  0.8384 -0.2014
  518TMC3    O1 7703   4.229   0.601   0.387  0.0604 -0.4559  0.4203
  518TMC3    O2 7704   3.902   0.263  17.663 -0.4035 -0.4419  0.0257
  519MPD2     C 7705   0.161   4.130  14.615 -0.2497  0.5862 -0.0450
  519MPD2    C1 7706   0.123   4.123  14.480 -0.4599  0.4534 -0.6731
  519MPD2    C2 7707   0.165   4.013  14.410 -0.9462  0.1974  0.0598
  519MPD2    C3 7708   0.222   3.904  14.469  0.1330  0.1598 -0.0542
  519MPD2    C4 7709   0.260   3.912  14.600  0.0333 -0.5404  0.0244
  519MPD2    C5 7710   0.232   4.029  14.666  0.5529 -0.1763  0.2670
  519MPD2     H 7711   0.160   4.007  14.301 -0.2658  1.3949 -0.0284
  519MPD2    H1 7712   0.315   3.827  14.639 -3.1058 -1.8845  1.6037
  519MPD2    H2 7713   0.146   4.217  14.677  0.2557  0.9653 -0.4571
  519MPD2    H3 7714   0.268   4.029  14.768 -0.4951  1.5599  0.6293
  519MPD2     N 7715   0.243   3.780  14.396 -0.3265 -0.3070 -0.4974
  519MPD2    H5 7716   0.296   3.710  14.448 -0.2286  0.4404  0.4176
  519MPD2    N1 7717   0.052   4.232  14.430  0.4268 -0.0240 -0.0901
  519MPD2    H7 7718   0.017   4.302  14.495  0.3520 -0.3183  0.1864
  520TMC3    C1 7719   0.215   3.602  14.247  0.4039  0.1904 -0.0635
  520TMC3    C2 7720   0.125   3.521  14.185 -0.1226 -0.3974  0.2389
  520TMC3    C3 7721   0.146   3.387  14.153  0.2856  0.4433 -0.2736
  520TMC3    C4 7722   0.346   3.556  14.283 -0.4325  0.4418 -0.0179
  520TMC3    C5 7723   0.367   3.422  14.241  0.2610 -0.1558 -0.0314
  520TMC3    C6 7724   0.271   3.338  14.188  0.0056 -0.9027  0.5967
  520TMC3     C 7725   0.175   3.742  14.285 -0.0083  0.8154  0.5397
  520TMC3     O 7726   0.095   3.799  14.212 -0.7329  0.5270 -0.0912
  520TMC3     H 7727   0.037   3.576  14.156 -0.3881 -0.9538 -0.0005
  520TMC3    H1 7728   0.427   3.620  14.316  1.2888 -1.7154 -0.1083
  520TMC3    H2 7729   0.300   3.239  14.155 -0.4224 -1.4385  1.8204
  520TMC3    C7 7730   0.497   3.367  14.274  0.0085 -0.3449  0.2840
  520TMC3    C8 7731   0.109   3.350  14.024  0.1056  0.3618  0.1235
  520TMC3    O1 7732   0.507   3.250  14.293 -0.6892 -0.2701 -0.3279
  520TMC3    O2 7733   0.172   3.256  13.980  0.5619  0.5403  0.9063
  521MPD2     C 7734   1.034   1.813  17.564 -0.0660  0.6228  0.0694
  521MPD2    C1 7735   1.111   1.728  17.638  0.1469 -0.2585 -0.7712
  521MPD2    C2 7736   1.249   1.749  17.618  0.4577  1.0154  1.3283
  521MPD2    C3 7737   1.306   1.844  17.536  0.6343 -0.1154  0.1500
  521MPD2    C4 7738   1.218   1.939  17.474  0.1559 -0.1885 -0.1918
  521MPD2    C5 7739   1.090   1.913  17.495  0.4038 -0.2103  0.1866
  521MPD2     H 7740   1.316   1.684  17.673  0.2576 -0.0822  0.2618
  521MPD2    H1 7741   1.242   2.026  17.414  1.5732 -0.4443  0.0139
  521MPD2    H2 7742   0.926   1.800  17.563 -0.2451  2.2529 -0.5592
  521MPD2    H3 7743   1.024   1.975  17.436 -0.6006 -0.7027  0.7944
  521MPD2     N 7744   1.446   1.841  17.493  0.2475  0.1481 -0.5162
  521MPD2    H5 7745   1.462   1.894  17.408 -1.6665 -0.9600 -1.5700
  521MPD2    N1 7746   1.047   1.612   0.002  0.1782  0.0804 -0.5352
  521MPD2    H7 7747   0.952   1.594  17.668 -0.2268  0.9064  0.2549
  522TMC3    C1 7748   1.666   1.765  17.473 -0.2043  0.3775  0.3474
  522TMC3    C2 7749   1.765   1.676  17.506 -0.4020 -0.2325  0.3643
  522TMC3    C3 7750   1.887   1.690  17.449  0.0537 -0.9268  0.4174
  522TMC3    C4 7751   1.686   1.857  17.371  0.2563 -0.2675 -0.0883
  522TMC3    C5 7752   1.817   1.872  17.326  1.1531 -0.2765 -0.1081
  522TMC3    C6 7753   1.918   1.788  17.358  0.4143 -0.4362 -0.5248
  522TMC3     C 7754   1.539   1.767  17.548  0.1039  0.1829 -0.0883
  522TMC3     O 7755   1.541   1.696  17.651 -0.0048 -0.7355 -0.1478
  522TMC3     H 7756   1.749   1.595  17.576 -0.1413 -2.4554 -2.1655
  522TMC3    H1 7757   1.623   1.939  17.339  2.0663  1.4913  0.8498
  522TMC3    H2 7758   2.021   1.805  17.330  0.6521 -0.5085  0.3045
  522TMC3    C7 7759   1.830   1.920  17.191 -0.9079 -0.0786 -0.3278
  522TMC3    C8 7760   1.968   1.576  17.465  0.1324  0.5163 -0.3798
  522TMC3    O1 7761   1.938   1.968  17.159  0.6206 -0.0499 -0.0618
  522TMC3    O2 7762   1.976   1.518  17.573 -0.4485  0.3305  0.1501
  523MPD2     C 7763   3.627   0.797  10.177  0.2410  0.3708  0.1129
  523MPD2    C1 7764   3.583   0.749  10.053 -0.0754  0.4519  0.8363
  523MPD2    C2 7765   3.497   0.828   9.976  0.5954 -0.0202  0.3204
  523MPD2    C3 7766   3.468   0.957  10.013  0.5740  0.2485 -0.2884
  523MPD2    C4 7767   3.519   1.010  10.127  0.3583  0.3756 -0.3340
  523MPD2    C5 7768   3.600   0.930  10.204  0.1023  0.1823  0.8233
  523MPD2     H 7769   3.449   0.787   9.888  0.8838  0.1812  0.0681
  523MPD2    H1 7770   3.504   1.116  10.143 -1.7687  0.0021  0.2003
  523MPD2    H2 7771   3.693   0.737  10.238 -0.2697  0.3442  0.6311
  523MPD2    H3 7772   3.634   0.978  10.295 -1.0101 -0.1023  1.3870
  523MPD2     N 7773   3.391   1.049   9.945 -0.2898 -0.4680  0.1074
  523MPD2    H5 7774   3.368   1.131  10.000  0.2748 -1.1616  1.3698
  523MPD2    N1 7775   3.618   0.608  10.033 -0.1589  0.2537  0.4882
  523MPD2    H7 7776   3.685   0.562  10.094 -0.2994  1.4494  1.5305
  524TMC3    C1 7777   3.252   1.149   9.790 -0.6454  0.0578  0.0349
  524TMC3    C2 7778   3.164   1.137   9.687 -0.3683 -0.1379 -0.7437
  524TMC3    C3 7779   3.088   1.241   9.646  0.0152  0.3663  0.4417
  524TMC3    C4 7780   3.287   1.268   9.838 -0.2927  0.3224  0.3301
  524TMC3    C5 7781   3.205   1.374   9.796 -0.4090  0.0485 -0.2205
  524TMC3    C6 7782   3.103   1.359   9.711  0.0604 -0.8586  0.0923
  524TMC3     C 7783   3.319   1.027   9.832 -0.0060  0.0900  0.3505
  524TMC3     O 7784   3.287   0.922   9.774  0.1278  0.0795 -0.0272
  524TMC3     H 7785   3.137   1.035   9.665  0.8475 -0.5157 -0.4756
  524TMC3    H1 7786   3.367   1.292   9.907  0.7705 -1.6021 -0.2571
  524TMC3    H2 7787   3.034   1.439   9.685 -0.1171 -0.9838  0.1825
  524TMC3    C7 7788   3.256   1.510   9.822  0.3427 -0.1421  0.8883
  524TMC3    C8 7789   3.022   1.227   9.516  0.4220  0.8627 -0.1633
  524TMC3    O1 7790   3.336   1.526   9.911  0.2618 -0.1359  0.0387
  524TMC3    O2 7791   2.983   1.331   9.465 -0.2561 -0.0181  0.1314
  525MPD2     C 7792   1.323   3.434  14.732  0.0054 -0.1861  0.2194
  525MPD2    C1 7793   1.443   3.447  14.798 -0.1348 -0.2361  0.3676
  525MPD2    C2 7794   1.500   3.572  14.798  0.2804  0.1747  0.2668
  525MPD2    C3 7795   1.451   3.672  14.714 -0.8608 -0.8393 -0.0275
  525MPD2    C4 7796   1.327   3.656  14.655  0.0649 -0.0938 -0.5342
  525MPD2    C5 7797   1.262   3.538  14.666  0.4525 -0.1566  0.1862
  525MPD2     H 7798   1.591   3.579  14.856  0.4378  1.4085 -0.1289
  525MPD2    H1 7799   1.283   3.722  14.581  1.7230  1.2979 -0.2789
  525MPD2    H2 7800   1.283   3.334  14.723 -0.5012  0.1506 -1.2838
  525MPD2    H3 7801   1.168   3.525  14.613  0.0307  2.4113  0.3126
  525MPD2     N 7802   1.527   3.793  14.701  0.2214 -0.5582  0.2407
  525MPD2    H5 7803   1.613   3.790  14.755  0.2708 -3.1992  0.0304
  525MPD2    N1 7804   1.518   3.345  14.858 -0.1633  0.0377 -0.6517
  525MPD2    H7 7805   1.608   3.373  14.897 -0.9463  0.0061  1.2049
  526TMC3    C1 7806   1.566   3.135  14.940 -0.1392  0.1112 -0.0740
  526TMC3    C2 7807   1.527   3.061  15.047  1.0945 -0.3135 -1.0224
  526TMC3    C3 7808   1.620   2.993  15.122  0.1135  0.2979  0.0064
  526TMC3    C4 7809   1.692   3.152  14.897 -0.0562 -0.3899 -0.6343
  526TMC3    C5 7810   1.786   3.081  14.963  0.3527 -0.0158 -0.1616
  526TMC3    C6 7811   1.752   2.996  15.075  1.1200  0.0946 -1.1087
  526TMC3     C 7812   1.471   3.222  14.886  0.2205  0.3891 -0.0308
  526TMC3     O 7813   1.356   3.179  14.878  0.1530  0.7570 -0.3119
  526TMC3     H 7814   1.424   3.076  15.076  1.1659 -0.0148 -0.9206
  526TMC3    H1 7815   1.714   3.206  14.805 -0.3187  2.5051  1.0085
  526TMC3    H2 7816   1.832   2.936  15.117 -0.2983  0.2570  1.7972
  526TMC3    C7 7817   1.925   3.110  14.929 -0.1133 -0.4012 -0.6523
  526TMC3    C8 7818   1.594   2.979  15.261  0.0208  0.3550  0.0232
  526TMC3    O1 7819   1.951   3.223  14.883  0.0580 -0.1793 -0.1445
  526TMC3    O2 7820   1.685   3.019  15.332 -0.5100 -0.6188 -1.4331
  527MPD2     C 7821   4.264   1.013   1.718 -0.4745 -0.0564 -0.5730
  527MPD2    C1 7822   4.362   1.088   1.657 -0.4467  0.1897 -0.2177
  527MPD2    C2 7823   4.478   1.032   1.613  0.4840  0.5974 -0.3701
  527MPD2    C3 7824   4.499   0.901   1.632  0.1587  0.3650  0.3125
  527MPD2    C4 7825   4.405   0.816   1.689  0.4084  0.1111  0.5143
  527MPD2    C5 7826   4.287   0.874   1.730  0.7000  0.3428  0.5873
  527MPD2     H 7827   4.551   1.089   1.557  0.4570  1.1744  0.1756
  527MPD2    H1 7828   4.421   0.709   1.696  2.2184  0.1961 -2.0809
  527MPD2    H2 7829   4.184   1.059   1.774 -1.4567 -2.3598 -0.0635
  527MPD2    H3 7830   4.230   0.810   1.797 -5.1013  3.5456 -1.2901
  527MPD2     N 7831   4.623   0.848   1.584 -0.1514 -0.5193 -0.2816
  527MPD2    H5 7832   4.677   0.904   1.518 -0.2049 -0.5686 -0.3659
  527MPD2    N1 7833   4.340   1.229   1.642 -0.3900 -0.3514  0.2039
  527MPD2    H7 7834   4.424   1.274   1.606 -0.5006  0.3245  0.7941
  528TMC3    C1 7835   4.286   1.434   1.722 -0.2761 -0.1986  0.3601
  528TMC3    C2 7836   4.399   1.430   1.804 -0.2032 -0.0180 -0.6204
  528TMC3    C3 7837   4.396   1.510   1.913  0.8816  0.3716  0.2791
  528TMC3    C4 7838   4.191   1.530   1.738  0.0310 -0.0266 -0.2857
  528TMC3    C5 7839   4.209   1.628   1.834 -0.5505  0.6328 -0.5439
  528TMC3    C6 7840   4.298   1.599   1.938  0.3903 -0.2952 -0.5359
  528TMC3     C 7841   4.240   1.304   1.685 -1.0599  0.5620 -0.4374
  528TMC3     O 7842   4.127   1.264   1.701 -0.7460 -0.1717  0.1890
  528TMC3     H 7843   4.479   1.359   1.789  0.9754  0.4094  3.7116
  528TMC3    H1 7844   4.110   1.540   1.667 -0.6709 -0.1581  0.5145
  528TMC3    H2 7845   4.306   1.663   2.026  1.5925  0.7114 -1.3768
  528TMC3    C7 7846   4.094   1.717   1.856 -0.1382  0.2183 -0.3373
  528TMC3    C8 7847   4.493   1.473   2.022  0.3068 -0.4180 -0.0217
  528TMC3    O1 7848   3.990   1.685   1.802  0.2405 -0.2104 -0.5779
  528TMC3    O2 7849   4.602   1.427   1.989  0.0617 -0.0838 -0.2698
  529MPD2     C 7850   2.910   4.612   0.931  0.7200  0.5214 -0.0488
  529MPD2    C1 7851   2.907   4.485   0.886  0.0264 -0.1972 -0.8840
  529MPD2    C2 7852   2.871   4.462   0.753  0.3356  0.8410 -0.2484
  529MPD2    C3 7853   2.823   4.571   0.676 -0.5061  0.0513 -0.1385
  529MPD2    C4 7854   2.814   4.695   0.730  0.2640  0.2157 -0.4588
  529MPD2    C5 7855   2.859   4.712   0.855 -0.6110 -0.2435  0.6054
  529MPD2     H 7856   2.868   4.360   0.716  2.3613  1.0598 -1.0366
  529MPD2    H1 7857   2.799   0.058   0.666  1.6909 -0.8788 -2.2956
  529MPD2    H2 7858   2.940   4.639   1.032 -1.0524  2.7097 -0.1050
  529MPD2    H3 7859   2.869   0.089   0.893  0.5625  0.4109 -1.4299
  529MPD2     N 7860   2.782   4.558   0.540  0.1759  0.0596  0.1454
  529MPD2    H5 7861   2.758   4.641   0.487 -0.6183 -0.8750 -0.9631
  529MPD2    N1 7862   2.943   4.371   0.962  0.2350 -0.4291  0.0790
  529MPD2    H7 7863   2.949   4.282   0.914  0.1487 -0.8992  0.9590
  530TMC3    C1 7864   2.983   4.245   1.162 -0.0869 -0.1575 -0.5839
  530TMC3    C2 7865   3.013   4.243   1.297 -0.3149  0.0638 -0.1185
  530TMC3    C3 7866   2.979   4.142   1.374  0.1069  0.4542  0.0875
  530TMC3    C4 7867   2.909   4.145   1.105 -0.1910  0.4323 -0.2157
  530TMC3    C5 7868   2.864   4.040   1.192  0.6764 -0.1228  0.2085
  530TMC3    C6 7869   2.894   4.046   1.324  0.8509  0.1564  0.6307
  530TMC3     C 7870   3.003   4.369   1.085 -0.4065 -0.5578  0.4941
  530TMC3     O 7871   3.054   4.463   1.145  0.2014 -0.2527 -0.7626
  530TMC3     H 7872   3.087   4.318   1.325 -0.5737  0.7033 -1.1809
  530TMC3    H1 7873   2.868   4.147   1.005 -1.8532 -0.3915  0.4604
  530TMC3    H2 7874   2.842   3.979   1.392  2.5403 -1.1280  0.6574
  530TMC3    C7 7875   2.756   3.958   1.144  0.4461  0.3984  0.3367
  530TMC3    C8 7876   3.003   4.149   1.516  0.0862  0.3704  0.1966
  530TMC3    O1 7877   2.676   4.005   1.064 -0.6918  0.3509 -0.0957
  530TMC3    O2 7878   3.032   4.254   1.560  0.3017 -0.0427  0.5805
  531MPD2     C 7879   0.947   2.438  13.368 -0.2856  0.6699 -0.4396
  531MPD2    C1 7880   0.836   2.369  13.416 -0.3795  0.2643 -0.0042
  531MPD2    C2 7881   0.774   2.277  13.328  0.0407 -0.3460  0.1950
  531MPD2    C3 7882   0.816   2.265  13.197  0.5312  0.5572  1.5328
  531MPD2    C4 7883   0.938   2.322  13.162 -0.5165  0.2551  0.2006
  531MPD2    C5 7884   1.000   2.406  13.241  0.6930  0.2878 -0.6468
  531MPD2     H 7885   0.680   2.230  13.357  1.8450 -3.3308  1.1348
  531MPD2    H1 7886   0.982   2.294  13.068  1.3897  2.1034  0.5407
  531MPD2    H2 7887   0.997   2.511  13.430 -1.4673  0.4140  0.8290
  531MPD2    H3 7888   1.092   2.460  13.221 -0.4609  3.3438  2.1898
  531MPD2     N 7889   0.738   2.180  13.112  0.0905 -0.1404  0.0402
  531MPD2    H5 7890   0.656   2.141  13.158 -1.9109  0.9772 -2.5346
  531MPD2    N1 7891   0.783   2.389  13.546 -0.0347  0.0287  0.0450
  531MPD2    H7 7892   0.829   2.458  13.604 -0.7734  1.4421 -1.0460
  532TMC3    C1 7893   0.618   2.400  13.723 -0.0553 -0.5604  0.3823
  532TMC3    C2 7894   0.485   2.402  13.743 -0.1071 -0.4736  0.3508
  532TMC3    C3 7895   0.416   2.333  13.847 -0.1384  0.9020  0.4556
  532TMC3    C4 7896   0.699   2.334  13.809 -0.1689  0.3715  0.5100
  532TMC3    C5 7897   0.632   2.279  13.912  0.1825  0.0446 -0.2102
  532TMC3    C6 7898   0.497   2.280  13.939  0.0794  0.0297 -0.5860
  532TMC3     C 7899   0.658   2.351  13.589 -0.8925 -0.1700  1.3221
  532TMC3     O 7900   0.566   2.302  13.523 -0.2955  0.4513  0.3813
  532TMC3     H 7901   0.420   2.442  13.665  1.6242  0.8642 -0.4078
  532TMC3    H1 7902   0.806   2.348  13.802 -0.4941  4.3672  3.1254
  532TMC3    H2 7903   0.451   2.211  14.009  3.2056 -0.2763  1.1972
  532TMC3    C7 7904   0.706   2.256  14.028  0.1189  0.2281  0.1456
  532TMC3    C8 7905   0.333   2.228  13.797  0.3090  0.5606  0.2941
  532TMC3    O1 7906   0.646   2.260  14.138  0.1923 -0.4245 -0.0516
  532TMC3    O2 7907   0.256   2.160  13.869 -0.2058 -0.6023 -0.0664
  533TMC3    C1 7908   1.583   4.007  14.669 -0.8138  0.7850 -0.1101
  533TMC3    C2 7909   1.725   3.999  14.660  0.2371  0.1130 -0.4751
  533TMC3    C3 7910   1.802   4.077  14.742  0.3570  0.3945  0.0858
  533TMC3    C4 7911   1.526   4.067  14.775 -0.1017 -0.1185  0.2638
  533TMC3    C5 7912   1.611   4.145  14.853  0.1002 -0.2367  0.2899
  533TMC3    C6 7913   1.748   4.160  14.836 -0.0933  0.7038  0.7819
  533TMC3     C 7914   1.498   3.902  14.626 -0.3023  0.6147 -0.8029
  533TMC3     O 7915   1.406   3.932  14.553  0.1706  0.4164  0.5712
  533TMC3     H 7916   1.779   3.924  14.603 -0.0809  1.0623 -2.0108
  533TMC3    H1 7917   1.417   4.070  14.780 -0.0913  0.9183 -0.0880
  533TMC3    H2 7918   1.815   4.233  14.881  2.4597  0.0626 -2.0130
  533TMC3    C7 7919   1.588   4.125  14.997  0.0464  0.1535  0.3191
  533TMC3    C8 7920   1.935   4.045  14.771 -0.0790 -0.0332 -0.4743
  533TMC3    O1 7921   1.502   4.044  15.033  1.0116 -0.4690  0.0749
  533TMC3    O2 7922   1.965   4.075  14.885  0.8044 -0.2978  0.0968
  534MPD2     C 7923   4.065   0.003   2.500  0.1021  0.1796 -0.0031
  534MPD2    C1 7924   4.180   4.705   2.430 -0.1072  0.1692 -0.5380
  534MPD2    C2 7925   4.224   4.578   2.397 -0.2272  0.3404  0.1279
  534MPD2    C3 7926   4.154   4.469   2.445  0.6639 -0.1893 -0.3189
  534MPD2    C4 7927   4.045   4.491   2.515 -0.2483 -0.4656 -0.9132
  534MPD2    C5 7928   3.999   4.619   2.546 -0.2926 -0.1929 -0.4970
  534MPD2     H 7929   4.321   4.571   2.351  0.3134  0.1833  1.2796
  534MPD2    H1 7930   3.992   4.402   2.550 -0.6835  0.0221 -0.3231
  534MPD2    H2 7931   4.033   0.100   2.535  0.3779 -0.3003  1.5789
  534MPD2    H3 7932   3.915   4.631   2.613 -0.7436  4.6630 -1.9187
  534MPD2     N 7933   4.198   4.333   2.431 -0.0529  0.5158 -0.1779
  534MPD2    H5 7934   4.157   4.263   2.492  1.0929  1.3293  1.5092
  534MPD2    N1 7935   4.259   0.091   2.383  0.9716  0.3765 -0.1328
  534MPD2    H7 7936   4.344   0.068   2.332  1.0954  1.2773 -0.3467
  535TMC3    C1 7937   4.327   4.155   2.353  0.0556 -0.1655  0.3246
  535TMC3    C2 7938   4.224   4.057   2.353 -0.0973  0.3090  0.1559
  535TMC3    C3 7939   4.252   3.941   2.285  0.1106  0.1589  0.4328
  535TMC3    C4 7940   4.450   4.135   2.288 -0.2531  0.5700  0.3857
  535TMC3    C5 7941   4.457   4.028   2.203 -0.4060 -1.1019 -0.0188
  535TMC3    C6 7942   4.355   3.934   2.195 -0.1624 -1.0001  0.0766
  535TMC3     C 7943   4.299   4.297   2.344  0.1778 -0.0108  0.0022
  535TMC3     O 7944   4.357   4.353   2.255 -0.0661 -0.2398 -0.0695
  535TMC3     H 7945   4.128   4.076   2.400 -0.2432  1.2084 -0.5064
  535TMC3    H1 7946   4.532   4.205   2.288 -0.2081  0.5153  2.2317
  535TMC3    H2 7947   4.362   3.842   2.137 -0.4715  0.1018 -1.6799
  535TMC3    C7 7948   4.510   4.058   2.068  0.1327 -0.1526  0.5436
  535TMC3    C8 7949   4.126   3.882   2.243 -0.2920  0.7457  0.4455
  535TMC3    O1 7950   4.543   3.959   2.008 -0.0814 -0.2660  0.5304
  535TMC3    O2 7951   4.111   3.876   2.118  0.3202 -0.3281  0.5367
  536MPD2     C 7952   3.499   2.351  16.673 -0.0503 -0.4255 -0.2032
  536MPD2    C1 7953   3.456   2.473  16.681  0.6721 -0.7632  0.2858
  536MPD2    C2 7954   3.347   2.514  16.612 -0.8312  0.4855  0.6754
  536MPD2    C3 7955   3.287   2.423  16.526  0.4775  0.2192 -0.4989
  536MPD2    C4 7956   3.349   2.295  16.507 -0.0560 -0.0145  0.1643
  536MPD2    C5 7957   3.450   2.259  16.588  0.6322  0.3599 -0.3764
  536MPD2     H 7958   3.310   2.616  16.606 -0.8760  0.4481  0.2843
  536MPD2    H1 7959   3.305   2.223  16.438  3.0812 -1.3489 -0.4543
  536MPD2    H2 7960   3.581   2.322  16.737 -0.0985  0.8557  0.4408
  536MPD2    H3 7961   3.495   2.160  16.577 -0.5747 -0.2940  0.5942
  536MPD2     N 7962   3.168   2.462  16.462  0.4784  0.0118 -0.1878
  536MPD2    H5 7963   3.144   2.560  16.454  0.2270 -0.1261 -1.1086
  536MPD2    N1 7964   3.504   2.541  16.793 -0.3574 -0.5620 -0.3515
  536MPD2    H7 7965   3.593   2.507  16.829 -0.2395 -1.0792 -1.1399
  537TMC3    C1 7966   3.514   2.680  16.982  0.9159 -0.2628 -0.4227
  537TMC3    C2 7967   3.544   2.809  17.009  0.4363 -0.3880  0.0400
  537TMC3    C3 7968   3.623   2.823  17.119  0.3381  0.7895  0.0416
  537TMC3    C4 7969   3.543   2.570  17.054 -0.2519  0.5930  0.0319
  537TMC3    C5 7970   3.620   2.595  17.164 -0.7125  0.2086 -0.6948
  537TMC3    C6 7971   3.660   2.718  17.203 -0.1814 -0.7435  0.5323
  537TMC3     C 7972   3.462   2.664  16.843 -0.4474 -0.4827  1.6914
  537TMC3     O 7973   3.385   2.751  16.804  0.0349  0.7076 -0.1255
  537TMC3     H 7974   3.516   2.890  16.943 -0.8705 -2.1196 -1.5127
  537TMC3    H1 7975   3.512   2.470  17.028  1.7048 -0.1540  0.5602
  537TMC3    H2 7976   3.732   2.728  17.283 -1.5981  0.9044  1.6220
  537TMC3    C7 7977   3.654   2.486  17.255 -0.0866 -0.5632  0.2636
  537TMC3    C8 7978   3.666   2.956  17.158  0.9554 -0.5551 -0.1396
  537TMC3    O1 7979   3.745   2.509  17.335  0.2220  0.2263 -0.9865
  537TMC3    O2 7980   3.736   2.958  17.257  0.1480  0.4036 -0.6283
  538TMC3    C1 7981   4.329   1.537  10.941 -0.4897 -0.0029  0.3618
  538TMC3    C2 7982   4.414   1.483  10.847  0.2766  0.0776 -0.9379
  538TMC3    C3 7983   4.376   1.492  10.718  0.3459 -0.1905  0.0329
  538TMC3    C4 7984   4.205   1.585  10.915  0.1316 -0.2537 -0.0554
  538TMC3    C5 7985   4.181   1.612  10.784 -0.1655  0.2365  0.3345
  538TMC3    C6 7986   4.264   1.562  10.677  0.5905  0.0828 -0.1058
  538TMC3     C 7987   4.375   1.552  11.076 -0.6858  0.5110 -0.2114
  538TMC3     O 7988   4.349   1.659  11.129  0.2858  0.4278 -0.0820
  538TMC3     H 7989   4.508   1.446  10.888  0.5814  2.6469  0.6859
  538TMC3    H1 7990   4.139   1.620  10.993 -0.1224  1.9410 -1.2248
  538TMC3    H2 7991   4.234   1.577  10.574 -1.0622 -2.3134  0.0280
  538TMC3    C7 7992   4.043   1.617  10.757 -0.7457 -0.9021 -0.3903
  538TMC3    C8 7993   4.440   1.423  10.613  0.6663 -0.3631  0.2217
  538TMC3    O1 7994   3.977   1.603  10.856  0.2375 -0.1260 -0.5081
  538TMC3    O2 7995   4.372   1.420  10.507 -0.3512 -0.1298 -0.5696
  539MPD2     C 7996   4.403   0.858  11.554 -0.1366  0.0194 -0.0056
  539MPD2    C1 7997   4.349   0.793  11.449 -0.9988  0.2111 -0.0973
  539MPD2    C2 7998   4.291   0.863  11.346 -0.5656 -0.4948  0.4986
  539MPD2    C3 7999   4.307   0.998  11.342  0.5470 -0.0383 -0.5710
  539MPD2    C4 8000   4.354   1.066  11.449  0.0205  0.6419  0.0448
  539MPD2    C5 8001   4.407   0.998  11.556 -0.2202  0.4761  0.2185
  539MPD2     H 8002   4.247   0.806  11.264 -2.6345  3.4861 -1.1415
  539MPD2    H1 8003   4.357   1.174  11.443  0.7736  0.6561  0.7693
  539MPD2    H2 8004   4.434   0.815  11.649  0.4726  2.3589  0.8640
  539MPD2    H3 8005   4.452   1.050  11.640  1.6160 -0.6288 -0.0862
  539MPD2     N 8006   4.249   1.078  11.242 -0.6680  0.2635 -0.3233
  539MPD2    H5 8007   4.245   1.178  11.261  1.9593  0.2295  0.4154
  539MPD2    N1 8008   4.365   0.651  11.464 -0.1645 -0.5407  0.3113
  539MPD2    H7 8009   4.416   0.628  11.548  0.9697 -0.3186 -0.3245
  540TMC3    C1 8010   4.093   1.122  11.062 -0.0411  0.2955  0.5248
  540TMC3    C2 8011   4.007   1.070  10.972 -0.4600  0.4570  0.3498
  540TMC3    C3 8012   3.931   1.163  10.904  0.1770  0.5187 -0.2669
  540TMC3    C4 8013   4.103   1.255  11.090  0.7597 -0.3808 -0.1121
  540TMC3    C5 8014   4.014   1.342  11.042  0.3939  0.8900  0.2943
  540TMC3    C6 8015   3.925   1.291  10.958 -0.0220 -0.2836 -0.7897
  540TMC3     C 8016   4.178   1.024  11.138  0.3988 -0.4857 -0.0887
  540TMC3     O 8017   4.197   0.917  11.082 -0.0888  0.4635  0.4789
  540TMC3     H 8018   3.997   0.966  10.943  0.2686  0.2739  0.7657
  540TMC3    H1 8019   4.169   1.290  11.168  0.8475 -0.8227  0.0116
  540TMC3    H2 8020   3.863   1.371  10.919 -0.5957 -1.7021 -2.8182
  540TMC3    C7 8021   3.977   1.445  11.134 -0.3345  0.1372  0.1429
  540TMC3    C8 8022   3.836   1.132  10.789 -0.3027  0.5286 -0.4119
  540TMC3    O1 8023   4.063   1.489  11.214 -0.0864 -0.2629 -0.2877
  540TMC3    O2 8024   3.779   1.226  10.739  0.5724  0.1687 -0.1311
  541MPD2     C 8025   1.688   2.027  13.217 -0.3054 -0.1190 -0.2671
  541MPD2    C1 8026   1.797   1.972  13.154  0.5944  0.2999  0.1300
  541MPD2    C2 8027   1.836   2.026  13.036  1.0840 -0.8954 -0.4277
  541MPD2    C3 8028   1.766   2.134  12.982  0.0940  0.6060 -0.3970
  541MPD2    C4 8029   1.666   2.187  13.052  0.2892  0.5153 -0.1736
  541MPD2    C5 8030   1.617   2.130  13.166  0.0918  0.3520 -0.3140
  541MPD2     H 8031   1.922   1.979  12.990  0.5618 -2.2958  0.0380
  541MPD2    H1 8032   1.610   2.270  13.010 -1.2807 -0.0208  0.8700
  541MPD2    H2 8033   1.644   1.979  13.304 -3.3282  1.1611 -1.1009
  541MPD2    H3 8034   1.520   2.152  13.209 -0.2722 -3.6500  0.8454
  541MPD2     N 8035   1.804   2.196  12.857  0.1849  0.5259  0.8615
  541MPD2    H5 8036   1.765   2.285  12.830  3.4576  2.0466  1.0644
  541MPD2    N1 8037   1.864   1.864  13.213  0.0756  0.3316 -0.1495
  541MPD2    H7 8038   1.819   1.828  13.297  1.0145 -1.6896 -0.5221
  542TMC3    C1 8039   1.946   2.236  12.674  0.0631 -0.0806 -0.2757
  542TMC3    C2 8040   1.967   2.183  12.548  0.8922  0.3585 -0.3480
  542TMC3    C3 8041   1.955   2.261  12.439 -0.6671  0.2116 -0.0754
  542TMC3    C4 8042   1.920   2.370  12.689  0.2758 -0.6103  0.2962
  542TMC3    C5 8043   1.901   2.444  12.576 -0.0223  0.3793  0.5769
  542TMC3    C6 8044   1.923   2.393  12.452  0.2105  0.4043 -0.4126
  542TMC3     C 8045   1.914   2.155  12.782  0.1957 -0.4431 -1.7080
  542TMC3     O 8046   1.963   2.043  12.782  0.6073  0.3666 -0.3918
  542TMC3     H 8047   1.995   2.079  12.536  0.8651  0.1037  1.7951
  542TMC3    H1 8048   1.910   2.416  12.786  0.8130 -1.5006  0.7709
  542TMC3    H2 8049   1.912   2.458  12.367  0.7664 -0.3358 -1.0503
  542TMC3    C7 8050   1.968   2.571  12.581 -0.4101 -0.2781 -0.5899
  542TMC3    C8 8051   2.055   2.244  12.342 -0.3867  0.7343  0.2776
  542TMC3    O1 8052   1.922   2.645  12.667 -0.2774  0.0090 -0.5601
  542TMC3    O2 8053   2.053   2.337  12.263  0.3727  0.1923 -0.0274
  543TMC3    C1 8054   1.927   3.456  17.664 -0.1913  0.5272  0.0471
  543TMC3    C2 8055   1.824   3.369  17.684  0.5012 -0.8415 -0.0754
  543TMC3    C3 8056   1.773   3.350   0.120  0.2496 -0.0349 -0.6113
  543TMC3    C4 8057   1.977   3.526   0.070  0.3186  0.0955  0.6870
  543TMC3    C5 8058   1.919   3.516   0.197  0.1641 -0.4443  0.3828
  543TMC3    C6 8059   1.815   3.427   0.227 -0.2124 -0.0413  0.6013
  543TMC3     C 8060   2.026   3.385  17.585  0.0963 -0.2542 -0.2803
  543TMC3     O 8061   2.066   3.429  17.478  0.4168  0.0571 -0.2590
  543TMC3     H 8062   1.812   3.291  17.609 -0.2942 -0.4558 -0.3497
  543TMC3    H1 8063   2.042   3.610   0.051  0.5686 -0.2017  0.2066
  543TMC3    H2 8064   1.787   3.407   0.330 -0.6388 -0.4431  0.4066
  543TMC3    C7 8065   2.017   3.543   0.308  0.5189 -0.3919 -0.3396
  543TMC3    C8 8066   1.737   3.214   0.142  0.1076 -0.2460  0.5944
  543TMC3    O1 8067   2.136   3.556   0.278  0.4010  0.6580  0.0006
  543TMC3    O2 8068   1.706   3.141   0.050 -0.0039 -0.6030 -0.0819
  544MPD2     C 8069   2.002   2.809   0.315 -0.0915  1.4741  0.5948
  544MPD2    C1 8070   1.982   2.861   0.192  0.4572  0.1658  0.1906
  544MPD2    C2 8071   1.902   2.973   0.174 -0.2287  0.4396  0.0814
  544MPD2    C3 8072   1.849   3.043   0.281 -0.4813  0.2808 -0.3252
  544MPD2    C4 8073   1.869   2.997   0.411 -0.0176  0.1103 -0.0127
  544MPD2    C5 8074   1.947   2.880   0.422  0.6402 -0.4755 -0.8021
  544MPD2     H 8075   1.905   3.023   0.078 -2.6202 -1.5136 -1.0082
  544MPD2    H1 8076   1.821   3.045   0.496 -0.3964 -0.5767  0.1618
  544MPD2    H2 8077   2.056   2.717   0.333 -0.6159  0.7308 -1.5791
  544MPD2    H3 8078   1.959   2.838   0.521 -1.0513  2.9104  0.8459
  544MPD2     N 8079   1.791   3.170   0.264 -0.4929  0.2752  0.0833
  544MPD2    H5 8080   1.779   3.227   0.347  0.1937  0.7404 -0.1391
  544MPD2    N1 8081   2.039   2.791   0.087 -0.4184 -0.8109  0.4814
  544MPD2    H7 8082   2.104   2.718   0.112  0.2040 -0.8556 -1.2440
  545TMC3    C1 8083   2.105   2.732  17.566 -0.1615  0.0077 -0.4376
  545TMC3    C2 8084   2.121   2.773  17.438 -0.6009  0.5454  0.2598
  545TMC3    C3 8085   2.235   2.736  17.372  0.2612 -0.1056  0.3900
  545TMC3    C4 8086   2.185   2.642  17.620  0.0490 -0.3925  0.7045
  545TMC3    C5 8087   2.291   2.588  17.550 -0.3597  0.0095  0.1525
  545TMC3    C6 8088   2.320   2.639  17.420 -0.4902  0.2368  0.3705
  545TMC3     C 8089   2.014   2.812  17.647  0.1967 -0.2959 -0.3624
  545TMC3     O 8090   1.935   2.886  17.594  0.3658  0.1759 -0.3267
  545TMC3     H 8091   2.061   2.860  17.413 -1.2752 -0.4204 -1.4812
  545TMC3    H1 8092   2.147   2.591   0.012 -1.5023  0.4301  0.5065
  545TMC3    H2 8093   2.388   2.589  17.353 -0.5543 -0.5712  0.9020
  545TMC3    C7 8094   2.348   2.457  17.579  0.2371 -0.3955 -0.0675
  545TMC3    C8 8095   2.252   2.785  17.235  0.2423 -0.3325  0.0238
  545TMC3    O1 8096   2.402   2.395  17.490 -0.2819 -0.1223 -0.4789
  545TMC3    O2 8097   2.333   2.740  17.157 -0.6504  0.2053  0.1118
  546MPD2     C 8098   3.657   3.525   0.149  0.6249  0.0880  0.2643
  546MPD2    C1 8099   3.615   3.552   0.021 -0.3972 -0.0861 -0.0659
  546MPD2    C2 8100   3.624   3.682  17.666  0.2988  0.5516  0.6749
  546MPD2    C3 8101   3.683   3.789   0.041  0.4180 -0.0264 -0.0522
  546MPD2    C4 8102   3.718   3.754   0.171 -0.5649  0.5258 -0.3002
  546MPD2    C5 8103   3.706   3.627   0.225 -0.3958 -0.4646  0.1658
  546MPD2     H 8104   3.592   3.704  17.564 -0.8123  1.1580  1.1547
  546MPD2    H1 8105   3.770   3.831   0.228 -1.8235  0.8285  0.4355
  546MPD2    H2 8106   3.645   3.423   0.184  0.5169 -0.5166 -1.5597
  546MPD2    H3 8107   3.736   3.611   0.328 -0.2570 -1.9370 -0.1146
  546MPD2     N 8108   3.700   3.916  17.692  0.1166 -0.4094  0.4279
  546MPD2    H5 8109   3.741   3.983   0.060  1.3197 -0.2463 -0.5333
  546MPD2    N1 8110   3.569   3.444  17.648 -0.6436 -0.6624  0.0950
  546MPD2    H7 8111   3.564   3.355  17.696 -0.7905 -1.0190 -0.5822
  547TMC3    C1 8112   3.445   3.321  17.492 -0.1687 -0.4066 -0.2219
  547TMC3    C2 8113   3.400   3.313  17.367  0.4109 -0.3348  0.1110
  547TMC3    C3 8114   3.306   3.213  17.342  0.1324 -0.7765 -0.6868
  547TMC3    C4 8115   3.400   3.237  17.592  0.3152 -0.3938 -0.9321
  547TMC3    C5 8116   3.328   3.122  17.556 -0.8337  0.5754  0.5675
  547TMC3    C6 8117   3.277   3.111  17.429 -0.4638 -0.5580 -0.6542
  547TMC3     C 8118   3.516   3.443  17.522 -0.0607  0.1253 -0.1702
  547TMC3     O 8119   3.526   3.524  17.432 -0.3418 -0.5738  0.2349
  547TMC3     H 8120   3.423   3.386  17.291  1.0757 -0.0962  0.5447
  547TMC3    H1 8121   3.428   3.239   0.001  1.6018 -2.0007 -1.2570
  547TMC3    H2 8122   3.187   3.056  17.403 -0.2243 -1.5878  0.6962
  547TMC3    C7 8123   3.284   3.041  17.664  0.1592  0.4617  0.5236
  547TMC3    C8 8124   3.222   3.222  17.221  0.1798  0.4541 -0.4391
  547TMC3    O1 8125   3.305   3.080   0.083 -0.4120  0.1106  0.3224
  547TMC3    O2 8126   3.121   3.159  17.217 -0.0825 -0.3553  0.2344
  548MPD2     C 8127   3.237   4.092  12.530 -0.0756  0.4026 -0.0235
  548MPD2    C1 8128   3.164   3.973  12.532 -0.2605 -0.0671 -0.3765
  548MPD2    C2 8129   3.223   3.852  12.498 -0.0327 -0.4835  0.7202
  548MPD2    C3 8130   3.357   3.847  12.458 -0.4394  0.1480  0.1870
  548MPD2    C4 8131   3.423   3.961  12.444  0.3056 -0.0753 -0.1875
  548MPD2    C5 8132   3.364   4.081  12.479  0.1433  0.6025 -0.8461
  548MPD2     H 8133   3.168   3.758  12.497  0.2892 -0.6865  1.4926
  548MPD2    H1 8134   3.524   3.970  12.405 -0.1068  0.0198 -1.2459
  548MPD2    H2 8135   3.200   4.188  12.562 -1.0708  0.0577 -0.1309
  548MPD2    H3 8136   3.420   4.171  12.456  1.6201 -0.7160 -2.4817
  548MPD2     N 8137   3.417   3.721  12.445 -0.0852  0.2122  0.3606
  548MPD2    H5 8138   3.355   3.642  12.455  1.2839 -0.6780  1.6802
  548MPD2    N1 8139   3.028   3.989  12.560 -0.3441 -0.4065 -0.0577
  548MPD2    H7 8140   2.997   4.084  12.575  0.9934 -0.1056  0.8667
  549TMC3    C1 8141   2.810   3.919  12.624 -0.4972 -0.5407 -0.1692
  549TMC3    C2 8142   2.752   4.027  12.565 -0.2404 -0.4416  0.9459
  549TMC3    C3 8143   2.613   4.043  12.578  0.6328  0.6394  0.8057
  549TMC3    C4 8144   2.727   3.818  12.659  0.3213 -0.0712 -0.1871
  549TMC3    C5 8145   2.588   3.831  12.641 -0.0681  0.4805 -0.4974
  549TMC3    C6 8146   2.526   3.945  12.599 -0.0829 -0.2860  0.9953
  549TMC3     C 8147   2.946   3.885  12.594 -0.9456 -0.5752  0.2829
  549TMC3     O 8148   2.968   3.768  12.613  0.0098 -0.0773 -0.3503
  549TMC3     H 8149   2.810   4.114  12.538  1.9552 -2.7622 -1.9403
  549TMC3    H1 8150   2.772   3.730  12.703 -0.3563  0.1188  0.8794
  549TMC3    H2 8151   2.420   3.966  12.594 -0.1126 -0.8200 -0.8358
  549TMC3    C7 8152   2.505   3.721  12.653 -0.0196 -0.6017  0.8173
  549TMC3    C8 8153   2.553   4.153  12.509 -0.1590  0.7706  0.6614
  549TMC3    O1 8154   2.388   3.752  12.665  0.1835  0.4087 -0.1085
  549TMC3    O2 8155   2.443   4.180  12.552  0.0582  0.1306 -0.0725
  550TMC3    C1 8156   1.696   1.820  12.349  0.5702 -0.3779 -0.0426
  550TMC3    C2 8157   1.701   1.826  12.487  0.6068 -0.4702  0.1040
  550TMC3    C3 8158   1.578   1.811  12.553  0.0823 -0.1139  0.4247
  550TMC3    C4 8159   1.584   1.790  12.273  0.2449  0.0273 -0.2784
  550TMC3    C5 8160   1.474   1.769  12.352  0.9093 -0.5278 -0.6457
  550TMC3    C6 8161   1.466   1.768  12.487 -0.0057 -0.1370  0.2651
  550TMC3     C 8162   1.822   1.863  12.280 -0.0965  0.4191  0.0332
  550TMC3     O 8163   1.919   1.891  12.347  0.9286  0.4686  0.3248
  550TMC3     H 8164   1.783   1.859  12.549  0.1741  0.4035  0.2131
  550TMC3    H1 8165   1.566   1.822  12.171  3.6792  1.2079 -0.4932
  550TMC3    H2 8166   1.371   1.754  12.539  1.4432 -0.7332  2.7503
  550TMC3    C7 8167   1.346   1.741  12.288  0.2930  0.3158 -0.0251
  550TMC3    C8 8168   1.561   1.932  12.625 -0.2562  0.4793  0.1701
  550TMC3    O1 8169   1.242   1.754  12.352  0.0124  0.0027 -0.1275
  550TMC3    O2 8170   1.602   2.027  12.561 -0.0377 -0.0789 -0.1175
  551TMC3    C1 8171   4.100   4.597  13.444  0.0240  0.6853  0.2649
  551TMC3    C2 8172   4.206   4.629  13.355  0.1795  0.0433 -0.2359
  551TMC3    C3 8173   4.277   0.026  13.378  0.3747 -0.2814 -0.8044
  551TMC3    C4 8174   4.079   4.676  13.556  0.4679  0.2304  0.0331
  551TMC3    C5 8175   4.161   0.062  13.580  0.0492  0.1819  0.0329
  551TMC3    C6 8176   4.262   0.100  13.493  0.8192  0.2267 -0.4518
  551TMC3     C 8177   3.980   4.543  13.373  0.4812  0.2731 -0.2462
  551TMC3     O 8178   4.001   4.490  13.266  0.5230 -0.2990 -0.0275
  551TMC3     H 8179   4.227   4.566  13.270 -0.1251 -1.5824  0.8831
  551TMC3    H1 8180   4.011   4.653  13.637 -0.0179  0.4522 -0.3127
  551TMC3    H2 8181   4.319   0.188  13.518 -0.5757  1.8245 -2.9420
  551TMC3    C7 8182   4.165   0.121  13.714  0.4291  0.5618  0.0608
  551TMC3    C8 8183   4.370   0.069  13.279 -0.4727 -0.1672  0.0064
  551TMC3    O1 8184   4.137   0.052  13.812 -0.1429 -0.5076  0.9402
  551TMC3    O2 8185   4.423   4.705  13.207  0.7686  0.1877  0.4105
  552MPD2     C 8186   0.807   1.895  14.378  0.0563  0.5488  0.0591
  552MPD2    C1 8187   0.913   1.872  14.297 -0.4398  0.1202  0.2881
  552MPD2    C2 8188   1.043   1.891  14.342  0.1928 -0.1943 -0.1640
  552MPD2    C3 8189   1.053   1.935  14.473  0.2822  0.4283 -0.1708
  552MPD2    C4 8190   0.950   1.949  14.561  0.0340 -0.1103  0.4057
  552MPD2    C5 8191   0.823   1.927  14.507 -0.1865  0.2612 -0.0461
  552MPD2     H 8192   1.117   1.865  14.268 -1.1533  1.0383 -1.9183
  552MPD2    H1 8193   0.967   1.994  14.659  1.9892 -0.6410  0.3012
  552MPD2    H2 8194   0.704   1.891  14.341  0.3521  0.1146 -0.7229
  552MPD2    H3 8195   0.737   1.930  14.573  0.4423 -0.7032  0.8118
  552MPD2     N 8196   1.185   1.962  14.523  0.4277 -0.3084 -0.5004
  552MPD2    H5 8197   1.198   1.994  14.619 -0.0199  0.3412 -0.6597
  552MPD2    N1 8198   0.898   1.845  14.162 -0.0332  0.4411  0.0398
  552MPD2    H7 8199   0.986   1.825  14.116  0.2868 -0.2045  0.9434
  553TMC3    C1 8200   0.807   1.834  13.953 -0.9292  0.1215  0.8110
  553TMC3    C2 8201   0.779   1.923  13.859 -0.0018 -0.2870  1.0181
  553TMC3    C3 8202   0.805   1.900  13.727 -0.4171 -0.0738  0.4103
  553TMC3    C4 8203   0.882   1.716  13.925  0.5864  0.4912 -0.3854
  553TMC3    C5 8204   0.912   1.695  13.796 -1.1163 -0.0460  0.1738
  553TMC3    C6 8205   0.878   1.786  13.694 -0.4742 -0.1251 -0.4284
  553TMC3     C 8206   0.782   1.865  14.092  0.3174  0.2256 -0.2168
  553TMC3     O 8207   0.669   1.904  14.125  0.8344  0.1351 -0.4973
  553TMC3     H 8208   0.723   2.010  13.892  0.9309  1.2183 -1.3993
  553TMC3    H1 8209   0.906   1.640  13.999  1.6649 -0.3838 -1.6369
  553TMC3    H2 8210   0.925   1.785  13.596  0.2924 -1.0875 -0.0504
  553TMC3    C7 8211   0.995   1.587  13.755 -0.5650 -0.2916  0.1442
  553TMC3    C8 8212   0.847   2.025  13.668  0.9107  0.4218 -0.3332
  553TMC3    O1 8213   0.939   1.485  13.718 -0.0396  0.7321 -0.3687
  553TMC3    O2 8214   0.875   2.116  13.744  0.3564 -0.4296  0.2238
  554TMC3    C1 8215   3.007   0.495  11.584 -0.0511 -0.0555  0.1585
  554TMC3    C2 8216   2.944   0.437  11.476  0.1409 -0.4696  0.0101
  554TMC3    C3 8217   2.978   0.489  11.350  0.3992  0.5725 -0.3089
  554TMC3    C4 8218   3.083   0.609  11.574  0.3660 -0.1303  0.7464
  554TMC3    C5 8219   3.127   0.645  11.449 -0.1555  0.5509 -0.2984
  554TMC3    C6 8220   3.077   0.576  11.338 -0.3744  0.7960 -0.1575
  554TMC3     C 8221   2.953   0.457  11.711 -0.6076  0.9333 -0.0593
  554TMC3     O 8222   2.831   0.465  11.724  0.0790 -0.4743  0.1701
  554TMC3     H 8223   2.876   0.354  11.491  0.7001 -0.7712  0.9216
  554TMC3    H1 8224   3.124   0.648  11.666  2.0084 -0.9330  0.3648
  554TMC3    H2 8225   3.111   0.607  11.240 -1.3181 -1.7826 -1.3062
  554TMC3    C7 8226   3.165   0.783  11.422 -0.1842  0.2719  0.0574
  554TMC3    C8 8227   2.934   0.409  11.232 -0.0419  0.8434  0.2326
  554TMC3    O1 8228   3.090   0.844  11.348  0.4904 -0.1870  0.1431
  554TMC3    O2 8229   2.989   0.442  11.129  0.0195 -0.3438  0.1611
  555TMC3    C1 8230   2.502   0.190  15.312 -0.5627 -0.8130  0.3993
  555TMC3    C2 8231   2.425   0.258  15.402 -0.3728 -0.0544  0.1859
  555TMC3    C3 8232   2.409   0.227  15.533  0.3810 -0.1302  0.0519
  555TMC3    C4 8233   2.547   0.068  15.354  0.4666  0.6537  0.1121
  555TMC3    C5 8234   2.513   0.023  15.478 -0.9888 -0.0429 -0.9037
  555TMC3    C6 8235   2.456   0.106  15.575  0.1556 -0.6222 -0.4399
  555TMC3     C 8236   2.563   0.263  15.201 -0.9079  0.2066 -0.2218
  555TMC3     O 8237   2.682   0.235  15.169  0.1597 -0.0265 -0.2467
  555TMC3     H 8238   2.398   0.359  15.375 -2.3648 -0.6834 -0.1698
  555TMC3    H1 8239   2.614   0.012  15.290 -0.4736 -0.2182 -0.1140
  555TMC3    H2 8240   2.430   0.066  15.673 -0.3664  1.2618  0.1921
  555TMC3    C7 8241   2.459   4.610  15.486 -0.2707 -0.7941  0.1795
  555TMC3    C8 8242   2.386   0.340  15.625  0.0614 -0.3025 -0.2394
  555TMC3    O1 8243   2.441   4.563  15.600 -0.2891 -0.4093 -0.4013
  555TMC3    O2 8244   2.345   0.442  15.582 -0.1299 -0.3768  0.4498
  556MPD2     C 8245   0.922   1.342  11.216  0.4236 -0.4575  0.8344
  556MPD2    C1 8246   0.787   1.360  11.231 -1.0869 -0.5086  0.7493
  556MPD2    C2 8247   0.699   1.271  11.177  1.0668  0.2401 -0.0192
  556MPD2    C3 8248   0.740   1.161  11.099 -0.2472  0.3770 -0.3625
  556MPD2    C4 8249   0.877   1.153  11.070 -0.4372  0.0393  0.0080
  556MPD2    C5 8250   0.961   1.241  11.133 -0.6620 -0.2541 -0.5318
  556MPD2     H 8251   0.594   1.280  11.200  0.7766 -1.9739 -0.5151
  556MPD2    H1 8252   0.920   1.090  10.992 -1.7888  1.5912 -2.0124
  556MPD2    H2 8253   0.991   1.407  11.268 -1.7568  3.5813 -1.3246
  556MPD2    H3 8254   1.066   1.232  11.106 -0.0218  1.4428  1.4020
  556MPD2     N 8255   0.639   1.086  11.031  0.0340  0.4482 -0.0454
  556MPD2    H5 8256   0.541   1.098  11.056  0.3214  2.1223  0.2282
  556MPD2    N1 8257   0.738   1.459  11.324  0.2592 -0.2341  0.0303
  556MPD2    H7 8258   0.638   1.445  11.337  0.1985 -0.8677 -1.1105
  557TMC3    C1 8259   0.549   0.929  10.880  0.4677  0.1581  0.5699
  557TMC3    C2 8260   0.566   0.811  10.818 -0.6585  0.0777  0.0645
  557TMC3    C3 8261   0.477   0.772  10.730 -0.4692  0.2385  0.1191
  557TMC3    C4 8262   0.461   1.022  10.835 -0.2746 -0.0173 -0.3423
  557TMC3    C5 8263   0.362   0.972  10.754 -0.7054 -0.4187  0.0619
  557TMC3    C6 8264   0.364   0.843  10.707  0.9759 -0.4971 -0.1044
  557TMC3     C 8265   0.665   0.977  10.955 -0.5146 -0.3509 -0.5130
  557TMC3     O 8266   0.761   0.903  10.967 -0.6251  0.2096 -0.0780
  557TMC3     H 8267   0.647   0.748  10.854 -0.9780 -0.6288 -0.4545
  557TMC3    H1 8268   0.449   1.122  10.874  1.2214 -0.1667  0.5224
  557TMC3    H2 8269   0.275   0.812  10.653  0.2359 -0.6041  1.1809
  557TMC3    C7 8270   0.252   1.059  10.721  0.1593  0.6147  0.0511
  557TMC3    C8 8271   0.479   0.638  10.681  0.0360 -0.0124  0.6285
  557TMC3    O1 8272   0.232   1.148  10.805 -0.3300  0.0326  0.0146
  557TMC3    O2 8273   0.557   0.559  10.734 -0.1259  0.0517  0.4293
  558TMC3    C1 8274   2.987   4.092  10.443 -0.1969 -0.0622  0.1741
  558TMC3    C2 8275   2.873   4.074  10.517  0.2175 -0.1851 -0.1297
  558TMC3    C3 8276   2.757   4.046  10.451 -0.1806 -0.4160 -0.5336
  558TMC3    C4 8277   2.984   4.091  10.307  0.5489  0.1954 -0.3440
  558TMC3    C5 8278   2.868   4.056  10.242  0.1891 -0.4551  0.1029
  558TMC3    C6 8279   2.753   4.031  10.311 -0.3408 -0.0669  0.1002
  558TMC3     C 8280   3.123   4.080  10.494 -0.3523  0.3635  0.1974
  558TMC3     O 8281   3.221   4.144  10.449 -0.4312  0.2946 -0.2010
  558TMC3     H 8282   2.884   4.076  10.625 -0.5961  3.0102 -0.1059
  558TMC3    H1 8283   3.077   4.105  10.254 -1.0375  2.4412 -2.5117
  558TMC3    H2 8284   2.662   4.015  10.254 -1.3957  0.3790  1.6530
  558TMC3    C7 8285   2.892   4.017  10.104 -0.4374 -0.1640 -0.5529
  558TMC3    C8 8286   2.630   4.025  10.516 -0.9732  0.3389  0.2446
  558TMC3    O1 8287   3.006   3.984  10.076 -0.2841  0.1307 -0.4460
  558TMC3    O2 8288   2.540   3.983  10.442  0.4235  0.3003  0.5717
  559MPD2     C 8289   2.672   0.057  10.496 -0.9550 -0.5852  0.6201
  559MPD2    C1 8290   2.634   4.713  10.607  0.1364 -0.3490 -0.9753
  559MPD2    C2 8291   2.723   4.719  10.703  0.1019  0.9042  0.4663
  559MPD2    C3 8292   2.847   0.063  10.693  0.3597  0.8695 -0.4772
  559MPD2    C4 8293   2.885   0.126  10.581 -0.6929  0.2580 -0.2411
  559MPD2    C5 8294   2.793   0.115  10.480 -0.5951  1.0549 -0.5333
  559MPD2     H 8295   2.697   4.664  10.793  0.1682  2.5871  1.5032
  559MPD2    H1 8296   2.966   0.197  10.569  0.9356 -1.5425  0.0735
  559MPD2    H2 8297   2.602   0.071  10.414  0.7509 -0.2952 -0.7847
  559MPD2    H3 8298   2.807   0.175  10.391 -0.9713  0.6666 -0.8586
  559MPD2     N 8299   2.925   0.062  10.811  0.1257 -0.7128 -0.2542
  559MPD2    H5 8300   2.882   0.012  10.888 -1.2481  2.5824  1.1174
  559MPD2    N1 8301   2.505   4.664  10.622  0.1533 -0.3500  0.0717
  559MPD2    H7 8302   2.443   4.712  10.558 -0.3410 -1.6192 -0.4159
  560TMC3    C1 8303   3.104   0.103  10.960 -0.5698  0.1351  0.3584
  560TMC3    C2 8304   3.052   4.717  11.031  0.7105 -0.3724 -0.6875
  560TMC3    C3 8305   3.101   4.710  11.161  0.0377 -1.2873  0.6967
  560TMC3    C4 8306   3.198   0.190  11.007 -0.3174 -0.0450  0.2584
  560TMC3    C5 8307   3.243   0.173  11.132  0.2887 -0.3526 -0.2527
  560TMC3    C6 8308   3.189   0.078  11.213 -0.1150 -0.1145 -0.8585
  560TMC3     C 8309   3.045   0.129  10.831 -0.3505  0.9288 -0.3231
  560TMC3     O 8310   3.105   0.203  10.749  0.4737  0.1230 -0.6289
  560TMC3     H 8311   3.004   4.633  10.982  2.4659 -1.6200 -0.2765
  560TMC3    H1 8312   3.229   0.273  10.943 -1.4006  0.9309  1.0092
  560TMC3    H2 8313   3.221   0.080  11.317 -0.3686  1.7325 -0.8234
  560TMC3    C7 8314   3.318   0.276  11.191 -0.2789 -0.4088  0.6337
  560TMC3    C8 8315   3.044   4.608  11.242 -0.8400 -0.4936 -0.7039
  560TMC3    O1 8316   3.288   0.300  11.312 -0.5537  0.2809 -0.2193
  560TMC3    O2 8317   2.938   4.553  11.209 -0.3336  0.6528 -0.1796
  561TMC3    C1 8318   0.694   4.050  12.153 -0.5734  0.2330 -0.6195
  561TMC3    C2 8319   0.576   4.048  12.216 -0.1373  0.7878 -0.5184
  561TMC3    C3 8320   0.484   4.140  12.177 -0.2104  0.0624  0.0769
  561TMC3    C4 8321   0.728   4.137  12.048 -0.0243 -0.2326  0.0847
  561TMC3    C5 8322   0.627   4.231  12.017  0.5467 -0.2442  0.3200
  561TMC3    C6 8323   0.506   4.241  12.085 -0.1698 -0.1847  0.0613
  561TMC3     C 8324   0.789   3.948  12.207  0.2418  0.8066 -0.4945
  561TMC3     O 8325   0.744   3.855  12.270 -0.7596  0.0059 -0.3082
  561TMC3     H 8326   0.546   3.973  12.288 -2.0060  2.0957  0.0738
  561TMC3    H1 8327   0.822   4.131  11.994  0.1681  0.5339  0.3381
  561TMC3    H2 8328   0.426   4.309  12.058  0.5032  0.7088  0.3146
  561TMC3    C7 8329   0.624   4.292  11.892 -0.0291 -0.3151 -0.2228
  561TMC3    C8 8330   0.348   4.089  12.202  0.1874  1.1494  0.2506
  561TMC3    O1 8331   0.547   4.384  11.879  0.4601  0.3291 -0.6950
  561TMC3    O2 8332   0.339   3.977  12.259  0.0855 -0.0523 -0.2570
  562TMC3    C1 8333   2.073   0.725  16.233 -0.5004 -0.7482  0.9782
  562TMC3    C2 8334   2.010   0.839  16.183 -0.6860 -0.0143  0.1727
  562TMC3    C3 8335   1.952   0.840  16.059  0.2108 -0.1221  0.1902
  562TMC3    C4 8336   2.085   0.619  16.152  0.4578  0.4801 -1.2253
  562TMC3    C5 8337   2.043   0.630  16.018  0.0413  0.6080  0.9493
  562TMC3    C6 8338   1.974   0.739  15.967 -0.4768 -0.2980 -0.6776
  562TMC3     C 8339   2.098   0.718  16.376 -0.4813  0.0472  0.1018
  562TMC3     O 8340   2.047   0.803  16.447 -0.1932  0.0989 -0.0571
  562TMC3     H 8341   2.001   0.921  16.254  2.4776 -0.2451  0.8327
  562TMC3    H1 8342   2.087   0.526  16.208 -2.0882  0.5178 -1.0855
  562TMC3    H2 8343   1.927   0.737  15.869  0.6092 -1.2686 -1.1857
  562TMC3    C7 8344   2.051   0.510  15.939 -0.0029  1.0680  0.3897
  562TMC3    C8 8345   1.830   0.919  16.060  0.6909  0.3802 -0.6674
  562TMC3    O1 8346   1.983   0.518  15.838 -0.7683 -0.5604  0.3403
  562TMC3    O2 8347   1.791   0.960  16.170 -0.2491 -0.4493 -0.1987
  563MPD2     C 8348   4.470   2.146  15.842  0.2408 -0.4887  0.3006
  563MPD2    C1 8349   4.502   2.105  15.968  0.0094  0.1086  0.2806
  563MPD2    C2 8350   4.623   2.057  15.991 -0.2341 -0.2392  0.1117
  563MPD2    C3 8351   4.711   2.038  15.891  0.0206  0.1616  0.1237
  563MPD2    C4 8352   4.675   2.055  15.759  0.3010  0.3864  0.4108
  563MPD2    C5 8353   4.554   2.110  15.732 -0.7771 -0.1894  0.1463
  563MPD2     H 8354   4.656   2.044  16.093  1.7371 -1.7492 -0.7042
  563MPD2    H1 8355   0.021   2.042  15.677 -1.3317  0.1162 -0.9092
  563MPD2    H2 8356   4.367   2.179  15.829  1.1371  2.4614  0.6928
  563MPD2    H3 8357   4.534   2.136  15.629  0.5569 -1.1993 -0.3559
  563MPD2     N 8358   0.123   2.009  15.927 -0.4670 -0.2987  0.1722
  563MPD2    H5 8359   0.138   1.986  16.024  1.8328 -0.7573 -0.2958
  563MPD2    N1 8360   4.408   2.122  16.070 -0.0306 -0.3455  0.0589
  563MPD2    H7 8361   4.333   2.182  16.039  1.6776  1.3930 -0.6499
  564TMC3    C1 8362   4.325   2.108  16.297  0.1371  1.0162 -0.2743
  564TMC3    C2 8363   4.196   2.065  16.266  0.0146 -0.4807 -0.1336
  564TMC3    C3 8364   4.120   2.016  16.374  0.3918 -0.8580 -0.4802
  564TMC3    C4 8365   4.375   2.095  16.419 -0.4929  0.2708  0.2021
  564TMC3    C5 8366   4.301   2.034  16.519  0.1294 -0.3035 -0.3724
  564TMC3    C6 8367   4.171   2.016  16.506  0.5950 -0.4121  0.1772
  564TMC3     C 8368   4.428   2.087  16.201  0.3014 -0.7433 -0.0834
  564TMC3     O 8369   4.512   2.011  16.253 -0.1392 -0.4270  0.6627
  564TMC3     H 8370   4.165   2.065  16.162  0.0646 -0.1373 -0.1455
  564TMC3    H1 8371   4.479   2.120  16.434 -1.4590  2.8043  2.6432
  564TMC3    H2 8372   4.102   1.990  16.584  0.0341  0.2362 -0.0983
  564TMC3    C7 8373   4.373   1.913  16.562 -0.2415 -0.3197  0.2305
  564TMC3    C8 8374   4.040   1.898  16.366  1.1547 -0.0476 -0.7293
  564TMC3    O1 8375   4.497   1.918  16.570 -0.0437 -0.1276 -0.0862
  564TMC3    O2 8376   4.039   1.826  16.462  0.1175  0.7259 -0.0990
  565TMC3    C1 8377   3.594   1.985  10.646 -0.5139  0.2922 -0.2539
  565TMC3    C2 8378   3.592   1.902  10.759  0.3064  0.1020  0.3181
  565TMC3    C3 8379   3.470   1.851  10.789  0.4085 -0.7256  0.3831
  565TMC3    C4 8380   3.483   2.005  10.562  0.1754 -0.1452 -0.0378
  565TMC3    C5 8381   3.359   1.959  10.606 -0.0514 -0.3507 -0.3533
  565TMC3    C6 8382   3.353   1.869  10.709  0.5158 -0.9667  0.6825
  565TMC3     C 8383   3.721   2.059  10.608  0.0467  0.0401 -0.0257
  565TMC3     O 8384   3.713   2.134  10.513  0.3732  0.0314 -0.3104
  565TMC3     H 8385   3.671   1.889  10.832 -1.0394 -0.6327  1.6656
  565TMC3    H1 8386   3.484   2.069  10.475  2.3714  1.7660  1.4167
  565TMC3    H2 8387   3.259   1.862  10.763  0.6713  1.7991  1.2846
  565TMC3    C7 8388   3.246   1.984  10.526 -0.0564  0.0978 -0.1303
  565TMC3    C8 8389   3.442   1.792  10.923  0.2374 -0.0115  0.0505
  565TMC3    O1 8390   3.159   1.898  10.550 -0.0086 -0.0213 -0.4161
  565TMC3    O2 8391   3.536   1.820  11.001 -0.6362 -0.5511  0.0951
  566MPD2     C 8392   1.318   0.151  14.609 -0.1559  0.1882  0.2395
  566MPD2    C1 8393   1.423   0.097  14.538 -0.7279  0.7788  0.0708
  566MPD2    C2 8394   1.404   0.062  14.399  0.0701  0.1769  0.3148
  566MPD2    C3 8395   1.286   0.099  14.335  0.1381  0.0717  0.7755
  566MPD2    C4 8396   1.179   0.155  14.406 -0.7653  0.4431 -0.0261
  566MPD2    C5 8397   1.201   0.173  14.542 -0.9029  0.1460 -0.1765
  566MPD2     H 8398   1.495   0.035  14.346 -0.0438  1.4807 -0.5286
  566MPD2    H1 8399   1.086   0.190  14.363  0.0073  0.8180 -1.3819
  566MPD2    H2 8400   1.320   0.205  14.703  0.9796 -1.7330  1.3050
  566MPD2    H3 8401   1.120   0.224  14.594 -0.6396 -0.8830  1.2546
  566MPD2     N 8402   1.265   0.077  14.200 -0.4449  0.2821  0.2566
  566MPD2    H5 8403   1.182   0.124  14.165 -0.5116 -0.6800 -0.8895
  566MPD2    N1 8404   1.545   0.079  14.596  0.3918 -0.0545 -0.2785
  566MPD2    H7 8405   1.618   0.044  14.534  0.7065  0.9300 -0.4764
  567TMC3    C1 8406   1.727   0.169  14.703 -0.0069 -0.1180 -0.1477
  567TMC3    C2 8407   1.754   0.247  14.597 -0.6184 -0.1590 -0.1756
  567TMC3    C3 8408   1.848   0.347  14.619 -0.4051 -0.9167 -0.0131
  567TMC3    C4 8409   1.785   0.188  14.825  0.1036 -0.4792  0.0407
  567TMC3    C5 8410   1.884   0.290  14.836 -0.8241  0.1044 -0.2392
  567TMC3    C6 8411   1.917   0.378  14.734 -0.1427  0.1966  0.4196
  567TMC3     C 8412   1.585   0.131  14.714 -0.1759  0.7031 -0.3744
  567TMC3     O 8413   1.529   0.166  14.817  0.6022  0.1652 -0.0057
  567TMC3     H 8414   1.701   0.251  14.502 -0.0442 -0.8232 -0.5210
  567TMC3    H1 8415   1.762   0.124  14.909  1.4159  0.9522  1.4927
  567TMC3    H2 8416   1.964   0.472  14.762  0.9676 -0.4268  0.6588
  567TMC3    C7 8417   1.963   0.298  14.958  0.9782  0.2020  0.1140
  567TMC3    C8 8418   1.864   0.442  14.514 -0.0281  0.0582 -0.3727
  567TMC3    O1 8419   2.080   0.328  14.944 -0.6433 -0.2315  0.1204
  567TMC3    O2 8420   1.772   0.451  14.435  0.3842 -0.3215  0.2119
  568MPD2     C 8421   3.888   0.440  16.557  0.3154  0.2902 -0.2404
  568MPD2    C1 8422   3.905   0.523  16.669  0.4130  0.0117  0.0770
  568MPD2    C2 8423   3.853   0.650  16.664  0.6739  0.1069  0.0503
  568MPD2    C3 8424   3.779   0.697  16.556 -0.3439  0.5310  0.4627
  568MPD2    C4 8425   3.761   0.620  16.445  0.3146  0.7538 -0.8568
  568MPD2    C5 8426   3.834   0.501  16.443  0.5196 -0.8775  0.2194
  568MPD2     H 8427   3.860   0.723  16.743 -0.0219  2.2524 -1.8454
  568MPD2    H1 8428   3.708   0.642  16.353 -1.2324 -0.7031 -0.3140
  568MPD2    H2 8429   3.921   0.337  16.564 -2.9428 -0.8668 -1.6862
  568MPD2    H3 8430   3.822   0.443  16.352 -3.7633 -0.8772  0.7472
  568MPD2     N 8431   3.724   0.827  16.562  0.5251 -0.1605  0.3336
  568MPD2    H5 8432   3.747   0.880  16.646  1.0536 -1.1679  0.8233
  568MPD2    N1 8433   3.979   0.481  16.777  0.2225  0.0849 -0.4630
  568MPD2    H7 8434   4.017   0.388  16.765  1.2134  0.4929 -0.4722
  569TMC3    C1 8435   3.639   1.030  16.499 -0.3347 -0.4518  0.7663
  569TMC3    C2 8436   3.642   1.067  16.633  0.3797  0.8823 -0.1372
  569TMC3    C3 8437   3.690   1.194  16.653  0.1041  0.8842 -0.2237
  569TMC3    C4 8438   3.674   1.114  16.399 -0.2347  0.7030  0.1254
  569TMC3    C5 8439   3.716   1.242  16.424  0.0340  0.1387  0.3425
  569TMC3    C6 8440   3.718   1.292  16.552 -0.0494 -0.0839 -0.2846
  569TMC3     C 8441   3.651   0.894  16.461 -0.0373  0.0528  0.0246
  569TMC3     O 8442   3.625   0.862  16.345  0.3349  0.0345 -0.1619
  569TMC3     H 8443   3.615   1.000  16.714 -0.4002 -0.9850 -1.9246
  569TMC3    H1 8444   3.680   1.076  16.298  0.2762  0.6170  0.1894
  569TMC3    H2 8445   3.736   1.398  16.568  0.1129  0.2428 -2.5740
  569TMC3    C7 8446   3.714   1.326  16.309  0.0210  0.4824 -0.0686
  569TMC3    C8 8447   3.702   1.237  16.791 -0.0899 -0.5855  0.4200
  569TMC3    O1 8448   3.646   1.288  16.214 -0.6937 -0.5762  0.1295
  569TMC3    O2 8449   3.654   1.162  16.873  0.4543 -0.3794  0.2138
  570TMC3    C1 8450   3.474   4.257  16.401  0.5559 -0.8799 -0.7191
  570TMC3    C2 8451   3.531   4.286  16.279 -0.0558 -0.6795  0.4385
  570TMC3    C3 8452   3.536   4.412  16.240  0.0185  0.4601  0.7926
  570TMC3    C4 8453   3.431   4.360  16.486  0.2240 -0.5395  0.3178
  570TMC3    C5 8454   3.436   4.487  16.438  0.7551 -0.2268  0.2990
  570TMC3    C6 8455   3.492   4.520  16.321  0.3508  0.2245  0.0003
  570TMC3     C 8456   3.464   4.121  16.437  0.0632 -0.8740 -0.3352
  570TMC3     O 8457   3.469   4.038  16.352  0.0364 -0.0769  0.4352
  570TMC3     H 8458   3.552   4.207  16.208  2.1800 -0.1803  0.5260
  570TMC3    H1 8459   3.368   4.342  16.572  0.9636 -1.3960  0.6806
  570TMC3    H2 8460   3.537   4.618  16.311  0.3796 -0.1338 -3.5163
  570TMC3    C7 8461   3.385   4.596  16.519 -0.0798  0.0465  0.1833
  570TMC3    C8 8462   3.634   4.441  16.128  0.5364  0.0200 -0.5552
  570TMC3    O1 8463   3.397   4.587  16.638 -0.3070 -0.1693  0.6679
  570TMC3    O2 8464   3.619   4.556  16.093 -0.0374  0.2078  0.5369
  571MPD2     C 8465   1.896   0.963  17.423  0.3273  0.5205  0.3697
  571MPD2    C1 8466   1.942   0.915  17.542 -0.1118 -0.2071 -0.0511
  571MPD2    C2 8467   1.969   1.008  17.649  0.0293  0.4767 -0.5510
  571MPD2    C3 8468   1.959   1.143  17.632 -0.1565 -0.6629 -0.6128
  571MPD2    C4 8469   1.908   1.186  17.510  0.4169 -0.2777 -0.4967
  571MPD2    C5 8470   1.878   1.096  17.411 -0.3142  0.3955  0.7975
  571MPD2     H 8471   2.011   0.975   0.047 -0.5702  0.3442 -0.3276
  571MPD2    H1 8472   1.882   1.291  17.503  0.6310 -0.3131 -1.8011
  571MPD2    H2 8473   1.871   0.897  17.341  3.6359 -1.4823  0.9592
  571MPD2    H3 8474   1.843   1.125  17.313  0.9019 -0.8942 -0.0222
  571MPD2     N 8475   1.979   1.238   0.039  0.0694 -0.3789  0.1544
  571MPD2    H5 8476   1.962   1.334   0.011 -4.2918 -1.3077 -0.3148
  571MPD2    N1 8477   1.951   0.773  17.557 -0.3089  0.1809 -0.5143
  571MPD2    H7 8478   1.911   0.716  17.483 -0.1758  1.6675 -1.7333
  572TMC3    C1 8479   2.016   1.328   0.251  0.2191  0.6166 -0.2084
  572TMC3    C2 8480   1.970   1.299   0.377 -0.1861 -1.0982 -0.2483
  572TMC3    C3 8481   1.900   1.391   0.447  0.5069  0.1183  0.3736
  572TMC3    C4 8482   1.982   1.450   0.197 -0.4634 -0.5644  0.4252
  572TMC3    C5 8483   1.911   1.541   0.275 -0.1715 -0.1651 -0.0550
  572TMC3    C6 8484   1.859   1.510   0.403  0.6019  0.1598  0.3768
  572TMC3     C 8485   2.032   1.218   0.165  0.3460 -0.1516  0.5098
  572TMC3     O 8486   2.074   1.109   0.213  0.3761  0.0761  0.1305
  572TMC3     H 8487   2.013   1.210   0.421  0.8580 -0.0211  0.9091
  572TMC3    H1 8488   2.015   1.482   0.098 -0.5566 -0.3952  0.4480
  572TMC3    H2 8489   1.801   1.583   0.458 -2.8510 -1.4413 -1.1095
  572TMC3    C7 8490   1.863   1.658   0.217 -0.0257 -0.0641 -0.4110
  572TMC3    C8 8491   1.879   1.367   0.589 -0.3017 -0.3150  0.0923
  572TMC3    O1 8492   1.787   1.720   0.288  0.0893  0.4876  0.4485
  572TMC3    O2 8493   1.968   1.298   0.640  0.3585 -0.3341  0.1510
  573MPD2     C 8494   2.133   2.302   0.986 -0.0679  0.1379 -0.3997
  573MPD2    C1 8495   2.240   2.259   1.060 -0.0903  0.2179  0.5519
  573MPD2    C2 8496   2.364   2.258   1.006 -0.7895  0.1475  0.0947
  573MPD2    C3 8497   2.380   2.306   0.873 -0.3370  0.3021 -0.5107
  573MPD2    C4 8498   2.272   2.353   0.803  0.3226  0.4158  0.2365
  573MPD2    C5 8499   2.152   2.346   0.862  0.1966 -0.5620 -0.4722
  573MPD2     H 8500   2.450   2.226   1.064  0.3755 -0.6184 -2.0379
  573MPD2    H1 8501   2.280   2.390   0.701 -1.2358  0.7033  0.2189
  573MPD2    H2 8502   2.032   2.312   1.024 -1.4950  2.3287 -4.7761
  573MPD2    H3 8503   2.067   2.389   0.809  1.2475  1.6675 -0.3694
  573MPD2     N 8504   2.500   2.292   0.798 -0.3209  0.3942 -0.1875
  573MPD2    H5 8505   2.495   2.305   0.697  0.0077 -2.0163 -0.5069
  573MPD2    N1 8506   2.223   2.226   1.197 -0.3320  0.8923 -0.2160
  573MPD2    H7 8507   2.126   2.235   1.225 -0.7797 -2.1822 -0.7360
  574TMC3    C1 8508   2.707   2.206   0.724 -0.1972 -0.2601  0.4068
  574TMC3    C2 8509   2.643   2.176   0.605  0.2251  0.3530  0.1243
  574TMC3    C3 8510   2.733   2.152   0.502 -0.4722  0.0059  0.1571
  574TMC3    C4 8511   2.841   2.201   0.753 -0.5515 -0.0379 -0.0847
  574TMC3    C5 8512   2.915   2.159   0.642 -0.0694  0.3707  0.0302
  574TMC3    C6 8513   2.864   2.140   0.517  1.0146  0.7276  0.8747
  574TMC3     C 8514   2.619   2.241   0.832  0.6233  0.0226 -0.0634
  574TMC3     O 8515   2.662   2.225   0.944  0.0048 -0.3172 -0.0549
  574TMC3     H 8516   2.536   2.169   0.589  0.4825 -0.8749 -1.0411
  574TMC3    H1 8517   2.877   2.195   0.856 -0.3434  0.9552 -0.1011
  574TMC3    H2 8518   2.927   2.123   0.430 -0.7046  1.9097 -0.5961
  574TMC3    C7 8519   3.055   2.162   0.653  0.0532 -0.0807 -0.2378
  574TMC3    C8 8520   2.673   2.091   0.394 -0.0995 -0.4893  0.5959
  574TMC3    O1 8521   3.104   2.187   0.766 -0.0981  0.4031  0.0081
  574TMC3    O2 8522   2.738   2.005   0.337  0.2854 -0.3293  0.0472
  575TMC3    C1 8523   3.531   1.865  11.756 -0.2905 -0.5130 -0.3839
  575TMC3    C2 8524   3.462   1.800  11.858  0.7548 -0.6990  0.7002
  575TMC3    C3 8525   3.363   1.720  11.815 -0.0601  0.3322 -0.2108
  575TMC3    C4 8526   3.504   1.858  11.626 -0.3289  0.3112  0.2950
  575TMC3    C5 8527   3.399   1.776  11.588  0.1847 -0.7423  0.2851
  575TMC3    C6 8528   3.331   1.702  11.685 -0.0048  0.1855  0.7497
  575TMC3     C 8529   3.677   1.881  11.767  0.4822  0.4917  0.3902
  575TMC3     O 8530   3.747   1.927  11.676  0.2744  0.1058 -0.2304
  575TMC3     H 8531   3.497   1.808  11.960  4.7963 -0.7793 -0.6611
  575TMC3    H1 8532   3.571   1.900  11.552 -0.1754 -1.1173 -0.3899
  575TMC3    H2 8533   3.265   1.622  11.653 -0.9428  1.1542  0.2711
  575TMC3    C7 8534   3.375   1.765  11.442 -0.7431  0.1258  0.1097
  575TMC3    C8 8535   3.297   1.633  11.911 -1.0316  0.2768  0.2951
  575TMC3    O1 8536   3.453   1.831  11.374 -0.2081  0.1413  0.0230
  575TMC3    O2 8537   3.354   1.625  12.021  0.2719  0.3525 -0.0300
  576MPD2     C 8538   4.164   0.043  12.990 -0.0040 -0.0317 -0.0126
  576MPD2    C1 8539   4.209   0.132  12.894 -0.1498 -0.1675 -0.4426
  576MPD2    C2 8540   4.181   0.265  12.912  0.5183 -0.4532 -0.0756
  576MPD2    C3 8541   4.118   0.316  13.019 -0.3071  0.3347 -0.6944
  576MPD2    C4 8542   4.080   0.219  13.116 -0.3859  0.6877 -0.1442
  576MPD2    C5 8543   4.098   0.085  13.099  0.5238 -0.3767 -0.1938
  576MPD2     H 8544   4.204   0.333  12.831 -1.9930 -0.8836 -1.1410
  576MPD2    H1 8545   4.038   0.250  13.211  0.2987  1.1619  0.0063
  576MPD2    H2 8546   4.172   4.659  12.985  2.8651  0.2362 -1.1277
  576MPD2    H3 8547   4.064   0.012  13.172  0.5773 -0.1632  0.0443
  576MPD2     N 8548   4.103   0.458  13.024 -0.4438 -0.6877  0.2981
  576MPD2    H5 8549   4.145   0.513  12.951 -3.4039  0.5843 -0.4396
  576MPD2    N1 8550   4.263   0.081  12.774 -0.0563  0.1821  0.1639
  576MPD2    H7 8551   4.302   0.160  12.723  2.0781 -0.1262  1.3418
  577TMC3    C1 8552   4.324   4.667  12.599 -0.8394  0.3136  0.6849
  577TMC3    C2 8553   4.340   4.537  12.552  0.3317 -0.2710  0.0656
  577TMC3    C3 8554   4.408   4.523  12.434  0.8797  0.0314 -0.2003
  577TMC3    C4 8555   4.373   0.050  12.524 -0.0979 -0.1671 -0.2448
  577TMC3    C5 8556   4.435   0.026  12.403  0.2286  0.0670  0.5066
  577TMC3    C6 8557   4.464   4.625  12.362 -0.3182  0.3490 -0.2187
  577TMC3     C 8558   4.259   4.676  12.726  0.8645  0.4520 -0.5417
  577TMC3     O 8559   4.217   4.576  12.785 -0.2552  0.7658  0.2872
  577TMC3     H 8560   4.310   4.446  12.603  1.5598 -0.7631 -0.0981
  577TMC3    H1 8561   4.325   0.145  12.547 -0.3684  0.0228 -1.6519
  577TMC3    H2 8562   4.518   4.614  12.269 -1.0531 -1.9162 -0.3681
  577TMC3    C7 8563   4.487   0.138  12.335  0.0212  0.0851 -1.0134
  577TMC3    C8 8564   4.438   4.392  12.383  0.0974  0.4043  0.1199
  577TMC3    O1 8565   4.491   0.242  12.403  0.6308 -0.4266 -0.3039
  577TMC3    O2 8566   4.350   4.306  12.397  0.0543 -0.2422 -0.3092
  578MPD2     C 8567   3.266   4.532   1.427  0.0753  0.9519  0.0369
  578MPD2    C1 8568   3.326   4.424   1.362 -0.0941 -0.0676  0.0520
  578MPD2    C2 8569   3.382   4.331   1.440  0.0075  0.1351 -0.3393
  578MPD2    C3 8570   3.375   4.329   1.578  0.4914 -1.0395 -0.3874
  578MPD2    C4 8571   3.321   4.437   1.637  0.3789  0.0388 -0.0480
  578MPD2    C5 8572   3.259   4.535   1.564  0.1727 -0.0267 -0.4444
  578MPD2     H 8573   3.446   4.252   1.405  0.6696  0.8809 -0.8086
  578MPD2    H1 8574   3.303   4.445   1.744 -0.3924 -2.2039 -0.0045
  578MPD2    H2 8575   3.221   4.611   1.369  0.1522  0.6287 -0.4606
  578MPD2    H3 8576   3.208   4.616   1.615  2.2980  0.8140  0.3418
  578MPD2     N 8577   3.407   4.215   1.646 -0.7676  0.5832 -0.1773
  578MPD2    H5 8578   3.445   4.141   1.587  1.3055  1.1056  0.4973
  578MPD2    N1 8579   3.339   4.414   1.226  0.2514  0.4373  0.5000
  578MPD2    H7 8580   3.287   4.490   1.182  0.5084 -0.0670 -0.6386
  579TMC3    C1 8581   3.381   4.056   1.816 -0.4096 -0.1016 -0.1568
  579TMC3    C2 8582   3.420   4.019   1.939  0.0115 -0.0818  0.0524
  579TMC3    C3 8583   3.480   3.898   1.950 -0.0392 -0.0099 -0.4748
  579TMC3    C4 8584   3.372   3.973   1.711 -0.2855  0.2881 -0.7268
  579TMC3    C5 8585   3.419   3.841   1.731  0.2961  0.3673  0.7724
  579TMC3    C6 8586   3.475   3.808   1.848 -0.1133  0.4752  0.9062
  579TMC3     C 8587   3.376   4.196   1.783 -0.1194 -0.5076 -0.3321
  579TMC3     O 8588   3.358   4.269   1.880  0.3017 -0.2246 -0.1512
  579TMC3     H 8589   3.429   4.084   2.025  0.6624  0.8928 -0.7648
  579TMC3    H1 8590   3.317   4.007   1.624 -1.5100  0.3987  0.0934
  579TMC3    H2 8591   3.504   3.706   1.870  0.6148 -0.0783 -2.5392
  579TMC3    C7 8592   3.389   3.733   1.647 -0.5862 -0.1289 -0.2067
  579TMC3    C8 8593   3.499   3.837   2.080 -0.2937 -0.0648 -0.0908
  579TMC3    O1 8594   3.429   3.621   1.683 -0.1360  0.0439  0.0274
  579TMC3    O2 8595   3.409   3.834   2.157  0.2863  0.2259  0.0259
  580TMC3    C1 8596   2.521   3.829  12.130  0.4239  1.5858  0.3838
  580TMC3    C2 8597   2.593   3.903  12.222 -0.2178 -1.0670  0.4397
  580TMC3    C3 8598   2.693   3.833  12.289  0.3401  0.2272  0.1710
  580TMC3    C4 8599   2.521   3.694  12.133 -0.8826  0.6404 -0.2579
  580TMC3    C5 8600   2.610   3.625  12.214 -0.0394 -0.1178  0.4007
  580TMC3    C6 8601   2.705   3.698  12.284  0.0414 -0.0938  0.5696
  580TMC3     C 8602   2.566   3.871  11.994 -0.2849 -0.5664 -0.1048
  580TMC3     O 8603   2.654   3.799  11.952 -0.7753 -0.3801  0.4149
  580TMC3     H 8604   2.593   4.011  12.214  1.2538 -1.1759 -1.2291
  580TMC3    H1 8605   2.454   3.650  12.060 -2.7907  2.1016  0.5954
  580TMC3    H2 8606   2.786   3.647  12.336 -0.0247 -2.1584 -1.3698
  580TMC3    C7 8607   2.637   3.479  12.209 -0.1412  0.4740 -0.6835
  580TMC3    C8 8608   2.822   3.893  12.263  0.7899  0.3167  0.6320
  580TMC3    O1 8609   2.736   3.438  12.266 -0.2569  0.3826 -0.5923
  580TMC3    O2 8610   2.831   4.011  12.274 -0.2701  0.3324  0.2065
  581MPD2     C 8611   0.589   3.225  14.821 -0.0375  0.0130 -0.0329
  581MPD2    C1 8612   0.501   3.254  14.928  0.8846  0.3406 -0.2538
  581MPD2    C2 8613   0.399   3.338  14.908  0.5513 -0.4103 -0.2947
  581MPD2    C3 8614   0.360   3.368  14.777 -0.5584 -0.2190 -0.3418
  581MPD2    C4 8615   0.455   3.345  14.679 -0.3463  0.0255 -0.4764
  581MPD2    C5 8616   0.571   3.289  14.702  0.0135 -1.0321 -0.4715
  581MPD2     H 8617   0.332   3.364  14.988 -0.4200 -0.2139 -1.1664
  581MPD2    H1 8618   0.433   3.373  14.576 -0.7079  1.0099 -0.1367
  581MPD2    H2 8619   0.678   3.166  14.839  0.6742  1.1985  0.3536
  581MPD2    H3 8620   0.628   3.242  14.623  1.0029 -1.4480  0.4808
  581MPD2     N 8621   0.247   3.452  14.747 -0.1793  0.1909  0.2644
  581MPD2    H5 8622   0.193   3.493  14.823  1.0448  2.3379 -0.0134
  581MPD2    N1 8623   0.524   3.194  15.051 -0.1972  0.4341 -0.4322
  581MPD2    H7 8624   0.589   3.116  15.043  0.5421  1.1686 -1.4751
  582TMC3    C1 8625   0.483   3.093  15.254 -0.1767 -0.3499 -0.0462
  582TMC3    C2 8626   0.589   3.112  15.347 -0.6726 -0.1301  0.2421
  582TMC3    C3 8627   0.600   3.015  15.442 -0.3358 -0.0518 -1.0918
  582TMC3    C4 8628   0.384   3.005  15.281 -0.0245 -0.1048  0.0641
  582TMC3    C5 8629   0.399   2.919  15.385 -0.4337 -0.2867  0.5162
  582TMC3    C6 8630   0.510   2.921  15.465 -0.8842  0.0004  0.4647
  582TMC3     C 8631   0.454   3.205  15.165  0.3799  0.1192 -0.2971
  582TMC3     O 8632   0.357   3.276  15.188 -0.2752 -0.8698 -0.2748
  582TMC3     H 8633   0.662   3.190  15.332 -0.0992 -0.3215  2.0267
  582TMC3    H1 8634   0.295   3.007  15.218 -0.1426  0.3085  0.2401
  582TMC3    H2 8635   0.503   2.859  15.553 -1.1783 -1.5220 -0.6280
  582TMC3    C7 8636   0.277   2.883  15.449  0.7939  0.0538 -0.2909
  582TMC3    C8 8637   0.671   3.054  15.560 -0.2383 -0.3463 -0.3345
  582TMC3    O1 8638   0.275   2.796  15.532 -0.3568  0.0087  0.2173
  582TMC3    O2 8639   0.685   3.170  15.586  0.0081  0.5217 -0.0373
  583MPD2     C 8640   0.580   4.459  17.084  0.6388 -0.1309  0.2917
  583MPD2    C1 8641   0.597   4.589  17.034 -0.2638  0.7556 -0.5533
  583MPD2    C2 8642   0.550   4.694  17.113 -1.0331 -0.3892  0.0938
  583MPD2    C3 8643   0.492   4.677  17.235 -0.4183 -0.5929 -0.4559
  583MPD2    C4 8644   0.477   4.549  17.285  0.0443 -0.8073  0.1461
  583MPD2    C5 8645   0.518   4.446  17.202 -0.1975  0.2580  0.0313
  583MPD2     H 8646   0.559   0.071  17.074 -0.1157 -0.8045 -0.7555
  583MPD2    H1 8647   0.436   4.528  17.383 -1.6628 -1.1921 -0.6582
  583MPD2    H2 8648   0.614   4.363  17.045  2.7014  1.1821 -1.1276
  583MPD2    H3 8649   0.507   4.348  17.247 -0.6140  1.2632  2.1314
  583MPD2     N 8650   0.449   0.072  17.304  0.7986 -0.2743 -0.4604
  583MPD2    H5 8651   0.482   0.161  17.269 -1.2190  0.9877  0.8936
  583MPD2    N1 8652   0.671   4.621  16.917 -0.4226  0.3307 -0.6524
  583MPD2    H7 8653   0.675   4.718  16.889  0.9428  0.0246 -1.5056
  584TMC3    C1 8654   0.365   0.215  17.473  0.4780  0.0616  0.0540
  584TMC3    C2 8655   0.433   0.312  17.411  0.1892  0.3012 -0.4101
  584TMC3    C3 8656   0.456   0.421  17.493 -0.3439 -0.0644 -0.1345
  584TMC3    C4 8657   0.308   0.219  17.597 -0.1074 -0.3727  0.2608
  584TMC3    C5 8658   0.335   0.332  17.674  0.0573 -0.0224  0.6792
  584TMC3    C6 8659   0.421   0.431  17.627  0.5480  0.6776  0.3746
  584TMC3     C 8660   0.379   0.082  17.422  0.6087  0.7470  0.1758
  584TMC3     O 8661   0.334   4.714  17.494 -0.1138 -0.4947 -0.0765
  584TMC3     H 8662   0.479   0.305  17.313  0.3134  1.3315 -0.4187
  584TMC3    H1 8663   0.238   0.139  17.618 -1.2938  1.1453  2.0749
  584TMC3    H2 8664   0.427   0.529  17.672  0.7789 -0.1567  2.1441
  584TMC3    C7 8665   0.289   0.337   0.121 -0.4040  1.0040  0.9549
  584TMC3    C8 8666   0.507   0.537  17.415  0.1715  0.0020 -0.2229
  584TMC3    O1 8667   0.258   0.231   0.171 -0.2278 -0.7813  0.0454
  584TMC3    O2 8668   0.504   0.527  17.291  0.0877 -0.1121  0.0353
  585MPD2     C 8669   4.142   3.995   1.106 -0.5165 -0.1488 -0.0844
  585MPD2    C1 8670   4.263   3.967   1.057 -0.0937 -0.2454 -0.3292
  585MPD2    C2 8671   4.282   3.964   0.919 -0.4833 -0.3305 -0.5803
  585MPD2    C3 8672   4.181   4.000   0.826  0.6964 -0.3957  0.3677
  585MPD2    C4 8673   4.062   4.046   0.885  0.2431 -0.3368 -0.3287
  585MPD2    C5 8674   4.039   4.032   1.018 -0.1135 -1.0142  0.0827
  585MPD2     H 8675   4.378   3.936   0.876 -0.5586 -3.4277  1.3259
  585MPD2    H1 8676   3.979   4.074   0.821 -0.1768  1.1133  0.8526
  585MPD2    H2 8677   4.125   4.000   1.213  1.1762  2.6785  0.0514
  585MPD2    H3 8678   3.940   4.055   1.057 -0.5758 -0.1471 -1.6357
  585MPD2     N 8679   4.200   4.005   0.688  0.4800 -0.4496  0.0745
  585MPD2    H5 8680   4.117   4.033   0.636 -0.1728 -0.7973  0.9309
  585MPD2    N1 8681   4.374   3.942   1.142  0.0125 -0.1669  0.2634
  585MPD2    H7 8682   4.364   3.982   1.235 -1.7149  2.4000 -1.0284
  586TMC3    C1 8683   4.305   3.984   0.486 -0.2273  0.3045  0.1407
  586TMC3    C2 8684   4.401   3.917   0.409 -0.2723 -0.2353 -0.1093
  586TMC3    C3 8685   4.427   3.970   0.290  0.2689 -0.7393  0.2638
  586TMC3    C4 8686   4.233   4.092   0.442  0.3560  0.5209 -0.1328
  586TMC3    C5 8687   4.265   4.141   0.313  0.3006 -0.4620 -0.6778
  586TMC3    C6 8688   4.366   4.085   0.244  0.2242  0.9893 -0.0244
  586TMC3     C 8689   4.307   3.948   0.619 -0.0626  0.3497  0.1757
  586TMC3     O 8690   4.385   3.859   0.659 -0.0191  0.3664  0.3844
  586TMC3     H 8691   4.439   3.822   0.446  2.6754  1.8964  2.3513
  586TMC3    H1 8692   4.163   4.151   0.500  1.8845  1.5303  0.6739
  586TMC3    H2 8693   4.399   4.143   0.159  1.2996 -0.1771 -0.3988
  586TMC3    C7 8694   4.217   4.276   0.281  0.0116 -0.3868  0.0011
  586TMC3    C8 8695   4.504   3.893   0.198  0.6282 -0.6087  0.1665
  586TMC3    O1 8696   4.205   4.345   0.379 -0.2278 -0.6404  0.3895
  586TMC3    O2 8697   4.520   3.776   0.235  0.4826  0.1741 -0.1048
  587TMC3    C1 8698   2.118   2.369  16.299  0.2272  0.1443 -0.2195
  587TMC3    C2 8699   2.116   2.508  16.292  0.2646 -0.5201 -0.2230
  587TMC3    C3 8700   2.227   2.577  16.302 -0.4008 -0.1167 -0.4597
  587TMC3    C4 8701   2.236   2.305  16.286  0.4448 -0.0705 -0.1212
  587TMC3    C5 8702   2.344   2.383  16.284 -0.0928 -0.9772 -0.2357
  587TMC3    C6 8703   2.349   2.522  16.280 -0.3140  0.1157  0.1972
  587TMC3     C 8704   2.008   2.292  16.356  0.1587  0.5155  0.1660
  587TMC3     O 8705   2.007   2.169  16.346  0.1747  0.4150  0.1560
  587TMC3     H 8706   2.021   2.560  16.289  0.1663 -0.5295  2.5218
  587TMC3    H1 8707   2.256   2.198  16.293 -1.9539 -0.4031  1.6969
  587TMC3    H2 8708   2.439   2.583  16.287 -0.0052 -0.0072 -2.7026
  587TMC3    C7 8709   2.470   2.318  16.304  0.6357  1.0324  0.8108
  587TMC3    C8 8710   2.218   2.722  16.287 -0.2187  0.5447 -0.6671
  587TMC3    O1 8711   2.562   2.366  16.239  0.3333  0.1753 -0.2671
  587TMC3    O2 8712   2.281   2.783  16.203 -0.2029  0.3564  0.0633
  588TMC3    C1 8713   4.124   0.061   9.808 -0.9228 -0.8176 -0.1907
  588TMC3    C2 8714   4.087   4.660   9.774  0.1944  0.5875  0.1582
  588TMC3    C3 8715   4.142   4.546   9.836  0.9195  0.1405  0.4397
  588TMC3    C4 8716   4.226   0.093   9.896 -0.4852  0.6414  0.5032
  588TMC3    C5 8717   4.286   4.701   9.949  0.3028  0.4103  0.1605
  588TMC3    C6 8718   4.255   4.568   9.915  0.9331 -0.7300  0.2892
  588TMC3     C 8719   4.051   0.184   9.754  0.4130 -0.3567  0.3218
  588TMC3     O 8720   3.995   0.187   9.642 -0.5436 -0.3182 -0.1668
  588TMC3     H 8721   4.024   4.634   9.690  1.0227 -1.0498  0.0519
  588TMC3    H1 8722   4.269   0.192   9.904 -0.3145  0.6729 -0.8418
  588TMC3    H2 8723   4.322   4.492   9.955  0.9132  0.1201  1.9266
  588TMC3    C7 8724   4.391   4.715  10.049  0.2960 -0.2589  0.0135
  588TMC3    C8 8725   4.112   4.417   9.784  0.2557 -0.4219  0.0592
  588TMC3    O1 8726   4.454   4.616  10.084 -0.1603  0.1494  0.3329
  588TMC3    O2 8727   4.004   4.404   9.726  0.0792 -0.3837  0.1869
  589TMC3    C1 8728   3.679   2.803   1.882  0.4282  0.1164  0.3305
  589TMC3    C2 8729   3.775   2.796   1.980 -0.1121 -0.4195 -0.2306
  589TMC3    C3 8730   3.891   2.725   1.966 -0.1808 -0.4472  0.4410
  589TMC3    C4 8731   3.703   2.745   1.762 -0.6782  0.5098 -0.5872
  589TMC3    C5 8732   3.821   2.670   1.749 -0.0295  0.6401  0.0313
  589TMC3    C6 8733   3.904   2.653   1.849 -0.2909 -0.7097  0.3496
  589TMC3     C 8734   3.538   2.837   1.912  0.7504  0.3209  1.1807
  589TMC3     O 8735   3.459   2.826   1.816 -0.3016  0.1327  0.1707
  589TMC3     H 8736   3.771   2.874   2.054 -2.2821  1.1205 -1.9626
  589TMC3    H1 8737   3.640   2.767   1.676 -0.6478  5.2118  0.5891
  589TMC3    H2 8738   3.985   2.582   1.840 -0.0198 -0.3823  0.2267
  589TMC3    C7 8739   3.814   2.579   1.635 -0.3199  0.5003  0.1840
  589TMC3    C8 8740   4.009   2.769   2.042  0.8754 -0.5272  0.0900
  589TMC3    O1 8741   3.707   2.540   1.594 -0.7010  0.2291 -0.0861
  589TMC3    O2 8742   3.990   2.799   2.156  0.0461  0.4842 -0.5813
  590MPD2     C 8743   2.885   1.245  16.856  0.1271 -0.3619  0.1027
  590MPD2    C1 8744   2.823   1.236  16.728  0.1630 -0.2304 -0.1184
  590MPD2    C2 8745   2.900   1.227  16.619  0.3258  0.2501  0.1322
  590MPD2    C3 8746   3.036   1.205  16.619  0.0312 -0.0672 -0.2875
  590MPD2    C4 8747   3.102   1.218  16.743 -0.2119 -0.3535  0.2050
  590MPD2    C5 8748   3.026   1.228  16.862 -0.6938 -0.1458 -0.1309
  590MPD2     H 8749   2.857   1.243  16.521  0.8337 -3.8719 -0.7776
  590MPD2    H1 8750   3.209   1.206  16.738 -0.1336 -0.6063  2.4885
  590MPD2    H2 8751   2.830   1.270  16.946 -2.4589  0.2366 -1.6236
  590MPD2    H3 8752   3.075   1.242  16.958  0.6538 -1.1471 -0.6834
  590MPD2     N 8753   3.094   1.180  16.490  0.0921  0.4013  0.0915
  590MPD2    H5 8754   3.025   1.164  16.417  1.1406 -0.0173 -0.8113
  590MPD2    N1 8755   2.677   1.255  16.724  0.1851 -0.0559  0.6813
  590MPD2    H7 8756   2.630   1.235  16.812 -0.1708  1.4125  0.8415
  591TMC3    C1 8757   3.221   1.223  16.307 -0.2857  0.1017  0.1596
  591TMC3    C2 8758   3.336   1.201  16.235  0.3798 -0.8605  0.3914
  591TMC3    C3 8759   3.326   1.219  16.099  0.0279  0.2150 -0.0863
  591TMC3    C4 8760   3.104   1.278  16.254 -0.0446 -0.4198 -0.2206
  591TMC3    C5 8761   3.103   1.294  16.123  0.3116  0.1504 -0.0591
  591TMC3    C6 8762   3.213   1.266  16.039 -0.2299  0.4835 -0.2521
  591TMC3     C 8763   3.221   1.195  16.446 -0.0407 -0.2448 -0.3264
  591TMC3     O 8764   3.322   1.199  16.516 -0.4467  0.5275 -0.2713
  591TMC3     H 8765   3.431   1.167  16.274  0.1176 -3.2637 -1.0874
  591TMC3    H1 8766   3.019   1.312  16.313 -0.6567 -1.2211 -0.6392
  591TMC3    H2 8767   3.201   1.258  15.932 -3.9650  0.0344  0.2076
  591TMC3    C7 8768   2.999   1.385  16.076 -0.4129  0.1083 -0.0296
  591TMC3    C8 8769   3.430   1.165  16.017 -0.0789 -0.2904 -0.2124
  591TMC3    O1 8770   2.888   1.374  16.123  0.3502 -0.5738 -0.0745
  591TMC3    O2 8771   3.486   1.061  16.058 -0.0411 -0.0312 -0.4276
  592MPD2     C 8772   3.635   2.973  11.410  0.3199 -0.1006  0.0747
  592MPD2    C1 8773   3.641   3.007  11.546 -0.0517 -0.6524 -0.2999
  592MPD2    C2 8774   3.520   2.995  11.618 -0.5299 -0.3068  0.2132
  592MPD2    C3 8775   3.410   2.928  11.564 -1.0927 -0.1044 -0.1699
  592MPD2    C4 8776   3.412   2.892  11.431  0.3982  0.1764  0.3964
  592MPD2    C5 8777   3.525   2.916  11.351 -0.5105  0.0621  0.4532
  592MPD2     H 8778   3.507   3.034  11.719 -1.5677 -0.0616 -0.0159
  592MPD2    H1 8779   3.333   2.828  11.395  2.2448 -0.8882 -1.8135
  592MPD2    H2 8780   3.719   2.997  11.346  0.9980 -3.4514 -0.2867
  592MPD2    H3 8781   3.530   2.882  11.248  3.4261  2.4630 -0.1434
  592MPD2     N 8782   3.293   2.910  11.647 -0.4124  0.4980 -0.5711
  592MPD2    H5 8783   3.299   2.922  11.747 -1.8578  1.2501 -0.5718
  592MPD2    N1 8784   3.752   3.065  11.606 -0.3389 -0.7070 -0.1564
  592MPD2    H7 8785   3.820   3.087  11.535 -0.5321 -0.6175 -0.3116
  593TMC3    C1 8786   3.897   3.158  11.763 -0.2749  0.0977 -0.0154
  593TMC3    C2 8787   3.920   3.255  11.856 -0.1544  0.4202  0.5241
  593TMC3    C3 8788   4.045   3.279  11.894 -0.2648  0.4437 -0.2232
  593TMC3    C4 8789   3.998   3.095  11.691 -0.1097  0.6003 -0.8619
  593TMC3    C5 8790   4.122   3.126  11.739 -0.0983  0.2221 -0.2008
  593TMC3    C6 8791   4.147   3.215  11.843  0.1025 -0.2343  0.2535
  593TMC3     C 8792   3.761   3.112  11.739 -1.0298  0.3782  0.2991
  593TMC3     O 8793   3.672   3.150  11.815  0.1034  0.2113  0.0411
  593TMC3     H 8794   3.841   3.284  11.924  0.8122 -0.9480  2.2093
  593TMC3    H1 8795   3.976   3.018  11.618 -1.6791  0.8415 -0.6496
  593TMC3    H2 8796   4.247   3.254  11.857  1.8552 -4.0181 -1.7665
  593TMC3    C7 8797   4.229   3.093  11.651  0.6661  0.4343  0.4407
  593TMC3    C8 8798   4.060   3.400  11.973  0.8521 -0.1114  0.3913
  593TMC3    O1 8799   4.207   3.034  11.549  0.1042  0.6721  0.0188
  593TMC3    O2 8800   3.984   3.494  11.948  0.1670 -0.3849  0.5034
  594MPD2     C 8801   1.894   2.150  14.105  0.5131 -0.3500  0.1250
  594MPD2    C1 8802   1.897   2.134  14.247 -0.1108 -0.2667 -0.4578
  594MPD2    C2 8803   1.995   2.197  14.324  0.2310 -0.0819  0.0408
  594MPD2    C3 8804   2.096   2.270  14.266  0.3958 -0.1570  0.3045
  594MPD2    C4 8805   2.097   2.290  14.129 -0.1951  0.5955 -0.2220
  594MPD2    C5 8806   1.999   2.223  14.053 -0.1778  0.3304 -0.2412
  594MPD2     H 8807   1.993   2.190  14.432 -5.2172  0.4666 -0.0261
  594MPD2    H1 8808   2.172   2.349  14.078 -0.9987  4.0312  2.5319
  594MPD2    H2 8809   1.823   2.096  14.043  0.2876 -0.3275  0.3635
  594MPD2    H3 8810   1.999   2.237  13.945 -2.8045 -1.6208 -0.4881
  594MPD2     N 8811   2.189   2.336  14.345  0.3928  0.0817  0.2597
  594MPD2    H5 8812   2.179   2.322  14.445 -1.7808 -1.6159 -0.2142
  594MPD2    N1 8813   1.788   2.061  14.305 -0.1591 -0.2431 -0.2295
  594MPD2    H7 8814   1.710   2.043  14.242  0.2510  0.6424 -0.9908
  595TMC3    C1 8815   2.587   2.546  14.478 -0.2360  0.4306  0.6099
  595TMC3    C2 8816   2.521   2.465  14.392 -0.0614  0.3646 -0.4963
  595TMC3    C3 8817   2.386   2.453  14.408  0.1288  0.0144 -0.2271
  595TMC3    C4 8818   2.522   2.630  14.561 -0.6033  0.9717  0.8217
  595TMC3    C5 8819   2.386   2.627  14.561  0.1731 -0.3293  0.2822
  595TMC3    C6 8820   2.321   2.534  14.492 -0.1069  0.5580  0.0956
  595TMC3     C 8821   2.737   2.561  14.476 -0.4960  0.2159 -0.3524
  595TMC3     O 8822   2.785   2.662  14.531  0.1033  0.3894 -0.1370
  595TMC3     H 8823   2.570   2.417  14.307  0.8238 -3.3280  2.0857
  595TMC3    H1 8824   2.576   2.685  14.637  1.8152  0.7924 -0.7739
  595TMC3    H2 8825   2.218   2.514  14.520  0.5390 -0.1741  1.9638
  595TMC3    C7 8826   2.305   2.697  14.663  0.7512  0.9981 -0.3462
  595TMC3    C8 8827   2.312   2.382  14.304  0.8168 -0.8719  0.5997
  595TMC3    O1 8828   2.185   2.665  14.677 -0.7573 -0.5734 -0.0058
  595TMC3    O2 8829   2.366   2.361  14.196 -0.6754 -0.0531  0.3026
  596MPD2     C 8830   1.301   4.409  16.996 -0.5882  0.2853 -0.0673
  596MPD2    C1 8831   1.379   4.520  16.995 -0.9015  0.1615  0.9484
  596MPD2    C2 8832   1.459   4.553  16.891  0.0245 -0.0063  0.9345
  596MPD2    C3 8833   1.453   4.471  16.776  1.3725  0.6794  0.0225
  596MPD2    C4 8834   1.371   4.357  16.769  0.4814 -0.1948 -0.3425
  596MPD2    C5 8835   1.297   4.329  16.884  0.2968 -0.2571 -0.0428
  596MPD2     H 8836   1.516   4.645  16.891 -0.2986  0.1948  1.3801
  596MPD2    H1 8837   1.357   4.293  16.683 -1.7268  2.2630 -1.8384
  596MPD2    H2 8838   1.241   4.376  17.080 -0.9815  0.7326 -0.1751
  596MPD2    H3 8839   1.236   4.240  16.879  0.9045 -0.6060 -1.0977
  596MPD2     N 8840   1.523   4.513  16.658 -0.5900  0.0221  0.0831
  596MPD2    H5 8841   1.503   4.481  16.564  1.6806  1.2138 -0.8180
  596MPD2    N1 8842   1.383   4.605  17.112 -0.0423 -0.0787  0.1046
  596MPD2    H7 8843   1.450   4.681  17.102  0.4674 -0.5410 -0.0185
  597TMC3    C1 8844   1.317   4.717  17.307 -0.5702  0.0588  0.1999
  597TMC3    C2 8845   1.443   0.057  17.309  0.3440 -0.8612  0.1515
  597TMC3    C3 8846   1.455   0.177  17.376  0.3836 -0.2672  0.8280
  597TMC3    C4 8847   1.215   0.042  17.377  0.2797 -0.4969 -0.6435
  597TMC3    C5 8848   1.232   0.161  17.442  0.3706  1.0522 -0.2228
  597TMC3    C6 8849   1.352   0.231  17.445 -0.6249  0.5017 -0.8012
  597TMC3     C 8850   1.297   4.603  17.223  0.2240 -0.1924  0.1413
  597TMC3     O 8851   1.210   4.524  17.254  0.0084  0.5549  0.1072
  597TMC3     H 8852   1.522   0.028  17.241 -0.9245 -0.2866 -1.5779
  597TMC3    H1 8853   1.119   4.719  17.361 -0.5811  0.5801  1.4976
  597TMC3    H2 8854   1.351   0.331  17.488  1.2056  0.9076 -1.7088
  597TMC3    C7 8855   1.121   0.201  17.525 -0.0706 -0.2005 -0.4978
  597TMC3    C8 8856   1.569   0.269  17.354  0.2019 -0.0047  0.1555
  597TMC3    O1 8857   1.033   0.127  17.556  0.5852  0.9910 -0.4415
  597TMC3    O2 8858   1.539   0.384  17.327  0.2328 -1.0125  0.3344
  598TMC3    C1 8859   4.033   1.919  15.501  0.2188 -0.2366 -0.1990
  598TMC3    C2 8860   3.964   1.805  15.471 -0.1434 -0.2237 -0.7307
  598TMC3    C3 8861   3.961   1.762  15.342 -0.8594  1.2919 -0.0833
  598TMC3    C4 8862   4.075   2.000  15.399 -0.1010 -0.1372 -0.2536
  598TMC3    C5 8863   4.081   1.946  15.276  0.1008  0.3921 -0.0488
  598TMC3    C6 8864   4.030   1.829  15.244  0.3821 -0.3250 -0.2645
  598TMC3     C 8865   4.110   1.913  15.619  1.0024 -0.3106 -0.2885
  598TMC3     O 8866   4.177   2.010  15.653 -0.1075 -0.2169 -0.2315
  598TMC3     H 8867   3.893   1.757  15.537 -0.8833  0.8856 -0.7175
  598TMC3    H1 8868   4.136   2.084  15.430 -0.4411 -0.1094  0.3396
  598TMC3    H2 8869   4.029   1.781  15.147 -1.3668 -0.4501 -0.1930
  598TMC3    C7 8870   4.168   1.997  15.182 -0.6205  0.1383  0.1508
  598TMC3    C8 8871   3.889   1.634  15.319 -0.4716  0.1450  0.1424
  598TMC3    O1 8872   4.204   1.926  15.087  0.1934 -0.7077 -1.2752
  598TMC3    O2 8873   3.802   1.609  15.404 -0.3466  0.1611  0.4301
  599MPD2     C 8874   4.616   4.074  16.125 -0.1798  0.1206  0.7458
  599MPD2    C1 8875   4.553   3.948  16.130  0.0830 -0.1117  0.2439
  599MPD2    C2 8876   4.414   3.941  16.144 -0.6100  0.0243  0.6364
  599MPD2    C3 8877   4.339   4.055  16.173  0.0878  0.0310 -0.2339
  599MPD2    C4 8878   4.403   4.174  16.168 -0.2280 -0.4315  0.3021
  599MPD2    C5 8879   4.537   4.185  16.147  0.2471 -0.2608 -0.7200
  599MPD2     H 8880   4.364   3.845  16.143  0.6620 -0.6279  0.3833
  599MPD2    H1 8881   4.357   4.271  16.183  1.0170  0.3042 -0.5608
  599MPD2    H2 8882   4.719   4.093  16.098 -0.8108  1.0914 -0.9734
  599MPD2    H3 8883   4.587   4.281  16.156  2.0767 -1.2641 -0.1911
  599MPD2     N 8884   4.200   4.054  16.208 -0.0903 -0.6207 -0.8887
  599MPD2    H5 8885   4.155   4.145  16.213 -0.7974 -1.0865  1.2457
  599MPD2    N1 8886   4.639   3.836  16.125  0.4650 -0.5108  0.0079
  599MPD2    H7 8887   0.009   3.856  16.160  0.6209  1.5219 -1.5543
  600TMC3    C1 8888   3.993   3.970  16.299 -0.1839  0.1213  0.4814
  600TMC3    C2 8889   3.933   3.859  16.344  0.5514  0.1773 -0.1058
  600TMC3    C3 8890   3.817   3.870  16.413 -0.3578  0.0784  0.0191
  600TMC3    C4 8891   3.953   4.095  16.327 -0.1763  0.1467 -0.4760
  600TMC3    C5 8892   3.852   4.104  16.418 -0.1022 -0.2358 -0.1524
  600TMC3    C6 8893   3.784   3.992  16.464 -0.3940  0.0686 -0.3393
  600TMC3     C 8894   4.126   3.948  16.246 -0.3765  0.1890 -0.0539
  600TMC3     O 8895   4.162   3.831  16.239  0.8141 -0.1911  0.2506
  600TMC3     H 8896   3.971   3.759  16.329  0.8859  0.1545  0.8841
  600TMC3    H1 8897   3.984   4.182  16.270 -1.4830  0.1233 -1.2371
  600TMC3    H2 8898   3.713   4.000  16.546 -0.8719 -1.5641 -0.5817
  600TMC3    C7 8899   3.811   4.230  16.479 -0.9598 -0.3119 -0.4012
  600TMC3    C8 8900   3.778   3.764  16.493 -0.3783 -0.2550  0.4180
  600TMC3    O1 8901   3.738   4.225  16.576 -0.2583  0.7795  0.1731
  600TMC3    O2 8902   3.817   3.766  16.607 -0.6223  0.2214  1.1993
  601MPD2     C 8903   1.888   2.069  17.615  0.5671 -0.1657  0.3559
  601MPD2    C1 8904   1.781   2.018  17.688 -1.0313 -0.1717 -0.9339
  601MPD2    C2 8905   1.801   1.900   0.065 -0.3451 -0.0576  0.4040
  601MPD2    C3 8906   1.924   1.834   0.057  0.4737 -0.4098  0.5480
  601MPD2    C4 8907   2.026   1.883  17.680  0.2518 -0.0687 -0.2912
  601MPD2    C5 8908   2.006   1.999  17.611 -0.0880  0.0306  0.4890
  601MPD2     H 8909   1.708   1.868   0.110 -1.7693  1.7269 -1.2444
  601MPD2    H1 8910   2.123   1.837  17.664  0.4870  0.2574  0.2057
  601MPD2    H2 8911   1.885   2.156  17.551  1.7415 -1.9723 -2.1920
  601MPD2    H3 8912   2.081   2.043  17.546 -1.1745  0.1747 -0.6667
  601MPD2     N 8913   1.946   1.710   0.121 -0.7069  0.0699  0.3622
  601MPD2    H5 8914   2.034   1.666   0.093 -1.3162 -1.1878  0.4306
  601MPD2    N1 8915   1.647   2.066  17.689  0.4985 -0.5041  0.1927
  601MPD2    H7 8916   1.577   2.025   0.054 -0.8871  1.4393 -0.0799
  602TMC3    C1 8917   1.474   2.207  17.620  0.2021  0.4174  0.6203
  602TMC3    C2 8918   1.413   2.249   0.040 -0.0648  0.2181 -0.4434
  602TMC3    C3 8919   1.314   2.346   0.033 -0.0909  0.1002  0.7298
  602TMC3    C4 8920   1.428   2.237  17.498 -0.2488 -0.8318 -0.7583
  602TMC3    C5 8921   1.328   2.321  17.492  0.1278  0.1790 -0.1380
  602TMC3    C6 8922   1.266   2.380  17.604 -0.7245 -0.2279 -0.2021
  602TMC3     C 8923   1.616   2.183  17.624  0.9529 -0.3811 -0.3737
  602TMC3     O 8924   1.680   2.230  17.535  0.3741  0.3381 -0.6460
  602TMC3     H 8925   1.440   2.203   0.134 -1.0003 -0.5899 -0.5715
  602TMC3    H1 8926   1.465   2.176  17.416 -1.1035  0.3442 -2.0129
  602TMC3    H2 8927   1.196   2.462  17.587 -1.7200 -0.2316  3.8477
  602TMC3    C7 8928   1.257   2.332  17.362  0.4362 -0.0892 -0.3487
  602TMC3    C8 8929   1.221   2.355   0.149  0.0212 -0.2779  0.2218
  602TMC3    O1 8930   1.310   2.328  17.251 -0.0273  0.1859  0.4267
  602TMC3    O2 8931   1.252   2.310   0.257 -0.4698 -0.5549  0.1238
  603TMC3    C1 8932   3.891   2.390  10.939 -0.5219 -0.2073  0.1133
  603TMC3    C2 8933   3.943   2.384  11.062 -0.8954  0.1567  0.5860
  603TMC3    C3 8934   4.073   2.424  11.079 -0.7189  0.0383  0.0791
  603TMC3    C4 8935   3.968   2.442  10.832 -0.1105 -0.7048 -0.2414
  603TMC3    C5 8936   4.106   2.457  10.849 -0.0081 -0.1143 -0.0644
  603TMC3    C6 8937   4.156   2.469  10.975  0.4236 -0.3364  0.1855
  603TMC3     C 8938   3.748   2.363  10.914 -0.3148 -0.0387 -0.2116
  603TMC3     O 8939   3.706   2.419  10.814 -0.8987 -0.2247  0.4586
  603TMC3     H 8940   3.891   2.358  11.153 -3.2599 -0.7928 -1.0185
  603TMC3    H1 8941   3.933   2.439  10.729 -2.3086  0.7239  0.4679
  603TMC3    H2 8942   4.264   2.469  10.982  0.4463 -0.8749 -0.1889
  603TMC3    C7 8943   4.186   2.513  10.736  0.5836  0.0285  0.2239
  603TMC3    C8 8944   4.137   2.389  11.204  0.3501 -0.4852  0.2510
  603TMC3    O1 8945   4.310   2.516  10.750  0.2546 -0.8929  0.0917
  603TMC3    O2 8946   4.073   2.317  11.284  0.0638 -0.2431  0.3148
  604MPD2     C 8947   0.365   0.772  16.641  0.1061  0.2816 -0.2032
  604MPD2    C1 8948   0.373   0.890  16.574  0.4712 -1.0647  0.7756
  604MPD2    C2 8949   0.417   0.887  16.442  0.5416 -0.0076 -0.3023
  604MPD2    C3 8950   0.449   0.768  16.378 -0.4362 -1.3916  0.8869
  604MPD2    C4 8951   0.429   0.649  16.445  0.2434 -0.2897 -0.5847
  604MPD2    C5 8952   0.394   0.655  16.580 -0.2135 -0.5742  0.3313
  604MPD2     H 8953   0.451   0.975  16.389 -0.4432 -0.0115 -0.9327
  604MPD2    H1 8954   0.434   0.553  16.397 -3.9200 -0.9048  0.2390
  604MPD2    H2 8955   0.329   0.767  16.743 -1.1653 -0.3681 -0.6823
  604MPD2    H3 8956   0.400   0.567  16.644  0.1360 -2.0891 -1.7860
  604MPD2     N 8957   0.502   0.780  16.250  0.0681 -0.0652 -1.1612
  604MPD2    H5 8958   0.504   0.876  16.216 -0.4695 -0.0757 -1.2169
  604MPD2    N1 8959   0.331   1.003  16.636 -0.6458  0.1832 -0.8951
  604MPD2    H7 8960   0.331   1.004  16.738 -1.2507  1.0758 -0.9053
  605TMC3    C1 8961   0.244   1.218  16.657 -0.2247  0.3401  0.4014
  605TMC3    C2 8962   0.318   1.245  16.769 -0.3001  0.1113 -0.0025
  605TMC3    C3 8963   0.278   1.344  16.850 -0.2925 -0.7104  0.1929
  605TMC3    C4 8964   0.136   1.293  16.615 -0.3676  0.2996 -0.0708
  605TMC3    C5 8965   0.100   1.397  16.698 -0.4841  0.1781 -0.4299
  605TMC3    C6 8966   0.176   1.423  16.810 -0.3219 -0.2847 -0.8310
  605TMC3     C 8967   0.295   1.114  16.566  0.5217  0.4237  0.4458
  605TMC3     O 8968   0.268   1.126  16.454 -0.0294 -0.5332 -0.4374
  605TMC3     H 8969   0.411   1.192  16.789  0.5036  1.8489  0.8533
  605TMC3    H1 8970   0.073   1.262  16.532 -0.2414 -1.5294  0.5233
  605TMC3    H2 8971   0.167   1.513  16.869 -1.0445 -1.3893  0.7262
  605TMC3    C7 8972   4.709   1.482  16.683  0.0385 -0.1000  0.1500
  605TMC3    C8 8973   0.390   1.411  16.906  0.4654  0.1155  0.0403
  605TMC3    O1 8974   4.711   1.584  16.746  0.6624  0.1686 -0.1719
  605TMC3    O2 8975   0.404   1.532  16.888 -0.4392 -0.0875  0.7171
  606TMC3    C1 8976   2.006   3.920   0.953  0.3758  0.1995 -0.0439
  606TMC3    C2 8977   2.093   3.959   0.861  0.5424  0.0987 -0.2169
  606TMC3    C3 8978   2.053   3.939   0.729 -0.2863 -0.0893 -0.1516
  606TMC3    C4 8979   1.882   3.861   0.928 -0.3392 -0.6936  0.0247
  606TMC3    C5 8980   1.847   3.856   0.800 -0.0899  0.3076  0.2227
  606TMC3    C6 8981   1.930   3.893   0.697  0.2058  0.3121  0.4031
  606TMC3     C 8982   2.051   3.918   1.090  0.7162  0.0412  0.7873
  606TMC3     O 8983   1.965   3.879   1.171 -0.5183 -0.1976  0.4577
  606TMC3     H 8984   2.189   4.004   0.881  1.3531 -0.6527 -2.4239
  606TMC3    H1 8985   1.821   3.827   1.010  2.9026 -1.8988  1.9585
  606TMC3    H2 8986   1.912   3.853   0.598  0.6206  2.2977 -0.4885
  606TMC3    C7 8987   1.717   3.823   0.758 -0.0631 -0.2908  0.3017
  606TMC3    C8 8988   2.152   3.968   0.628 -0.7122  0.8646 -0.2964
  606TMC3    O1 8989   1.697   3.781   0.641  0.3999  0.2870 -0.0131
  606TMC3    O2 8990   2.260   4.013   0.657  0.0371 -0.4031  0.3785
  607MPD2     C 8991   3.373   2.534  11.766  0.2606  0.2299  0.0371
  607MPD2    C1 8992   3.488   2.586  11.817 -1.0061 -0.4581 -0.2384
  607MPD2    C2 8993   3.500   2.593  11.952 -0.1384 -0.0523 -0.2031
  607MPD2    C3 8994   3.407   2.530  12.034 -0.2234 -0.4464  0.7719
  607MPD2    C4 8995   3.292   2.475  11.978  0.3047  0.1385 -0.6682
  607MPD2    C5 8996   3.275   2.480  11.843 -0.6369  0.6716 -0.0398
  607MPD2     H 8997   3.585   2.640  11.999 -1.5386  1.5770  0.7367
  607MPD2    H1 8998   3.221   2.417  12.036  1.1758  2.4867  2.7547
  607MPD2    H2 8999   3.351   2.529  11.660  1.5536 -0.1646 -0.2163
  607MPD2    H3 9000   3.186   2.432  11.804  0.6244 -1.7358  0.0284
  607MPD2     N 9001   3.438   2.538  12.168 -0.2069 -0.0002  0.3665
  607MPD2    H5 9002   3.518   2.593  12.197 -0.9476  1.0409  0.4079
  607MPD2    N1 9003   3.593   2.646  11.742 -0.7493  0.1002  0.0711
  607MPD2    H7 9004   3.666   2.697  11.791  0.8445 -0.5142 -1.6552
  608TMC3    C1 9005   3.767   2.684  11.596 -0.1402  0.2867 -0.2470
  608TMC3    C2 9006   3.841   2.690  11.706  0.4173  0.2498  0.3410
  608TMC3    C3 9007   3.970   2.725  11.691 -0.5556 -0.7315  0.4002
  608TMC3    C4 9008   3.811   2.709  11.466 -0.3228 -0.0983  0.6786
  608TMC3    C5 9009   3.942   2.746  11.466  0.3846  0.4108  0.6501
  608TMC3    C6 9010   4.026   2.754  11.569 -0.5319  0.1857  0.1653
  608TMC3     C 9011   3.634   2.632  11.614  0.3412 -0.3711  0.0912
  608TMC3     O 9012   3.575   2.589  11.513  0.2353  0.7186 -0.7782
  608TMC3     H 9013   3.819   2.632  11.795 -0.2022 -0.7554 -0.4702
  608TMC3    H1 9014   3.756   2.696  11.373 -0.0627 -0.1227  0.5271
  608TMC3    H2 9015   4.134   2.768  11.565 -0.3191 -2.4092 -3.1206
  608TMC3    C7 9016   4.005   2.774  11.341  0.8359 -0.3211  1.2691
  608TMC3    C8 9017   4.045   2.753  11.817  0.8955  0.0329 -0.7614
  608TMC3    O1 9018   3.945   2.751  11.238  0.5933  0.4922  0.0272
  608TMC3    O2 9019   4.165   2.763  11.807 -0.1463  0.0466  0.3229
  609TMC3    C1 9020   2.441   1.251   9.401 -0.1206  0.4549 -0.1614
  609TMC3    C2 9021   2.431   1.204   9.275  0.1532  0.2456 -0.2042
  609TMC3    C3 9022   2.499   1.085   9.236 -0.5451  0.1731  0.8279
  609TMC3    C4 9023   2.520   1.192   9.497 -0.3785 -0.0569  0.0498
  609TMC3    C5 9024   2.590   1.083   9.450  0.0102  0.0187 -0.7660
  609TMC3    C6 9025   2.585   1.025   9.320  0.2576  1.1036  0.2119
  609TMC3     C 9026   2.369   1.376   9.427 -0.0436  0.2866  0.5332
  609TMC3     O 9027   2.287   1.407   9.341  0.2979  0.1376 -0.3048
  609TMC3     H 9028   2.386   1.259   9.193 -2.1194 -0.5637  0.5195
  609TMC3    H1 9029   2.524   1.227   9.599  1.5364 -1.4667  0.4532
  609TMC3    H2 9030   2.655   0.948   9.288  0.6047  0.6049  2.1664
  609TMC3    C7 9031   2.674   1.014   9.547  0.5550  0.2136 -0.2261
  609TMC3    C8 9032   2.519   1.061   9.090 -0.3749 -0.4990  0.5093
  609TMC3    O1 9033   2.688   1.069   9.652 -0.4649  0.4530  0.2619
  609TMC3    O2 9034   2.485   1.144   9.006 -0.2410  0.0596 -0.0481
  610TMC3    C1 9035   2.877   3.086  13.609  0.0127  0.1175 -0.4074
  610TMC3    C2 9036   2.920   3.199  13.541 -0.3846 -0.2145 -0.4058
  610TMC3    C3 9037   3.044   3.189  13.484 -0.0693  0.5166  0.0969
  610TMC3    C4 9038   2.961   2.979  13.627 -0.3683 -0.6268 -0.3166
  610TMC3    C5 9039   3.084   2.987  13.568  0.2595 -0.1410 -0.7357
  610TMC3    C6 9040   3.129   3.083  13.482  0.9699  0.7910  0.6285
  610TMC3     C 9041   2.740   3.093  13.656  0.8160  0.1589  0.4745
  610TMC3     O 9042   2.675   3.186  13.605  0.0416 -0.1716  0.0782
  610TMC3     H 9043   2.861   3.289  13.531 -2.5060 -1.4541  1.1358
  610TMC3    H1 9044   2.925   2.885  13.666  0.1379  0.1762  2.1086
  610TMC3    H2 9045   3.229   3.083  13.443 -0.2020  0.3293 -2.3748
  610TMC3    C7 9046   3.188   2.887  13.591 -0.0306  0.6421  0.1856
  610TMC3    C8 9047   3.097   3.306  13.415  0.0316  0.2115  0.6215
  610TMC3    O1 9048   3.254   2.854  13.497  0.0537 -0.6049  0.1727
  610TMC3    O2 9049   3.208   3.293  13.360  0.6314  0.5885  0.2195
  611MPD2     C 9050   3.134   2.679  10.339 -0.0422 -0.4892  0.5920
  611MPD2    C1 9051   3.128   2.766  10.232 -1.1328  0.4130  0.3900
  611MPD2    C2 9052   3.252   2.819  10.179 -0.0029 -0.2750  0.8409
  611MPD2    C3 9053   3.375   2.769  10.227  0.3200  0.3557  0.5212
  611MPD2    C4 9054   3.376   2.684  10.339  0.1010 -0.3983 -0.4604
  611MPD2    C5 9055   3.255   2.645  10.398  0.1657  0.3775 -0.7716
  611MPD2     H 9056   3.250   2.895  10.102  1.4965  0.1663  1.2548
  611MPD2    H1 9057   3.473   2.656  10.379  0.1284 -1.0015 -0.9470
  611MPD2    H2 9058   3.045   2.639  10.387  0.6239 -1.8751  0.6877
  611MPD2    H3 9059   3.254   2.576  10.482  2.6657 -0.8784 -1.7928
  611MPD2     N 9060   3.501   2.807  10.175  0.2613  0.2444 -0.0399
  611MPD2    H5 9061   3.580   2.793  10.236 -0.6025 -0.4316  0.9254
  611MPD2    N1 9062   2.992   2.799  10.191  1.2518 -0.2676 -0.4045
  611MPD2    H7 9063   2.915   2.763  10.247  1.3292 -0.0689 -0.1676
  612TMC3    C1 9064   3.642   2.925  10.038  0.3580  0.4058 -0.6818
  612TMC3    C2 9065   3.753   2.879  10.105  0.2969  0.4333  0.4512
  612TMC3    C3 9066   3.873   2.935  10.082 -0.4912  0.4212 -0.0624
  612TMC3    C4 9067   3.655   3.029   9.956 -0.1889  0.5761 -0.0278
  612TMC3    C5 9068   3.778   3.079   9.926 -0.0701  0.3036 -0.2493
  612TMC3    C6 9069   3.891   3.042   9.994  0.1975 -0.2730 -0.3376
  612TMC3     C 9070   3.517   2.870  10.054 -0.2365 -0.0714 -0.0255
  612TMC3     O 9071   3.432   2.899   9.972  0.3273  0.5295  0.1537
  612TMC3     H 9072   3.741   2.793  10.170  0.4093 -0.4497 -0.6911
  612TMC3    H1 9073   3.566   3.077   9.916  1.3175  1.9253 -1.7523
  612TMC3    H2 9074   3.992   3.066   9.963  0.7505 -0.1435  1.5550
  612TMC3    C7 9075   3.772   3.202   9.862  0.3245  0.4988 -0.3291
  612TMC3    C8 9076   3.992   2.890  10.147 -0.7814  0.2035  0.5348
  612TMC3    O1 9077   3.683   3.223   9.787 -0.4894 -0.3010  0.3007
  612TMC3    O2 9078   4.082   2.976  10.137  0.2068  0.0245 -0.1088
  613MPD2     C 9079   2.682   0.023  16.954 -0.7858 -0.7129  0.7180
  613MPD2    C1 9080   2.650   0.105  16.848  0.0800 -0.3443 -0.4521
  613MPD2    C2 9081   2.571   0.059  16.740  0.0497 -0.3947 -0.0267
  613MPD2    C3 9082   2.542   4.647  16.742 -0.2725 -0.5570 -0.4453
  613MPD2    C4 9083   2.579   4.570  16.843 -0.3154 -0.5043  0.6578
  613MPD2    C5 9084   2.640   4.624  16.955  0.5840  0.0518 -0.0369
  613MPD2     H 9085   2.534   0.127  16.665 -3.5523  0.0992  2.2055
  613MPD2    H1 9086   2.539   4.469  16.846  1.4173 -1.2323 -0.9328
  613MPD2    H2 9087   2.755   0.056  17.027 -0.7750  0.1594  0.3133
  613MPD2    H3 9088   2.664   4.563  17.042  0.8454  1.8530  1.1446
  613MPD2     N 9089   2.494   4.576  16.626  0.5571 -0.2068  0.3518
  613MPD2    H5 9090   2.500   4.475  16.636 -1.4571 -0.3865 -0.3054
  613MPD2    N1 9091   2.676   0.247  16.858 -0.2242  0.0976 -0.4596
  613MPD2    H7 9092   2.699   0.274  16.953 -2.7041  0.2764  0.0817
  614TMC3    C1 9093   2.692   0.324  16.624  0.5827 -0.1332  0.3486
  614TMC3    C2 9094   2.796   0.242  16.590  0.5503  0.4620  1.0300
  614TMC3    C3 9095   2.831   0.219  16.461 -0.3584  0.1055  0.9002
  614TMC3    C4 9096   2.639   0.413  16.528  0.4479 -0.7089 -0.1416
  614TMC3    C5 9097   2.694   0.405  16.400 -0.2137  0.1012  0.2793
  614TMC3    C6 9098   2.783   0.308  16.367 -0.0860  0.7949  0.2215
  614TMC3     C 9099   2.660   0.344  16.764  0.0515 -0.4401  0.1095
  614TMC3     O 9100   2.643   0.465  16.782  0.1559 -0.3659 -0.1143
  614TMC3     H 9101   2.837   0.169  16.659 -1.3486 -1.8453 -0.2393
  614TMC3    H1 9102   2.568   0.489  16.556  1.1528 -1.2531  3.1514
  614TMC3    H2 9103   2.804   0.283  16.264  0.3758 -0.1499  0.5440
  614TMC3    C7 9104   2.622   0.490  16.306 -0.4627 -0.3561  0.0050
  614TMC3    C8 9105   2.862   0.087  16.421 -0.3269 -0.1455  0.5671
  614TMC3    O1 9106   2.545   0.576  16.344 -0.4983 -0.1799 -0.3729
  614TMC3    O2 9107   2.838   4.722  16.500 -0.1848 -0.4526  0.3946
  615MPD2     C 9108   1.308   1.142  16.591 -0.7133 -0.2854 -0.0437
  615MPD2    C1 9109   1.361   1.190  16.469  0.0234 -0.2791 -0.0148
  615MPD2    C2 9110   1.317   1.129  16.348  0.7861  0.0866  0.1794
  615MPD2    C3 9111   1.204   1.049  16.348 -0.1953 -0.2906  0.1365
  615MPD2    C4 9112   1.158   1.002  16.473  0.1991 -0.6153 -1.2924
  615MPD2    C5 9113   1.215   1.042  16.586 -0.4340  0.0339  0.3852
  615MPD2     H 9114   1.369   1.157  16.257  0.9345 -0.0568  0.2201
  615MPD2    H1 9115   1.068   0.945  16.494  0.1776 -0.1667 -0.2017
  615MPD2    H2 9116   1.330   1.181  16.689  1.7088 -0.4369 -0.5206
  615MPD2    H3 9117   1.170   1.008  16.678  0.8147  1.6007  1.5810
  615MPD2     N 9118   1.131   1.039  16.224  0.8811  0.3067 -0.1415
  615MPD2    H5 9119   1.165   1.097  16.148  2.3358  2.6709  2.3455
  615MPD2    N1 9120   1.465   1.295  16.463 -0.3324  0.1470  0.2153
  615MPD2    H7 9121   1.503   1.323  16.373  0.2159  0.4288  0.5438
  616TMC3    C1 9122   1.596   1.477  16.543  0.1901  0.1449 -0.2181
  616TMC3    C2 9123   1.638   1.496  16.411  0.4544  0.8164 -0.6843
  616TMC3    C3 9124   1.756   1.560  16.386  0.5791 -0.4325  0.4455
  616TMC3    C4 9125   1.681   1.519  16.644  0.1431  1.0436  0.1636
  616TMC3    C5 9126   1.800   1.580  16.619 -0.5956 -0.2147  0.2540
  616TMC3    C6 9127   1.836   1.606  16.493  0.0432  0.4014  0.1030
  616TMC3     C 9128   1.508   1.368  16.573  0.7816  0.2609  0.1852
  616TMC3     O 9129   1.463   1.371  16.689  0.6294 -0.2653 -0.0389
  616TMC3     H 9130   1.577   1.461  16.328  2.0990 -0.4493 -1.3567
  616TMC3    H1 9131   1.654   1.490  16.745 -1.7210 -1.5229 -1.0791
  616TMC3    H2 9132   1.928   1.660  16.472  0.5701 -0.0579  1.2565
  616TMC3    C7 9133   1.889   1.607  16.734 -0.1749  0.7105 -0.7464
  616TMC3    C8 9134   1.801   1.575  16.254  0.0896  0.2576  0.5270
  616TMC3    O1 9135   1.846   1.564  16.840  0.0523  0.4101  0.9340
  616TMC3    O2 9136   1.725   1.603  16.166  0.4484 -0.1197 -0.5970
  617MPD2     C 9137   0.055   0.179  14.069 -0.1957  0.0903  0.1015
  617MPD2    C1 9138   0.080   0.077  14.158 -0.4071  0.0997  0.8766
  617MPD2    C2 9139   4.693   0.024  14.232  0.0365 -0.3692  0.3026
  617MPD2    C3 9140   4.565   0.060  14.201  0.1926  0.0220 -0.0377
  617MPD2    C4 9141   4.551   0.175  14.116 -0.3762  0.1076  0.4251
  617MPD2    C5 9142   4.652   0.228  14.046 -0.0305  0.2111  0.2272
  617MPD2     H 9143   4.704   4.675  14.311 -0.0698 -0.4254  0.2666
  617MPD2    H1 9144   4.449   0.207  14.097 -0.3930 -1.0339 -1.4596
  617MPD2    H2 9145   0.139   0.230  14.022 -0.6042  2.2687  1.7525
  617MPD2    H3 9146   4.630   0.310  13.978  0.2381 -0.0949 -0.2286
  617MPD2     N 9147   4.445   0.001  14.253 -0.2882 -0.0902  0.3887
  617MPD2    H5 9148   4.353   0.040  14.233 -0.0300  0.0732 -0.4783
  617MPD2    N1 9149   0.214   0.036  14.179  0.6429 -0.2703 -0.0558
  617MPD2    H7 9150   0.287   0.078  14.122  1.9969 -0.8884  1.2153
  618TMC3    C1 9151   0.393   4.612  14.227  0.6573  0.3328  0.0269
  618TMC3    C2 9152   0.430   4.482  14.206 -0.0115  0.4179 -0.2076
  618TMC3    C3 9153   0.537   4.440  14.135 -0.8757 -0.3285  0.4030
  618TMC3    C4 9154   0.480   4.711  14.186  0.3677 -0.1398  0.2226
  618TMC3    C5 9155   0.599   4.666  14.127 -0.4360  0.1815 -0.5183
  618TMC3    C6 9156   0.624   4.537  14.102  0.5656 -0.4564  0.2275
  618TMC3     C 9157   0.255   4.645  14.245 -0.0157  0.4098  0.0110
  618TMC3     O 9158   0.188   4.561  14.301  0.1638  0.2092  0.3975
  618TMC3     H 9159   0.350   4.412  14.226 -0.7389  0.5712 -2.4800
  618TMC3    H1 9160   0.465   0.093  14.207 -1.3546 -0.5842  1.1829
  618TMC3    H2 9161   0.710   4.518  14.039 -0.1290 -1.2665 -0.4793
  618TMC3    C7 9162   0.628   0.022  14.014  0.7426  0.4288 -0.0028
  618TMC3    C8 9163   0.510   4.335  14.039 -0.1997  0.1500  0.1930
  618TMC3    O1 9164   0.540   0.090  13.970  0.4749 -0.5370  0.3569
  618TMC3    O2 9165   0.396   4.297  14.025  0.1013 -0.1787 -0.2229
  619MPD2     C 9166   1.732   1.785  13.763  0.7983 -0.0179  0.2593
  619MPD2    C1 9167   1.616   1.842  13.712  0.0603 -0.2807 -0.5834
  619MPD2    C2 9168   1.513   1.764  13.656  0.0531  0.4268 -0.0882
  619MPD2    C3 9169   1.526   1.628  13.663  0.5587  0.0153  0.0370
  619MPD2    C4 9170   1.638   1.571  13.723 -0.3101  0.3119  0.5268
  619MPD2    C5 9171   1.737   1.650  13.774  0.1225 -0.6115 -0.3299
  619MPD2     H 9172   1.421   1.809  13.620 -0.9167 -1.3250  0.1662
  619MPD2    H1 9173   1.651   1.464  13.723 -0.0258  0.3436  0.9571
  619MPD2    H2 9174   1.819   1.836  13.802  0.7131 -0.5437  1.1284
  619MPD2    H3 9175   1.829   1.607  13.813  0.5187  1.8656  1.4697
  619MPD2     N 9176   1.421   1.560  13.593  0.5289  0.6160  0.4041
  619MPD2    H5 9177   1.349   1.619  13.552  1.7623  2.4082  0.8110
  619MPD2    N1 9178   1.599   1.977  13.720 -0.1474 -0.5060 -0.5147
  619MPD2    H7 9179   1.503   2.002  13.698  0.0789  1.4513  0.6919
  620TMC3    C1 9180   1.624   2.184  13.800  0.1793 -0.7117 -0.3543
  620TMC3    C2 9181   1.546   2.234  13.698  0.5936 -0.0764  0.0770
  620TMC3    C3 9182   1.453   2.334  13.724  0.3174 -0.3474 -0.0170
  620TMC3    C4 9183   1.595   2.221  13.933  0.7434  0.2971 -0.3322
  620TMC3    C5 9184   1.507   2.319  13.953  0.3944  0.8689  0.8320
  620TMC3    C6 9185   1.436   2.382  13.853 -0.2825 -0.7857 -0.4910
  620TMC3     C 9186   1.689   2.059  13.781  0.2161 -0.0079  0.4322
  620TMC3     O 9187   1.806   2.044  13.811  0.0066  0.7720  0.6067
  620TMC3     H 9188   1.573   2.198  13.599 -1.0079  1.6355 -0.9774
  620TMC3    H1 9189   1.636   2.157  14.011 -0.1555  0.9452  0.6745
  620TMC3    H2 9190   1.383   2.471  13.884 -1.2285 -2.0426  1.4948
  620TMC3    C7 9191   1.420   2.293  14.071  0.3160  0.0727 -0.5409
  620TMC3    C8 9192   1.328   2.298  13.666 -0.6094 -0.0838  0.0762
  620TMC3    O1 9193   1.456   2.243  14.173  0.1823  0.1081  0.0054
  620TMC3    O2 9194   1.242   2.287  13.751 -0.5615  0.2738  0.3921
  621MPD2     C 9195   1.796   0.567  10.064 -0.2678 -0.2274  0.3601
  621MPD2    C1 9196   1.905   0.584  10.152  0.3983  1.1762  0.0185
  621MPD2    C2 9197   1.947   0.706  10.181 -0.4215  0.2624  0.5812
  621MPD2    C3 9198   1.885   0.822  10.125  0.0191  0.5191 -0.2229
  621MPD2    C4 9199   1.783   0.801  10.036 -0.2806  0.6403 -0.3765
  621MPD2    C5 9200   1.738   0.675  10.005  0.5954 -0.6985  0.3610
  621MPD2     H 9201   2.029   0.719  10.251  1.1124 -1.5834 -0.8849
  621MPD2    H1 9202   1.735   0.881   9.981 -0.2208 -1.7167 -3.8157
  621MPD2    H2 9203   1.759   0.467  10.043  1.9187 -1.2166  1.2484
  621MPD2    H3 9204   1.662   0.662   9.928 -1.1022  0.4000  1.8278
  621MPD2     N 9205   1.938   0.951  10.159 -0.3056  0.1990  0.4661
  621MPD2    H5 9206   2.011   0.954  10.229 -1.4143 -1.3331  1.7051
  621MPD2    N1 9207   1.971   0.476  10.217  0.6975  0.1574  0.1152
  621MPD2    H7 9208   2.059   0.495  10.263  1.1865  0.1173 -0.7988
  622TMC3    C1 9209   2.034   0.262  10.299 -0.4650 -0.0131  0.3334
  622TMC3    C2 9210   2.109   0.334  10.391 -1.2756 -0.2418 -0.2307
  622TMC3    C3 9211   2.126   0.285  10.517 -0.2433 -0.2257 -0.2756
  622TMC3    C4 9212   1.998   0.137  10.326 -0.4864  0.3425 -0.6484
  622TMC3    C5 9213   2.008   0.091  10.453 -0.0027 -0.5820 -0.2805
  622TMC3    C6 9214   2.077   0.165  10.543  0.3326  0.6274  0.3765
  622TMC3     C 9215   1.948   0.339  10.205 -0.1620  0.3306  0.4826
  622TMC3     O 9216   1.858   0.281  10.140  0.1137 -0.0028 -0.2011
  622TMC3     H 9217   2.155   0.430  10.368  0.2443 -0.6923  0.8733
  622TMC3    H1 9218   1.925   0.090  10.261 -1.1354  0.0638  0.2688
  622TMC3    H2 9219   2.092   0.127  10.643 -1.8309  0.0896  0.4993
  622TMC3    C7 9220   1.968   4.684  10.498  0.4866  0.1687  0.1842
  622TMC3    C8 9221   2.113   0.383  10.625 -0.8299  0.1083 -0.0994
  622TMC3    O1 9222   1.965   4.659  10.619  0.8132 -0.2882 -0.0460
  622TMC3    O2 9223   2.179   0.378  10.724 -0.2514 -0.2398 -0.2657
  623MPD2     C 9224   0.836   2.163  16.126 -0.4056  0.1276 -0.2293
  623MPD2    C1 9225   0.797   2.030  16.143  0.4411 -0.2035  0.5963
  623MPD2    C2 9226   0.830   1.974  16.264 -0.6452 -0.3258  0.3419
  623MPD2    C3 9227   0.897   2.041  16.366 -0.1820  0.1521  0.6648
  623MPD2    C4 9228   0.943   2.173  16.347  0.3563 -0.8044  0.4492
  623MPD2    C5 9229   0.902   2.232  16.227 -0.2434 -0.2371  0.0530
  623MPD2     H 9230   0.803   1.870  16.270 -0.6182 -0.2703  1.3174
  623MPD2    H1 9231   0.998   2.233  16.418  1.2846 -1.3239  0.1638
  623MPD2    H2 9232   0.818   2.208  16.029  0.0400 -0.7578 -0.7255
  623MPD2    H3 9233   0.935   2.334  16.212  1.3852 -1.0279 -1.8547
  623MPD2     N 9234   0.938   1.970  16.480  0.0481 -0.0942  0.4379
  623MPD2    H5 9235   0.892   1.881  16.494 -0.3219 -0.1648 -1.2504
  623MPD2    N1 9236   0.731   1.954  16.046  0.4396  1.0142  0.2339
  623MPD2    H7 9237   0.717   1.856  16.069  1.4021  0.8820  0.2359
  624TMC3    C1 9238   1.204   1.769  16.788  0.1562 -0.4114 -0.3486
  624TMC3    C2 9239   1.105   1.708  16.854 -0.6210  0.0112 -0.6821
  624TMC3    C3 9240   0.979   1.746  16.819  0.6876 -0.6335  0.0907
  624TMC3    C4 9241   1.182   1.873  16.703  0.1254 -0.1124 -0.3764
  624TMC3    C5 9242   1.057   1.909  16.674 -0.4046 -0.0249 -0.5504
  624TMC3    C6 9243   0.954   1.838  16.722 -0.2982 -0.0890 -0.5950
  624TMC3     C 9244   1.338   1.723  16.830 -0.1823  0.0448  0.1586
  624TMC3     O 9245   1.345   1.654  16.933  0.4245  0.2316 -0.6987
  624TMC3     H 9246   1.122   1.644  16.940  0.0092  0.9027 -0.1388
  624TMC3    H1 9247   1.258   1.934  16.655 -0.5703 -1.1634 -2.7997
  624TMC3    H2 9248   0.856   1.883  16.711 -2.0089 -3.3274  1.4502
  624TMC3    C7 9249   1.029   2.012  16.569 -0.1957 -0.1322  0.4390
  624TMC3    C8 9250   0.874   1.652  16.841 -0.7771 -0.7789 -0.1769
  624TMC3    O1 9251   1.107   2.104  16.571  0.7235 -0.7893  0.4954
  624TMC3    O2 9252   0.770   1.663  16.786  0.4801 -0.4041 -0.5161
  625MPD2     C 9253   1.236   2.364   0.864 -0.2453 -0.3391 -0.1616
  625MPD2    C1 9254   1.263   2.492   0.905  0.7396  0.3630  0.2839
  625MPD2    C2 9255   1.353   2.518   1.005  0.7695  0.0286 -0.2648
  625MPD2    C3 9256   1.418   2.414   1.072  0.1156 -0.2649  0.3569
  625MPD2    C4 9257   1.394   2.286   1.028 -0.3893  0.1665 -0.0553
  625MPD2    C5 9258   1.302   2.260   0.925  0.3491  0.2375  0.4700
  625MPD2     H 9259   1.383   2.619   1.030  0.6796  0.0986 -0.4368
  625MPD2    H1 9260   1.429   2.197   1.079 -2.0655  0.0579  0.9144
  625MPD2    H2 9261   1.163   2.336   0.788 -1.2081  1.7020  0.0084
  625MPD2    H3 9262   1.274   2.159   0.899 -0.5463  0.5449  0.2346
  625MPD2     N 9263   1.499   2.444   1.186 -0.7484 -0.1751  0.1016
  625MPD2    H5 9264   1.496   2.540   1.220 -0.7058  0.7712 -2.5619
  625MPD2    N1 9265   1.203   2.605   0.840  1.3597  0.7015 -0.6839
  625MPD2    H7 9266   1.232   2.698   0.870 -3.3216  2.2323 -0.9634
  626TMC3    C1 9267   1.063   2.740   0.711  0.1185 -0.4664 -0.0673
  626TMC3    C2 9268   1.005   2.763   0.590 -0.0634  0.4973 -0.3644
  626TMC3    C3 9269   0.969   2.890   0.562 -0.5653 -0.2303  0.1929
  626TMC3    C4 9270   1.086   2.844   0.797  0.0525  0.4656  0.4447
  626TMC3    C5 9271   1.045   2.971   0.762  0.2985  1.0176  1.4963
  626TMC3    C6 9272   0.979   2.994   0.645  0.3849 -0.0243  0.0742
  626TMC3     C 9273   1.119   2.608   0.734 -0.5539 -0.4808 -0.1636
  626TMC3     O 9274   1.076   2.518   0.659  0.2915 -0.3013 -0.9437
  626TMC3     H 9275   0.991   2.679   0.523 -2.6204  0.4725  0.1987
  626TMC3    H1 9276   1.116   2.825   0.899  0.9991 -0.2062  0.0377
  626TMC3    H2 9277   0.935   3.093   0.634 -0.1751 -0.3699 -0.7980
  626TMC3    C7 9278   1.032   3.051   0.877  0.4578 -0.4792 -1.0174
  626TMC3    C8 9279   0.904   2.926   0.436 -0.2651  0.3822 -0.0199
  626TMC3    O1 9280   1.136   3.080   0.932 -0.5524 -0.0059  0.0665
  626TMC3    O2 9281   0.923   3.041   0.396 -0.3031 -0.4632  0.9507
  627MPD2     C 9282   4.309   3.478  14.221  0.3818  0.3573 -0.5454
  627MPD2    C1 9283   4.286   3.472  14.358  0.0805  0.2925 -0.0769
  627MPD2    C2 9284   4.180   3.405  14.403 -0.1783 -0.1599  0.2595
  627MPD2    C3 9285   4.098   3.331  14.317  0.3438 -0.2557  0.2621
  627MPD2    C4 9286   4.114   3.345  14.180  0.1624 -0.1246 -0.0767
  627MPD2    C5 9287   4.218   3.422  14.134  0.4628  1.3108 -0.2781
  627MPD2     H 9288   4.165   3.399  14.510 -0.3366 -1.4729  0.1682
  627MPD2    H1 9289   4.053   3.302  14.103 -2.2148 -1.0886  2.3551
  627MPD2    H2 9290   4.375   3.557  14.188  0.7500  0.9899  1.7169
  627MPD2    H3 9291   4.229   3.427  14.027  0.0260 -2.7930 -0.5420
  627MPD2     N 9292   3.991   3.254  14.378  0.2671  0.0973  0.8659
  627MPD2    H5 9293   3.978   3.257  14.478  0.6430 -4.6557  1.0821
  627MPD2    N1 9294   4.376   3.529  14.449 -0.1006 -0.3175 -0.0317
  627MPD2    H7 9295   4.352   3.522  14.548  0.3910  0.1489  0.1195
  628TMC3    C1 9296   4.587   3.578  14.540 -0.1133  0.1045 -0.7096
  628TMC3    C2 9297   4.712   3.523  14.522  0.3716 -0.5649 -0.2061
  628TMC3    C3 9298   0.084   3.560  14.608 -0.6281  0.1052 -0.2410
  628TMC3    C4 9299   4.571   3.685  14.626  0.7013 -0.2890  0.2962
  628TMC3    C5 9300   4.670   3.724  14.709  0.1039 -0.6421 -0.2599
  628TMC3    C6 9301   0.060   3.644  14.710 -0.0286 -0.2858  0.4537
  628TMC3     C 9302   4.506   3.566  14.419  0.0836  0.3543  0.4301
  628TMC3     O 9303   4.564   3.571  14.312 -0.7352  0.1849  0.2391
  628TMC3     H 9304   0.001   3.454  14.439 -0.3208 -0.6226 -0.2650
  628TMC3    H1 9305   4.475   3.734  14.613  0.7936 -0.6307 -1.6942
  628TMC3    H2 9306   0.144   3.686  14.765  0.8080  0.2166 -1.1938
  628TMC3    C7 9307   4.655   3.838  14.793  0.4720  0.0244  0.2578
  628TMC3    C8 9308   0.197   3.469  14.617 -0.1446 -0.3095 -0.2652
  628TMC3    O1 9309   0.005   3.846  14.887 -0.1059 -0.5097  0.2764
  628TMC3    O2 9310   0.212   3.397  14.520 -0.0064 -0.4486  0.3296
  629MPD2     C 9311   2.215   1.685  15.970 -1.0330 -0.5336 -0.1950
  629MPD2    C1 9312   2.255   1.627  16.088 -0.3106 -1.3566 -0.5012
  629MPD2    C2 9313   2.158   1.569  16.174 -0.3636  0.2785  0.1817
  629MPD2    C3 9314   2.029   1.581  16.145 -0.1682 -0.5318 -0.2118
  629MPD2    C4 9315   1.985   1.643  16.029 -0.6054 -0.1848  0.6803
  629MPD2    C5 9316   2.079   1.698  15.941  0.7917  0.7599  0.6303
  629MPD2     H 9317   2.184   1.535  16.274  1.8277 -0.2312 -0.5517
  629MPD2    H1 9318   1.881   1.656  15.999 -0.3965  0.3728  0.1936
  629MPD2    H2 9319   2.294   1.726  15.908 -1.1021 -0.1840 -0.0503
  629MPD2    H3 9320   2.050   1.753  15.853  1.5669  0.0546 -0.0733
  629MPD2     N 9321   1.937   1.545  16.247 -0.0297 -0.0443  0.5259
  629MPD2    H5 9322   1.979   1.490  16.322  0.9013  0.1238  0.1264
  629MPD2    N1 9323   2.388   1.646  16.123 -0.6581 -0.3039 -0.7726
  629MPD2    H7 9324   2.433   1.726  16.080  1.3976  0.3227  2.5137
  630TMC3    C1 9325   2.578   1.606  16.266  0.3872 -0.1753 -0.7101
  630TMC3    C2 9326   2.673   1.645  16.178 -0.1263 -1.0131 -0.3874
  630TMC3    C3 9327   2.798   1.666  16.229 -0.8105 -0.2557  0.0516
  630TMC3    C4 9328   2.604   1.569  16.392  0.5373  0.2235 -0.3552
  630TMC3    C5 9329   2.728   1.603  16.440  0.2061 -0.7620 -0.1336
  630TMC3    C6 9330   2.831   1.643  16.356  0.7148  0.0613 -0.0809
  630TMC3     C 9331   2.448   1.566  16.222 -1.0713  0.7981 -0.1949
  630TMC3     O 9332   2.406   1.474  16.293  0.1003  0.1671  0.2183
  630TMC3     H 9333   2.654   1.660  16.072 -1.1415  0.1520 -0.0361
  630TMC3    H1 9334   2.528   1.544  16.465  1.1306  0.7073  0.4210
  630TMC3    H2 9335   2.930   1.671  16.389  0.4044 -0.8131  1.5896
  630TMC3    C7 9336   2.765   1.593  16.582 -0.0803 -0.3780  0.2145
  630TMC3    C8 9337   2.893   1.757  16.162  0.0748 -0.5250 -0.5064
  630TMC3    O1 9338   2.886   1.591  16.609  0.6526 -0.0449 -0.2945
  630TMC3    O2 9339   3.009   1.758  16.202 -0.2740 -0.2081 -0.0668
  631MPD2     C 9340   1.074   1.816  16.106 -0.0932  0.2434 -0.3887
  631MPD2    C1 9341   1.044   1.789  15.976 -0.3456 -0.3062  0.4079
  631MPD2    C2 9342   0.987   1.664  15.942 -0.1573  0.7338 -0.3015
  631MPD2    C3 9343   0.951   1.567  16.033  0.6554  0.1919  0.0266
  631MPD2    C4 9344   0.960   1.602  16.160  0.0415  0.0137 -0.2699
  631MPD2    C5 9345   1.023   1.724  16.198 -0.3822  0.3662 -0.4374
  631MPD2     H 9346   0.968   1.641  15.838  2.0381 -0.3451 -0.4676
  631MPD2    H1 9347   0.928   1.543  16.245  0.4598 -0.5556 -0.5021
  631MPD2    H2 9348   1.114   1.910  16.144 -2.6753  0.6013  1.4294
  631MPD2    H3 9349   1.028   1.748  16.304 -1.9565  2.1723 -0.7624
  631MPD2     N 9350   0.906   1.442  15.991 -0.1763 -0.0716  0.3255
  631MPD2    H5 9351   0.903   1.428  15.891  0.5779 -0.6395  0.3841
  631MPD2    N1 9352   1.066   1.899  15.887 -0.2489  0.1424  0.6229
  631MPD2    H7 9353   1.096   1.982  15.936 -0.3743  0.6432 -0.1540
  632TMC3    C1 9354   1.071   2.031  15.697  0.1544  0.8165 -0.0713
  632TMC3    C2 9355   1.017   2.146  15.746  0.3690  0.1070  0.3303
  632TMC3    C3 9356   1.044   2.258  15.679 -0.8091 -0.8257  0.0962
  632TMC3    C4 9357   1.149   2.031  15.585 -0.3831  0.5132  0.1166
  632TMC3    C5 9358   1.179   2.154  15.524 -0.0601 -0.0988  0.3830
  632TMC3    C6 9359   1.127   2.271  15.570 -0.3781  0.3222 -0.2945
  632TMC3     C 9360   1.034   1.903  15.753 -0.8501 -0.7074  0.2821
  632TMC3     O 9361   1.025   1.809  15.679 -0.4429  0.3666  0.0406
  632TMC3     H 9362   0.963   2.153  15.840  2.5777 -0.4965  1.6455
  632TMC3    H1 9363   1.174   1.934  15.544  0.4241 -0.3306  2.6233
  632TMC3    H2 9364   1.145   2.357  15.506  0.4529  0.3163 -0.0732
  632TMC3    C7 9365   1.258   2.157  15.405 -0.4766  0.4962  0.5617
  632TMC3    C8 9366   0.950   2.356  15.727  0.9463  0.7701 -0.1073
  632TMC3    O1 9367   1.262   2.265  15.350  0.4126  0.0813  0.4119
  632TMC3    O2 9368   0.944   2.381  15.844 -0.0347  0.2220  0.2961
  633MPD2     C 9369   0.681   4.440   0.159 -0.7055  0.2239  0.2724
  633MPD2    C1 9370   0.750   4.358   0.072  0.1551 -0.1612  0.6241
  633MPD2    C2 9371   0.782   4.229   0.105  0.4632 -0.0927  0.3608
  633MPD2    C3 9372   0.758   4.184   0.236 -0.4480 -0.6244  0.2070
  633MPD2    C4 9373   0.688   4.267   0.323  0.5940 -0.3849 -0.0819
  633MPD2    C5 9374   0.652   4.394   0.285 -0.3172 -0.4257 -0.2357
  633MPD2     H 9375   0.844   4.175   0.034 -0.6313  1.6197 -1.8721
  633MPD2    H1 9376   0.655   4.222   0.416  0.4575 -0.7183 -0.2934
  633MPD2    H2 9377   0.653   4.540   0.126  0.9304  0.8694  0.8387
  633MPD2    H3 9378   0.607   4.466   0.352  1.6903  1.3510 -0.7990
  633MPD2     N 9379   0.799   4.056   0.281  0.0672  0.2590  0.1088
  633MPD2    H5 9380   0.777   4.042   0.379 -2.8910 -0.7353 -0.7061
  633MPD2    N1 9381   0.778   4.395  17.636  0.3381 -0.1015  0.2990
  633MPD2    H7 9382   0.809   4.321  17.573 -1.0877 -0.5166  0.0794
  634TMC3    C1 9383   0.796   4.505  17.430  0.5039 -0.1493  0.5505
  634TMC3    C2 9384   0.829   4.388  17.366  0.1762  0.5060  0.6316
  634TMC3    C3 9385   0.883   4.405  17.241  0.0198 -0.1363 -0.0953
  634TMC3    C4 9386   0.818   4.629  17.377 -0.0384 -0.1379 -1.0192
  634TMC3    C5 9387   0.872   4.631  17.249  0.1012 -0.0754  0.5941
  634TMC3    C6 9388   0.907   4.521  17.182  0.5692 -1.0482  0.3795
  634TMC3     C 9389   0.747   4.508  17.568 -0.3010  0.6725 -0.6775
  634TMC3     O 9390   0.700   4.611  17.614  0.4124 -0.1848  0.4227
  634TMC3     H 9391   0.825   4.287  17.403  2.1337  0.7858  1.6129
  634TMC3    H1 9392   0.792   0.000  17.423  1.9879  1.1067 -2.4051
  634TMC3    H2 9393   0.965   4.537  17.092 -0.4051  1.3993  0.1781
  634TMC3    C7 9394   0.894   0.034  17.170  0.4349 -0.4254  0.6084
  634TMC3    C8 9395   0.942   4.281  17.185  0.4344 -0.1917  0.6484
  634TMC3    O1 9396   0.909   0.028  17.049  0.3317  0.1323  0.4924
  634TMC3    O2 9397   0.961   4.193  17.264  0.1405  0.0506  0.5203
  635TMC3    C1 9398   2.012   0.568  17.671  0.4184 -0.5698  0.3510
  635TMC3    C2 9399   2.114   0.501   0.029  0.3585  0.4693 -0.6537
  635TMC3    C3 9400   2.107   0.374   0.054 -0.2467 -0.4070  0.2825
  635TMC3    C4 9401   1.885   0.514  17.649  0.0887 -0.1141  0.1837
  635TMC3    C5 9402   1.867   0.384  17.687 -0.7001 -0.4300 -0.2914
  635TMC3    C6 9403   1.980   0.320   0.048  0.6644  0.0032  0.6028
  635TMC3     C 9404   2.023   0.713  17.659  0.6500  0.3307  0.1149
  635TMC3     O 9405   2.111   0.772   0.027 -0.2132 -0.1828 -0.4577
  635TMC3     H 9406   2.206   0.558   0.031  0.3916  0.4750 -2.2290
  635TMC3    H1 9407   1.802   0.574  17.613  0.4001  1.0085  1.3342
  635TMC3    H2 9408   1.961   0.227   0.102 -1.8413 -0.2064 -0.6380
  635TMC3    C7 9409   1.731   0.333   0.005 -0.0316 -0.1264  0.2415
  635TMC3    C8 9410   2.210   0.320   0.141  0.2587  0.0441  0.7097
  635TMC3    O1 9411   1.645   0.410  17.653 -0.0632  0.3528  0.1535
  635TMC3    O2 9412   2.291   0.391   0.203 -0.5161 -0.0261  0.1317
  636MPD2     C 9413   2.110   0.243  15.818 -0.0873 -0.5932  0.6225
  636MPD2    C1 9414   2.148   0.285  15.941 -0.2201  0.1637  0.3392
  636MPD2    C2 9415   2.212   0.200  16.024 -0.7163 -0.3577 -0.5346
  636MPD2    C3 9416   2.241   0.073  15.985  0.4319 -0.2644 -0.3931
  636MPD2    C4 9417   2.202   0.028  15.863  0.4426 -0.2025  0.7571
  636MPD2    C5 9418   2.143   0.118  15.776  0.0141 -0.1049  0.6915
  636MPD2     H 9419   2.243   0.240  16.120  0.6384 -0.8854 -0.7574
  636MPD2    H1 9420   2.216   4.648  15.837 -0.9057  0.1352 -1.2785
  636MPD2    H2 9421   2.056   0.307  15.749  1.3164  0.7839  0.7779
  636MPD2    H3 9422   2.112   0.086  15.677 -1.0678  0.3686  0.8724
  636MPD2     N 9423   2.313   4.719  16.078 -0.5445  0.5641  0.2554
  636MPD2    H5 9424   2.333   0.038  16.167  0.8276  0.0429  0.1956
  636MPD2    N1 9425   2.125   0.415  15.995 -0.3379 -0.3799 -1.0091
  636MPD2    H7 9426   2.172   0.429  16.084 -3.7616  1.8615  0.4377
  637TMC3    C1 9427   2.437   4.538  16.167  0.4146  0.1812  0.6546
  637TMC3    C2 9428   2.393   4.590  16.286  0.3789 -0.2439  0.2896
  637TMC3    C3 9429   2.450   4.538  16.397  0.3120  1.0176 -0.3463
  637TMC3    C4 9430   2.530   4.435  16.156  0.1357  0.9380 -0.6031
  637TMC3    C5 9431   2.586   4.397  16.276 -0.1548  0.1346  1.0624
  637TMC3    C6 9432   2.549   4.443  16.398 -0.3399 -0.1665  0.3613
  637TMC3     C 9433   2.357   4.585  16.057 -0.0063 -0.5332  0.2755
  637TMC3     O 9434   2.318   4.506  15.972 -1.2535 -0.6758 -0.3876
  637TMC3     H 9435   2.308   4.656  16.298  0.0805 -0.7363  0.8716
  637TMC3    H1 9436   2.568   4.393  16.064 -0.4941 -1.4998  0.2407
  637TMC3    H2 9437   2.592   4.395  16.486  1.6486  1.5055  0.2779
  637TMC3    C7 9438   2.699   4.305  16.271  0.1021  0.6306  0.2072
  637TMC3    C8 9439   2.447   4.631  16.506 -0.2401  0.1299  0.2933
  637TMC3    O1 9440   2.680   4.196  16.325  0.1801  0.1293  0.5882
  637TMC3    O2 9441   2.425   0.022  16.470 -0.2421  0.3187 -0.3199
  638MPD2     C 9442   1.813   4.187  15.284 -0.1419  0.6021  0.1346
  638MPD2    C1 9443   1.725   4.123  15.202 -0.0598  0.6687  0.3873
  638MPD2    C2 9444   1.680   3.998  15.240 -0.3224  0.0698 -0.1032
  638MPD2    C3 9445   1.723   3.940  15.351 -0.1844  0.5234 -0.9967
  638MPD2    C4 9446   1.808   4.009  15.433 -0.6792 -0.2998  0.0628
  638MPD2    C5 9447   1.848   4.134  15.401 -0.0831  0.6597 -0.4212
  638MPD2     H 9448   1.623   3.936  15.172  1.1821 -0.1055 -1.2197
  638MPD2    H1 9449   1.853   3.965  15.521 -0.2308 -0.3702 -0.2018
  638MPD2    H2 9450   1.844   4.288  15.258  1.8746 -0.3465 -1.1820
  638MPD2    H3 9451   1.922   4.185  15.461  0.1793 -1.2703  0.9118
  638MPD2     N 9452   1.682   3.807  15.367 -0.0724 -0.2798  0.7489
  638MPD2    H5 9453   1.635   3.759  15.290  0.8529  1.1784 -0.7276
  638MPD2    N1 9454   1.686   4.182  15.076 -0.2736  0.1550 -0.3665
  638MPD2    H7 9455   1.742   4.263  15.052 -0.4395  0.0967 -0.9594
  639TMC3    C1 9456   1.662   3.599  15.477 -0.3255  0.2552 -0.6258
  639TMC3    C2 9457   1.530   3.581  15.433  0.6512 -0.7736 -0.1386
  639TMC3    C3 9458   1.483   3.456  15.449  0.2998  1.0834  0.6388
  639TMC3    C4 9459   1.725   3.502  15.543 -0.6418  0.1599  0.0951
  639TMC3    C5 9460   1.664   3.381  15.562 -0.0123 -0.0197 -0.8746
  639TMC3    C6 9461   1.547   3.356  15.510 -0.4784  0.1791  0.7418
  639TMC3     C 9462   1.713   3.733  15.480  0.0186 -0.3332 -0.9230
  639TMC3     O 9463   1.773   3.753  15.586  0.0662 -0.0776 -0.2423
  639TMC3     H 9464   1.478   3.655  15.373 -0.5287 -0.7199  0.9707
  639TMC3    H1 9465   1.823   3.521  15.586 -0.6908  0.4198  0.0925
  639TMC3    H2 9466   1.512   3.254  15.510 -1.0791  0.3848  0.6914
  639TMC3    C7 9467   1.741   3.262  15.605 -0.0948  0.3723 -0.6108
  639TMC3    C8 9468   1.376   3.419  15.359  0.1645 -0.5623  0.6959
  639TMC3    O1 9469   1.681   3.180  15.672 -0.0451 -0.2336  0.0803
  639TMC3    O2 9470   1.385   3.462  15.243  0.7120 -0.5245 -0.0923
  640MPD2     C 9471   3.159   2.349   9.937 -0.6407  0.3423 -0.2566
  640MPD2    C1 9472   3.026   2.338   9.911  0.1721 -0.4085 -0.3310
  640MPD2    C2 9473   2.958   2.451   9.880  0.0422 -0.2712 -0.0002
  640MPD2    C3 9474   3.018   2.579   9.865  0.1035  1.2143  0.5611
  640MPD2    C4 9475   3.143   2.588   9.899 -0.1182 -0.6253 -0.4356
  640MPD2    C5 9476   3.211   2.475   9.938 -0.6047 -0.5979  0.0180
  640MPD2     H 9477   2.855   2.435   9.852 -0.2918  0.1687  0.9653
  640MPD2    H1 9478   3.205   2.676   9.884 -0.1874 -0.5122 -0.0640
  640MPD2    H2 9479   3.224   2.266   9.964 -0.5215  0.2538 -0.8284
  640MPD2    H3 9480   3.316   2.469   9.966 -0.5240  1.5726  0.2075
  640MPD2     N 9481   2.953   2.688   9.805 -0.4739 -0.8934 -0.4112
  640MPD2    H5 9482   3.013   2.765   9.777  0.8883 -1.9432 -0.3504
  640MPD2    N1 9483   2.962   2.205   9.911  0.2805 -0.4902 -0.2939
  640MPD2    H7 9484   3.024   2.130   9.940  0.4723  0.0131  0.5933
  641TMC3    C1 9485   2.820   2.033   9.818 -0.3358  0.5247  0.1432
  641TMC3    C2 9486   2.870   1.931   9.898  0.3515  0.0944 -0.3592
  641TMC3    C3 9487   2.882   1.801   9.847  1.2327  0.1099 -0.6202
  641TMC3    C4 9488   2.784   2.002   9.693  0.4626 -0.7003  0.1020
  641TMC3    C5 9489   2.789   1.876   9.640  0.5891  0.0514  0.5718
  641TMC3    C6 9490   2.848   1.777   9.717 -1.0176 -0.1597 -0.7825
  641TMC3     C 9491   2.844   2.175   9.846 -0.5862  1.3034 -1.1641
  641TMC3     O 9492   2.779   2.248   9.769 -0.2377  0.6168 -0.1459
  641TMC3     H 9493   2.882   1.954  10.003  1.3261  1.0217 -0.6785
  641TMC3    H1 9494   2.764   2.081   9.622 -1.4202  0.7988  2.2699
  641TMC3    H2 9495   2.851   1.675   9.680 -0.2481 -1.2290  2.2737
  641TMC3    C7 9496   2.735   1.859   9.511 -0.1321 -0.1552 -1.0788
  641TMC3    C8 9497   2.921   1.694   9.937 -0.3983 -0.6663 -0.0095
  641TMC3    O1 9498   2.675   1.954   9.467  0.1909  0.7808 -0.5852
  641TMC3    O2 9499   2.889   1.586   9.891  0.5489 -0.3822 -0.3026
  642TMC3    C1 9500   3.568   3.554  12.400 -1.0995 -0.2387 -0.1821
  642TMC3    C2 9501   3.668   3.518  12.481  0.2010  0.9116  0.6586
  642TMC3    C3 9502   3.671   3.392  12.525 -0.2832 -0.1644 -0.0365
  642TMC3    C4 9503   3.464   3.467  12.367  0.2851 -0.2990 -0.0683
  642TMC3    C5 9504   3.467   3.338  12.424 -0.6302 -0.2845 -0.5479
  642TMC3    C6 9505   3.578   3.300  12.499 -0.2328 -1.1110  0.0154
  642TMC3     C 9506   3.553   3.699  12.408 -0.1875 -1.1788 -0.1104
  642TMC3     O 9507   3.653   3.770  12.395  0.3599  0.0137  1.1374
  642TMC3     H 9508   3.738   3.591  12.518  1.7544 -1.0688  1.6506
  642TMC3    H1 9509   3.391   3.504  12.295  0.0093 -0.7788 -0.0361
  642TMC3    H2 9510   3.597   3.204  12.546 -0.0111 -2.1136 -2.0816
  642TMC3    C7 9511   3.384   3.234  12.369  0.8744  0.1619  0.0389
  642TMC3    C8 9512   3.800   3.351  12.580 -0.0059  0.2236  0.0110
  642TMC3    O1 9513   3.340   3.260  12.257  0.4440  1.0181 -0.4123
  642TMC3    O2 9514   3.798   3.284  12.686  0.3592  0.1991 -0.4522
  643TMC3    C1 9515   2.960   2.997   0.737  0.2073  0.5192  0.3874
  643TMC3    C2 9516   2.825   3.006   0.722 -0.5611 -0.0502  0.6557
  643TMC3    C3 9517   2.767   2.932   0.622 -0.1496 -0.1677  0.5010
  643TMC3    C4 9518   3.043   2.924   0.659 -0.2043  0.1317  0.6774
  643TMC3    C5 9519   2.984   2.853   0.555  0.0817  0.8781 -0.7564
  643TMC3    C6 9520   2.845   2.864   0.537  0.0656 -0.0566 -0.4948
  643TMC3     C 9521   3.016   3.090   0.837 -0.7970 -0.6511 -0.5775
  643TMC3     O 9522   2.949   3.192   0.861  0.6706 -0.2470  0.4877
  643TMC3     H 9523   2.757   3.044   0.797 -0.2345  0.4416  0.6993
  643TMC3    H1 9524   3.149   2.944   0.671 -0.2668  0.4003  0.7742
  643TMC3    H2 9525   2.801   2.809   0.455 -0.6625  0.8837 -0.7342
  643TMC3    C7 9526   3.065   2.847   0.432 -0.1279 -0.5031 -0.4897
  643TMC3    C8 9527   2.674   3.008   0.549 -0.1609 -0.2531 -0.3721
  643TMC3    O1 9528   3.167   2.916   0.431 -0.2071  0.1404 -1.1813
  643TMC3    O2 9529   2.580   2.943   0.502 -0.0870 -0.2297  0.4047
  644MPD2     C 9530   3.086   2.808   9.453 -0.1905  0.4207 -0.2221
  644MPD2    C1 9531   2.962   2.760   9.418  0.8253  0.5645 -0.3435
  644MPD2    C2 9532   2.865   2.843   9.375 -0.3830  0.4051 -0.2742
  644MPD2    C3 9533   2.887   2.977   9.370  0.4234 -0.2654 -0.8284
  644MPD2    C4 9534   3.011   3.028   9.406  0.9598 -0.0286  0.6235
  644MPD2    C5 9535   3.110   2.944   9.448 -0.1485  0.8181  0.5302
  644MPD2     H 9536   2.770   2.805   9.339 -0.6579  0.6103  0.2325
  644MPD2    H1 9537   3.037   3.133   9.408 -2.1840  0.7847 -1.3458
  644MPD2    H2 9538   3.164   2.745   9.495  0.3074  1.3402  0.2088
  644MPD2    H3 9539   3.196   2.990   9.494  1.7732 -1.4463 -0.8452
  644MPD2     N 9540   2.783   3.065   9.322  0.2236  0.1443 -0.0949
  644MPD2    H5 9541   2.693   3.020   9.310  0.1994  0.5492 -1.4877
  644MPD2    N1 9542   2.949   2.620   9.407 -0.1602  1.0752  0.7756
  644MPD2    H7 9543   3.040   2.577   9.420  0.2580  1.8903  0.4757
  645TMC3    C1 9544   2.662   3.260   9.248 -0.2291  0.6595  0.3390
  645TMC3    C2 9545   2.648   3.397   9.255 -0.5865 -0.7608  0.1704
  645TMC3    C3 9546   2.546   3.445   9.179 -0.1580 -0.5868  0.1942
  645TMC3    C4 9547   2.578   3.175   9.182 -0.0616  0.5561  0.8834
  645TMC3    C5 9548   2.482   3.233   9.111  0.4882 -0.1745  0.5516
  645TMC3    C6 9549   2.465   3.367   9.106  0.3338 -0.2664 -0.0305
  645TMC3     C 9550   2.787   3.205   9.305  0.7867 -1.0798 -0.0368
  645TMC3     O 9551   2.859   3.290   9.353 -0.1146 -0.0877 -0.3589
  645TMC3     H 9552   2.717   3.464   9.305 -2.2141  0.9176  0.1819
  645TMC3    H1 9553   2.605   3.070   9.175 -0.4173  0.3936  1.9939
  645TMC3    H2 9554   2.365   3.408   9.101 -0.0555 -1.5097 -2.2930
  645TMC3    C7 9555   2.376   3.153   9.051 -0.0073 -0.7375  0.0219
  645TMC3    C8 9556   2.539   3.583   9.142 -0.4763 -0.4892  0.0418
  645TMC3    O1 9557   2.307   3.216   8.976 -0.1478  0.2780 -0.4881
  645TMC3    O2 9558   2.591   3.660   9.222 -0.5575  0.5351  0.4098
  646MPD2     C 9559   1.849   2.705  14.854  0.2356  0.3550 -0.2041
  646MPD2    C1 9560   1.752   2.653  14.932  0.0380 -0.2108  0.0479
  646MPD2    C2 9561   1.621   2.693  14.914 -0.5936 -0.0174  0.0788
  646MPD2    C3 9562   1.592   2.784  14.811  0.3571 -0.2911 -0.0367
  646MPD2    C4 9563   1.694   2.836  14.730  0.4024 -0.2201  0.5519
  646MPD2    C5 9564   1.824   2.801  14.760 -0.3932 -0.1366 -0.2270
  646MPD2     H 9565   1.543   2.647  14.974 -2.1448  0.0514 -1.9150
  646MPD2    H1 9566   1.685   2.911  14.653 -0.6622  0.6056  1.4766
  646MPD2    H2 9567   1.951   2.677  14.875  0.9032  2.0056 -1.2382
  646MPD2    H3 9568   1.903   2.841  14.698 -0.9712  0.5140 -0.5404
  646MPD2     N 9569   1.456   2.818  14.788 -0.6169 -0.3313 -0.3627
  646MPD2    H5 9570   1.382   2.787  14.850 -1.6243 -1.6430 -2.2010
  646MPD2    N1 9571   1.793   2.560  15.024 -0.2433 -0.4540  0.5167
  646MPD2    H7 9572   1.894   2.550  15.028 -0.1446 -0.7235 -2.4336
  647TMC3    C1 9573   1.817   2.393  15.185 -0.7043 -0.5841  1.0560
  647TMC3    C2 9574   1.762   2.304  15.277 -0.6601  0.5863 -0.2177
  647TMC3    C3 9575   1.846   2.227  15.348  1.1616 -0.2600  0.0708
  647TMC3    C4 9576   1.948   2.389  15.164 -0.2245 -0.9297  0.4240
  647TMC3    C5 9577   2.033   2.315  15.244 -0.6677  0.7030  0.0923
  647TMC3    C6 9578   1.981   2.231  15.339  0.1321 -0.5832 -0.5328
  647TMC3     C 9579   1.722   2.477  15.106  0.1828  0.1545 -0.1033
  647TMC3     O 9580   1.604   2.469  15.131 -0.9964 -0.3427  0.2903
  647TMC3     H 9581   1.654   2.300  15.290 -0.7920  2.4489 -0.7055
  647TMC3    H1 9582   1.991   2.459  15.093  1.0206 -1.2089  0.8961
  647TMC3    H2 9583   2.040   2.158  15.393 -2.7246 -1.1856  1.8385
  647TMC3    C7 9584   2.175   2.298  15.210  0.0701 -1.1136 -0.0158
  647TMC3    C8 9585   1.791   2.121  15.430 -0.4673 -0.1757  0.1085
  647TMC3    O1 9586   2.229   2.220  15.293 -0.0206 -0.2461 -1.0351
  647TMC3    O2 9587   1.856   2.018  15.435  0.2610  0.6473 -0.2823
  648TMC3    C1 9588   1.673   4.672  16.550  0.5672  0.1964  0.2713
  648TMC3    C2 9589   1.805   4.690  16.522  0.1623  0.2676  0.0394
  648TMC3    C3 9590   1.842   4.692  16.393  0.1973  0.2696  0.0510
  648TMC3    C4 9591   1.575   4.693  16.457  0.3664 -0.6542  0.7735
  648TMC3    C5 9592   1.619   4.717  16.329  0.0113  0.6443  0.5521
  648TMC3    C6 9593   1.750   4.698  16.288  0.2984  0.2472  0.3147
  648TMC3     C 9594   1.633   4.592  16.672 -1.1284  0.4687  0.3302
  648TMC3     O 9595   1.725   4.582  16.753  0.0427 -0.0205 -0.0291
  648TMC3     H 9596   1.890   4.674  16.588  0.6628 -0.2680 -0.7337
  648TMC3    H1 9597   1.470   4.693  16.482 -0.0310  1.0910 -0.9841
  648TMC3    H2 9598   1.775   4.711  16.183 -0.2000  2.5426  0.4796
  648TMC3    C7 9599   1.526   0.046  16.226  0.3295  0.2147  0.0857
  648TMC3    C8 9600   1.970   4.636  16.362  0.4151  0.3878 -0.0236
  648TMC3    O1 9601   1.542   0.020  16.106 -0.1709 -0.4926  0.2459
  648TMC3    O2 9602   2.064   4.653  16.442  1.3687  0.3029 -0.2522
  649TMC3    C1 9603   4.719   1.460  12.956 -1.0923 -0.0010  0.1372
  649TMC3    C2 9604   0.075   1.513  12.859  0.1480  0.2821  0.2213
  649TMC3    C3 9605   0.209   1.499  12.885  0.0993  0.3477 -0.3499
  649TMC3    C4 9606   0.038   1.390  13.063  0.0420 -0.4825 -0.3125
  649TMC3    C5 9607   0.173   1.387  13.084 -0.2129 -0.2279  0.3071
  649TMC3    C6 9608   0.258   1.437  12.995  0.2194 -0.2715  0.0194
  649TMC3     C 9609   4.581   1.453  12.933 -0.2587  0.4729  0.5088
  649TMC3     O 9610   4.508   1.474  13.026 -0.2164 -0.5835  0.0263
  649TMC3     H 9611   0.028   1.564  12.776 -3.2951 -1.5139  1.1079
  649TMC3    H1 9612   4.694   1.356  13.142  0.7633 -0.6629  0.2298
  649TMC3    H2 9613   0.363   1.444  13.023  0.3846 -3.2382  0.1596
  649TMC3    C7 9614   0.224   1.267  13.144 -0.6693 -0.2308  0.6798
  649TMC3    C8 9615   0.299   1.553  12.782 -0.4037  0.3451  0.4365
  649TMC3    O1 9616   0.328   1.268  13.204 -0.0213  0.0560  0.1117
  649TMC3    O2 9617   0.252   1.631  12.702  0.4045 -0.2963  0.2921
  650TMC3    C1 9618   2.656   2.709  12.536  0.0154 -0.1885 -0.2056
  650TMC3    C2 9619   2.664   2.824  12.611  0.4129  0.4254 -0.0507
  650TMC3    C3 9620   2.736   2.927  12.551  0.3095 -0.6185  0.4287
  650TMC3    C4 9621   2.713   2.692  12.412  0.0481 -0.4305 -0.0430
  650TMC3    C5 9622   2.795   2.794  12.370  1.0082 -0.1650  0.3792
  650TMC3    C6 9623   2.819   2.899  12.450 -1.1452 -0.7428 -0.2751
  650TMC3     C 9624   2.574   2.610  12.600  0.5120  0.3037 -0.5750
  650TMC3     O 9625   2.502   2.654  12.689  0.2448  0.2692  0.0584
  650TMC3     H 9626   2.620   2.836  12.709 -0.3315  0.2125 -0.3583
  650TMC3    H1 9627   2.700   2.601  12.355  2.5702  0.3798 -1.9222
  650TMC3    H2 9628   2.902   2.964  12.422 -1.1691  0.2216  1.9395
  650TMC3    C7 9629   2.746   2.832  12.235  0.9864  0.4248 -0.6717
  650TMC3    C8 9630   2.714   3.073  12.584 -0.2926 -0.6776  0.4176
  650TMC3    O1 9631   2.701   2.744  12.164 -0.3289  0.7704 -0.4633
  650TMC3    O2 9632   2.796   3.149  12.527 -0.2801  0.0194  0.5869
  651MPD2     C 9633   1.690   4.071  11.018  0.2164  0.6280  0.2770
  651MPD2    C1 9634   1.633   4.194  10.987 -0.0604 -0.4070 -0.9394
  651MPD2    C2 9635   1.715   4.293  10.939  0.4506 -0.4970  0.5386
  651MPD2    C3 9636   1.853   4.275  10.918 -0.5986 -0.0377 -0.1460
  651MPD2    C4 9637   1.904   4.144  10.929  0.2592  1.2448  0.6848
  651MPD2    C5 9638   1.822   4.048  10.979 -0.3525  0.3312  0.1908
  651MPD2     H 9639   1.676   4.394  10.924 -0.8234 -1.0858 -0.1092
  651MPD2    H1 9640   2.010   4.128  10.919 -0.0116 -0.4195  0.5687
  651MPD2    H2 9641   1.627   3.989  11.051 -0.9070 -0.2051 -3.9465
  651MPD2    H3 9642   1.863   3.948  10.991 -0.2500  0.2792 -0.5774
  651MPD2     N 9643   1.935   4.384  10.889  1.0601 -0.3891 -0.0960
  651MPD2    H5 9644   1.898   4.477  10.874 -0.2725 -0.5389  2.3389
  651MPD2    N1 9645   1.497   4.226  11.013  0.7749  0.4095 -0.4470
  651MPD2    H7 9646   1.474   4.324  11.000 -0.3943  0.0843 -0.8262
  652TMC3    C1 9647   2.313   4.612  10.747 -0.0059  0.2719 -0.4593
  652TMC3    C2 9648   2.242   4.499  10.773 -0.6739 -0.1637 -0.1583
  652TMC3    C3 9649   2.130   4.516  10.844 -0.2532 -0.2483 -0.0613
  652TMC3    C4 9650   2.276   0.017  10.799 -0.2226 -0.7005  0.4172
  652TMC3    C5 9651   2.163   0.031  10.871 -0.3895  0.1384 -0.2697
  652TMC3    C6 9652   2.090   4.643  10.896 -0.2422 -0.0509 -0.0241
  652TMC3     C 9653   2.450   4.589  10.723  0.1381 -0.5913 -0.0394
  652TMC3     O 9654   2.503   4.497  10.788 -0.4145 -0.3969  0.0146
  652TMC3     H 9655   2.281   4.404  10.738 -1.3635  0.3028 -2.1999
  652TMC3    H1 9656   2.343   0.100  10.777 -1.0258 -0.7638 -2.3248
  652TMC3    H2 9657   1.995   4.643  10.948 -0.2079 -0.4076  0.0411
  652TMC3    C7 9658   2.164   0.134  10.978  0.5602  0.2487 -0.3523
  652TMC3    C8 9659   2.072   4.387  10.886  0.0573  0.8665 -0.1045
  652TMC3    O1 9660   2.120   0.113  11.088 -0.5447  0.3653 -0.1603
  652TMC3    O2 9661   2.147   4.297  10.930  0.1046 -0.2070  0.0907
  653MPD2     C 9662   0.337   4.519   0.350 -0.5351 -0.4591  0.0766
  653MPD2    C1 9663   0.379   4.615   0.261  0.3143 -0.1229  0.2468
  653MPD2    C2 9664   0.345   4.601   0.127  0.2800 -0.0197 -0.0997
  653MPD2    C3 9665   0.282   4.489   0.081 -0.3765 -0.3187 -0.1447
  653MPD2    C4 9666   0.242   4.390   0.171  0.4669  0.1213 -0.0235
  653MPD2    C5 9667   0.268   4.417   0.302 -0.6137  0.0485  0.2044
  653MPD2     H 9668   0.370   4.675   0.053  1.2037 -0.5196 -0.2950
  653MPD2    H1 9669   0.171   4.313   0.145  0.1655  1.2444 -2.5073
  653MPD2    H2 9670   0.353   4.522   0.457  1.5356  2.7909 -0.3132
  653MPD2    H3 9671   0.225   4.348   0.374  2.9935 -1.2301  1.1527
  653MPD2     N 9672   0.258   4.475  17.636 -0.1741 -0.0403  0.1249
  653MPD2    H5 9673   0.278   4.557  17.580  1.9463 -1.3890 -1.1287
  653MPD2    N1 9674   0.444   0.008   0.291  0.3812 -0.1748  0.8848
  653MPD2    H7 9675   0.466   0.077   0.220 -1.4874  0.2216  0.6979
  654TMC3    C1 9676   0.221   4.364  17.430  0.0340 -0.3818  0.2503
  654TMC3    C2 9677   0.168   4.477  17.376 -0.5210 -0.1792 -0.1158
  654TMC3    C3 9678   0.148   4.463  17.240 -0.5690  0.0063 -0.0054
  654TMC3    C4 9679   0.246   4.249  17.365 -0.0012  0.3650 -0.1248
  654TMC3    C5 9680   0.228   4.243  17.229 -0.6707  0.7442 -0.3346
  654TMC3    C6 9681   0.169   4.347  17.171 -0.2399 -0.7671 -0.0085
  654TMC3     C 9682   0.212   4.357  17.580  0.3049  0.5554 -0.5355
  654TMC3     O 9683   0.202   4.249  17.634  0.1023 -0.5385 -0.0224
  654TMC3     H 9684   0.135   4.561  17.437 -1.0754 -0.5835  0.1332
  654TMC3    H1 9685   0.270   4.160  17.423 -1.8203 -0.0967 -0.0922
  654TMC3    H2 9686   0.147   4.347  17.065 -0.1935 -0.3381 -0.0181
  654TMC3    C7 9687   0.247   4.122  17.154 -0.2273  0.7374  0.2425
  654TMC3    C8 9688   0.086   4.576  17.178  0.0384 -0.8223 -0.0259
  654TMC3    O1 9689   0.207   4.117  17.040 -0.6118  0.7186 -0.4013
  654TMC3    O2 9690   0.015   4.645  17.248  0.2330  0.3941  0.1088
  655MPD2     C 9691   1.928   0.405  16.400  0.4930 -0.4336 -0.6606
  655MPD2    C1 9692   1.831   0.480  16.340 -0.4197  0.7305 -0.1307
  655MPD2    C2 9693   1.787   0.451  16.218  0.8080  0.1361 -0.9474
  655MPD2    C3 9694   1.826   0.337  16.156 -0.8727  0.6064 -0.4270
  655MPD2    C4 9695   1.928   0.262  16.211 -0.0814  0.1677 -0.0416
  655MPD2    C5 9696   1.979   0.301  16.332 -1.1114 -0.5051  0.1647
  655MPD2     H 9697   1.709   0.510  16.171  1.2169  0.2214 -1.5109
  655MPD2    H1 9698   1.981   0.194  16.146 -1.3553  0.1168 -1.0243
  655MPD2    H2 9699   1.968   0.423  16.500 -1.9849  1.9621 -0.0845
  655MPD2    H3 9700   2.067   0.247  16.366 -0.1591  1.3363  0.6359
  655MPD2     N 9701   1.766   0.288  16.032 -0.5187 -0.4636  0.4589
  655MPD2    H5 9702   1.782   0.195  15.997 -0.9177 -0.9475  1.5552
  655MPD2    N1 9703   1.773   0.582  16.410 -0.2057  0.1690  0.2722
  655MPD2    H7 9704   1.708   0.637  16.356 -0.7830  1.4822  2.2961
  656TMC3    C1 9705   1.680   0.718  16.563 -0.6680  0.1467 -0.0968
  656TMC3    C2 9706   1.590   0.662  16.651  0.4751 -0.1023  0.4141
  656TMC3    C3 9707   1.454   0.685  16.633 -0.3461  0.5713 -0.3877
  656TMC3    C4 9708   1.646   0.789  16.458  0.0019  0.2144  0.2395
  656TMC3    C5 9709   1.506   0.797  16.433  0.3675  0.5357  0.0151
  656TMC3    C6 9710   1.409   0.747  16.525 -0.0588  0.0161  0.5404
  656TMC3     C 9711   1.793   0.631  16.538 -0.3681  0.0513  0.4718
  656TMC3     O 9712   1.851   0.584  16.633 -0.2267 -0.4582 -0.3274
  656TMC3     H 9713   1.623   0.604  16.736  0.3760  0.2842  0.7212
  656TMC3    H1 9714   1.715   0.843  16.394 -2.9549  1.3875 -1.9920
  656TMC3    H2 9715   1.303   0.760  16.507 -0.0144  1.7851  1.6253
  656TMC3    C7 9716   1.488   0.759  16.296 -0.2992  0.0491 -0.5292
  656TMC3    C8 9717   1.362   0.593  16.686 -0.4202 -0.7863 -0.4908
  656TMC3    O1 9718   1.589   0.733  16.236  0.0270 -0.1537 -0.2121
  656TMC3    O2 9719   1.283   0.551  16.606  0.2252 -0.1269 -0.3476
  657TMC3    C1 9720   0.817   0.051  15.014 -0.0689  0.0832 -0.1673
  657TMC3    C2 9721   0.795   0.047  15.152 -0.0095 -0.2235 -0.0247
  657TMC3    C3 9722   0.666   0.067  15.194 -0.3870 -0.5117  0.4158
  657TMC3    C4 9723   0.713   0.078  14.929 -0.5042  0.6534 -0.9237
  657TMC3    C5 9724   0.585   0.093  14.977  0.0456 -0.0864 -0.1725
  657TMC3    C6 9725   0.562   0.090  15.110  0.1260 -0.0261  0.2137
  657TMC3     C 9726   0.944   0.046  14.955  0.4145 -0.8621  0.3304
  657TMC3     O 9727   0.962   0.093  14.844 -0.2228 -0.2409 -0.0272
  657TMC3     H 9728   0.879   0.038  15.220 -0.0275  0.0199  0.0289
  657TMC3    H1 9729   0.718   0.072  14.821  2.2126  2.5860 -0.8918
  657TMC3    H2 9730   0.461   0.112  15.142  0.2881  1.0193 -0.0045
  657TMC3    C7 9731   0.479   0.151  14.894 -0.0938  0.4772 -0.0104
  657TMC3    C8 9732   0.626   0.059  15.338 -0.0199  0.1539 -0.3730
  657TMC3    O1 9733   0.366   0.161  14.945  0.4026 -0.2009  0.4996
  657TMC3    O2 9734   0.517   0.105  15.378  0.1822 -0.5145 -0.4480
  658MPD2     C 9735   2.011   0.360  15.465  0.6040 -0.2579 -0.3449
  658MPD2    C1 9736   1.910   0.268  15.438  0.3228  0.1282  0.1175
  658MPD2    C2 9737   1.876   0.242  15.303 -0.0468 -0.2485  0.2198
  658MPD2    C3 9738   1.952   0.285  15.202 -0.1613  0.5310  0.0511
  658MPD2    C4 9739   2.051   0.377  15.227 -0.1157 -0.9146 -0.4561
  658MPD2    C5 9740   2.086   0.398  15.357 -0.3861  0.2142  0.2794
  658MPD2     H 9741   1.787   0.183  15.286 -0.7309  0.2573  2.0481
  658MPD2    H1 9742   2.108   0.427  15.150  2.8580 -1.3315  1.4552
  658MPD2    H2 9743   2.044   0.395  15.562 -0.5391  0.8245 -0.3434
  658MPD2    H3 9744   2.167   0.466  15.378 -0.4864  0.3382  0.2630
  658MPD2     N 9745   1.895   0.280  15.074  0.9918  0.0265  0.2011
  658MPD2    H5 9746   1.799   0.249  15.067  0.8109  0.7859 -0.6939
  658MPD2    N1 9747   1.824   0.236  15.544 -0.3374 -0.1995  0.5375
  658MPD2    H7 9748   1.847   0.288  15.628  2.0975 -1.3111  0.5764
  659TMC3    C1 9749   1.650   0.141  15.656  0.4077  0.0038  0.1471
  659TMC3    C2 9750   1.702   0.196  15.771  0.5954  0.7360 -0.5186
  659TMC3    C3 9751   1.628   0.297  15.835 -0.5320  0.1603 -0.5593
  659TMC3    C4 9752   1.521   0.163  15.610 -0.4161  0.8717  0.0710
  659TMC3    C5 9753   1.463   0.271  15.665  1.0314  0.0025  0.4231
  659TMC3    C6 9754   1.507   0.332  15.780  0.2240 -0.1612  0.3234
  659TMC3     C 9755   1.741   0.124  15.543  0.0489  0.5189  0.3849
  659TMC3     O 9756   1.712   0.050  15.448 -0.1353 -0.3055  0.0918
  659TMC3     H 9757   1.806   0.184  15.799  0.3800 -1.1327 -0.4793
  659TMC3    H1 9758   1.491   0.117  15.517  0.2987  0.2293  0.1556
  659TMC3    H2 9759   1.440   0.401  15.829  0.5747  0.5579 -0.1997
  659TMC3    C7 9760   1.391   0.366  15.583 -0.3737 -0.4745  0.0843
  659TMC3    C8 9761   1.680   0.362  15.952 -0.5218 -0.7868  0.4710
  659TMC3    O1 9762   1.271   0.387  15.604 -0.4652 -0.5208  0.5533
  659TMC3    O2 9763   1.663   0.482  15.956 -0.1390  0.5809  0.2687
  660MPD2     C 9764   0.343   3.294  12.788  0.0940 -0.1499  0.1248
  660MPD2    C1 9765   0.234   3.354  12.724  0.4936 -0.6694  0.0345
  660MPD2    C2 9766   0.114   3.345  12.789 -0.2976  0.6098  0.4729
  660MPD2    C3 9767   0.103   3.282  12.914  0.3061 -0.0749  0.1304
  660MPD2    C4 9768   0.214   3.220  12.965  0.7331  0.3168  0.1799
  660MPD2    C5 9769   0.331   3.227  12.904 -0.0577  0.4039 -0.0495
  660MPD2     H 9770   0.024   3.386  12.743  0.5377  2.3549  0.3892
  660MPD2    H1 9771   0.211   3.185  13.068 -0.3935  0.5064  0.2092
  660MPD2    H2 9772   0.437   3.286  12.734  0.0709  0.9975 -0.1009
  660MPD2    H3 9773   0.419   3.178  12.943  0.7125  0.9707 -1.0565
  660MPD2     N 9774   4.705   3.281  12.994 -0.2060 -0.2760 -0.2387
  660MPD2    H5 9775   4.713   3.232  13.083  1.6296 -0.8483 -0.7234
  660MPD2    N1 9776   0.252   3.414  12.597 -0.1111 -0.3694  0.0016
  660MPD2    H7 9777   0.332   3.402  12.536  0.8357  0.3622  1.0831
  661TMC3    C1 9778   0.177   3.525  12.405  0.0751 -0.1944 -0.2161
  661TMC3    C2 9779   0.277   3.468  12.330  0.3255  0.6015  0.2183
  661TMC3    C3 9780   0.299   3.493  12.199 -0.1737 -0.3593  0.2675
  661TMC3    C4 9781   0.084   3.602  12.340  0.4102  0.7827 -0.6873
  661TMC3    C5 9782   0.104   3.619  12.205  0.4023 -0.8273  0.2420
  661TMC3    C6 9783   0.209   3.564  12.131 -0.0685  0.8546 -0.0835
  661TMC3     C 9784   0.147   3.478  12.536  0.5192 -0.4596  0.0017
  661TMC3     O 9785   0.039   3.516  12.581 -0.0863 -0.0283  0.2686
  661TMC3     H 9786   0.351   3.405  12.380  0.3508  1.2149  0.9484
  661TMC3    H1 9787   4.722   3.642  12.394  0.1161 -1.3924  0.4303
  661TMC3    H2 9788   0.215   3.596  12.028  2.3835 -0.4599 -0.3566
  661TMC3    C7 9789   4.715   3.663  12.134  0.6559  0.3127 -0.0566
  661TMC3    C8 9790   0.386   3.395  12.135  0.3375  0.5181  0.3997
  661TMC3    O1 9791   0.005   3.744  12.043 -0.0653 -0.0067 -0.7037
  661TMC3    O2 9792   0.387   3.280  12.173  0.0541 -0.1130  0.3421
  662MPD2     C 9793   4.715   3.802  17.426  0.1531  0.5877  0.2120
  662MPD2    C1 9794   4.697   3.713  17.532  0.0519  0.6705  0.6829
  662MPD2    C2 9795   4.655   3.767  17.655  0.4405 -0.0956  0.1233
  662MPD2    C3 9796   4.621   3.899  17.673  0.5118 -0.1114 -0.7111
  662MPD2    C4 9797   4.655   3.981  17.571  0.3494 -0.6693  0.6863
  662MPD2    C5 9798   4.696   3.931  17.448  0.0087 -0.1678  0.1556
  662MPD2     H 9799   4.645   3.692   0.037 -3.5133  1.4906  1.1195
  662MPD2    H1 9800   4.626   4.085  17.567  0.1398 -0.7214  0.8605
  662MPD2    H2 9801   0.016   3.764  17.327 -0.7497 -0.6132  0.4511
  662MPD2    H3 9802   0.005   4.002  17.372  0.1265  0.1438  0.4986
  662MPD2     N 9803   4.554   3.956   0.090  0.6735  0.2740  0.4220
  662MPD2    H5 9804   4.550   4.058   0.089  2.1481  0.3377  2.6768
  662MPD2    N1 9805   4.702   3.570  17.520 -0.3094  0.1277 -0.3094
  662MPD2    H7 9806   4.703   3.521  17.609 -0.0021  1.0263  0.1791
  663TMC3    C1 9807   0.027   3.356  17.444 -0.1174  0.4518  0.2325
  663TMC3    C2 9808   0.063   3.359  17.577 -0.5967  0.8046  0.4960
  663TMC3    C3 9809   0.002   3.272  17.664 -0.0476  0.3200 -0.5301
  663TMC3    C4 9810   4.664   3.268  17.390  0.0537  0.5880 -0.4948
  663TMC3    C5 9811   4.601   3.186  17.482 -0.9869  0.3331  0.2277
  663TMC3    C6 9812   4.636   3.180  17.615 -0.8647  0.4836  0.7265
  663TMC3     C 9813   4.717   3.491  17.407 -0.6307  0.2289  0.4266
  663TMC3     O 9814   4.683   3.512  17.290 -0.4055 -0.0138 -0.0447
  663TMC3     H 9815   0.154   3.405  17.613 -0.3552 -0.2248  1.2066
  663TMC3    H1 9816   4.626   3.291  17.291 -0.0694  0.4968 -0.4686
  663TMC3    H2 9817   4.562   3.142  17.684 -1.2207  0.4753  0.3420
  663TMC3    C7 9818   4.544   3.063  17.448 -0.3233  0.3316 -0.0632
  663TMC3    C8 9819   4.695   3.342   0.092 -0.2512 -0.1443 -0.5516
  663TMC3    O1 9820   4.534   2.971  17.530  0.0324 -0.2560  0.1244
  663TMC3    O2 9821   4.711   3.465   0.079  0.9240 -0.9063  0.2523
  664MPD2     C 9822   3.274   1.411   0.055  0.8600  0.5388  0.2904
  664MPD2    C1 9823   3.237   1.541   0.044  0.0214  0.0682 -0.2445
  664MPD2    C2 9824   3.230   1.617   0.158  0.3642 -0.4675  0.2264
  664MPD2    C3 9825   3.279   1.568   0.281  0.0384 -0.5259  0.4430
  664MPD2    C4 9826   3.319   1.435   0.285 -0.4109  0.0752  0.0084
  664MPD2    C5 9827   3.318   1.360   0.170 -0.0440  0.1970 -0.0603
  664MPD2     H 9828   3.204   1.722   0.153  1.1729 -0.2811  0.0588
  664MPD2    H1 9829   3.350   1.384   0.375 -1.2411  2.3908  1.6032
  664MPD2    H2 9830   3.269   1.345  17.665  0.8446  0.5496  0.2830
  664MPD2    H3 9831   3.324   1.252   0.176 -2.1794  0.1975  1.7508
  664MPD2     N 9832   3.290   1.653   0.390  0.0798 -0.0731 -0.8216
  664MPD2    H5 9833   3.260   1.750   0.382  2.8751  1.0542  2.5946
  664MPD2    N1 9834   3.195   1.603  17.617 -0.3115  0.7024 -0.5458
  664MPD2    H7 9835   3.183   1.704  17.625  0.1571  0.6279  1.1571
  665TMC3    C1 9836   3.310   1.704   0.612 -0.0919 -0.0185  0.1164
  665TMC3    C2 9837   3.171   1.713   0.627  0.0767 -0.5207  0.2489
  665TMC3    C3 9838   3.132   1.808   0.725  0.2659 -0.0961  0.2611
  665TMC3    C4 9839   3.403   1.758   0.693  0.3282  0.3394 -0.1326
  665TMC3    C5 9840   3.361   1.824   0.801  0.5489  0.2750 -0.3264
  665TMC3    C6 9841   3.226   1.851   0.819 -0.3460  0.2450  0.2627
  665TMC3     C 9842   3.352   1.616   0.506 -0.3133 -0.0900 -0.4413
  665TMC3     O 9843   3.447   1.540   0.517  0.0694 -0.2255 -0.2479
  665TMC3     H 9844   3.111   1.640   0.573  1.2123 -1.2391 -0.0353
  665TMC3    H1 9845   3.510   1.748   0.679 -0.0727 -0.8260 -2.3014
  665TMC3    H2 9846   3.191   1.904   0.907 -1.8465  0.1457 -0.2798
  665TMC3    C7 9847   3.456   1.913   0.865  0.4845 -0.1579 -0.3504
  665TMC3    C8 9848   2.988   1.837   0.751 -0.3308  0.3760 -0.1472
  665TMC3    O1 9849   3.569   1.920   0.822 -0.4110  0.3721  0.3272
  665TMC3    O2 9850   2.965   1.914   0.842  0.0683  0.0972  0.5442
  666TMC3    C1 9851   1.993   1.179  10.126 -0.4404  0.1967 -0.2407
  666TMC3    C2 9852   2.112   1.150  10.186  0.2306 -0.2527  0.1475
  666TMC3    C3 9853   2.190   1.258  10.214  0.2494  0.2445 -0.1800
  666TMC3    C4 9854   1.960   1.302  10.075 -0.7675 -0.1957  0.5654
  666TMC3    C5 9855   2.042   1.409  10.114 -0.0130 -0.7280 -0.5493
  666TMC3    C6 9856   2.159   1.383  10.176 -0.1690 -0.2567  0.4436
  666TMC3     C 9857   1.910   1.069  10.088 -0.0626  0.0209  0.2749
  666TMC3     O 9858   1.806   1.103  10.028  0.1659  0.6111 -0.6402
  666TMC3     H 9859   2.153   1.049  10.186 -0.1799 -0.4189  0.0115
  666TMC3    H1 9860   1.863   1.315  10.029 -0.0081  0.5204 -0.8431
  666TMC3    H2 9861   2.197   1.469  10.229  1.1923 -0.5452 -0.0718
  666TMC3    C7 9862   2.015   1.544  10.066  0.4318  0.2948 -0.6670
  666TMC3    C8 9863   2.289   1.232  10.311  0.1517  0.0745  0.2393
  666TMC3    O1 9864   1.895   1.559  10.038  0.5804 -0.9197  0.4387
  666TMC3    O2 9865   2.307   1.121  10.360  0.1235 -0.4714 -0.0408
  667MPD2     C 9866   3.969   1.788  14.863 -0.7306 -0.8521  0.4662
  667MPD2    C1 9867   3.841   1.804  14.903 -0.3597 -0.0739  1.0810
  667MPD2    C2 9868   3.750   1.702  14.882 -0.0150  0.3118 -0.2665
  667MPD2    C3 9869   3.783   1.579  14.819 -0.8122  0.3850  0.6518
  667MPD2    C4 9870   3.915   1.568  14.786 -1.0238 -0.1778  1.2567
  667MPD2    C5 9871   4.004   1.678  14.792  0.3458 -0.3415 -0.3690
  667MPD2     H 9872   3.652   1.712  14.929  0.4256  2.8920  0.0938
  667MPD2    H1 9873   3.955   1.475  14.747 -0.1346  1.0503 -0.7086
  667MPD2    H2 9874   4.039   1.864  14.895  0.4147 -1.0464 -1.5933
  667MPD2    H3 9875   4.110   1.665  14.772  0.4002  0.2336 -0.4489
  667MPD2     N 9876   3.698   1.471  14.790 -0.3941 -0.4582  0.5096
  667MPD2    H5 9877   3.741   1.396  14.736  1.1180  0.3982  0.5488
  667MPD2    N1 9878   3.794   1.916  14.967  0.3647 -0.3357 -0.1052
  667MPD2    H7 9879   3.698   1.911  14.999  0.1504 -1.5471 -0.9094
  668TMC3    C1 9880   3.788   2.143  15.038  0.4095 -0.4070 -0.3293
  668TMC3    C2 9881   3.821   2.272  15.003  0.4481 -0.1296  0.2837
  668TMC3    C3 9882   3.812   2.372  15.098 -0.2260  0.7403  0.1941
  668TMC3    C4 9883   3.759   2.105  15.166  0.0198 -0.2130 -0.2178
  668TMC3    C5 9884   3.748   2.209  15.254 -0.2843 -0.0618 -0.0163
  668TMC3    C6 9885   3.777   2.334  15.223 -0.4353 -0.4952  0.2327
  668TMC3     C 9886   3.853   2.042  14.958 -1.4106  0.3983 -0.5032
  668TMC3     O 9887   3.961   2.072  14.915 -0.0636 -0.1179 -0.2789
  668TMC3     H 9888   3.824   2.297  14.898 -2.0363 -0.9787  0.0250
  668TMC3    H1 9889   3.769   1.999  15.189  2.0542  0.4336  1.8792
  668TMC3    H2 9890   3.754   2.405  15.301  0.6761 -0.7391  0.7753
  668TMC3    C7 9891   3.769   2.177  15.394  0.1749  0.0604  0.4575
  668TMC3    C8 9892   3.818   2.516  15.066  0.2040 -0.0448  0.3764
  668TMC3    O1 9893   3.824   2.267  15.459  0.1030  0.5220  0.5645
  668TMC3    O2 9894   3.792   2.591  15.158  0.3626  0.1501  0.0337
  669TMC3    C1 9895   1.561   1.880  14.678  0.9439 -0.6619  0.5350
  669TMC3    C2 9896   1.431   1.904  14.635  0.4651 -0.7243  0.9549
  669TMC3    C3 9897   1.418   1.967  14.516 -0.7074 -0.4287 -0.0362
  669TMC3    C4 9898   1.672   1.896  14.598 -0.5653  0.2807 -0.0226
  669TMC3    C5 9899   1.658   1.970  14.485  0.3145  0.1972 -0.0552
  669TMC3    C6 9900   1.534   1.996  14.434 -0.7584  0.7292  0.2731
  669TMC3     C 9901   1.573   1.786  14.793  0.6190 -0.1280  0.2019
  669TMC3     O 9902   1.476   1.720  14.820  0.3649  0.4397  0.2496
  669TMC3     H 9903   1.350   1.869  14.699 -0.4233 -0.2605  0.0905
  669TMC3    H1 9904   1.773   1.865  14.624 -0.0934 -0.0753 -2.2278
  669TMC3    H2 9905   1.527   2.045  14.338 -1.4108  1.3715  0.6493
  669TMC3    C7 9906   1.785   2.025  14.440 -0.4127 -0.5497 -0.2856
  669TMC3    C8 9907   1.301   1.959  14.444  0.2324  0.4773 -0.1249
  669TMC3    O1 9908   1.878   2.018  14.519  0.2395  0.1555 -0.1390
  669TMC3    O2 9909   1.319   1.921  14.327 -0.0419 -0.6212  0.2118
  670MPD2     C 9910   4.613   0.114  13.616 -0.7896 -0.0316  0.1692
  670MPD2    C1 9911   4.720   0.026  13.625 -0.0821  0.7484  0.1780
  670MPD2    C2 9912   4.719   4.655  13.726 -0.7685  0.6689  1.0215
  670MPD2    C3 9913   4.618   4.646  13.818 -0.0325 -0.2649  0.5007
  670MPD2    C4 9914   4.521   0.023  13.813 -0.5980  0.1552  0.1591
  670MPD2    C5 9915   4.518   0.119  13.715  0.0572 -0.2475 -0.6924
  670MPD2     H 9916   0.084   4.592  13.729 -0.7722  0.6211  0.0142
  670MPD2    H1 9917   4.442   0.018  13.888  0.5680  1.2521  1.4674
  670MPD2    H2 9918   4.599   0.178  13.530 -1.7392 -2.3086 -1.3502
  670MPD2    H3 9919   4.444   0.198  13.722  0.4648 -0.0663  1.6103
  670MPD2     N 9920   4.627   4.542  13.912  0.1361  0.0475 -0.6181
  670MPD2    H5 9921   4.712   4.489  13.927 -0.5853 -0.7674  0.5446
  670MPD2    N1 9922   0.094   0.015  13.521  0.1453  0.6051 -0.0464
  670MPD2    H7 9923   0.156   4.659  13.531  1.8443  1.8039 -1.0095
  671TMC3    C1 9924   4.540   4.390  14.069  0.0297  0.3687 -0.5950
  671TMC3    C2 9925   4.654   4.383  14.145 -0.5012 -0.3571  0.3589
  671TMC3    C3 9926   4.642   4.316  14.266 -0.3876  0.6921  0.1246
  671TMC3    C4 9927   4.428   4.324  14.106  0.0790  0.5399 -0.8109
  671TMC3    C5 9928   4.426   4.247  14.221 -0.4238 -0.0811 -0.2929
  671TMC3    C6 9929   4.532   4.254  14.314 -0.0865 -1.0971  0.2685
  671TMC3     C 9930   4.518   4.501  13.979 -0.2050  0.4998  0.6993
  671TMC3     O 9931   4.404   4.544  13.972 -0.0684  0.7740 -0.0561
  671TMC3     H 9932   0.015   4.447  14.122 -1.4375  0.4601 -0.8043
  671TMC3    H1 9933   4.338   4.340  14.048 -1.2481  1.1849  1.4243
  671TMC3    H2 9934   4.532   4.180  14.394  2.0863 -0.9425  0.4087
  671TMC3    C7 9935   4.363   4.121  14.190 -0.0003  0.2803  0.5458
  671TMC3    C8 9936   0.042   4.253  14.298 -0.0493  0.0959  0.1616
  671TMC3    O1 9937   4.352   4.104  14.068  0.2855  0.1446  0.0432
  671TMC3    O2 9938   0.125   4.226  14.211 -0.1180  0.1624  0.4461
  672MPD2     C 9939   0.342   3.753   1.274  0.6825 -0.4255 -0.5443
  672MPD2    C1 9940   0.395   3.864   1.209 -0.2228 -0.0425 -0.2639
  672MPD2    C2 9941   0.421   3.975   1.289  0.6324 -0.2047  0.1820
  672MPD2    C3 9942   0.408   3.982   1.423 -0.5055 -0.5588  0.1635
  672MPD2    C4 9943   0.372   3.863   1.486 -0.0634  0.0321 -0.2126
  672MPD2    C5 9944   0.344   3.751   1.413 -0.4917  0.5231  0.1687
  672MPD2     H 9945   0.463   4.062   1.241  0.1397  0.5604  1.1296
  672MPD2    H1 9946   0.373   3.865   1.595  1.8737  2.5800 -0.2954
  672MPD2    H2 9947   0.335   3.655   1.228  0.6741 -1.5631  1.8748
  672MPD2    H3 9948   0.320   3.658   1.465 -0.5084 -0.0451 -0.8629
  672MPD2     N 9949   0.449   4.094   1.498  1.1567  0.1124  0.4049
  672MPD2    H5 9950   0.460   4.089   1.598  1.6386 -0.5202  0.3237
  672MPD2    N1 9951   0.441   3.864   1.075  0.1500  0.5533 -0.9589
  672MPD2    H7 9952   0.496   3.946   1.050  0.5106  0.5962 -0.0356
  673TMC3    C1 9953   0.514   3.789   0.864  0.3145  0.1479  0.4628
  673TMC3    C2 9954   0.558   3.674   0.801  0.3023  0.7302 -0.3581
  673TMC3    C3 9955   0.634   3.689   0.690  0.5135 -0.0197  0.1023
  673TMC3    C4 9956   0.539   3.916   0.812  0.2782 -0.3688  0.2850
  673TMC3    C5 9957   0.607   3.917   0.692  0.3367  0.3090  0.0511
  673TMC3    C6 9958   0.656   3.809   0.623  0.0938 -0.2253 -0.3828
  673TMC3     C 9959   0.435   3.765   0.981 -0.0441  0.1858  0.1412
  673TMC3     O 9960   0.387   3.654   0.985 -0.6777  0.4003 -0.1343
  673TMC3     H 9961   0.550   3.584   0.860  0.2104 -0.1780 -1.7596
  673TMC3    H1 9962   0.475   3.995   0.848 -0.7743 -0.8867 -0.4542
  673TMC3    H2 9963   0.718   3.812   0.535  0.7936  1.7857  0.1828
  673TMC3    C7 9964   0.669   4.044   0.652  0.3620  0.2417 -0.3359
  673TMC3    C8 9965   0.755   3.614   0.673 -0.5315  0.3567 -0.1141
  673TMC3    O1 9966   0.755   4.041   0.565  0.8451 -0.3871 -0.4748
  673TMC3    O2 9967   0.797   3.587   0.558  0.4435 -0.1786 -0.3072
  674MPD2     C 9968   0.309   4.112   0.539  0.4417  0.3372  0.2983
  674MPD2    C1 9969   0.279   3.983   0.584 -0.6302  1.0141 -0.2822
  674MPD2    C2 9970   0.226   3.970   0.709 -0.0891 -0.0688 -0.6305
  674MPD2    C3 9971   0.234   4.079   0.797 -0.3485 -0.5519  0.3012
  674MPD2    C4 9972   0.274   4.201   0.764 -0.5338  0.2443  0.2643
  674MPD2    C5 9973   0.309   4.218   0.630 -0.5962  0.1865  0.5512
  674MPD2     H 9974   0.192   3.875   0.747  1.2864  0.0514  0.9312
  674MPD2    H1 9975   0.286   4.280   0.837 -1.1959  0.8626 -0.3020
  674MPD2    H2 9976   0.355   4.128   0.442 -2.1457 -1.6179 -1.2624
  674MPD2    H3 9977   0.324   4.322   0.603 -0.9413 -0.2373 -1.2977
  674MPD2     N 9978   0.190   4.044   0.927 -0.1850 -0.7878 -0.4579
  674MPD2    H5 9979   0.156   3.950   0.942  0.0657 -0.5769  1.4251
  674MPD2    N1 9980   0.309   3.868   0.502  0.0644  0.0721 -0.0512
  674MPD2    H7 9981   0.352   3.894   0.414 -0.4470  1.2393  0.0451
  675TMC3    C1 9982   0.322   3.637   0.438 -0.0373 -0.0829 -0.3020
  675TMC3    C2 9983   0.251   3.526   0.447  0.3463  0.0053 -0.4623
  675TMC3    C3 9984   0.291   3.419   0.371  0.6880  0.3615  0.3722
  675TMC3    C4 9985   0.429   3.652   0.352  0.5105 -0.3246 -0.0732
  675TMC3    C5 9986   0.458   3.543   0.276 -0.2379  0.1751 -0.1052
  675TMC3    C6 9987   0.400   3.423   0.287 -0.4238 -0.5303  0.7525
  675TMC3     C 9988   0.287   3.734   0.542  0.3035 -0.6443 -0.3601
  675TMC3     O 9989   0.218   3.696   0.634  0.5528  0.0938  0.5562
  675TMC3     H 9990   0.161   3.508   0.506  0.0890 -3.6391 -1.9134
  675TMC3    H1 9991   0.480   3.748   0.353  1.0412 -0.5947 -1.7676
  675TMC3    H2 9992   0.426   3.337   0.226  0.3704 -0.2642  0.7249
  675TMC3    C7 9993   0.576   3.549   0.204 -0.8295 -0.0285 -0.0632
  675TMC3    C8 9994   0.235   3.287   0.385  0.5135  0.8522  0.4107
  675TMC3    O1 9995   0.619   3.658   0.162 -0.2095  0.4828  0.6166
  675TMC3    O2 9996   0.265   3.202   0.302 -0.0390 -0.0418 -0.5876
  676MPD2     C 9997   2.790   2.643  11.016  0.5788 -0.4295  0.4994
  676MPD2    C1 9998   2.660   2.638  11.062 -0.1582 -0.3569  0.5770
  676MPD2    C2 9999   2.565   2.555  11.000 -0.0014  0.2390  0.0746
  676MPD2    C310000   2.598   2.476  10.891 -0.3751  0.2359  0.1072
  676MPD2    C410001   2.731   2.487  10.844  0.2036  0.7497 -0.6865
  676MPD2    C510002   2.823   2.562  10.911 -0.0033  0.1717 -0.4100
  676MPD2     H10003   2.463   2.546  11.036 -0.6170 -0.5003 -1.8586
  676MPD2    H110004   2.763   2.429  10.758 -0.7156 -0.4113 -0.2343
  676MPD2    H210005   2.867   2.712  11.046 -0.6810  1.0790  0.2574
  676MPD2    H310006   2.924   2.575  10.876  0.2495 -1.0371 -0.1218
  676MPD2     N10007   2.514   2.384  10.829 -0.5947  0.2758 -0.8544
  676MPD2    H510008   2.560   2.342  10.749  2.5568  1.5457  0.2738
  676MPD2    N110009   2.602   2.724  11.158 -0.0098 -0.1586 -0.8503
  676MPD2    H710010   2.503   2.711  11.175 -0.1515  1.1524 -0.6747
  677TMC3    C110011   2.593   2.897  11.310  0.2044 -0.1903 -1.0314
  677TMC3    C210012   2.460   2.867  11.323 -0.7046  0.0961 -0.3338
  677TMC3    C310013   2.391   2.937  11.415  0.3572  0.4830  0.7453
  677TMC3    C410014   2.663   3.004  11.366 -0.2067 -0.1442  0.3944
  677TMC3    C510015   2.596   3.066  11.470  0.3751  0.6388 -0.0876
  677TMC3    C610016   2.459   3.032  11.492 -0.4136  0.3979  0.2037
  677TMC3     C10017   2.672   2.816  11.225  0.3826  0.1085  0.0245
  677TMC3     O10018   2.787   2.851  11.204  0.0894  0.1043 -0.3377
  677TMC3     H10019   2.399   2.795  11.271 -4.8779  2.1200  1.7945
  677TMC3    H110020   2.771   3.000  11.356  0.2212  2.7863  4.1499
  677TMC3    H210021   2.409   3.072  11.579 -0.8208 -0.2229  0.2586
  677TMC3    C710022   2.665   3.124  11.579 -0.1391  0.4257  0.9385
  677TMC3    C810023   2.257   2.900  11.430  0.1937  0.0445 -0.4330
  677TMC3    O110024   2.591   3.153  11.673 -0.4408  0.0107 -0.0800
  677TMC3    O210025   2.187   2.903  11.328 -0.3825  0.9365 -0.2762
  678MPD2     C10026   4.511   2.754   2.156  0.3501  0.0962  0.8699
  678MPD2    C110027   4.496   2.753   2.020  0.0017  0.1857  0.6799
  678MPD2    C210028   4.371   2.758   1.960  0.0772  0.3415  0.1909
  678MPD2    C310029   4.256   2.762   2.038 -0.2533  0.0744  0.2907
  678MPD2    C410030   4.277   2.773   2.172 -0.5741 -0.0506  0.2118
  678MPD2    C510031   4.401   2.767   2.231  0.0405 -0.2915 -0.4671
  678MPD2     H10032   4.369   2.773   1.853  3.0097  0.8260  0.2114
  678MPD2    H110033   4.195   2.777   2.242  0.1302  1.6621  0.9470
  678MPD2    H210034   4.605   2.745   2.209  0.7704 -0.2333  0.0682
  678MPD2    H310035   4.413   2.772   2.339  0.7767 -0.8494 -0.5251
  678MPD2     N10036   4.132   2.763   1.981  0.5718  0.0348 -0.1341
  678MPD2    H510037   4.135   2.746   1.880  0.0318 -0.1935 -0.1118
  678MPD2    N110038   4.596   2.731   1.929  0.6926  0.2985 -0.1983
  678MPD2    H710039   4.570   2.722   1.831 -2.2323 -3.2208  0.9299
  679TMC3    C110040   0.145   2.433   1.750  0.7212 -0.0973 -0.2680
  679TMC3    C210041   0.122   2.510   1.865 -0.2763 -0.1708  0.0526
  679TMC3    C310042   0.069   2.636   1.849 -0.0008  0.2376  0.4107
  679TMC3    C410043   0.128   2.490   1.627 -0.1508  0.1481  0.1295
  679TMC3    C510044   0.078   2.616   1.621 -0.5259 -0.2151  0.4314
  679TMC3    C610045   0.037   2.688   1.731  0.6805 -0.1189 -0.4025
  679TMC3     C10046   0.244   2.330   1.751 -0.2694 -0.0428  0.0548
  679TMC3     O10047   0.259   2.277   1.644 -0.0398 -0.3478  0.2154
  679TMC3     H10048   0.141   2.471   1.964 -0.7163 -1.8587 -0.5206
  679TMC3    H110049   0.135   2.425   1.541 -0.4195  0.8181 -0.4066
  679TMC3    H210050   4.717   2.787   1.717 -0.3454 -0.2614  1.7101
  679TMC3    C710051   0.037   2.663   1.492 -0.1241 -0.3076 -1.3189
  679TMC3    C810052   4.721   2.687   1.960  0.3599  0.0188 -0.1408
  679TMC3    O110053   4.665   2.739   1.491  0.4193 -0.0362 -0.3124
  679TMC3    O210054   0.045   2.660   2.068 -0.1310 -0.5829  0.4969
  680MPD2     C10055   0.491   1.531  13.696  0.3024  0.0002 -0.1933
  680MPD2    C110056   0.372   1.487  13.746 -0.3498  0.2214 -0.5544
  680MPD2    C210057   0.263   1.568  13.737  0.3066  0.1378 -0.3527
  680MPD2    C310058   0.274   1.698  13.686  1.1717 -0.0218  0.5312
  680MPD2    C410059   0.397   1.742  13.642  0.1948  0.8583 -0.6283
  680MPD2    C510060   0.503   1.659  13.648 -0.6747 -0.1754  0.4349
  680MPD2     H10061   0.165   1.535  13.770  0.0757  1.9584  0.7679
  680MPD2    H110062   0.408   1.841  13.599 -1.5784  1.2487 -0.1404
  680MPD2    H210063   0.585   1.483  13.719  0.8599  0.0461 -2.3680
  680MPD2    H310064   0.600   1.695  13.615 -1.6768 -0.8004 -3.2880
  680MPD2     N10065   0.162   1.791  13.684  0.7731  0.0150 -0.3516
  680MPD2    H510066   0.183   1.889  13.668 -1.7385  0.6197 -0.0295
  680MPD2    N110067   0.347   1.356  13.791 -0.0460  0.1318  0.4583
  680MPD2    H710068   0.248   1.331  13.797 -0.5208  1.4960 -1.6474
  681TMC3    C110069   0.374   1.126  13.799  0.1392 -0.9053  0.1572
  681TMC3    C210070   0.298   1.103  13.906  0.2246 -0.4959  0.1290
  681TMC3    C310071   0.237   0.980  13.922  0.6009 -0.6974  0.2270
  681TMC3    C410072   0.411   1.025  13.718  0.5254 -0.1245  0.7656
  681TMC3    C510073   0.348   0.906  13.732 -0.6010 -0.1044  0.4041
  681TMC3    C610074   0.258   0.884  13.831 -0.7194 -0.1645  0.5699
  681TMC3     C10075   0.440   1.252  13.787 -0.5623 -0.3101  0.1148
  681TMC3     O10076   0.560   1.254  13.766 -0.7452 -0.5359 -0.0948
  681TMC3     H10077   0.275   1.184  13.974 -0.7291  2.1205 -3.3420
  681TMC3    H110078   0.479   1.052  13.638  0.9605 -0.7459  0.9284
  681TMC3    H210079   0.201   0.792  13.834  1.8480 -1.7836  0.0702
  681TMC3    C710080   0.307   0.844  13.609  0.4643 -0.4732  0.3180
  681TMC3    C810081   0.132   0.958  14.023  0.5589 -0.2137  0.4759
  681TMC3    O110082   0.248   0.738  13.609 -0.6653  0.5810  0.0041
  681TMC3    O210083   0.042   0.879  13.996  0.3055 -0.3685  0.3078
  682MPD2     C10084   1.767   2.792  10.457  0.0519  0.7310 -0.8603
  682MPD2    C110085   1.686   2.691  10.510  0.1199 -0.7415  0.3410
  682MPD2    C210086   1.637   2.694  10.639  0.5120 -0.1047  0.2579
  682MPD2    C310087   1.653   2.806  10.707  0.2636 -1.0533 -0.1236
  682MPD2    C410088   1.728   2.915  10.657 -0.3192  0.4970  0.5129
  682MPD2    C510089   1.790   2.903  10.534  0.3837  0.4743  0.4442
  682MPD2     H10090   1.574   2.613  10.674  0.5995 -1.2502 -2.2045
  682MPD2    H110091   1.722   3.012  10.703  0.5905  0.5533  0.5161
  682MPD2    H210092   1.807   2.792  10.356  1.1446  0.7384 -0.4295
  682MPD2    H310093   1.857   2.980  10.498  2.0625 -2.3504 -2.5456
  682MPD2     N10094   1.592   2.827  10.835  0.3721  0.3407 -0.8043
  682MPD2    H510095   1.641   2.894  10.893  0.9664  0.0752 -1.0015
  682MPD2    N110096   1.648   2.576  10.437 -0.2932  0.3713  0.2904
  682MPD2    H710097   1.583   2.510  10.480 -1.9909  0.9905 -1.2983
  683TMC3    C110098   1.519   2.883  11.235  0.2048 -0.9540 -0.3925
  683TMC3    C210099   1.424   2.812  11.300  0.3654 -0.0037  0.4174
  683TMC3    C310100   1.371   2.706  11.238 -0.0377 -0.4509 -0.5485
  683TMC3    C410101   1.561   2.858  11.107 -0.4800  0.3809 -0.3140
  683TMC3    C510102   1.483   2.766  11.043 -0.3958 -0.1516  0.6947
  683TMC3    C610103   1.401   2.680  11.107 -0.7124  0.5683  0.5948
  683TMC3     C10104   1.596   2.954  11.329 -0.0545  0.3056  0.6485
  683TMC3     O10105   1.587   2.919  11.447 -0.2629  0.5106  0.8023
  683TMC3     H10106   1.381   2.845  11.394  2.0938  2.5494  0.3328
  683TMC3    H110107   1.643   2.908  11.057  0.3010 -0.1729  0.4102
  683TMC3    H210108   1.372   2.582  11.070  0.9204 -0.0235  0.8859
  683TMC3    C710109   1.511   2.729  10.903  0.1837  0.1626  0.3332
  683TMC3    C810110   1.331   2.597  11.328  0.5556 -0.5788 -0.3519
  683TMC3    O110111   1.451   2.636  10.856 -0.0053 -0.3842 -0.1033
  683TMC3    O210112   1.302   2.621  11.443  0.1283 -0.7474 -0.3094
  684MPD2     C10113   0.526   1.859  16.463 -0.0557  0.4142  0.0541
  684MPD2    C110114   0.456   1.935  16.375 -0.1635 -0.4991 -0.2846
  684MPD2    C210115   0.407   2.061  16.409 -0.5310  0.4255 -0.3455
  684MPD2    C310116   0.427   2.116  16.529 -0.0497 -0.2345  0.2701
  684MPD2    C410117   0.494   2.039  16.621 -0.0414 -0.5803  0.6688
  684MPD2    C510118   0.546   1.916  16.590 -0.4125 -0.9486 -0.0411
  684MPD2     H10119   0.355   2.124  16.337  0.3880  1.7301  0.1362
  684MPD2    H110120   0.493   2.075  16.723 -1.0417  1.5689 -0.1108
  684MPD2    H210121   0.559   1.759  16.440  2.0958  1.0549  0.3468
  684MPD2    H310122   0.596   1.859  16.667 -0.2613 -0.3519  0.3000
  684MPD2     N10123   0.370   2.243  16.567 -0.2072  0.1573 -0.4884
  684MPD2    H510124   0.347   2.247  16.666 -1.5004 -0.1355 -0.7708
  684MPD2    N110125   0.433   1.891  16.243  0.3984  0.5318 -0.0295
  684MPD2    H710126   0.368   1.942  16.184 -0.3968 -0.9390 -0.4178
  685TMC3    C110127   0.459   1.775  16.044 -0.3179  0.2329  0.0237
  685TMC3    C210128   0.345   1.851  16.017 -0.0874  0.4185 -0.9715
  685TMC3    C310129   0.350   1.952  15.917 -0.2190 -0.0906  0.5443
  685TMC3    C410130   0.577   1.796  15.974  0.2119  0.1022 -0.0793
  685TMC3    C510131   0.575   1.898  15.885  0.1812 -0.2208 -0.2256
  685TMC3    C610132   0.464   1.963  15.847  0.0349  0.0124  0.2629
  685TMC3     C10133   0.494   1.780  16.184 -0.0612  0.4893 -0.4495
  685TMC3     O10134   0.581   1.703  16.224  0.2582 -0.1658  0.0519
  685TMC3     H10135   0.252   1.808  16.051  0.2697 -0.6182 -1.2942
  685TMC3    H110136   0.657   1.724  15.988  2.2427  2.0726 -1.5157
  685TMC3    H210137   0.476   2.046  15.778  0.3093  1.2017  1.7359
  685TMC3    C710138   0.669   1.999  15.930  0.5265  0.0979  0.5241
  685TMC3    C810139   0.229   1.982  15.839 -0.8077 -0.4191 -0.1625
  685TMC3    O110140   0.675   2.106  15.871 -0.0367  0.8524 -0.2949
  685TMC3    O210141   0.237   2.007  15.716  0.5790 -0.0005  0.3069
  686MPD2     C10142   1.224   1.550  15.751 -0.0933 -0.4274 -0.0055
  686MPD2    C110143   1.225   1.448  15.844 -0.1586  0.2637 -0.1930
  686MPD2    C210144   1.179   1.317  15.808  1.4692  0.7087 -0.1452
  686MPD2    C310145   1.141   1.283  15.679  0.4259  0.3710  0.1746
  686MPD2    C410146   1.159   1.382  15.584 -0.3208 -0.0703  0.1655
  686MPD2    C510147   1.186   1.516  15.626 -1.1778  0.4350 -0.3887
  686MPD2     H10148   1.168   1.240  15.883 -0.2578  3.2800  2.2518
  686MPD2    H110149   1.121   1.377  15.483  0.1942 -2.8491  0.1135
  686MPD2    H210150   1.241   1.655  15.773  0.9090 -0.7354  0.7115
  686MPD2    H310151   1.164   1.599  15.559 -2.1750  2.0552  1.9620
  686MPD2     N10152   1.090   1.154  15.648 -0.1521  0.0505  0.4804
  686MPD2    H510153   1.063   1.148  15.551  0.7768 -1.2108  0.2961
  686MPD2    N110154   1.252   1.477  15.978  0.2915  0.5020 -0.2017
  686MPD2    H710155   1.263   1.576  15.997  0.4021  0.8606 -2.1223
  687TMC3    C110156   0.983   1.091  15.871  0.5406  0.5954 -0.4783
  687TMC3    C210157   0.902   1.200  15.890 -0.1028 -0.8156 -0.2824
  687TMC3    C310158   0.844   1.215  16.012 -0.0650  0.8954  0.1181
  687TMC3    C410159   1.013   1.007  15.972  0.2002 -0.7549 -0.7574
  687TMC3    C510160   0.945   1.020  16.090  0.0721  0.5129 -0.3171
  687TMC3    C610161   0.847   1.119  16.110 -0.2957 -0.3934 -0.3409
  687TMC3     C10162   1.036   1.058  15.743 -0.2066  0.5786  0.5327
  687TMC3     O10163   1.017   0.943  15.713 -0.1299 -0.2961  0.2641
  687TMC3     H10164   0.878   1.254  15.799 -1.0513 -1.2081 -0.2639
  687TMC3    H110165   1.101   0.945  15.959  0.8644  0.2021 -0.7725
  687TMC3    H210166   0.798   1.127  16.206  0.2659  1.2968 -0.1967
  687TMC3    C710167   1.012   0.973  16.206  0.3379  0.1076 -0.4083
  687TMC3    C810168   0.861   1.345  16.076  0.2673 -0.2923 -0.0434
  687TMC3    O110169   0.936   0.910  16.281  0.2816 -0.0255 -0.4608
  687TMC3    O210170   0.844   1.340  16.195 -0.1922 -0.1688 -0.4013
  688MPD2     C10171   0.851   0.575   0.033  0.2039  0.1805  0.7865
  688MPD2    C110172   0.846   0.437   0.062  0.2719 -0.1896  0.1320
  688MPD2    C210173   0.937   0.353   0.006  0.1219  0.3649  0.2873
  688MPD2    C310174   1.032   0.409  17.611 -0.0934  0.2376  0.1155
  688MPD2    C410175   1.033   0.544  17.577  0.3147  0.4011 -0.1515
  688MPD2    C510176   0.944   0.625  17.650  0.1930  0.7394 -0.1747
  688MPD2     H10177   0.938   0.250   0.037 -0.4576 -0.1335 -1.3563
  688MPD2    H110178   1.098   0.592  17.505 -2.8494  2.6308 -1.5318
  688MPD2    H210179   0.794   0.647   0.091 -3.4547 -2.9085  1.0133
  688MPD2    H310180   0.950   0.733  17.644  0.5495  0.7781  0.7942
  688MPD2     N10181   1.127   0.339  17.537 -0.5096 -0.2472  0.3340
  688MPD2    H510182   1.192   0.382  17.473 -2.3833 -0.6377 -1.8347
  688MPD2    N110183   0.763   0.387   0.165 -0.1897 -0.5776 -0.0450
  688MPD2    H710184   0.775   0.289   0.187 -1.8043 -0.5506  0.9530
  689TMC3    C110185   0.630   0.387   0.350  0.1809  0.1574 -0.0670
  689TMC3    C210186   0.630   0.438   0.473  0.0846  0.0157  0.1790
  689TMC3    C310187   0.578   0.357   0.578  0.7418 -0.0708 -0.3798
  689TMC3    C410188   0.576   0.264   0.323  0.1410  0.0285  0.0561
  689TMC3    C510189   0.541   0.186   0.433  0.3052  0.3554  0.1747
  689TMC3    C610190   0.547   0.227   0.565 -0.2015  0.6903 -0.0965
  689TMC3     C10191   0.689   0.467   0.246 -0.7281  0.2793 -0.1613
  689TMC3     O10192   0.672   0.587   0.262 -0.7009  0.1293  0.2870
  689TMC3     H10193   0.662   0.540   0.495 -1.1755  0.5041 -0.2354
  689TMC3    H110194   0.577   0.227   0.220 -2.1789  1.5847 -0.5396
  689TMC3    H210195   0.503   0.169   0.645  1.2700 -0.4846 -0.1515
  689TMC3    C710196   0.485   0.051   0.420 -0.3441  0.4383  0.3111
  689TMC3    C810197   0.536   0.424   0.702 -0.6363 -0.3137 -0.2832
  689TMC3    O110198   0.471   4.715   0.525 -0.2818  0.2072  0.2512
  689TMC3    O210199   0.521   0.354   0.800 -0.0963 -0.5410 -0.2088
  690MPD2     C10200   2.621   2.439  15.933  0.1924 -0.3452  0.1399
  690MPD2    C110201   2.597   2.441  15.796 -0.4898  0.5155 -0.1103
  690MPD2    C210202   2.690   2.514  15.717  0.4738 -0.7657  0.2604
  690MPD2    C310203   2.800   2.574  15.785 -0.2271 -0.1443 -0.7976
  690MPD2    C410204   2.823   2.564  15.920  0.0646  0.4234 -0.5932
  690MPD2    C510205   2.731   2.492  15.999  1.1241  0.1355  0.1922
  690MPD2     H10206   2.690   2.507  15.609  1.5603  2.5970  0.0663
  690MPD2    H110207   2.916   2.584  15.972 -1.4586  1.4901  1.7073
  690MPD2    H210208   2.561   2.374  15.995 -1.1645  0.7311 -0.0245
  690MPD2    H310209   2.758   2.462  16.099  2.1451 -1.8236 -0.6667
  690MPD2     N10210   2.891   2.650  15.698 -0.4764 -0.0562  0.2351
  690MPD2    H510211   2.983   2.668  15.737 -0.5877  1.4236 -0.1630
  690MPD2    N110212   2.489   2.375  15.728  0.4103 -0.2071 -0.3050
  690MPD2    H710213   2.488   2.380  15.627  2.5231  1.0119 -0.2646
  691TMC3    C110214   2.264   2.283  15.708 -0.5099 -0.2431  0.3320
  691TMC3    C210215   2.152   2.292  15.781 -0.5589  0.4516 -0.2272
  691TMC3    C310216   2.064   2.192  15.772 -0.5769  0.0180  0.0885
  691TMC3    C410217   2.279   2.179  15.617 -0.7611 -0.0139  0.2887
  691TMC3    C510218   2.178   2.085  15.604  0.2569 -0.1826  0.1525
  691TMC3    C610219   2.072   2.081  15.688 -0.0460  0.0538  1.3303
  691TMC3     C10220   2.378   2.329  15.793  0.4039  0.2347  0.9952
  691TMC3     O10221   2.361   2.305  15.915  0.0722 -0.1814  0.2559
  691TMC3     H10222   2.145   2.362  15.863  2.5288  1.2189 -0.6394
  691TMC3    H110223   2.370   2.162  15.559 -1.3190  2.4441 -1.3247
  691TMC3    H210224   2.002   2.000  15.702 -2.3682  1.7319 -0.4545
  691TMC3    C710225   2.212   1.967  15.515 -0.5899 -0.4642 -0.6051
  691TMC3    C810226   1.944   2.188  15.852  0.1596 -0.3414 -0.0728
  691TMC3    O110227   2.327   1.950  15.475 -0.6262  0.8579 -0.3728
  691TMC3    O210228   1.873   2.091  15.847 -0.4455 -0.6468  0.2387
  692TMC3    C110229   4.687   3.615  16.109  0.5451 -0.1907  0.0852
  692TMC3    C210230   0.056   3.633  16.214  0.5269 -0.6557 -0.0095
  692TMC3    C310231   0.142   3.529  16.246 -0.3932  0.2334  0.0732
  692TMC3    C410232   4.674   3.493  16.052 -0.4023  0.7049  0.1273
  692TMC3    C510233   0.019   3.388  16.098  0.4655 -0.3763 -0.6902
  692TMC3    C610234   0.121   3.402  16.192  0.1850 -0.5599 -0.1088
  692TMC3     C10235   4.595   3.719  16.068 -0.1544 -0.0494  0.2479
  692TMC3     O10236   4.487   3.701  16.006 -0.4823  0.0579 -0.2699
  692TMC3     H10237   0.033   3.709  16.288 -1.1814  1.1318 -2.3804
  692TMC3    H110238   4.605   3.483  15.969 -1.4827 -0.8199  1.2147
  692TMC3    H210239   0.169   3.317  16.239  1.1722 -0.1375 -0.3586
  692TMC3    C710240   4.704   3.256  16.050  0.5747  0.8686  0.0241
  692TMC3    C810241   0.185   3.544  16.379 -0.2976  0.0041  0.2239
  692TMC3    O110242   4.634   3.256  15.949 -0.0783 -0.2544  0.2995
  692TMC3    O210243   0.186   3.449  16.452  0.2312 -0.3409  0.0042
  693MPD2     C10244   3.627   1.642  10.474 -0.3681  0.2048 -0.4181
  693MPD2    C110245   3.660   1.564  10.582 -0.4212 -0.6890 -0.3734
  693MPD2    C210246   3.792   1.571  10.630 -0.3538  0.2214 -0.0808
  693MPD2    C310247   3.884   1.661  10.585  0.0257  0.6017 -0.8716
  693MPD2    C410248   3.843   1.748  10.482  0.2300  0.2684  0.3024
  693MPD2    C510249   3.714   1.741  10.438 -0.1852 -0.8353 -0.5006
  693MPD2     H10250   3.817   1.492  10.700 -0.9187 -0.0002 -0.1347
  693MPD2    H110251   3.904   1.828  10.442  1.9686 -1.6205 -0.8069
  693MPD2    H210252   3.529   1.645  10.428 -0.6865 -1.4176  0.1448
  693MPD2    H310253   3.673   1.811  10.366 -1.0705 -1.2047 -0.3509
  693MPD2     N10254   4.014   1.667  10.630 -0.1945 -0.5244  0.3322
  693MPD2    H510255   4.087   1.689  10.563 -1.5384  1.2086 -0.5676
  693MPD2    N110256   3.574   1.467  10.641 -0.3121  0.2908 -0.3504
  693MPD2    H710257   3.620   1.411  10.712 -2.5103 -0.5600  0.4053
  694TMC3    C110258   3.405   1.336  10.720 -0.1809 -0.3698 -0.6292
  694TMC3    C210259   3.276   1.292  10.678 -0.6257 -0.2612  0.3209
  694TMC3    C310260   3.234   1.185  10.746 -0.1022 -0.0708 -0.0802
  694TMC3    C410261   3.471   1.303  10.825 -0.1327  0.3327  1.3256
  694TMC3    C510262   3.433   1.186  10.881 -0.7181 -0.4104  0.2700
  694TMC3    C610263   3.320   1.119  10.839 -0.0158  0.4322  0.2599
  694TMC3     C10264   3.444   1.447  10.635 -0.3619  0.5642  0.3598
  694TMC3     O10265   3.362   1.516  10.576  0.3531  0.8601 -0.6415
  694TMC3     H10266   3.228   1.316  10.584  1.0852 -0.6205 -0.6468
  694TMC3    H110267   3.561   1.356  10.857  1.0055 -0.5744 -0.3799
  694TMC3    H210268   3.280   1.029  10.884 -2.1672  1.0345 -0.4654
  694TMC3    C710269   3.492   1.155  11.010  0.6875 -0.3121  0.0146
  694TMC3    C810270   3.136   1.107  10.674 -0.6955 -0.3755  0.5900
  694TMC3    O110271   3.609   1.185  11.029  0.6500  0.3027 -0.1360
  694TMC3    O210272   3.150   0.987  10.668 -0.4622 -0.4236 -0.5600
  695MPD2     C10273   0.016   3.352  13.736 -0.3334 -0.6402 -0.0575
  695MPD2    C110274   4.671   3.411  13.834 -0.7216  0.4219 -0.2041
  695MPD2    C210275   4.556   3.482  13.816 -0.1634 -0.3090  0.9239
  695MPD2    C310276   4.492   3.485  13.694 -0.0953 -0.4021 -0.1286
  695MPD2    C410277   4.552   3.418  13.587  0.9803 -0.8456  0.1308
  695MPD2    C510278   4.671   3.351  13.612  0.4076 -0.1011  0.3681
  695MPD2     H10279   4.510   3.535  13.898  0.0907  1.9586 -0.3865
  695MPD2    H110280   4.510   3.409  13.488 -1.5026  0.4472  1.0771
  695MPD2    H210281   0.111   3.301  13.748 -0.4961 -1.0109 -0.3689
  695MPD2    H310282   4.715   3.305  13.524 -4.2898 -0.6537 -1.7155
  695MPD2     N10283   4.370   3.548  13.692  0.2313  0.4346  0.3211
  695MPD2    H510284   4.343   3.601  13.774 -1.2992 -1.0902  0.8134
  695MPD2    N110285   4.723   3.415  13.969  0.4670 -0.0595  0.5051
  695MPD2    H710286   4.682   3.488  14.026 -0.8916 -0.1290 -0.4072
  696TMC3    C110287   4.167   3.616  13.623  0.0904  0.4089 -0.5805
  696TMC3    C210288   4.119   3.574  13.749 -0.2397  0.3490 -0.1332
  696TMC3    C310289   4.028   3.657  13.806  0.5123  0.6077 -0.1550
  696TMC3    C410290   4.152   3.738  13.568 -0.4262  0.1566 -0.4436
  696TMC3    C510291   4.083   3.825  13.645  0.2257  0.9681  0.2496
  696TMC3    C610292   4.021   3.784  13.761 -0.1807  0.4642 -0.2479
  696TMC3     C10293   4.296   3.570  13.579  0.1144  0.6990 -0.1501
  696TMC3     O10294   4.341   3.562  13.464  0.3249  0.3714 -0.5881
  696TMC3     H10295   4.143   3.480  13.796  1.2805  0.8361  0.0638
  696TMC3    H110296   4.202   3.770  13.478 -1.1147 -0.1144 -0.9224
  696TMC3    H210297   3.961   3.855  13.817 -0.9868 -0.6216  0.2446
  696TMC3    C710298   4.115   3.970  13.633  0.7734  1.3073 -0.7615
  696TMC3    C810299   4.026   3.643  13.947 -0.4270 -0.8799  0.0378
  696TMC3    O110300   4.182   4.001  13.538 -0.7015  0.0349  0.1931
  696TMC3    O210301   3.972   3.551  14.004 -0.3582 -0.2350 -0.5206
  697MPD2     C10302   4.268   0.705  16.034 -0.0004 -0.1225 -0.4681
  697MPD2    C110303   4.295   0.647  15.908 -0.4970  0.7257  0.0189
  697MPD2    C210304   4.293   0.735  15.800 -0.1909  0.3667 -0.8378
  697MPD2    C310305   4.261   0.873  15.806 -1.1669 -0.2693 -0.2521
  697MPD2    C410306   4.227   0.921  15.931 -0.6234  0.3028  0.0252
  697MPD2    C510307   4.240   0.840  16.042  0.5751 -0.5710  0.2241
  697MPD2     H10308   4.309   0.696  15.699 -3.5055 -1.7328 -0.5579
  697MPD2    H110309   4.202   1.024  15.956 -1.8518 -0.5857  2.4613
  697MPD2    H210310   4.274   0.647  16.126  1.8023 -3.9196 -2.9675
  697MPD2    H310311   4.229   0.883  16.140 -1.0818  0.7338 -0.5345
  697MPD2     N10312   4.240   0.951  15.693 -0.2415 -0.7807  0.4116
  697MPD2    H510313   4.256   0.897  15.609  0.6283  0.0751  0.0206
  697MPD2    N110314   4.323   0.507  15.889 -0.4075 -0.3469  0.5211
  697MPD2    H710315   4.344   0.491  15.790 -0.7104 -1.8181  0.6836
  698TMC3    C110316   4.192   1.147  15.567  0.7265  0.3292  0.4948
  698TMC3    C210317   4.190   1.283  15.570 -0.2458  0.5589 -0.3312
  698TMC3    C310318   4.195   1.346  15.444 -0.1015  0.1553  0.5057
  698TMC3    C410319   4.193   1.074  15.449  0.1826  0.3458  0.8132
  698TMC3    C510320   4.190   1.144  15.336 -0.5134 -0.2100  0.3084
  698TMC3    C610321   4.208   1.280  15.330 -0.0405 -0.8446  0.3801
  698TMC3     C10322   4.197   1.084  15.693 -0.7213 -0.0444  0.0461
  698TMC3     O10323   4.142   1.149  15.783  0.0243 -0.7536  0.1719
  698TMC3     H10324   4.213   1.345  15.656 -1.1080  0.1517  0.1955
  698TMC3    H110325   4.175   0.968  15.441 -2.8283  0.7875  1.7037
  698TMC3    H210326   4.190   1.330  15.236  0.3360  2.2691  1.9696
  698TMC3    C710327   4.193   1.074  15.211  0.2092  0.1169  0.2237
  698TMC3    C810328   4.226   1.486  15.448  0.0307 -0.6052 -0.8382
  698TMC3    O110329   4.147   0.960  15.210  0.2265  0.1169 -0.0795
  698TMC3    O210330   4.189   1.542  15.547  0.1036  0.3360  0.3418
  699TMC3    C110331   4.489   3.335  13.068  0.5521 -0.0643  0.2209
  699TMC3    C210332   4.508   3.230  13.158 -0.5913 -0.0833 -0.2936
  699TMC3    C310333   4.413   3.215  13.247 -0.7561  1.1364 -0.1584
  699TMC3    C410334   4.383   3.422  13.065 -0.2372 -0.8928 -0.0731
  699TMC3    C510335   4.291   3.403  13.163  0.2407 -0.5102  0.5228
  699TMC3    C610336   4.306   3.298  13.253 -0.0480  0.3255  0.5115
  699TMC3     C10337   4.594   3.358  12.973 -0.1737 -0.4767 -0.2912
  699TMC3     O10338   4.592   3.452  12.896 -0.0857  0.1427  0.0528
  699TMC3     H10339   4.577   3.147  13.146  0.6011  1.0416 -1.1240
  699TMC3    H110340   4.379   3.500  12.989  0.5703 -0.0888  0.7132
  699TMC3    H210341   4.234   3.289  13.333 -0.3989  0.2183  0.1842
  699TMC3    C710342   4.185   3.502  13.191  0.0053  1.4072 -0.2352
  699TMC3    C810343   4.430   3.128  13.359  0.2027 -0.0323  0.1370
  699TMC3    O110344   4.126   3.482  13.298  0.2322 -0.1888 -0.2709
  699TMC3    O210345   4.330   3.093  13.422  0.1227  0.0149 -0.3487
  700TMC3    C110346   3.610   1.104   0.018 -0.7746 -0.2320  0.3297
  700TMC3    C210347   3.685   0.993  17.679 -0.2461 -0.3270 -0.5250
  700TMC3    C310348   3.815   0.986   0.016  0.5391 -0.0934  0.0640
  700TMC3    C410349   3.668   1.212   0.073 -0.5985  0.0049  0.5499
  700TMC3    C510350   3.799   1.196   0.115 -0.2132 -0.0715 -0.7590
  700TMC3    C610351   3.874   1.091   0.082 -0.9668 -0.0819 -0.4928
  700TMC3     C10352   3.499   1.117  17.617  0.4640  0.0650  0.6212
  700TMC3     O10353   3.448   1.012  17.582 -0.1957 -0.2090 -0.4060
  700TMC3     H10354   3.643   0.921  17.609  0.8171  0.1491 -1.6499
  700TMC3    H110355   3.604   1.297   0.096  0.5757  1.1035 -0.2048
  700TMC3    H210356   3.977   1.092   0.115 -0.9765  3.4115 -0.5521
  700TMC3    C710357   3.871   1.310   0.161  0.3596 -0.4353 -0.2954
  700TMC3    C810358   3.886   0.885  17.641 -0.0551 -0.6194 -0.3449
  700TMC3    O110359   3.996   1.306   0.171  0.0652 -0.3260  0.1022
  700TMC3    O210360   3.833   0.824  17.549 -0.4376  0.1009 -0.1429
  701TMC3    C110361   3.374   4.487  15.773  0.1336  0.0366 -0.2490
  701TMC3    C210362   3.311   4.524  15.657  0.1147 -0.2666 -0.1526
  701TMC3    C310363   3.380   4.591  15.563 -0.0304 -0.4356 -0.1280
  701TMC3    C410364   3.502   4.536  15.801  0.5004  0.8397  0.7505
  701TMC3    C510365   3.563   4.613  15.710 -0.2435  0.3725  0.3816
  701TMC3    C610366   3.510   4.633  15.587  0.3655  0.4122 -0.0281
  701TMC3     C10367   3.316   4.400  15.865  0.2973  0.2047 -0.2847
  701TMC3     O10368   3.338   4.417  15.984 -0.4819  0.4700 -0.5904
  701TMC3     H10369   3.206   4.497  15.648  0.2930 -0.5994 -1.1623
  701TMC3    H110370   3.559   4.516  15.891 -1.3963 -0.2465  1.6969
  701TMC3    H210371   3.559   4.701  15.517  0.9956  2.0433  1.9811
  701TMC3    C710372   3.687   4.678  15.744 -0.6671 -0.4298 -1.0113
  701TMC3    C810373   3.303   4.640  15.451 -0.0361  0.2547 -0.3100
  701TMC3    O110374   3.748   4.715  15.648  0.2475 -0.1997  0.1875
  701TMC3    O210375   3.326   0.029  15.411  0.4428 -1.0757  0.3746
  702MPD2     C10376   2.476   2.173  10.177  0.5900  0.3509 -0.5319
  702MPD2    C110377   2.456   2.267  10.271 -0.4353  0.4965  0.6464
  702MPD2    C210378   2.491   2.396  10.240 -0.4459  0.1435  0.4129
  702MPD2    C310379   2.546   2.431  10.112  0.2100  0.5751 -0.4297
  702MPD2    C410380   2.565   2.331  10.023 -0.3613 -0.4011 -0.4371
  702MPD2    C510381   2.529   2.203  10.050  0.3511  0.1182  0.0912
  702MPD2     H10382   2.476   2.462  10.325  1.1894 -0.1918  0.9535
  702MPD2    H110383   2.611   2.352   9.927  0.7500  0.7598  0.3328
  702MPD2    H210384   2.442   2.070  10.177  0.9965  0.2159 -0.7422
  702MPD2    H310385   2.548   2.124   9.979  1.9745  0.1857  0.4613
  702MPD2     N10386   2.585   2.559  10.082  0.0053 -0.4622  0.6130
  702MPD2    H510387   2.640   2.570   9.997  0.1214 -1.5519  0.5537
  702MPD2    N110388   2.406   2.236  10.404  0.6127 -0.3399  0.8443
  702MPD2    H710389   2.411   2.314  10.469 -2.4213  2.0482 -1.7664
  703TMC3    C110390   2.597   2.789  10.084  0.0215  0.1290  0.0855
  703TMC3    C210391   2.545   2.905  10.131  0.2430 -0.5745  0.6964
  703TMC3    C310392   2.634   3.009  10.155  0.1905 -0.4473 -0.1112
  703TMC3    C410393   2.733   2.782  10.058  0.1832  0.3353 -0.2420
  703TMC3    C510394   2.813   2.890  10.067 -0.3024 -0.0570 -0.1342
  703TMC3    C610395   2.766   3.008  10.119 -0.1096 -0.8080  0.8243
  703TMC3     C10396   2.555   2.675  10.152  0.2105  0.0515  0.5531
  703TMC3     O10397   2.502   2.693  10.261 -0.4928 -0.4727  0.1672
  703TMC3     H10398   2.438   2.908  10.149  0.1033 -0.8648 -0.0959
  703TMC3    H110399   2.784   2.689  10.032  1.0856  0.9596 -0.6857
  703TMC3    H210400   2.839   3.086  10.135  1.5293 -2.1349 -0.1728
  703TMC3    C710401   2.955   2.880  10.083  0.1283  0.0956  0.1700
  703TMC3    C810402   2.604   3.112  10.257  0.0997  0.0177  0.7082
  703TMC3    O110403   3.029   2.951  10.021  0.3707  0.1738 -0.2923
  703TMC3    O210404   2.684   3.206  10.252  0.9506 -0.0151  0.0022
  704TMC3    C110405   0.506   0.723  12.846 -0.1345  0.0382  0.2883
  704TMC3    C210406   0.625   0.763  12.791 -0.2689 -0.8822 -0.0986
  704TMC3    C310407   0.733   0.720  12.864 -0.7065 -0.4391  0.5121
  704TMC3    C410408   0.491   0.642  12.955 -0.7132  0.6015  0.6391
  704TMC3    C510409   0.611   0.592  13.007 -0.7448 -0.4636 -0.9654
  704TMC3    C610410   0.733   0.630  12.961 -0.1732 -0.1003 -0.1355
  704TMC3     C10411   0.384   0.773  12.777  0.1657  0.1067  0.6076
  704TMC3     O10412   0.283   0.784  12.837  0.6416  0.0427  0.3873
  704TMC3     H10413   0.645   0.842  12.719 -0.8640 -2.0687 -1.5720
  704TMC3    H110414   0.393   0.629  13.000 -1.2660 -1.2908 -1.1050
  704TMC3    H210415   0.819   0.588  13.011 -0.5740 -1.3399 -0.4923
  704TMC3    C710416   0.614   0.444  13.025 -0.3292  0.2113  0.2993
  704TMC3    C810417   0.858   0.754  12.798 -0.2084  0.9396  0.2105
  704TMC3    O110418   0.723   0.397  13.049 -0.2859  0.0256  0.4315
  704TMC3    O210419   0.856   0.785  12.678 -0.3701 -0.5530  0.5784
  705MPD2     C10420   0.335   3.211  16.888 -0.3410 -0.1567  0.3966
  705MPD2    C110421   0.276   3.286  16.790  0.3977  1.0525 -0.0102
  705MPD2    C210422   0.158   3.359  16.824  0.0146 -0.2167 -0.6867
  705MPD2    C310423   0.107   3.351  16.954  0.1929  0.3333 -0.4428
  705MPD2    C410424   0.170   3.276  17.054 -0.4967 -0.2441  0.2355
  705MPD2    C510425   0.274   3.196  17.008 -0.8095  0.1520  0.2334
  705MPD2     H10426   0.121   3.429  16.750  1.8087  2.7573  1.2073
  705MPD2    H110427   0.129   3.270  17.154  1.3515  1.6875  1.1175
  705MPD2    H210428   0.423   3.149  16.874  0.5775  1.9814 -3.1545
  705MPD2    H310429   0.322   3.131  17.081 -1.5963  0.1271  0.7288
  705MPD2     N10430   4.712   3.414  16.987  0.3089 -0.2771 -0.0382
  705MPD2    H510431   4.686   3.419  17.085  3.5470 -0.7350  0.8193
  705MPD2    N110432   0.328   3.291  16.661 -0.1970  0.2910  0.1281
  705MPD2    H710433   0.286   3.359  16.599  2.6260  1.2359 -0.7426
  706TMC3    C110434   0.620   3.173  16.309 -0.2833  0.1023  0.8957
  706TMC3    C210435   0.639   3.301  16.273  0.7956 -0.1826 -0.8210
  706TMC3    C310436   0.576   3.399  16.347  0.4139 -0.3427  0.9478
  706TMC3    C410437   0.546   3.143  16.415  0.3892 -0.2745 -0.5662
  706TMC3    C510438   0.476   3.236  16.478  1.0719 -0.3103  0.1724
  706TMC3    C610439   0.490   3.369  16.448 -0.3786  0.6469 -0.6875
  706TMC3     C10440   0.673   3.063  16.230  0.0361  0.0578 -0.3130
  706TMC3     O10441   0.698   2.961  16.291  0.8327 -0.1185  0.1792
  706TMC3     H10442   0.719   3.324  16.204 -0.3487  2.5830 -1.2157
  706TMC3    H110443   0.524   3.038  16.428 -0.0873 -0.4095 -2.4362
  706TMC3    H210444   0.428   3.447  16.491 -1.3270  0.0128 -0.8739
  706TMC3    C710445   0.419   3.205  16.609 -0.7008 -1.0299  0.3447
  706TMC3    C810446   0.581   3.530  16.284 -0.0292 -0.2892  0.2214
  706TMC3    O110447   0.463   3.103  16.653 -0.0379 -0.3241  0.4945
  706TMC3    O210448   0.583   3.539  16.162 -0.2501 -0.3405 -0.7011
  707TMC3    C110449   1.336   2.039   1.404 -0.1342 -0.0401 -0.6714
  707TMC3    C210450   1.376   1.951   1.305  0.4233  0.1351 -0.3562
  707TMC3    C310451   1.308   1.949   1.183 -0.2032 -0.5811 -0.5978
  707TMC3    C410452   1.244   2.132   1.379 -0.8223  0.6500 -0.1715
  707TMC3    C510453   1.167   2.117   1.266  0.2083 -0.3346 -0.4463
  707TMC3    C610454   1.187   2.014   1.173 -0.0367  0.7273  0.2345
  707TMC3     C10455   1.436   2.070   1.502 -0.5304 -0.0316  0.2357
  707TMC3     O10456   1.532   1.990   1.505  0.5260 -0.2035 -0.0855
  707TMC3     H10457   1.470   1.896   1.302  0.9932  0.9947  1.6505
  707TMC3    H110458   1.214   2.201   1.457  0.0259 -0.4038  1.1007
  707TMC3    H210459   1.127   2.015   1.083 -2.5103  3.5317  1.9260
  707TMC3    C710460   1.074   2.229   1.220 -0.3836 -0.7976  0.6963
  707TMC3    C810461   1.377   1.911   1.062  0.0037 -0.2480 -0.0994
  707TMC3    O110462   0.993   2.205   1.131 -0.1217  0.1127  0.2801
  707TMC3    O210463   1.308   1.907   0.958  0.3183  0.1488 -0.5065
  708MPD2     C10464   3.178   2.108  13.912 -0.5697  0.1309  0.5073
  708MPD2    C110465   3.084   2.017  13.955 -0.2292 -0.4095 -0.2126
  708MPD2    C210466   3.095   1.958  14.077  0.0678 -0.1274  0.7232
  708MPD2    C310467   3.201   1.987  14.160 -0.0864 -1.0851 -0.0456
  708MPD2    C410468   3.300   2.065  14.111  0.1995 -0.0325  0.7519
  708MPD2    C510469   3.291   2.122  13.988  0.3362  1.1372 -0.9458
  708MPD2     H10470   3.026   1.878  14.103  0.5692 -0.1217  2.0459
  708MPD2    H110471   3.391   2.076  14.170  0.8826 -0.3320 -0.2563
  708MPD2    H210472   3.165   2.160  13.817  2.4022 -1.1368 -0.5968
  708MPD2    H310473   3.381   2.168  13.951  0.5157  0.9624 -0.7293
  708MPD2     N10474   3.220   1.926  14.285 -0.1756  0.4567  0.3644
  708MPD2    H510475   3.302   1.960  14.334 -1.6957 -0.8817  3.7818
  708MPD2    N110476   2.967   1.991  13.887 -0.2117 -0.4209  0.7107
  708MPD2    H710477   2.902   1.925  13.929  0.2513 -2.7322 -2.2549
  709TMC3    C110478   2.800   2.001  13.741 -0.9420 -0.4335  0.6794
  709TMC3    C210479   2.784   1.892  13.662  0.0257 -0.4503 -0.2866
  709TMC3    C310480   2.685   1.802  13.690  0.0014 -0.1900 -0.1587
  709TMC3    C410481   2.717   2.017  13.845 -0.7725  0.1681 -0.2490
  709TMC3    C510482   2.630   1.930  13.889  0.6111  0.1625 -0.2069
  709TMC3    C610483   2.607   1.821  13.805  0.2348  0.0693 -0.3519
  709TMC3     C10484   2.931   2.041  13.766  0.3783  0.6233  0.1969
  709TMC3     O10485   3.001   2.085  13.675  0.5159 -0.9494 -0.5102
  709TMC3     H10486   2.860   1.867  13.588  1.1103 -1.2605  1.1013
  709TMC3    H110487   2.737   2.100  13.911  1.7637 -0.5457 -0.1201
  709TMC3    H210488   2.540   1.744  13.842  2.4589 -0.4921  2.5408
  709TMC3    C710489   2.646   1.902  14.027 -0.3956  0.0270  0.4807
  709TMC3    C810490   2.697   1.674  13.621 -0.4189 -1.0902  0.0227
  709TMC3    O110491   2.744   1.833  14.051  0.3087  0.1670 -0.0759
  709TMC3    O210492   2.687   1.574  13.687 -0.2362 -0.1689 -0.4080
  710TMC3    C110493   4.229   3.060   0.921  0.4345 -0.3971 -0.0902
  710TMC3    C210494   4.258   3.048   0.789 -0.4779  0.0155  0.5344
  710TMC3    C310495   4.375   2.989   0.749 -0.2930 -0.0906 -0.2888
  710TMC3    C410496   4.315   3.017   1.018 -0.1694 -0.0073  0.3212
  710TMC3    C510497   4.431   2.957   0.973 -0.2424 -0.8656 -0.2981
  710TMC3    C610498   4.462   2.934   0.842  0.1671  1.0143 -0.5591
  710TMC3     C10499   4.113   3.136   0.952 -0.5365  0.3994 -0.2326
  710TMC3     O10500   4.031   3.162   0.862 -0.4921 -0.0496 -0.2520
  710TMC3     H10501   4.198   3.094   0.711  0.9065 -1.8796 -1.6368
  710TMC3    H110502   4.301   3.035   1.124 -1.3740  0.7312  0.0366
  710TMC3    H210503   4.559   2.899   0.809 -0.8614 -0.9264 -1.5020
  710TMC3    C710504   4.505   2.876   1.072  0.6324  0.1461  0.3038
  710TMC3    C810505   4.436   3.040   0.627 -0.0885 -0.5958 -0.3355
  710TMC3    O110506   4.471   2.894   1.188  0.6103  0.5183  0.9907
  710TMC3    O210507   4.468   2.954   0.547  0.2823  0.4472  0.0262
  711TMC3    C110508   4.053   4.415  15.205  0.4534  0.2788  0.3568
  711TMC3    C210509   4.115   4.473  15.311  0.1450  0.3509  0.0493
  711TMC3    C310510   4.245   4.443  15.338 -0.1157 -0.1936 -0.3819
  711TMC3    C410511   4.119   4.336  15.119 -0.6502 -0.1715 -0.4701
  711TMC3    C510512   4.250   4.299  15.150  0.1403 -0.2029  0.7515
  711TMC3    C610513   4.312   4.357  15.257 -0.0400 -0.7491  0.0874
  711TMC3     C10514   3.924   4.367  15.234 -0.1922  0.4024 -0.6695
  711TMC3     O10515   3.889   4.279  15.157  0.3816  0.3889 -0.5919
  711TMC3     H10516   4.064   4.548  15.372 -0.4064 -0.3304  0.4263
  711TMC3    H110517   4.073   4.304  15.026 -2.4617 -0.6655  0.6000
  711TMC3    H210518   4.410   4.319  15.284  0.7795 -1.2895 -3.6309
  711TMC3    C710519   4.289   4.164  15.123  0.6615 -0.3495 -0.0310
  711TMC3    C810520   4.292   4.474  15.477 -0.5818 -0.3418  0.2404
  711TMC3    O110521   4.402   4.132  15.154  0.0230  0.4089 -0.5559
  711TMC3    O210522   4.199   4.509  15.549 -0.8417  0.1003  0.2645
  712MPD2     C10523   1.002   0.726  13.947 -0.3262  0.1081  0.0115
  712MPD2    C110524   0.982   0.726  13.809 -0.1675  0.4871 -0.3348
  712MPD2    C210525   1.012   0.835  13.735 -0.4500 -0.1362 -0.3009
  712MPD2    C310526   1.081   0.938  13.796  0.2950  0.2625  0.1361
  712MPD2    C410527   1.111   0.936  13.925  0.1316 -0.2279 -0.0293
  712MPD2    C510528   1.062   0.837  14.004  0.1402  0.0609 -0.2353
  712MPD2     H10529   1.008   0.829  13.627 -0.3742  0.9921 -0.3678
  712MPD2    H110530   1.168   1.017  13.970  0.0783  0.1217 -0.5891
  712MPD2    H210531   0.963   0.647  14.011 -0.5939 -0.2998 -0.6515
  712MPD2    H310532   1.090   0.838  14.109  2.6458 -0.8679 -0.8984
  712MPD2     N10533   1.120   1.054  13.727  0.0495  0.5129 -0.2760
  712MPD2    H510534   1.170   1.127  13.776 -1.2861  1.2360  0.0175
  712MPD2    N110535   0.908   0.624  13.744  0.3624  0.2736  0.2595
  712MPD2    H710536   0.884   0.642  13.647 -0.9138  0.8325  0.6913
  713TMC3    C110537   1.119   1.218  13.547  0.2026 -1.0779  0.5392
  713TMC3    C210538   1.230   1.272  13.602 -0.9460  0.6909  0.1797
  713TMC3    C310539   1.277   1.379  13.538 -0.3448 -0.9902 -0.1606
  713TMC3    C410540   1.042   1.279  13.453 -0.1548 -0.9856 -0.9855
  713TMC3    C510541   1.082   1.399  13.412  0.2406 -0.7853  0.3329
  713TMC3    C610542   1.208   1.444  13.442 -0.6333 -0.1519 -0.2405
  713TMC3     C10543   1.082   1.085  13.598 -0.1992 -0.4104  0.4376
  713TMC3     O10544   0.988   1.034  13.534 -0.0411  0.7081 -0.2073
  713TMC3     H10545   1.284   1.214  13.676  0.9455  1.3363 -0.6958
  713TMC3    H110546   0.949   1.236  13.419 -1.4708  0.3340  1.0241
  713TMC3    H210547   1.239   1.539  13.398 -1.5633  0.1513 -0.2530
  713TMC3    C710548   1.004   1.487  13.334  0.3882 -0.0224  0.3180
  713TMC3    C810549   1.402   1.423  13.589 -0.4342  0.2956 -0.0868
  713TMC3    O110550   1.059   1.563  13.263  0.3963  0.7562 -0.4075
  713TMC3    O210551   1.466   1.346  13.662 -0.5693 -0.0738  0.2088
  714MPD2     C10552   3.076   3.960   1.980 -0.1581 -0.9280 -0.0678
  714MPD2    C110553   3.091   3.855   1.895  0.4619 -0.3035 -0.5182
  714MPD2    C210554   3.070   3.875   1.761  0.2909  0.2418  0.1849
  714MPD2    C310555   3.025   4.001   1.720 -0.1571  0.1187  0.1540
  714MPD2    C410556   2.999   4.110   1.810 -0.0766 -0.1874 -0.4729
  714MPD2    C510557   3.015   4.076   1.941  0.6613  0.0003 -0.0067
  714MPD2     H10558   3.075   3.796   1.687 -1.1275  0.3681 -0.0552
  714MPD2    H110559   2.969   4.212   1.790  0.8195 -0.1378 -1.5390
  714MPD2    H210560   3.091   3.951   2.087  0.8915 -0.4306 -0.1814
  714MPD2    H310561   2.990   4.147   2.019 -1.0249 -0.0982 -0.4534
  714MPD2     N10562   3.012   4.022   1.577 -0.0504  0.5323 -0.1397
  714MPD2    H510563   3.002   3.934   1.526  1.0712  1.1573 -1.4176
  714MPD2    N110564   3.140   3.737   1.956 -0.4955  0.5192  0.1313
  714MPD2    H710565   3.176   3.756   2.049  0.0534  0.7870 -0.1362
  715TMC3    C110566   3.246   3.520   1.953 -1.1907 -0.0532  0.1616
  715TMC3    C210567   3.267   3.405   1.879 -0.5264  0.0124  0.8928
  715TMC3    C310568   3.363   3.323   1.937  0.6317 -0.0554 -0.2837
  715TMC3    C410569   3.282   3.536   2.088 -0.3924  0.8563  0.5735
  715TMC3    C510570   3.360   3.440   2.143  0.1693  0.4225 -0.1188
  715TMC3    C610571   3.402   3.335   2.071 -0.6187  0.4822 -0.0286
  715TMC3     C10572   3.162   3.619   1.888 -0.8544  0.3753 -0.3169
  715TMC3     O10573   3.146   3.599   1.771  0.0277 -0.2127  0.8942
  715TMC3     H10574   3.249   3.402   1.772  0.2428  0.3583  0.7470
  715TMC3    H110575   3.270   3.626   2.147  0.1487  0.6580  0.9902
  715TMC3    H210576   3.469   3.264   2.118 -1.3941 -1.4337 -1.8105
  715TMC3    C710577   3.429   3.468   2.269  0.3861  0.0330 -0.2749
  715TMC3    C810578   3.464   3.274   1.841 -0.8239  0.1070 -0.5464
  715TMC3    O110579   3.547   3.429   2.279  0.5335  0.0333  0.3028
  715TMC3    O210580   3.448   3.288   1.719  0.1541 -0.0236  0.2985
  716MPD2     C10581   3.149   1.706  10.228 -0.1072  0.0150  0.5832
  716MPD2    C110582   3.063   1.650  10.139 -0.1015  0.1455  0.1174
  716MPD2    C210583   3.051   1.511  10.133  0.2172 -0.3406  0.3355
  716MPD2    C310584   3.115   1.439  10.226 -0.5844 -0.1902  0.5242
  716MPD2    C410585   3.194   1.497  10.320  0.1034  0.2076 -0.2322
  716MPD2    C510586   3.219   1.629  10.318  0.6358 -0.2264  0.0688
  716MPD2     H10587   2.995   1.465  10.052  0.3823 -2.3464  1.3416
  716MPD2    H110588   3.231   1.436  10.401 -0.3258  0.7855  0.3975
  716MPD2    H210589   3.157   1.814  10.228 -3.0808  0.2480  0.2845
  716MPD2    H310590   3.284   1.685  10.384 -0.1651 -0.0917  0.7290
  716MPD2     N10591   3.106   1.298  10.218 -0.7060  0.5213 -0.4493
  716MPD2    H510592   3.032   1.260  10.160 -2.2116  0.4164  1.5171
  716MPD2    N110593   2.999   1.734  10.044  0.1257 -0.5965 -0.2556
  716MPD2    H710594   3.025   1.831  10.055 -2.4147  0.1854 -1.1607
  717TMC3    C110595   3.139   1.065  10.245  0.2353  0.4011 -0.6202
  717TMC3    C210596   3.079   1.056  10.121 -0.2525 -0.2563 -0.2300
  717TMC3    C310597   3.054   0.924  10.086 -0.3798 -0.2973  1.4206
  717TMC3    C410598   3.173   0.967  10.335 -0.3057  0.9560  0.1789
  717TMC3    C510599   3.130   0.845  10.294 -0.6271  0.3952 -0.4929
  717TMC3    C610600   3.065   0.823  10.173 -0.7649 -0.2487 -0.3717
  717TMC3     C10601   3.183   1.203  10.279 -0.0280 -0.1572  0.4965
  717TMC3     O10602   3.287   1.215  10.342 -0.0471  0.4347 -0.4667
  717TMC3     H10603   3.048   1.136  10.054  1.6905 -0.5159 -1.4370
  717TMC3    H110604   3.209   0.989  10.435 -2.2199  2.5900  0.5166
  717TMC3    H210605   3.054   0.719  10.144  0.3796 -0.2662 -0.7453
  717TMC3    C710606   3.162   0.727  10.377  0.3516 -0.5230 -0.3057
  717TMC3    C810607   2.981   0.919   9.959  0.2999  0.2888  0.1687
  717TMC3    O110608   3.150   0.624  10.311 -0.2522  0.4460 -0.0476
  717TMC3    O210609   2.933   1.025   9.917  0.1617 -0.1007 -0.5472
  718MPD2     C10610   2.070   0.484  12.079  0.4320  0.0465 -0.2392
  718MPD2    C110611   2.156   0.425  12.165 -0.1747  0.1990  0.0906
  718MPD2    C210612   2.133   0.430  12.301 -0.5331 -0.1163  0.3066
  718MPD2    C310613   2.030   0.514  12.345 -0.3872 -0.4856  0.0251
  718MPD2    C410614   1.946   0.577  12.260  0.3183  0.3632 -0.4151
  718MPD2    C510615   1.961   0.561  12.128  0.2749  0.2246 -0.4623
  718MPD2     H10616   2.208   0.384  12.365  0.9628  0.4034 -1.0618
  718MPD2    H110617   1.852   0.618  12.293  0.1897 -0.8736  0.7635
  718MPD2    H210618   2.083   0.474  11.972 -1.4821 -0.6131 -0.4112
  718MPD2    H310619   1.890   0.617  12.068 -0.0841  0.3412  0.0650
  718MPD2     N10620   2.015   0.511  12.483 -0.2807 -0.1474  0.5385
  718MPD2    H510621   2.046   0.424  12.523  0.9328  0.6614  1.3561
  718MPD2    N110622   2.280   0.365  12.126 -0.1013  0.1339  0.1676
  718MPD2    H710623   2.339   0.330  12.200 -0.4580  1.6525  1.1846
  719TMC3    C110624   2.482   0.360  12.024  0.9393 -0.6258 -0.1213
  719TMC3    C210625   2.510   0.277  12.125  0.6100  0.8478 -0.4733
  719TMC3    C310626   2.600   0.317  12.220 -0.6371 -0.1062  0.1637
  719TMC3    C410627   2.555   0.469  12.004 -0.3304  0.3295 -0.0736
  719TMC3    C510628   2.645   0.509  12.086 -0.1290  0.1888 -0.1836
  719TMC3    C610629   2.673   0.431  12.200 -0.0043  0.2028 -0.5694
  719TMC3     C10630   2.343   0.388  12.004 -0.7097 -0.0220 -0.2758
  719TMC3     O10631   2.307   0.463  11.914  0.2106 -0.0007  0.2687
  719TMC3     H10632   2.459   0.182  12.138  0.3914  0.7414 -2.1690
  719TMC3    H110633   2.542   0.526  11.913  0.4482  1.5761  0.6035
  719TMC3    H210634   2.732   0.461  12.286 -2.0886 -1.3505  1.4192
  719TMC3    C710635   2.737   0.613  12.050 -0.8670 -1.1206  0.2619
  719TMC3    C810636   2.542   0.303  12.352 -0.4084 -0.1704  0.2047
  719TMC3    O110637   2.713   0.678  11.949 -0.0175  0.2647  0.1093
  719TMC3    O210638   2.422   0.282  12.365  0.2201  0.5631 -0.0939
  720MPD2     C10639   0.932   2.588  14.568  0.0126 -0.0750 -0.4398
  720MPD2    C110640   1.011   2.569  14.452  0.0354 -0.6602 -0.0854
  720MPD2    C210641   1.150   2.555  14.467  0.1808  0.4240  0.5211
  720MPD2    C310642   1.199   2.547  14.597  0.4323 -0.2943  0.5990
  720MPD2    C410643   1.118   2.560  14.708 -0.3843  0.3825 -0.2259
  720MPD2    C510644   0.986   2.586  14.694 -0.1372 -1.4400  0.1449
  720MPD2     H10645   1.205   2.537  14.376  1.0897  4.1154  0.3698
  720MPD2    H110646   1.158   2.561  14.808 -2.0635 -1.3218  0.4538
  720MPD2    H210647   0.827   2.615  14.556  0.1130  0.3085 -0.4278
  720MPD2    H310648   0.916   2.591  14.777 -0.0868 -1.8433  0.2162
  720MPD2     N10649   1.334   2.506  14.615  0.0899  0.2201  0.2587
  720MPD2    H510650   1.387   2.479  14.533 -3.1507 -1.6250 -1.2628
  720MPD2    N110651   0.959   2.579  14.315 -0.2901 -0.3609 -0.0859
  720MPD2    H710652   1.025   2.585  14.237 -0.0470 -2.2295 -0.0357
  721TMC3    C110653   1.518   2.428  14.722 -0.2406  0.2746  0.2160
  721TMC3    C210654   1.545   2.317  14.805  0.1122 -0.3005 -0.9234
  721TMC3    C310655   1.674   2.271  14.807  0.4998  0.2127 -0.5964
  721TMC3    C410656   1.615   2.484  14.641 -0.2607  0.1282 -0.5861
  721TMC3    C510657   1.748   2.431  14.638 -0.1873  0.1647  0.3499
  721TMC3    C610658   1.776   2.322  14.719 -0.1944  0.3692  0.6367
  721TMC3     C10659   1.394   2.490  14.744 -0.9932  0.1199 -0.1727
  721TMC3     O10660   1.344   2.479  14.855  0.5070  0.0718  0.6503
  721TMC3     H10661   1.457   2.268  14.846 -0.7367  2.0563  0.0613
  721TMC3    H110662   1.587   2.576  14.592 -2.5198  2.0946  4.3223
  721TMC3    H210663   1.871   2.271  14.720  0.8307  2.1918 -2.4621
  721TMC3    C710664   1.843   2.476  14.537  0.1536  0.1264  0.1947
  721TMC3    C810665   1.695   2.167  14.900 -0.7351  0.2139 -0.5613
  721TMC3    O110666   1.953   2.425  14.535 -0.0397  0.4283  0.0998
  721TMC3    O210667   1.798   2.099  14.888  0.2433  0.1334 -0.6261
  722MPD2     C10668   4.684   1.014  13.622 -0.4424  0.2045 -0.6868
  722MPD2    C110669   4.613   1.103  13.537 -0.5710 -0.4096  0.6056
  722MPD2    C210670   4.490   1.058  13.489  0.1247 -0.2370  0.2026
  722MPD2    C310671   4.437   0.936  13.536 -0.3673  0.9603 -0.5934
  722MPD2    C410672   4.500   0.862  13.632  0.5555 -0.1571  0.2440
  722MPD2    C510673   4.627   0.899  13.670  0.3502 -0.6573 -0.6986
  722MPD2     H10674   4.428   1.124  13.430  2.1101  0.3210 -1.2432
  722MPD2    H110675   4.465   0.771  13.679 -1.0808 -0.6939 -2.0704
  722MPD2    H210676   0.054   1.040  13.670 -1.5502 -0.2080  1.7309
  722MPD2    H310677   4.699   0.844  13.729  0.4023  0.9404  0.7406
  722MPD2     N10678   4.302   0.918  13.499  0.0083 -0.1572 -0.0769
  722MPD2    H510679   4.252   0.993  13.453  0.0870  0.0218  0.1351
  722MPD2    N110680   4.658   1.232  13.502 -0.3316  0.2039  0.3031
  722MPD2    H710681   4.596   1.286  13.443 -1.1969 -1.0916  0.0368
  723TMC3    C110682   4.085   0.813  13.532  0.2961 -0.1326  0.0677
  723TMC3    C210683   4.008   0.700  13.533  0.4806  0.4501  0.0968
  723TMC3    C310684   3.883   0.701  13.591  0.5083 -0.8153  0.1151
  723TMC3    C410685   4.050   0.928  13.591 -0.1336 -0.0235 -0.0578
  723TMC3    C510686   3.917   0.929  13.645 -0.1909 -0.2181 -0.2580
  723TMC3    C610687   3.832   0.820  13.643  0.0426  0.1827  0.8561
  723TMC3     C10688   4.236   0.797  13.526  0.5350 -0.3792 -0.0838
  723TMC3     O10689   4.281   0.684  13.526  0.1384  0.7290 -0.4805
  723TMC3     H10690   4.037   0.610  13.479 -0.3599  1.7575 -2.5108
  723TMC3    H110691   4.112   1.017  13.586  0.7321 -0.5178  1.5278
  723TMC3    H210692   3.730   0.828  13.679  0.7510  1.9893  2.4818
  723TMC3    C710693   3.858   1.059  13.661  0.1232  0.2479  0.1046
  723TMC3    C810694   3.803   0.583  13.601 -0.1257 -0.1768 -0.2529
  723TMC3    O110695   3.934   1.145  13.706  0.0707  0.8215  0.1091
  723TMC3    O210696   3.710   0.587  13.679 -0.1095 -0.5906  0.2296
  724TMC3    C110697   4.262   3.934   9.181 -0.0176  0.6469 -0.4283
  724TMC3    C210698   4.385   3.936   9.241 -0.0059 -0.1899  0.1084
  724TMC3    C310699   4.410   3.826   9.325  0.0910 -0.0535 -0.2712
  724TMC3    C410700   4.160   3.844   9.221 -0.4804 -0.2120  0.4846
  724TMC3    C510701   4.190   3.757   9.323 -0.1018 -0.1067 -0.0319
  724TMC3    C610702   4.315   3.743   9.364 -0.3672 -0.3836 -0.8929
  724TMC3     C10703   4.234   4.038   9.093 -1.4541  0.2723 -0.0776
  724TMC3     O10704   4.318   4.128   9.083  0.5543 -0.3761 -0.0014
  724TMC3     H10705   4.476   3.971   9.195 -0.2299  0.5824  0.2523
  724TMC3    H110706   4.059   3.858   9.184 -0.3601  1.4621  0.8011
  724TMC3    H210707   4.337   3.674   9.445  0.4475  0.2498 -0.5781
  724TMC3    C710708   4.082   3.672   9.383  0.2095  0.1871 -0.3239
  724TMC3    C810709   4.526   3.835   9.415 -0.0662  0.7811 -0.1575
  724TMC3    O110710   4.119   3.573   9.444  0.2592 -0.0466  0.5348
  724TMC3    O210711   4.567   3.731   9.468 -0.5328 -0.1721  0.1194
  725TMC3    C110712   1.633   2.786  12.857 -0.3535 -0.5118  0.0232
  725TMC3    C210713   1.514   2.847  12.840  0.2365 -0.0701 -0.3509
  725TMC3    C310714   1.410   2.777  12.784 -0.5893 -0.0298 -0.0441
  725TMC3    C410715   1.655   2.661  12.815 -0.3087 -0.4764  0.3028
  725TMC3    C510716   1.542   2.592  12.765 -0.7432 -0.3710 -0.1917
  725TMC3    C610717   1.423   2.652  12.741 -0.0670 -0.6765 -0.4030
  725TMC3     C10718   1.733   2.865  12.921 -0.2702 -0.3217  0.2070
  725TMC3     O10719   1.698   2.958  12.996 -0.8017 -0.0363 -0.0210
  725TMC3     H10720   1.499   2.950  12.873  0.6563 -1.5727  4.5344
  725TMC3    H110721   1.749   2.611  12.833  0.6980  1.8067  1.3958
  725TMC3    H210722   1.339   2.606  12.691  0.0829 -1.2329 -0.1379
  725TMC3    C710723   1.539   2.450  12.787 -0.5549 -0.2546 -0.6227
  725TMC3    C810724   1.274   2.842  12.764  0.4762  0.1822 -0.1389
  725TMC3    O110725   1.649   2.396  12.776 -0.3148  0.0143 -0.1455
  725TMC3    O210726   1.186   2.774  12.713  0.5333 -0.1091 -0.5798
  726MPD2     C10727   4.665   3.226  10.662 -0.0440 -0.0547  0.0368
  726MPD2    C110728   4.553   3.305  10.632  0.2413  0.4001  0.3788
  726MPD2    C210729   4.442   3.297  10.711 -0.0521  0.6622 -0.1643
  726MPD2    C310730   4.442   3.212  10.820 -0.1397 -0.1506 -0.4977
  726MPD2    C410731   4.550   3.131  10.839  0.9448  0.3173 -0.2477
  726MPD2    C510732   4.662   3.135  10.761  0.0299 -0.1280 -0.3458
  726MPD2     H10733   4.365   3.372  10.704  0.7679  1.4005 -1.2517
  726MPD2    H110734   4.560   3.046  10.906 -1.4735  1.7556  1.9468
  726MPD2    H210735   0.034   3.234  10.606  0.9843 -1.7991  1.5140
  726MPD2    H310736   0.021   3.068  10.782 -2.0656 -2.8530 -0.7477
  726MPD2     N10737   4.330   3.196  10.903 -0.6960  0.2406  0.0736
  726MPD2    H510738   4.343   3.146  10.991 -2.2375  0.5296  0.4681
  726MPD2    N110739   4.552   3.422  10.553  0.3901  0.2586  0.2268
  726MPD2    H710740   4.464   3.471  10.536  0.0723 -0.5151 -0.3910
  727TMC3    C110741   4.630   3.603  10.421 -0.4181 -0.0609  0.5672
  727TMC3    C210742   0.011   3.685  10.405 -1.2495  0.4816  0.5780
  727TMC3    C310743   4.715   3.821  10.385 -0.1089 -0.5477  0.9690
  727TMC3    C410744   4.505   3.651  10.420 -0.4551 -0.5354  0.8087
  727TMC3    C510745   4.486   3.778  10.377  0.1898  0.0261  0.3686
  727TMC3    C610746   4.586   3.866  10.370  0.1214  0.1646  0.0831
  727TMC3     C10747   4.658   3.476  10.482  0.0742 -0.3212 -0.1048
  727TMC3     O10748   0.052   3.441  10.486  0.1911 -0.2063  0.1433
  727TMC3     H10749   0.111   3.643  10.413 -1.1100  0.9787  1.4358
  727TMC3    H110750   4.422   3.582  10.426 -1.1577  0.3361  1.1590
  727TMC3    H210751   4.580   3.971  10.345 -2.5960 -0.1373 -0.5198
  727TMC3    C710752   4.354   3.818  10.329  0.1600  0.7360  0.2645
  727TMC3    C810753   0.103   3.916  10.402 -0.5377  0.4655 -0.3144
  727TMC3    O110754   4.270   3.726  10.318 -0.1049 -0.0784 -0.5584
  727TMC3    O210755   0.214   3.870  10.410 -0.0335  0.4029 -0.1335
  728TMC3    C110756   2.946   2.783  15.515 -0.9674  0.3428  0.2998
  728TMC3    C210757   3.080   2.782  15.552  0.2186  0.1023 -0.4475
  728TMC3    C310758   3.166   2.848  15.472  0.0144 -0.2406 -0.2032
  728TMC3    C410759   2.905   2.851  15.404 -0.4027 -0.1052 -0.0235
  728TMC3    C510760   2.992   2.917  15.324  0.4473  0.2333  0.5779
  728TMC3    C610761   3.126   2.923  15.361 -0.0870  0.2049 -0.1195
  728TMC3     C10762   2.849   2.707  15.578 -0.1175 -0.3823  1.0087
  728TMC3     O10763   2.739   2.712  15.527 -0.0043  0.2365 -0.4089
  728TMC3     H10764   3.115   2.735  15.644 -2.1521  1.4836  1.1754
  728TMC3    H110765   2.803   2.860  15.368 -0.2054 -0.0640 -0.5752
  728TMC3    H210766   3.193   2.989  15.307  0.0413 -1.3366 -1.8821
  728TMC3    C710767   2.935   3.011  15.236  0.1621 -0.4336  0.2160
  728TMC3    C810768   3.299   2.865  15.519  0.2995 -1.0624 -0.2168
  728TMC3    O110769   2.840   2.972  15.168 -0.1339 -0.0572  0.5425
  728TMC3    O210770   3.326   2.855  15.643  0.0971 -0.3445 -0.3041
  729MPD2     C10771   1.383   3.257  17.612 -0.5220 -0.1917  0.0809
  729MPD2    C110772   1.311   3.362  17.569  0.0596 -0.2219  0.2542
  729MPD2    C210773   1.237   3.445  17.658  0.0321  0.4219  0.3367
  729MPD2    C310774   1.240   3.415   0.098 -0.2955  0.0096 -0.0210
  729MPD2    C410775   1.315   3.312   0.143 -0.4080 -0.3747  0.0697
  729MPD2    C510776   1.377   3.229   0.054  0.3359 -0.2646  0.3925
  729MPD2     H10777   1.176   3.528  17.626  0.4007  0.4570 -0.2667
  729MPD2    H110778   1.308   3.279   0.246  0.5852 -0.5135  0.1014
  729MPD2    H210779   1.444   3.193  17.551  2.5923  1.3831  1.5088
  729MPD2    H310780   1.427   3.139   0.091  0.3213 -0.1981  0.5718
  729MPD2     N10781   1.164   3.489   0.191  0.0109  0.0422  0.2852
  729MPD2    H510782   1.153   3.448   0.283  1.3251  2.4295  1.5042
  729MPD2    N110783   1.318   3.393  17.433 -0.1234 -0.3130 -0.4542
  729MPD2    H710784   1.388   3.338  17.385  0.6024  2.0690 -2.1294
  730TMC3    C110785   1.004   3.641   0.283  0.6744  0.1768 -0.3294
  730TMC3    C210786   1.062   3.655   0.409 -0.8557  0.0261  0.8575
  730TMC3    C310787   1.038   3.775   0.477 -0.4420 -0.1206  0.0861
  730TMC3    C410788   0.908   3.729   0.239  0.4500 -0.0584 -0.0750
  730TMC3    C510789   0.891   3.847   0.306 -0.1141 -0.0511  0.7377
  730TMC3    C610790   0.962   3.870   0.420  0.2797 -1.1334 -0.1310
  730TMC3     C10791   1.098   3.612   0.174  0.0396 -0.0193 -0.0270
  730TMC3     O10792   1.079   3.689   0.077  0.9640 -0.5362  0.2475
  730TMC3     H10793   1.128   3.580   0.450 -0.2677  0.8015  1.3335
  730TMC3    H110794   0.866   3.720   0.140 -2.0593 -2.8026  1.2145
  730TMC3    H210795   0.944   3.967   0.465  0.8924 -1.8931  1.7605
  730TMC3    C710796   0.867   3.959   0.219 -0.5261 -0.0113  0.1750
  730TMC3    C810797   1.085   3.809   0.608 -0.1025 -0.6346  0.2409
  730TMC3    O110798   0.891   3.952   0.100  0.1037 -0.0208  0.2370
  730TMC3    O210799   1.032   3.903   0.666  0.6109  0.4717  0.0836
  731MPD2     C10800   0.193   2.014  12.284 -0.3642 -0.8995 -0.1895
  731MPD2    C110801   0.326   2.004  12.299 -0.1152  0.2079  0.4177
  731MPD2    C210802   0.391   2.035  12.414 -0.4127 -0.0268  0.6476
  731MPD2    C310803   0.312   2.076  12.521  0.9638  0.2897  0.3005
  731MPD2    C410804   0.175   2.092  12.510  0.1215  0.9495 -0.3947
  731MPD2    C510805   0.113   2.055  12.390 -0.3713  0.5851  0.1414
  731MPD2     H10806   0.499   2.028  12.420 -0.0185  4.5555 -1.1215
  731MPD2    H110807   0.129   2.094  12.608  2.3467  1.9871  0.6484
  731MPD2    H210808   0.149   1.989  12.188 -1.2131  1.3078 -0.3808
  731MPD2    H310809   0.008   2.032  12.382 -0.6166  1.9461 -0.4743
  731MPD2     N10810   0.382   2.086  12.639 -0.1887 -0.4285 -0.7469
  731MPD2    H510811   0.477   2.053  12.645  0.8015  2.6654  0.3137
  731MPD2    N110812   0.393   1.933  12.199 -0.0273  0.7547  0.0968
  731MPD2    H710813   0.333   1.906  12.121  0.3808  1.6828 -0.5295
  732TMC3    C110814   0.535   1.769  12.102  0.0195  0.6264  0.4007
  732TMC3    C210815   0.426   1.689  12.095  0.0449  0.0876 -0.0830
  732TMC3    C310816   0.443   1.557  12.054  0.6694  0.1683 -0.2015
  732TMC3    C410817   0.657   1.728  12.072  0.1506 -0.8810 -0.4555
  732TMC3    C510818   0.669   1.604  12.023  0.1867  0.2456  0.3509
  732TMC3    C610819   0.563   1.520  12.018 -1.1404 -0.0249  0.0248
  732TMC3     C10820   0.523   1.880  12.197  0.9380 -0.3221  0.8103
  732TMC3     O10821   0.623   1.900  12.267  0.4209 -0.3422  0.4600
  732TMC3     H10822   0.328   1.719  12.129  0.2091  0.3632  0.1525
  732TMC3    H110823   0.735   1.802  12.083 -0.2975 -0.2838 -1.2806
  732TMC3    H210824   0.592   1.416  12.002 -2.6379 -0.2875 -0.9418
  732TMC3    C710825   0.796   1.564  11.972  0.7194 -0.5090 -0.0068
  732TMC3    C810826   0.337   1.455  12.075  0.1554  0.5816 -0.3470
  732TMC3    O110827   0.801   1.483  11.879 -0.1663 -0.6608 -0.3075
  732TMC3    O210828   0.314   1.382  11.979 -0.5621  0.1803  0.1318
  733TMC3    C110829   1.893   0.565  12.917 -0.3416 -0.8883  0.4644
  733TMC3    C210830   1.866   0.590  12.783  0.2624  0.0209 -0.4940
  733TMC3    C310831   1.965   0.568  12.691  0.4478 -0.6465  0.3988
  733TMC3    C410832   2.013   0.521  12.958 -0.0729 -0.0505  0.7192
  733TMC3    C510833   2.107   0.516  12.860 -0.4005 -0.0943 -0.6068
  733TMC3    C610834   2.085   0.531  12.728 -0.1854 -0.5606  0.5596
  733TMC3     C10835   1.799   0.617  13.012 -0.6860 -0.1153 -0.2334
  733TMC3     O10836   1.706   0.676  12.960 -0.3330  0.1627  0.5527
  733TMC3     H10837   1.769   0.630  12.755 -0.9992  0.2895  4.2788
  733TMC3    H110838   2.045   0.491  13.057  2.5877  0.8287  0.1282
  733TMC3    H210839   2.164   0.540  12.654 -0.5609 -0.9105  0.1212
  733TMC3    C710840   2.246   0.474  12.894 -0.1044  0.1461 -0.4183
  733TMC3    C810841   1.932   0.592  12.557  0.0167  0.2487  0.1988
  733TMC3    O110842   2.296   0.514  13.001 -0.2834  0.5391 -0.1493
  733TMC3    O210843   1.873   0.693  12.528 -0.4017 -0.1409 -0.0651
  734MPD2     C10844   4.065   2.755  12.330 -0.0354 -0.3958  0.3153
  734MPD2    C110845   3.935   2.754  12.281 -0.0265 -0.3387  0.2563
  734MPD2    C210846   3.906   2.773  12.149  0.0588  0.5360 -0.1074
  734MPD2    C310847   4.004   2.790  12.062  0.2780  0.8883  0.7431
  734MPD2    C410848   4.137   2.805  12.106  0.3349 -0.3359 -0.9974
  734MPD2    C510849   4.161   2.787  12.238 -0.2234 -0.3829  0.3435
  734MPD2     H10850   3.808   2.754  12.108  1.5735 -0.6825 -3.1455
  734MPD2    H110851   4.221   2.839  12.046  0.6420 -1.5661 -1.2612
  734MPD2    H210852   4.092   2.749  12.435 -0.1787 -1.1868  0.3092
  734MPD2    H310853   4.260   2.820  12.268 -0.3997  0.1812  0.3093
  734MPD2     N10854   3.966   2.776  11.925 -0.2560  0.2979 -0.9375
  734MPD2    H510855   3.867   2.778  11.905 -1.0446 -0.6243  2.9762
  734MPD2    N110856   3.840   2.711  12.378  0.3399 -0.1530  0.2759
  734MPD2    H710857   3.874   2.678  12.468 -1.4683  0.6964  1.2787
  735TMC3    C110858   3.628   2.616  12.436 -0.7084  0.5158 -0.2848
  735TMC3    C210859   3.499   2.614  12.392  0.5503  0.3362  0.1724
  735TMC3    C310860   3.441   2.493  12.396  0.0096  0.5381 -0.3970
  735TMC3    C410861   3.696   2.503  12.475 -0.2881  0.1164 -0.1545
  735TMC3    C510862   3.633   2.382  12.479 -0.1042  0.1429  0.9193
  735TMC3    C610863   3.508   2.377  12.434  0.3414  0.5589 -0.2511
  735TMC3     C10864   3.704   2.711  12.358  0.1987 -0.6543 -0.7397
  735TMC3     O10865   3.642   2.759  12.264  0.8754 -0.6522  0.4426
  735TMC3     H10866   3.455   2.701  12.343 -0.0922  1.9413  3.5969
  735TMC3    H110867   3.800   2.506  12.505 -0.1522 -0.2390 -0.5829
  735TMC3    H210868   3.447   2.288  12.430  1.1421 -0.0246  0.4941
  735TMC3    C710869   3.720   2.281  12.434 -0.1696 -0.2710  0.1341
  735TMC3    C810870   3.369   2.476  12.275 -0.1357  0.1998  0.1170
  735TMC3    O110871   3.690   2.209  12.337 -0.3272 -0.4247  0.4094
  735TMC3    O210872   3.262   2.415  12.278  0.0870  0.4306 -0.2640
  736MPD2     C10873   4.029   2.178  12.605  0.4165 -0.7983  0.0751
  736MPD2    C110874   3.954   2.203  12.488  0.5516  0.6490  0.1909
  736MPD2    C210875   4.002   2.168  12.367 -0.8699  0.5943  0.3282
  736MPD2    C310876   4.121   2.103  12.361 -0.2214  0.0320  0.3210
  736MPD2    C410877   4.185   2.065  12.475  0.3360  0.1927 -0.6141
  736MPD2    C510878   4.138   2.104  12.599  0.6532 -0.7504  0.0792
  736MPD2     H10879   3.948   2.204  12.280  1.1651 -1.1827 -1.6591
  736MPD2    H110880   4.281   2.016  12.484 -0.1140 -0.2332  2.0422
  736MPD2    H210881   3.993   2.203  12.704 -0.3815 -1.2269 -0.1079
  736MPD2    H310882   4.187   2.057  12.684  0.6729  0.2252  0.6060
  736MPD2     N10883   4.199   2.086  12.239  0.3340  0.3400  0.3391
  736MPD2    H510884   4.288   2.038  12.247  0.4485  0.4861 -0.0663
  736MPD2    N110885   3.837   2.279  12.510 -0.1496  0.4462 -0.0368
  736MPD2    H710886   3.836   2.323  12.602 -1.5891  3.3510 -1.4258
  737TMC3    C110887   4.276   2.102  12.017  0.0770 -0.1733 -1.0227
  737TMC3    C210888   4.303   2.202  11.926 -0.3808 -0.4831 -0.5961
  737TMC3    C310889   4.420   2.174  11.854  0.1164  0.6932 -1.0765
  737TMC3    C410890   4.359   1.997  12.046  0.8037 -0.0544  0.0463
  737TMC3    C510891   4.477   1.983  11.974  0.2749  0.8572  0.9488
  737TMC3    C610892   4.501   2.069  11.876 -0.7638  0.1096 -0.0191
  737TMC3     C10893   4.165   2.132  12.111 -0.3243 -0.3967  0.6931
  737TMC3     O10894   4.072   2.204  12.076 -0.5385 -0.2897  0.0525
  737TMC3     H10895   4.252   2.297  11.916  0.4838  0.3753  3.0333
  737TMC3    H110896   4.325   1.921  12.115  1.2194 -0.0690  0.2347
  737TMC3    H210897   4.585   2.069  11.807 -0.5650 -2.1592  0.2399
  737TMC3    C710898   4.514   1.838  11.959  0.2123  0.3854 -0.2833
  737TMC3    C810899   4.465   2.270  11.753 -0.5058  0.3530 -0.1410
  737TMC3    O110900   4.437   1.752  11.993 -0.2659 -0.1033  0.0559
  737TMC3    O210901   4.578   2.309  11.772  0.0538 -0.4363 -0.3698
  738MPD2     C10902   4.371   1.732  15.467  0.1891 -0.5310  0.2162
  738MPD2    C110903   4.388   1.648  15.360  0.0269 -0.1199  0.4289
  738MPD2    C210904   4.466   1.692  15.248  0.1418 -0.2549 -0.0998
  738MPD2    C310905   4.510   1.823  15.248  1.0766 -0.0669 -0.3800
  738MPD2    C410906   4.484   1.901  15.354 -0.0442 -0.1427  0.9107
  738MPD2    C510907   4.421   1.855  15.463  0.6305  0.3240  0.6779
  738MPD2     H10908   4.487   1.624  15.166  1.0297  1.1745 -1.0359
  738MPD2    H110909   4.532   1.998  15.351 -0.3047 -0.0478 -0.0519
  738MPD2    H210910   4.309   1.714  15.554 -1.5214  3.2422 -0.2102
  738MPD2    H310911   4.412   1.908  15.558  0.9887  1.1815  0.2296
  738MPD2     N10912   4.609   1.860  15.155 -0.0665  0.0820  0.5025
  738MPD2    H510913   4.654   1.951  15.163  2.1949 -1.2175  2.5790
  738MPD2    N110914   4.317   1.524  15.356  0.1110 -0.7319  0.1260
  738MPD2    H710915   4.346   1.460  15.283  1.4058  2.0001 -1.7380
  739TMC3    C110916   0.039   1.847  14.969 -0.6036 -0.0506  0.2199
  739TMC3    C210917   0.049   1.846  14.838 -0.5188  0.3255 -0.1617
  739TMC3    C310918   0.162   1.910  14.787 -0.1184  0.2420 -0.5866
  739TMC3    C410919   0.147   1.883  15.051 -0.2032  0.5783  0.2383
  739TMC3    C510920   0.264   1.932  15.006 -0.3252 -0.3154 -0.1026
  739TMC3    C610921   0.275   1.950  14.867 -0.0968 -0.4027  0.1864
  739TMC3     C10922   4.643   1.786  15.040 -0.5592  0.7504 -0.2866
  739TMC3     O10923   4.579   1.696  14.990 -0.6445  0.2091  0.5868
  739TMC3     H10924   4.691   1.814  14.773 -1.0594  2.4062 -0.4841
  739TMC3    H110925   0.134   1.864  15.157  0.0067 -2.4180 -0.2740
  739TMC3    H210926   0.366   1.990  14.826 -1.4981  0.6031 -1.9223
  739TMC3    C710927   0.358   1.996  15.088 -0.7642  0.1893 -0.1426
  739TMC3    C810928   0.174   1.907  14.640  0.6133 -0.2161  0.0915
  739TMC3    O110929   0.472   2.002  15.046  0.5115 -0.0071 -0.5478
  739TMC3    O210930   0.077   1.874  14.573  0.1859 -0.0378  0.5300
  740TMC3    C110931   0.299   3.068  14.593 -0.2316  0.1568 -0.3593
  740TMC3    C210932   0.270   3.058  14.725 -0.1232  0.2498 -0.5797
  740TMC3    C310933   0.354   2.962  14.792 -0.0785 -0.5293  0.1241
  740TMC3    C410934   0.409   3.010  14.534  0.1256 -0.0656 -0.4830
  740TMC3    C510935   0.501   2.939  14.616  0.4741  0.6217  0.2700
  740TMC3    C610936   0.469   2.902  14.745 -0.0598  0.2593 -0.5240
  740TMC3     C10937   0.180   3.075  14.507  0.6910 -0.6295  0.0518
  740TMC3     O10938   0.183   3.062  14.380  0.1169  0.2057  0.1539
  740TMC3     H10939   0.198   3.119  14.779 -0.4148 -1.8841  1.4119
  740TMC3    H110940   0.420   3.025  14.427 -2.4330  1.8932 -0.4638
  740TMC3    H210941   0.542   2.851  14.807 -0.0714  0.2957 -0.4808
  740TMC3    C710942   0.633   2.909  14.564 -0.0561 -0.3314  0.3166
  740TMC3    C810943   0.298   2.897  14.909  0.4742 -0.3595 -0.0381
  740TMC3    O110944   0.706   2.844  14.639 -0.0766  0.5906 -0.2891
  740TMC3    O210945   0.198   2.954  14.957  0.0343  0.2366 -0.1646
  741TMC3    C110946   0.034   2.340  14.340  0.8525  0.0008  0.1398
  741TMC3    C210947   4.654   2.253  14.360  0.7765 -0.0744 -0.5528
  741TMC3    C310948   4.649   2.172  14.469 -0.0080 -0.3376 -0.1059
  741TMC3    C410949   0.128   2.364  14.441 -0.5072 -0.3939 -0.9018
  741TMC3    C510950   0.113   2.291  14.561  0.4808 -0.6617 -0.0516
  741TMC3    C610951   0.014   2.196  14.576  0.3604  0.1939 -0.5326
  741TMC3     C10952   0.075   2.380  14.204 -0.3324 -0.2254  0.0413
  741TMC3     O10953   0.189   2.420  14.202 -0.9649 -0.1865  0.0437
  741TMC3     H10954   4.576   2.247  14.286  0.8767  1.3086 -0.7626
  741TMC3    H110955   0.195   2.450  14.437 -0.4609 -0.2090  3.5674
  741TMC3    H210956   4.712   2.147  14.668 -0.2771 -1.8559 -1.8071
  741TMC3    C710957   0.225   2.279  14.652  0.1554 -0.8167  0.0361
  741TMC3    C810958   4.532   2.092  14.485 -0.8742  1.1154 -0.9354
  741TMC3    O110959   0.194   2.239  14.764 -0.2710  0.0518  0.4512
  741TMC3    O210960   4.423   2.145  14.467 -0.4886  0.0163  0.1232
  742TMC3    C110961   4.668   1.042  15.338  0.2311 -0.1344 -0.6851
  742TMC3    C210962   4.655   1.044  15.202 -0.2440  0.2679 -0.2646
  742TMC3    C310963   0.033   0.993  15.128 -0.0038  0.3295 -0.4079
  742TMC3    C410964   0.050   0.978  15.398  0.0765  1.0427 -0.2661
  742TMC3    C510965   0.145   0.915  15.315 -0.6176 -0.5077 -0.3398
  742TMC3    C610966   0.142   0.930  15.181 -0.2233  0.5870 -0.3122
  742TMC3     C10967   4.582   1.138  15.418 -0.0235  0.2691  0.6647
  742TMC3     O10968   4.529   1.221  15.349 -0.2974  0.7205  0.1934
  742TMC3     H10969   4.572   1.094  15.154  0.8242  0.1378 -2.2131
  742TMC3    H110970   0.068   0.993  15.504 -0.4507 -0.5573  0.0619
  742TMC3    H210971   0.206   0.874  15.114 -0.3221 -0.9430  0.8594
  742TMC3    C710972   0.252   0.832  15.369 -0.1737  0.2265  0.0231
  742TMC3    C810973   4.705   0.940  15.009 -0.0799  0.0485  0.3326
  742TMC3    O110974   0.345   0.796  15.290  0.2178  0.0694  0.0578
  742TMC3    O210975   4.591   0.894  15.015  0.1330  0.0317 -0.1997
  743MPD2     C10976   2.153   1.863   1.715 -0.9754  0.1495 -0.8781
  743MPD2    C110977   2.274   1.876   1.648  0.0436 -0.1081  0.3374
  743MPD2    C210978   2.379   1.907   1.724  0.7907 -0.6061  0.1642
  743MPD2    C310979   2.382   1.918   1.860 -0.1381 -0.2144 -0.1786
  743MPD2    C410980   2.261   1.894   1.927 -0.8773 -0.6009 -0.2533
  743MPD2    C510981   2.146   1.865   1.855  0.2113  0.0875 -0.2621
  743MPD2     H10982   2.477   1.906   1.676  1.1458  2.1818  0.8105
  743MPD2    H110983   2.248   1.897   2.034  0.4586  0.3800 -0.1211
  743MPD2    H210984   2.061   1.839   1.664 -1.5003  1.5755 -0.6153
  743MPD2    H310985   2.056   1.844   1.913 -0.8738 -0.5971 -2.2021
  743MPD2     N10986   2.514   1.942   1.922  0.2682  0.1586  0.1624
  743MPD2    H510987   2.596   1.964   1.866  0.9785 -0.1001  1.1000
  743MPD2    N110988   2.266   1.863   1.509 -0.1626 -0.5193 -0.0479
  743MPD2    H710989   2.174   1.860   1.469  0.0909  0.3572 -0.6978
  744TMC3    C110990   2.332   1.856   1.273 -0.0948  0.0381 -1.0416
  744TMC3    C210991   2.201   1.858   1.237  0.2300  0.1764 -0.3136
  744TMC3    C310992   2.168   1.868   1.107  0.0829 -0.0963 -1.1526
  744TMC3    C410993   2.431   1.877   1.182  0.5288  0.1102 -0.5313
  744TMC3    C510994   2.385   1.877   1.054 -0.7528 -0.7120 -0.2232
  744TMC3    C610995   2.258   1.884   1.002  0.8825 -1.1738  0.0234
  744TMC3     C10996   2.373   1.873   1.419  0.0998  0.3611  0.4944
  744TMC3     O10997   2.486   1.894   1.441 -0.2327 -0.0172 -0.4339
  744TMC3     H10998   2.124   1.859   1.314  0.1340 -0.3798 -0.4058
  744TMC3    H110999   2.535   1.884   1.209  0.5778 -1.4994 -0.2738
  744TMC3    H211000   2.229   1.919   0.903 -1.6047  0.0492  1.1867
  744TMC3    C711001   2.496   1.888   0.967 -0.1734  0.1056  1.0076
  744TMC3    C811002   2.031   1.906   1.090  0.1667 -0.0487  0.5253
  744TMC3    O111003   2.605   1.934   1.001 -0.2315  0.3962  0.0530
  744TMC3    O211004   1.964   1.968   1.171  0.3828 -0.1304  0.6284
  745TMC3    C111005   0.762   0.441  13.717  0.3449 -0.1269 -0.1869
  745TMC3    C211006   0.654   0.431  13.798 -0.2989  0.0679  1.2923
  745TMC3    C311007   0.529   0.460  13.761 -0.9748 -0.0363  0.1053
  745TMC3    C411008   0.743   0.477  13.587  0.4663  0.2793  0.8223
  745TMC3    C511009   0.610   0.509  13.550  0.1599  0.1440 -0.1251
  745TMC3    C611010   0.500   0.492  13.633  0.3338  0.0564  0.9249
  745TMC3     C11011   0.871   0.506  13.796 -0.6114  0.3175  0.2490
  745TMC3     O11012   0.892   0.462  13.908  0.2064 -0.4367 -0.3544
  745TMC3     H11013   0.664   0.389  13.897  1.2070 -1.0011  0.6796
  745TMC3    H111014   0.825   0.472  13.516 -1.0901  0.0140 -0.9607
  745TMC3    H211015   0.406   0.542  13.615 -0.0964 -0.9392  0.3952
  745TMC3    C711016   0.582   0.584  13.432 -0.3920 -0.0125  0.3181
  745TMC3    C811017   0.448   0.510  13.866 -0.4272  0.2644  0.2685
  745TMC3    O111018   0.463   0.607  13.404 -0.1942 -0.1020 -0.5531
  745TMC3    O211019   0.327   0.534  13.842 -0.3324  0.6648  0.4502
  746TMC3    C111020   2.337   2.244  10.790 -0.8309 -0.1176  0.2661
  746TMC3    C211021   2.392   2.226  10.667  1.2446  0.5222 -0.4554
  746TMC3    C311022   2.341   2.117  10.599  0.3053  0.6623  0.0681
  746TMC3    C411023   2.233   2.170  10.845 -0.1940 -0.7339  0.2384
  746TMC3    C511024   2.202   2.064  10.774  0.0643  0.7805 -0.1917
  746TMC3    C611025   2.245   2.043  10.646  0.5776  0.8181 -0.8710
  746TMC3     C11026   2.393   2.340  10.877 -0.5013  0.6255 -0.4674
  746TMC3     O11027   2.322   2.376  10.969  0.5116 -0.2799 -0.4913
  746TMC3     H11028   2.462   2.290  10.615  0.9454  2.0421  0.9840
  746TMC3    H111029   2.181   2.174  10.940 -0.1626 -1.2730  0.2787
  746TMC3    H211030   2.214   1.954  10.592  0.1894  0.0985  0.5601
  746TMC3    C711031   2.126   1.949  10.824  0.0793 -0.1081  0.2094
  746TMC3    C811032   2.356   2.121  10.454  0.2784  0.1804  0.5099
  746TMC3    O111033   2.055   1.882  10.747  0.5080  0.1462 -0.0244
  746TMC3    O211034   2.336   2.016  10.395  0.1780 -0.3768  0.1578
  747TMC3    C111035   0.732   1.628  11.481 -0.4696 -0.4500 -0.3790
  747TMC3    C211036   0.621   1.571  11.539  0.2284  0.0732  0.3192
  747TMC3    C311037   0.551   1.634  11.639  0.2642 -0.1902 -0.0599
  747TMC3    C411038   0.784   1.749  11.534  0.4407 -0.4117 -0.2806
  747TMC3    C511039   0.723   1.800  11.644 -0.5141 -0.2890 -0.7779
  747TMC3    C611040   0.603   1.749  11.699 -0.5579 -0.0578 -0.1121
  747TMC3     C11041   0.810   1.557  11.385  0.7620  0.5901 -0.7723
  747TMC3     O11042   0.933   1.583  11.386 -0.2658 -0.0660 -0.0102
  747TMC3     H11043   0.597   1.469  11.512  2.2272 -0.2959 -0.1329
  747TMC3    H111044   0.872   1.784  11.481  0.4599  0.0483  0.0527
  747TMC3    H211045   0.568   1.797  11.789  1.4355  2.7150 -0.7968
  747TMC3    C711046   0.816   1.857  11.745  0.3126 -0.1488 -0.3394
  747TMC3    C811047   0.426   1.571  11.680 -0.7513 -0.0813  0.2045
  747TMC3    O111048   0.773   1.904  11.849  0.0241 -0.2376 -0.3855
  747TMC3    O211049   0.410   1.456  11.646 -0.0018 -0.4554 -0.0520
  748MPD2     C11050   1.648   3.122   1.547 -0.1290 -0.3742 -0.4557
  748MPD2    C111051   1.718   3.028   1.622  0.5563  0.2030 -0.7111
  748MPD2    C211052   1.840   2.985   1.577  0.0133  0.2319  0.1865
  748MPD2    C311053   1.897   3.039   1.461 -0.1919  0.7784 -0.3639
  748MPD2    C411054   1.825   3.135   1.391  0.2213 -0.0398 -0.4970
  748MPD2    C511055   1.702   3.173   1.430  0.0296  0.1087 -0.3003
  748MPD2     H11056   1.898   2.917   1.637 -0.2022 -0.2069 -0.1087
  748MPD2    H111057   1.879   3.176   1.306  0.0524 -1.6480 -1.3774
  748MPD2    H211058   1.547   3.151   1.571 -0.0577 -0.5085  0.0025
  748MPD2    H311059   1.645   3.242   1.368 -1.3328 -2.1688 -1.6031
  748MPD2     N11060   2.025   2.993   1.412 -0.3395 -0.1590  0.0160
  748MPD2    H511061   2.078   2.947   1.485 -1.4130 -0.5270  0.5582
  748MPD2    N111062   1.648   2.972   1.731  0.5234 -0.5597  0.9459
  748MPD2    H711063   1.551   2.996   1.745  0.2830 -1.0139  0.0629
  749TMC3    C111064   2.215   2.966   1.259  0.3977 -0.5984 -0.1725
  749TMC3    C211065   2.284   2.895   1.355 -0.5500 -0.4267 -0.0976
  749TMC3    C311066   2.424   2.900   1.351 -0.0127  0.6701  0.0048
  749TMC3    C411067   2.282   3.024   1.156 -0.3211 -0.5923 -1.0980
  749TMC3    C511068   2.425   3.028   1.155 -0.5590  0.0180  0.5861
  749TMC3    C611069   2.495   2.964   1.250 -0.4310  0.0490 -0.2347
  749TMC3     C11070   2.079   3.025   1.286  0.8357  0.1153 -0.6183
  749TMC3     O11071   2.024   3.071   1.191 -0.4960 -0.3804  0.5247
  749TMC3     H11072   2.226   2.845   1.431 -0.2969 -0.0663  0.3296
  749TMC3    H111073   2.237   3.072   1.070 -0.4132  2.4749  0.6407
  749TMC3    H211074   2.603   2.972   1.254 -0.4436 -0.0190  0.3085
  749TMC3    C711075   2.504   3.127   1.071  0.5405  0.1196 -0.2433
  749TMC3    C811076   2.490   2.874   1.479  0.2360  0.3220 -0.2921
  749TMC3    O111077   2.625   3.135   1.080 -0.1337  0.1211  0.4866
  749TMC3    O211078   2.418   2.879   1.576  0.1980 -0.6979  0.2521
  750MPD2     C11079   3.611   3.777  11.425 -0.6629 -0.3844 -0.6178
  750MPD2    C111080   3.482   3.788  11.473  0.4724  0.2141 -0.7156
  750MPD2    C211081   3.375   3.723  11.410  0.1176 -0.5606  0.4642
  750MPD2    C311082   3.395   3.637  11.300  0.1375 -0.4205  0.3943
  750MPD2    C411083   3.522   3.637  11.248 -0.0314  0.1557  0.4424
  750MPD2    C511084   3.626   3.703  11.307  0.0062 -0.5567 -0.0792
  750MPD2     H11085   3.273   3.737  11.444  1.0905  1.9506  2.3601
  750MPD2    H111086   3.548   3.572  11.165  0.4685  1.3030 -0.2992
  750MPD2    H211087   3.691   3.833  11.470 -2.7152  0.3564  2.0834
  750MPD2    H311088   3.725   3.693  11.265  0.8076  1.0376  1.4252
  750MPD2     N11089   3.286   3.570  11.237 -0.3182 -0.4173  0.3323
  750MPD2    H511090   3.299   3.522  11.149 -4.9405  0.9723 -1.1153
  750MPD2    N111091   3.474   3.881  11.579 -0.5715  0.1146 -0.2111
  750MPD2    H711092   3.560   3.921  11.615 -1.0709  0.7482  0.2564
  751TMC3    C111093   3.065   3.478  11.209  0.6285 -0.8437  0.0096
  751TMC3    C211094   2.939   3.440  11.254  0.2894 -0.0666 -0.0622
  751TMC3    C311095   2.852   3.377  11.172 -0.6932  0.3888 -0.7670
  751TMC3    C411096   3.095   3.468  11.077  0.0470  0.2939  0.2984
  751TMC3    C511097   2.995   3.415  10.996 -0.5268 -0.1049  0.9744
  751TMC3    C611098   2.882   3.362  11.039  0.8327 -0.3670  0.2973
  751TMC3     C11099   3.162   3.552  11.297  0.0909  0.0712  0.3507
  751TMC3     O11100   3.124   3.584  11.410  0.1424 -0.1499 -0.1486
  751TMC3     H11101   2.917   3.451  11.359  2.3865  1.9375  0.1692
  751TMC3    H111102   3.186   3.504  11.032  0.6863 -0.5616  0.9144
  751TMC3    H211103   2.808   3.322  10.971  0.0861  1.3000  0.1030
  751TMC3    C711104   3.021   3.434  10.857 -0.0461 -1.2771  0.1230
  751TMC3    C811105   2.719   3.340  11.208 -0.4275 -0.0200 -0.0605
  751TMC3    O111106   3.091   3.531  10.828  0.0225  0.2267  0.1908
  751TMC3    O211107   2.662   3.271  11.124  0.2309  0.1616 -0.3379
  752TMC3    C111108   1.729   2.667  17.369  0.2146 -0.1213  0.3442
  752TMC3    C211109   1.817   2.579  17.423  0.2574 -0.6452 -0.4064
  752TMC3    C311110   1.777   2.540  17.547 -0.3456  0.0164  0.3974
  752TMC3    C411111   1.607   2.706  17.423  0.5177  0.2314  0.0680
  752TMC3    C511112   1.574   2.644  17.534 -0.1504 -0.8288 -0.1965
  752TMC3    C611113   1.665   2.579  17.609  0.3834  0.1638  0.2476
  752TMC3     C11114   1.795   2.755  17.273 -0.8352 -0.5894 -0.1100
  752TMC3     O11115   1.880   2.698  17.203 -0.0810 -0.8715  0.2110
  752TMC3     H11116   1.920   2.570  17.389  0.6993  2.7694  0.0407
  752TMC3    H111117   1.536   2.773  17.375  0.9079 -0.9325 -2.1474
  752TMC3    H211118   1.637   2.537   0.009 -2.7120 -0.4884 -0.9384
  752TMC3    C711119   1.454   2.693  17.602 -0.0633  0.3466  0.7664
  752TMC3    C811120   1.874   2.464  17.621 -0.3866  0.4383 -0.2818
  752TMC3    O111121   1.462   2.720   0.024 -0.2516 -0.1547 -0.1438
  752TMC3    O211122   1.966   2.410  17.560 -0.1586  0.0729  0.1421
  753TMC3    C111123   3.455   4.653  13.964 -0.2147 -0.2980 -0.2647
  753TMC3    C211124   3.555   4.677  14.051  0.4909  0.4906  0.9129
  753TMC3    C311125   3.610   4.561  14.110 -1.0896 -0.4043 -0.2742
  753TMC3    C411126   3.417   4.522  13.930  0.5089 -0.8076 -0.4424
  753TMC3    C511127   3.471   4.413  13.986 -0.1054 -0.4049 -0.8491
  753TMC3    C611128   3.566   4.434  14.076  0.0130  0.1197 -0.5528
  753TMC3     C11129   3.419   0.037  13.872  0.0541 -0.1945 -0.7945
  753TMC3     O11130   3.372   4.723  13.764 -0.0446  0.2318  0.6033
  753TMC3     H11131   3.601   0.052  14.062  2.1383 -0.5344  3.1703
  753TMC3    H111132   3.331   4.514  13.865 -0.2292 -2.4733  0.7444
  753TMC3    H211133   3.621   4.354  14.124 -1.9332 -1.3960 -0.8448
  753TMC3    C711134   3.401   4.283  13.965 -0.4293 -0.8447 -0.1703
  753TMC3    C811135   3.726   4.578  14.206  0.4616  0.2764 -0.0651
  753TMC3    O111136   3.315   4.274  13.878  0.1229  0.6684 -0.0886
  753TMC3    O211137   3.783   4.479  14.251  0.3409  0.6051  0.4227
  754MPD2     C11138   2.795   3.903  12.968 -0.0049 -0.7412 -0.7852
  754MPD2    C111139   2.768   3.769  12.965  0.0421  0.5055  0.7961
  754MPD2    C211140   2.638   3.726  12.973 -0.1427  0.0321  0.2241
  754MPD2    C311141   2.526   3.812  12.983  0.0918  0.1939 -0.4324
  754MPD2    C411142   2.551   3.948  12.993 -0.1191  0.6683 -0.9030
  754MPD2    C511143   2.683   3.988  12.977 -0.0598 -0.6153 -0.3382
  754MPD2     H11144   2.621   3.619  12.979 -1.0522  0.1818  0.3510
  754MPD2    H111145   2.476   4.018  13.028 -0.7831 -0.3575 -0.2669
  754MPD2    H211146   2.894   3.947  12.969 -0.5414  0.4451 -0.1015
  754MPD2    H311147   2.715   4.088  13.004  2.2505 -0.2493 -4.4766
  754MPD2     N11148   2.396   3.763  13.016 -0.1914  0.1253 -0.0875
  754MPD2    H511149   2.323   3.832  13.001 -0.5079 -0.2581 -0.3203
  754MPD2    N111150   2.884   3.685  12.970 -0.5577 -0.0254  0.0777
  754MPD2    H711151   2.967   3.732  12.938 -0.0562 -0.9115  0.0826
  755MPD2     C11152   1.621   4.168  13.266  0.7304  1.0288 -0.4013
  755MPD2    C111153   1.619   4.041  13.329  0.3241 -1.0482  0.3086
  755MPD2    C211154   1.722   3.957  13.306 -0.0509  0.2604 -0.3775
  755MPD2    C311155   1.833   3.987  13.223 -0.1261  0.5577  0.6170
  755MPD2    C411156   1.836   4.114  13.171 -0.0835  0.2412  0.4786
  755MPD2    C511157   1.729   4.198  13.189 -0.0757 -0.1350 -0.4872
  755MPD2     H11158   1.723   3.868  13.368 -0.7997 -0.1195 -0.9057
  755MPD2    H111159   1.915   4.148  13.106  1.1305 -1.2188  1.1996
  755MPD2    H211160   1.545   4.241  13.289 -0.7830 -0.9572  0.9496
  755MPD2    H311161   1.729   4.300  13.152 -1.6919  0.0684  0.0923
  755MPD2     N11162   1.934   3.892  13.192  0.4088 -0.3776  0.1730
  755MPD2    H511163   2.004   3.915  13.122 -0.9272 -0.3380 -1.1546
  755MPD2    N111164   1.506   4.004  13.404 -0.6533 -0.6832  0.2912
  755MPD2    H711165   1.518   3.914  13.451  1.0733 -0.7398 -0.2480
  756MPD2     C11166   2.854   3.816   9.875  0.1164  0.0766  0.7742
  756MPD2    C111167   2.765   3.912   9.922  0.6321  0.3192  0.1278
  756MPD2    C211168   2.652   3.940   9.848  0.2247 -0.1469 -0.1903
  756MPD2    C311169   2.625   3.874   9.731 -0.5935 -0.1633 -0.1695
  756MPD2    C411170   2.723   3.788   9.677 -0.1644  1.0345  0.1068
  756MPD2    C511171   2.834   3.755   9.754 -0.2268 -0.0715  0.2690
  756MPD2     H11172   2.585   4.020   9.878  0.6697  0.7405 -1.5621
  756MPD2    H111173   2.715   3.749   9.576 -0.4895  0.5886  0.3019
  756MPD2    H211174   2.942   3.793   9.933  1.5972 -0.3450 -1.6683
  756MPD2    H311175   2.917   3.708   9.703 -1.4268  0.2557 -1.9844
  756MPD2     N11176   2.508   3.904   9.658  0.5802 -0.7211 -0.4000
  756MPD2    H511177   2.460   3.988   9.689  2.3342 -0.2783  1.1168
  756MPD2    N111178   2.775   3.985  10.045 -0.0037  0.1076  0.0954
  756MPD2    H711179   2.692   4.031  10.082 -0.0997  1.1878 -1.4642
  757MPD2     C11180   1.931   3.351   9.057 -0.0339  0.3614 -0.1889
  757MPD2    C111181   2.020   3.327   9.159  0.9677  0.1343 -0.5016
  757MPD2    C211182   2.093   3.428   9.209  0.2617 -0.2042  0.4476
  757MPD2    C311183   2.074   3.560   9.167 -0.7729 -0.6047  0.0711
  757MPD2    C411184   1.982   3.581   9.060  0.5236 -0.1166  0.2757
  757MPD2    C511185   1.914   3.475   9.009 -0.0809 -0.2427  0.1119
  757MPD2     H11186   2.165   3.416   9.288  0.7416  0.5334  0.1177
  757MPD2    H111187   1.953   3.679   9.026  0.7446 -0.9603 -2.4114
  757MPD2    H211188   1.882   3.264   9.014  0.7198 -0.1257 -0.0624
  757MPD2    H311189   1.846   3.501   8.929  0.4166 -0.0147 -0.2353
  757MPD2     N11190   2.143   3.660   9.235  0.3923 -0.5807  0.0117
  757MPD2    H511191   2.181   3.634   9.325  2.3841 -2.0334 -1.2411
  757MPD2    N111192   2.017   3.194   9.212 -0.1394  0.7581 -1.2454
  757MPD2    H711193   1.955   3.128   9.165 -1.0103 -0.8831  2.2454
  758MPD2     C11194   2.676   2.401  16.958  0.1687 -0.4164  0.9468
  758MPD2    C111195   2.655   2.479  16.845  0.0394 -0.2924 -0.5190
  758MPD2    C211196   2.617   2.610  16.871  0.5299  0.0014 -0.2019
  758MPD2    C311197   2.616   2.662  16.999 -0.3082  1.0395 -0.1049
  758MPD2    C411198   2.627   2.581  17.105  0.6915 -0.0724  0.6148
  758MPD2    C511199   2.661   2.450  17.083  0.6954  0.2440  0.2583
  758MPD2     H11200   2.582   2.664  16.784 -0.9755  0.6576  0.8203
  758MPD2    H111201   2.627   2.619  17.207 -1.3776  0.5952  0.3834
  758MPD2    H211202   2.706   2.298  16.942  0.7960  0.1263 -1.3961
  758MPD2    H311203   2.663   2.384  17.169 -3.5523  0.2034  0.3533
  758MPD2     N11204   2.597   2.802  17.025 -0.1925 -0.1341  1.0120
  758MPD2    H511205   2.570   2.835  17.117 -2.2079 -0.6802  0.6362
  758MPD2    N111206   2.682   2.434  16.706 -0.3519  0.4344 -0.6727
  758MPD2    H711207   2.719   2.339  16.700  2.9126  1.5592  1.7079
  759MPD2     C11208   1.502   1.539  10.287  0.1870  0.5629  0.0511
  759MPD2    C111209   1.529   1.462  10.175 -0.0224 -0.3243  0.4793
  759MPD2    C211210   1.544   1.527  10.052  0.3072  0.3394  0.1761
  759MPD2    C311211   1.563   1.666  10.043 -0.2800  0.3045  1.4747
  759MPD2    C411212   1.552   1.739  10.156  0.1263  0.3243 -0.1739
  759MPD2    C511213   1.517   1.674  10.271 -0.7147 -0.2332 -0.0972
  759MPD2     H11214   1.557   1.468   9.963 -0.3383  0.6672 -0.1353
  759MPD2    H111215   1.570   1.846  10.168 -0.0476  0.2578  0.6649
  759MPD2    H211216   1.486   1.509  10.390 -2.9477  1.1014 -0.2694
  759MPD2    H311217   1.512   1.742  10.356 -1.2181  0.6051 -0.7947
  759MPD2     N11218   1.583   1.721   9.915  0.5562  0.2496 -0.0570
  759MPD2    H511219   1.579   1.658   9.836  0.1134 -0.0618  0.2115
  759MPD2    N111220   1.533   1.324  10.184 -0.2562 -0.0680 -0.0141
  759MPD2    H711221   1.528   1.276  10.095 -1.4860  4.1349 -2.2419
  760MPD2     C11222   0.723   4.339  12.392  0.4952 -0.1964 -0.7551
  760MPD2    C111223   0.851   4.310  12.349 -0.6141  0.4598  0.8623
  760MPD2    C211224   0.919   4.211  12.419 -0.2428 -0.8567 -0.3543
  760MPD2    C311225   0.863   4.133  12.517 -0.5842  0.1242  0.8570
  760MPD2    C411226   0.729   4.160  12.552  0.3316 -0.3735  0.0333
  760MPD2    C511227   0.664   4.257  12.479 -0.2694 -0.5821  0.5994
  760MPD2     H11228   1.018   4.181  12.388 -0.1024 -1.0373  0.2758
  760MPD2    H111229   0.680   4.107  12.632  2.8094 -3.1424 -0.2855
  760MPD2    H211230   0.654   4.407  12.344 -1.9409 -1.1579  1.4451
  760MPD2    H311231   0.566   4.288  12.514 -2.1342 -4.4728 -1.2567
  760MPD2     N11232   0.931   4.022  12.576 -0.3762 -0.5271 -0.4094
  760MPD2    H511233   0.886   3.971  12.651 -0.8770  2.7950  1.5399
  760MPD2    N111234   0.917   4.392  12.254 -0.6316 -0.0476  0.1040
  760MPD2    H711235   1.014   4.366  12.237 -1.0572 -1.3099 -0.4824
  761MPD2     C11236   2.278   3.358  11.461  0.0773  0.3013 -0.2218
  761MPD2    C111237   2.305   3.315  11.335 -0.3253 -0.6064  0.1177
  761MPD2    C211238   2.438   3.333  11.288  0.4093  0.3263  0.3033
  761MPD2    C311239   2.532   3.396  11.365 -0.0542 -0.5203  0.7141
  761MPD2    C411240   2.502   3.424  11.497 -0.4833  0.2370  0.3179
  761MPD2    C511241   2.370   3.406  11.542  0.0872 -0.5507 -0.6948
  761MPD2     H11242   2.459   3.296  11.189 -0.6328  1.9581 -0.5128
  761MPD2    H111243   2.581   3.466  11.558 -3.1063  4.1398  1.0435
  761MPD2    H211244   2.178   3.349  11.501  0.7768  0.7345  1.6355
  761MPD2    H311245   2.342   3.432  11.643  1.1348 -0.7976 -0.3421
  761MPD2     N11246   2.669   3.400  11.326 -0.4527  1.1733 -0.2645
  761MPD2    H511247   2.733   3.453  11.384 -2.7499  2.1097  1.3829
  761MPD2    N111248   2.197   3.259  11.265  0.3250  0.1992 -0.4123
  761MPD2    H711249   2.104   3.253  11.305  0.4749 -2.4304 -0.4956
  762MPD2     C11250   2.481   3.230  10.734 -0.0195 -0.2764 -0.1856
  762MPD2    C111251   2.380   3.157  10.680 -0.4156 -0.1695  0.3124
  762MPD2    C211252   2.390   3.110  10.556  0.1470  0.0059 -0.2080
  762MPD2    C311253   2.504   3.135  10.479  0.2344  0.2707 -0.0214
  762MPD2    C411254   2.604   3.217  10.530  0.5274 -0.5132 -0.3791
  762MPD2    C511255   2.589   3.272  10.659  0.1165 -0.6935 -0.9647
  762MPD2     H11256   2.319   3.033  10.528  0.1309  1.4502 -4.0814
  762MPD2    H111257   2.695   3.243  10.476  1.4878 -0.1374  1.4345
  762MPD2    H211258   2.462   3.272  10.832 -3.4795 -2.8855  0.2683
  762MPD2    H311259   2.659   3.342  10.704  1.0293 -0.3146 -3.0005
  762MPD2     N11260   2.504   3.085  10.346 -0.4169  0.2512 -0.6335
  762MPD2    H511261   2.431   3.017  10.323  2.0350 -2.5629 -0.1122
  762MPD2    N111262   2.276   3.130  10.777  0.0952 -0.3157  0.0374
  762MPD2    H711263   2.291   3.173  10.868 -0.2526  0.8083 -0.4412
  763MPD2     C11264   4.495   3.578  16.447  0.0677 -0.6222 -0.8718
  763MPD2    C111265   4.405   3.668  16.400  0.1253 -0.5547 -0.2556
  763MPD2    C211266   4.428   3.801  16.440 -0.0015 -0.4792 -1.1294
  763MPD2    C311267   4.534   3.840  16.526 -0.3834  0.2237  0.8484
  763MPD2    C411268   4.619   3.747  16.569 -0.2408 -0.4119 -0.1993
  763MPD2    C511269   4.600   3.624  16.521  0.1502  0.7160 -0.6518
  763MPD2     H11270   4.358   3.877  16.407 -1.9148 -1.8013 -0.1360
  763MPD2    H111271   4.702   3.779  16.631  0.2948 -0.0334 -1.1133
  763MPD2    H211272   4.502   3.470  16.437 -1.9183 -0.8797  0.5883
  763MPD2    H311273   4.663   3.544  16.561 -1.0025  0.0263 -0.2247
  763MPD2     N11274   4.565   3.976  16.550 -0.0449  0.5115 -0.1665
  763MPD2    H511275   4.642   4.000  16.612 -1.0858  0.3130  1.1906
  763MPD2    N111276   4.311   3.632  16.302 -0.2031 -0.0708 -0.1627
  763MPD2    H711277   4.264   3.712  16.261 -0.2728 -1.0101 -1.8981
  764MPD2     C11278   2.415   0.339  17.435 -0.8319  0.2351 -0.1040
  764MPD2    C111279   2.420   0.205  17.388 -0.3120 -0.8938 -0.3714
  764MPD2    C211280   2.468   0.105  17.478 -0.0561  0.0435  0.0229
  764MPD2    C311281   2.505   0.128  17.607  0.5868  0.3779 -0.0677
  764MPD2    C411282   2.505   0.259  17.653  0.3131  1.0470  0.0895
  764MPD2    C511283   2.457   0.360  17.565 -1.5064 -0.1187 -0.2115
  764MPD2     H11284   2.460   0.001  17.449 -5.2154 -0.5822  3.7251
  764MPD2    H111285   2.529   0.291   0.058  0.2320 -0.8390  0.7060
  764MPD2    H211286   2.362   0.418  17.384 -2.0445 -1.0148 -0.7828
  764MPD2    H311287   2.464   0.460  17.607 -4.0146 -0.2976  0.6226
  764MPD2     N11288   2.550   0.019  17.687  0.4566 -0.0635  0.3222
  764MPD2    H511289   2.562   4.658  17.632  0.4591  0.5243 -0.5772
  764MPD2    N111290   2.365   0.162  17.261  1.0251 -0.1870  0.2978
  764MPD2    H711291   2.347   0.063  17.250  1.6737 -0.3935  1.0769
  765MPD2     C11292   1.613   2.427  16.169 -0.0699  0.3911  0.8112
  765MPD2    C111293   1.702   2.518  16.127 -0.4570 -0.3761 -0.0180
  765MPD2    C211294   1.808   2.479  16.044  0.1554 -0.5115  0.4561
  765MPD2    C311295   1.822   2.342  16.005  0.4348  0.6113 -1.0656
  765MPD2    C411296   1.716   2.253  16.042 -0.7724 -0.2062 -0.0180
  765MPD2    C511297   1.618   2.294  16.127  0.2095 -0.0371  0.1806
  765MPD2     H11298   1.876   2.555  16.008 -0.7563  0.7927  1.5048
  765MPD2    H111299   1.709   2.151  16.005  2.0728  0.1824 -1.6188
  765MPD2    H211300   1.537   2.466  16.236 -2.1477 -1.6451 -0.3688
  765MPD2    H311301   1.545   2.220  16.159  0.4839 -1.3081 -2.1375
  765MPD2     N11302   1.926   2.308  15.912 -0.5804 -0.8488  0.3589
  765MPD2    H511303   1.985   2.384  15.881 -0.7672 -1.1111 -0.6520
  765MPD2    N111304   1.688   2.649  16.167 -0.2529 -0.3148 -0.3142
  765MPD2    H711305   1.596   2.684  16.194  0.3969  1.3135 -0.1848
  766MPD2     C11306   1.261   2.919  15.649  0.7320  1.1158  0.0453
  766MPD2    C111307   1.390   2.961  15.646 -0.5863 -0.3071  0.1413
  766MPD2    C211308   1.454   2.968  15.526  0.2977  0.2552 -0.5938
  766MPD2    C311309   1.400   2.929  15.408 -0.2889  0.4952 -0.1479
  766MPD2    C411310   1.274   2.885  15.402  0.0234  0.2313  0.3791
  766MPD2    C511311   1.204   2.877  15.525 -0.5845  0.6327  0.6604
  766MPD2     H11312   1.556   3.004  15.529  0.4236 -0.1640  0.2006
  766MPD2    H111313   1.238   2.849  15.307  1.2003  1.4813 -0.5242
  766MPD2    H211314   1.194   2.910  15.733 -0.4065 -1.5324 -1.1358
  766MPD2    H311315   1.099   2.851  15.525 -0.7860  1.4607 -3.7208
  766MPD2     N11316   1.466   2.935  15.284 -0.6275 -0.7745 -0.1265
  766MPD2    H511317   1.414   2.903  15.202 -0.1168 -2.0681  0.0524
  766MPD2    N111318   1.451   3.003  15.761  0.7243 -0.2168  0.8222
  766MPD2    H711319   1.533   3.059  15.740 -0.0583  1.1537  1.4493
  767MPD2     C11320   1.092   3.191  15.434  0.6128 -0.5290  0.4590
  767MPD2    C111321   1.184   3.252  15.357  1.0389  0.5695 -0.2488
  767MPD2    C211322   1.206   3.216  15.224 -0.1072  0.7837  0.9538
  767MPD2    C311323   1.110   3.124  15.161  0.4351  0.0128  0.2143
  767MPD2    C411324   1.011   3.068  15.235  0.2565 -0.3625 -0.5058
  767MPD2    C511325   1.005   3.101  15.374 -0.1749 -0.7348  0.3675
  767MPD2     H11326   1.293   3.257  15.174  0.8088 -1.4809  0.6997
  767MPD2    H111327   0.935   3.004  15.192 -0.8329  1.1924 -0.9073
  767MPD2    H211328   1.081   3.206  15.540 -0.8875 -0.0555  0.2378
  767MPD2    H311329   0.930   3.055  15.438  0.0371 -1.4239  0.1213
  767MPD2     N11330   1.131   3.088  15.024 -0.5374 -0.4600 -0.2540
  767MPD2    H511331   1.207   3.134  14.975 -0.4859  0.3013  0.5249
  767MPD2    N111332   1.280   3.337  15.416  0.0942  0.2191 -0.1900
  767MPD2    H711333   1.288   3.318  15.515  0.4339  2.5497  0.2269
  768MPD2     C11334   1.920   1.489  10.450  0.7745 -0.1614 -0.0731
  768MPD2    C111335   1.920   1.420  10.565 -0.6189  0.6098  0.3849
  768MPD2    C211336   2.013   1.440  10.655 -0.2887 -0.7232 -0.6953
  768MPD2    C311337   2.121   1.521  10.624  0.5317 -0.4010 -0.0108
  768MPD2    C411338   2.127   1.595  10.511  0.6603 -0.3117  0.6113
  768MPD2    C511339   2.022   1.578  10.421 -0.7117  0.7941 -0.0490
  768MPD2     H11340   1.998   1.396  10.753 -2.5596  1.4648 -0.0463
  768MPD2    H111341   2.207   1.668  10.502  1.5585 -1.3599  0.0269
  768MPD2    H211342   1.838   1.480  10.380  0.8279  2.0770 -0.4264
  768MPD2    H311343   2.012   1.642  10.333  0.1001  0.2675 -0.5205
  768MPD2     N11344   2.230   1.542  10.715 -0.2129 -0.2069  0.2975
  768MPD2    H511345   2.297   1.613  10.687 -2.8235  3.0331  2.3117
  768MPD2    N111346   1.805   1.354  10.589  0.2866  0.7481 -0.0941
  768MPD2    H711347   1.731   1.381  10.527 -0.4101 -1.2668 -0.1530
  769MPD2     C11348   2.876   4.628  15.171  1.1025  1.0489  0.2113
  769MPD2    C111349   2.884   4.516  15.252  0.0193  0.3366 -0.4054
  769MPD2    C211350   2.996   4.484  15.323 -0.5150 -0.3565 -0.0033
  769MPD2    C311351   3.096   4.583  15.336  0.2195  0.3692 -0.6922
  769MPD2    C411352   3.087   4.693  15.256  0.4327 -0.1699  0.1804
  769MPD2    C511353   2.984   4.715  15.170  0.1348  0.3054  0.0894
  769MPD2     H11354   3.006   4.389  15.373 -0.2845 -0.7673 -0.8447
  769MPD2    H111355   3.160   0.050  15.258 -0.8638  0.9807  0.9436
  769MPD2    H211356   2.790   4.648  15.109 -0.0704  0.3009  1.5831
  769MPD2    H311357   2.993   0.084  15.113  0.6594  1.3557  1.8632
  769MPD2     N11358   3.206   4.553  15.414 -0.0117 -0.5804  0.8556
  769MPD2    H511359   3.203   4.462  15.460 -1.4393 -0.5847  0.7563
  769MPD2    N111360   2.776   4.425  15.260 -0.8168  0.0223 -0.1550
  769MPD2    H711361   2.782   4.346  15.324  3.2644 -0.8436 -1.5882
  770MPD2     C11362   2.604   3.614  15.759  0.2066  0.5750  0.0370
  770MPD2    C111363   2.610   3.575  15.621 -0.5320  0.1486  0.6362
  770MPD2    C211364   2.612   3.676  15.524 -0.2466  0.9573  0.1948
  770MPD2    C311365   2.589   3.807  15.555 -0.1686 -0.4026  0.1169
  770MPD2    C411366   2.551   3.834  15.681 -0.6320 -0.3284  0.5571
  770MPD2    C511367   2.579   3.744  15.782  0.5280 -0.3044 -0.0317
  770MPD2     H11368   2.623   3.649  15.420 -2.1186  1.1914 -0.0677
  770MPD2    H111369   2.512   3.931  15.707  0.2066  0.0924  0.2531
  770MPD2    H211370   2.625   3.552  15.845 -0.3679 -0.4733 -0.5938
  770MPD2    H311371   2.572   3.780  15.884  0.1950 -0.2005 -0.0891
  770MPD2     N11372   2.586   3.898  15.446  0.7453 -0.5854  0.3023
  770MPD2    H511373   2.603   3.864  15.352  2.3285 -0.2273  0.4652
  770MPD2    N111374   2.638   3.439  15.591  0.1054  0.3530  0.3929
  770MPD2    H711375   2.657   3.374  15.666 -0.9926 -0.5568 -0.1248
  771MPD2     C11376   4.259   2.128  14.178 -0.1355 -0.7951  1.0510
  771MPD2    C111377   4.180   2.214  14.112  0.1608  0.0326  0.3800
  771MPD2    C211378   4.066   2.163  14.053 -0.3451 -0.0112  0.0547
  771MPD2    C311379   4.026   2.033  14.065  0.5751 -0.0027 -0.1941
  771MPD2    C411380   4.100   1.952  14.146  0.8875 -0.1246 -0.1895
  771MPD2    C511381   4.218   1.995  14.198  0.3262  0.3390  0.4136
  771MPD2     H11382   4.011   2.234  13.992  0.1992  0.3860  0.0248
  771MPD2    H111383   4.069   1.850  14.165  0.9131  0.1733  1.4714
  771MPD2    H211384   4.357   2.153  14.215 -0.2079 -0.7111  1.1866
  771MPD2    H311385   4.280   1.923  14.251  0.0479 -0.7789 -0.7570
  771MPD2     N11386   3.914   1.992  13.991  0.2205  0.4129 -0.4459
  771MPD2    H511387   3.871   2.055  13.924 -1.2119 -1.7683 -1.5879
  771MPD2    N111388   4.211   2.352  14.088 -0.6488 -0.1597 -0.2592
  771MPD2    H711389   4.153   2.416  14.035  0.0385  0.0264 -0.7949
  772MPD2     C11390   3.867   2.876  13.671  0.5929 -0.3060 -0.6346
  772MPD2    C111391   3.890   2.856  13.805 -0.9646 -0.1576 -0.0909
  772MPD2    C211392   3.785   2.883  13.893  0.1979 -0.4679  0.1179
  772MPD2    C311393   3.667   2.936  13.839  0.8167 -0.5332  0.1656
  772MPD2    C411394   3.654   2.962  13.706 -0.0013  0.8567 -0.1028
  772MPD2    C511395   3.761   2.931  13.622 -0.0640  0.2192 -0.9310
  772MPD2     H11396   3.803   2.875  13.999  0.8713  0.6870  0.0956
  772MPD2    H111397   3.557   2.988  13.667 -0.6246 -0.1030  0.7993
  772MPD2    H211398   3.942   2.857  13.594 -1.1156 -2.8896 -1.6483
  772MPD2    H311399   3.747   2.953  13.517  1.6900  0.5053 -1.1031
  772MPD2     N11400   3.553   2.960  13.928 -0.7710  0.0566  0.4673
  772MPD2    H511401   3.468   2.981  13.878 -0.1410 -0.0899 -0.6601
  772MPD2    N111402   4.014   2.800  13.841 -0.0425  0.4106  0.3619
  772MPD2    H711403   4.078   2.776  13.766  0.9694  0.4945  1.2104
  773MPD2     C11404   3.260   3.846   0.668  0.5784 -0.1632 -0.2472
  773MPD2    C111405   3.234   3.748   0.580 -0.3343 -0.2443 -0.4869
  773MPD2    C211406   3.276   3.621   0.606 -0.6503 -0.7322 -0.2593
  773MPD2    C311407   3.356   3.594   0.717  0.3933  0.1695 -0.4315
  773MPD2    C411408   3.393   3.696   0.801  0.1390 -0.4108  0.4346
  773MPD2    C511409   3.342   3.819   0.782  0.6258  0.3427  0.5956
  773MPD2     H11410   3.240   3.546   0.536  0.3107  0.1074 -1.6433
  773MPD2    H111411   3.458   3.680   0.887  1.7183  1.5180 -0.3973
  773MPD2    H211412   3.235   3.950   0.650  1.0583 -0.1409 -0.7785
  773MPD2    H311413   3.367   3.901   0.849  0.5326 -0.4900  1.6426
  773MPD2     N11414   3.412   3.464   0.729 -0.2824 -0.1568 -0.7510
  773MPD2    H511415   3.394   3.400   0.653  1.1072 -1.9115  0.3916
  773MPD2    N111416   3.157   3.763   0.464 -0.0236  0.2166 -0.4127
  773MPD2    H711417   3.121   3.674   0.431  0.4809 -0.1120 -0.0624
  774MPD2     C11418   2.789   2.679  13.464 -0.5524 -0.5897  0.5146
  774MPD2    C111419   2.677   2.752  13.509  0.7862  0.2007  0.2910
  774MPD2    C211420   2.650   2.876  13.447  0.0612 -0.0016  0.1087
  774MPD2    C311421   2.743   2.929  13.355  0.1638 -0.1344  0.2930
  774MPD2    C411422   2.854   2.853  13.315 -0.4243 -0.4281 -0.2587
  774MPD2    C511423   2.864   2.725  13.364  0.4248 -0.0628  0.9572
  774MPD2     H11424   2.556   2.924  13.473  0.3430  0.3433  0.5015
  774MPD2    H111425   2.924   2.880  13.237  0.7441  0.3912  1.0835
  774MPD2    H211426   2.810   2.586  13.514 -1.6297 -1.2875 -0.3244
  774MPD2    H311427   2.942   2.668  13.315 -2.7626 -1.7209 -2.2000
  774MPD2     N11428   2.722   3.059  13.298  0.0960  0.1618 -0.2756
  774MPD2    H511429   2.640   3.105  13.336 -1.1940 -1.8514 -0.6497
  774MPD2    N111430   2.604   2.698  13.614  0.6830 -0.1719  0.5669
  774MPD2    H711431   2.646   2.611  13.644 -1.9237 -0.8364  2.2711
  775MPD2     C11432   3.885   4.258  15.951 -0.0843  0.3406 -0.8831
  775MPD2    C111433   3.831   4.373  16.007 -0.5222 -0.5731 -0.1230
  775MPD2    C211434   3.884   4.496  15.970  0.6436  0.8799  0.9532
  775MPD2    C311435   3.977   4.501  15.868 -0.1297 -0.2606 -0.4663
  775MPD2    C411436   4.027   4.384  15.818  0.7235 -0.1371  0.2376
  775MPD2    C511437   3.982   4.261  15.860  0.1888 -0.0834 -0.0733
  775MPD2     H11438   3.856   4.590  16.017 -0.6262 -1.0549  4.0753
  775MPD2    H111439   4.096   4.386  15.735 -0.0451 -0.7503 -0.4235
  775MPD2    H211440   3.861   4.161  15.993  2.0930 -0.2010 -0.8847
  775MPD2    H311441   4.020   4.167  15.822 -0.7200 -0.3756 -0.2789
  775MPD2     N11442   4.050   4.613  15.831 -0.0391  0.0895  0.5250
  775MPD2    H511443   4.101   4.608  15.743 -0.1872  0.6687  0.4041
  775MPD2    N111444   3.725   4.348  16.094 -0.9864 -0.0421  0.0626
  775MPD2    H711445   3.713   4.253  16.128 -0.7100  0.6176  1.9658
  776MPD2     C11446   3.849   4.396  11.582 -0.5180 -0.2780 -1.0829
  776MPD2    C111447   3.724   4.441  11.623 -0.2553  0.6727 -0.2660
  776MPD2    C211448   3.691   4.575  11.606  0.8633  0.2075 -0.2409
  776MPD2    C311449   3.779   4.663  11.543 -0.6713 -0.0190 -0.2891
  776MPD2    C411450   3.903   4.619  11.498 -0.1941  0.4728  0.2266
  776MPD2    C511451   3.939   4.486  11.525  1.1069  0.2511 -0.1602
  776MPD2     H11452   3.597   4.608  11.648  0.8662 -0.2025  0.0791
  776MPD2    H111453   3.975   4.688  11.454 -1.2508  1.8461  0.6266
  776MPD2    H211454   3.884   4.294  11.597 -1.3496 -0.8971 -3.3265
  776MPD2    H311455   4.029   4.433  11.494 -0.8761 -1.5599 -2.8301
  776MPD2     N11456   3.747   0.079  11.527  0.6862 -0.3132  0.0733
  776MPD2    H511457   3.810   0.129  11.465  0.6786  0.4183  0.6548
  776MPD2    N111458   3.646   4.339  11.682  0.3390 -0.2296  0.4530
  776MPD2    H711459   3.692   4.250  11.701 -0.6638 -0.5335  1.4638
  777MPD2     C11460   3.634   2.286   1.161 -0.6860 -0.1962 -0.1135
  777MPD2    C111461   3.505   2.265   1.195  0.0660  0.0615 -0.0719
  777MPD2    C211462   3.427   2.181   1.116  0.2609 -0.4431  0.4323
  777MPD2    C311463   3.489   2.108   1.019  0.7715 -0.0435 -0.1115
  777MPD2    C411464   3.624   2.134   0.989 -0.3115  0.2462 -0.0647
  777MPD2    C511465   3.701   2.226   1.057  0.0382 -0.4861  0.0945
  777MPD2     H11466   3.320   2.172   1.133 -0.1767  1.5281 -1.3328
  777MPD2    H111467   3.679   2.086   0.909  0.1783 -0.1141  0.4963
  777MPD2    H211468   3.692   2.356   1.220 -0.2544 -0.7775  0.1542
  777MPD2    H311469   3.802   2.254   1.029 -0.6426 -0.0126 -1.8699
  777MPD2     N11470   3.407   2.004   0.952 -0.1812  0.5077 -0.5952
  777MPD2    H511471   3.313   1.986   0.988  0.0625 -0.9506 -0.6990
  777MPD2    N111472   3.464   2.328   1.311 -0.0542 -0.7853 -0.8116
  777MPD2    H711473   3.529   2.396   1.350 -0.3974 -0.4735 -0.7794
  778MPD2     C11474   3.862   2.784  14.941 -0.3498 -0.2692  0.5262
  778MPD2    C111475   3.907   2.669  14.881 -0.3987  0.0587 -0.0525
  778MPD2    C211476   3.979   2.678  14.765  0.0115 -0.6979  1.3476
  778MPD2    C311477   4.018   2.799  14.705  0.0024 -0.4941  0.3359
  778MPD2    C411478   3.956   2.914  14.757  0.7650 -0.2211  0.3932
  778MPD2    C511479   3.876   2.903  14.872  1.1911  0.1700  0.1458
  778MPD2     H11480   4.022   2.587  14.724 -1.1628 -0.5951 -0.1303
  778MPD2    H111481   3.950   3.010  14.707 -2.2016 -0.6682 -0.1446
  778MPD2    H211482   3.798   2.784  15.029  1.0418  0.4533  1.5404
  778MPD2    H311483   3.821   2.989  14.909  0.1478  0.7572 -2.7652
  778MPD2     N11484   4.107   2.794  14.591  0.0046 -0.3386  0.2494
  778MPD2    H511485   4.117   2.705  14.545 -1.7451 -1.9053  2.8692
  778MPD2    N111486   3.878   2.543  14.941  0.2421  0.5522 -0.0559
  778MPD2    H711487   3.908   2.460  14.890 -2.6938 -0.4589 -0.1531
  779MPD2     C11488   3.481   1.154  14.459 -0.5603  0.1321  0.1822
  779MPD2    C111489   3.619   1.160  14.449 -0.3892 -0.6240 -0.1958
  779MPD2    C211490   3.675   1.282  14.421  0.2259  0.3557 -0.0470
  779MPD2    C311491   3.596   1.393  14.393 -0.3780 -1.4127 -0.0536
  779MPD2    C411492   3.459   1.380  14.381  0.3274  0.1755  0.0107
  779MPD2    C511493   3.397   1.254  14.408  0.4121  0.4531  0.7599
  779MPD2     H11494   3.783   1.294  14.426  0.2432  0.0298  0.3996
  779MPD2    H111495   3.392   1.462  14.357 -0.0654  0.5196  2.2898
  779MPD2    H211496   3.437   1.068  14.509  3.5151 -0.3508  2.9369
  779MPD2    H311497   3.289   1.247  14.412  0.6200 -2.1663  1.8650
  779MPD2     N11498   3.674   1.510  14.365  0.2834  0.2780  0.5865
  779MPD2    H511499   3.774   1.501  14.381  0.2495  1.5032  1.5505
  779MPD2    N111500   3.692   1.051  14.483  0.0257 -0.0179 -0.0242
  779MPD2    H711501   3.792   1.061  14.471  0.0520  0.1485  0.3174
  780MPD2     C11502   3.499   1.127   1.350  0.2030  0.3630 -0.3765
  780MPD2    C111503   3.518   1.048   1.231  0.2268  0.4665 -0.1373
  780MPD2    C211504   3.623   1.079   1.136 -0.1627  0.2588  0.3753
  780MPD2    C311505   3.702   1.193   1.168  0.4228  0.0103  0.3736
  780MPD2    C411506   3.690   1.255   1.291 -0.3182  0.1039 -0.6303
  780MPD2    C511507   3.596   1.221   1.379  0.5008 -0.7057 -0.7962
  780MPD2     H11508   3.628   1.028   1.041  0.8997 -0.1527  0.6452
  780MPD2    H111509   3.748   1.340   1.326  1.4229 -1.4743  0.2754
  780MPD2    H211510   3.436   1.099   1.434 -0.8799  1.1138 -0.9457
  780MPD2    H311511   3.599   1.274   1.474 -2.9093  1.8530 -2.1210
  780MPD2     N11512   3.805   1.239   1.074  0.0599 -0.6261  0.3110
  780MPD2    H511513   3.832   1.175   0.999  0.1209  0.2404 -0.4039
  780MPD2    N111514   3.425   0.942   1.214 -0.2268 -0.6369  0.0941
  780MPD2    H711515   3.353   0.944   1.286 -2.1670  0.7676 -1.8906
  781MPD2     C11516   0.537   2.373  12.454 -0.2931  0.8588 -0.6765
  781MPD2    C111517   0.633   2.394  12.547  0.8215  0.2990 -0.5756
  781MPD2    C211518   0.766   2.362  12.533 -0.3780  0.1414  0.7450
  781MPD2    C311519   0.810   2.312  12.412  0.5130 -0.0050 -0.2352
  781MPD2    C411520   0.717   2.285  12.317  0.6251  0.2383  0.0294
  781MPD2    C511521   0.582   2.307  12.340 -0.2826 -0.1740 -0.2825
  781MPD2     H11522   0.835   2.379  12.615 -0.4963 -1.3888  1.1543
  781MPD2    H111523   0.747   2.237  12.224 -1.9281  1.7028 -1.5554
  781MPD2    H211524   0.435   2.409  12.458 -0.1357  1.3981 -1.3971
  781MPD2    H311525   0.521   2.287  12.253  0.6495 -0.6857 -0.8219
  781MPD2     N11526   0.943   2.271  12.381 -0.0784  0.6821  0.7952
  781MPD2    H511527   0.955   2.229  12.289 -0.2366 -3.7902  2.8026
  781MPD2    N111528   0.600   2.445  12.674 -0.3228 -0.2032  0.0801
  781MPD2    H711529   0.671   2.450  12.747  0.7613  1.2507 -1.0786
  782MPD2     C11530   3.361   3.260  10.655  0.2438  0.7756 -0.2582
  782MPD2    C111531   3.466   3.346  10.647  0.0748  0.1681  0.1782
  782MPD2    C211532   3.580   3.324  10.722  0.4401 -0.1761 -0.3277
  782MPD2    C311533   3.594   3.221  10.813  0.0857  0.0107 -0.5227
  782MPD2    C411534   3.483   3.138  10.821  0.3023 -0.6301 -0.6751
  782MPD2    C511535   3.370   3.163  10.753  0.2402  0.5835 -0.4233
  782MPD2     H11536   3.663   3.393  10.717  0.2455  0.3212  3.7089
  782MPD2    H111537   3.489   3.056  10.892  1.5519 -0.2280 -0.3137
  782MPD2    H211538   3.272   3.283  10.597 -0.8853  3.1908  2.4368
  782MPD2    H311539   3.286   3.101  10.783  1.2701 -1.3969 -1.6488
  782MPD2     N11540   3.722   3.205  10.877  0.2011 -0.8889  0.0713
  782MPD2    H511541   3.805   3.257  10.849 -0.0431  0.3090  1.6192
  782MPD2    N111542   3.459   3.445  10.546 -0.2556 -0.0268  0.5136
  782MPD2    H711543   3.375   3.455  10.490  0.4517 -0.3213 -0.5986
  783MPD2     C11544   2.933   3.209  10.585 -0.8447 -0.7288 -0.1155
  783MPD2    C111545   2.979   3.327  10.645  0.3254 -0.6087 -0.0269
  783MPD2    C211546   3.056   3.417  10.568 -0.6627 -0.0224 -0.4167
  783MPD2    C311547   3.086   3.380  10.435 -0.6467  0.0602 -0.1669
  783MPD2    C411548   3.036   3.264  10.383 -0.0604  0.3999  0.0133
  783MPD2    C511549   2.951   3.188  10.452 -0.7719 -0.3693 -0.2643
  783MPD2     H11550   3.084   3.516  10.603  0.3282 -0.2253 -0.6241
  783MPD2    H111551   3.048   3.248  10.276 -0.2687  0.6182 -0.0427
  783MPD2    H211552   2.880   3.134  10.643 -0.5650  0.8145  2.1386
  783MPD2    H311553   2.911   3.107  10.393 -1.2030  1.0003 -1.8766
  783MPD2     N11554   3.163   3.473  10.362  0.0241 -0.3070 -0.7504
  783MPD2    H511555   3.183   3.560  10.409 -0.6142 -0.5812  0.0358
  783MPD2    N111556   2.958   3.339  10.783 -0.0183 -1.1635  0.3225
  783MPD2    H711557   2.922   3.254  10.824  0.5724 -2.3042 -1.5284
  784MPD2     C11558   1.186   3.408   0.852  0.0869 -0.5436  0.7018
  784MPD2    C111559   1.125   3.477   0.955  0.7648 -0.4999 -0.6859
  784MPD2    C211560   0.999   3.522   0.927 -0.5253 -0.3498  0.0681
  784MPD2    C311561   0.934   3.510   0.808  0.0393 -0.4760 -0.5008
  784MPD2    C411562   0.999   3.442   0.710  0.3705 -0.5118  0.0118
  784MPD2    C511563   1.121   3.390   0.736 -0.1737 -0.6939  0.2525
  784MPD2     H11564   0.943   3.586   0.994 -0.3206 -0.2479  0.1441
  784MPD2    H111565   0.968   3.432   0.607 -3.4302  0.7557  0.9900
  784MPD2    H211566   1.288   3.372   0.851 -0.3858 -1.8588 -0.7111
  784MPD2    H311567   1.172   3.346   0.651 -0.1139  1.3043 -0.7275
  784MPD2     N11568   0.818   3.588   0.795 -0.2929 -0.6554 -0.2202
  784MPD2    H511569   0.785   3.622   0.885 -1.2515 -0.2188 -0.7468
  784MPD2    N111570   1.185   3.518   1.078 -0.0603  0.3448 -0.0249
  784MPD2    H711571   1.115   3.551   1.143  0.0265  2.4376 -0.9739
  785MPD2     C11572   1.223   1.465  10.562 -0.2120 -0.1554 -1.3986
  785MPD2    C111573   1.101   1.530  10.532  0.2289 -0.0240 -0.7469
  785MPD2    C211574   0.995   1.455  10.475 -0.4846 -0.1268 -0.3971
  785MPD2    C311575   1.018   1.322  10.439 -0.1244  0.1583 -0.0153
  785MPD2    C411576   1.140   1.258  10.476  0.0786  0.5455  0.1571
  785MPD2    C511577   1.245   1.328  10.536  0.2605  0.8610 -0.8589
  785MPD2     H11578   0.905   1.505  10.440 -1.8706 -1.3783  1.3905
  785MPD2    H111579   1.159   1.157  10.442 -0.4601  0.2115  0.8566
  785MPD2    H211580   1.304   1.529  10.593  0.1234 -0.2114 -2.1518
  785MPD2    H311581   1.335   1.275  10.566 -0.1656 -0.2061 -1.4808
  785MPD2     N11582   0.915   1.257  10.369 -0.8897  0.2477  0.0989
  785MPD2    H511583   0.829   1.310  10.357 -0.8852  0.1903 -0.1710
  785MPD2    N111584   1.088   1.665  10.581  0.1143  0.1934  0.4804
  785MPD2    H711585   1.167   1.723  10.608  0.8751 -0.1597 -0.9677
  786MPD2     C11586   0.047   0.773  14.515  0.3897  0.6336 -0.0629
  786MPD2    C111587   4.664   0.743  14.607 -0.1145 -0.4899 -0.0732
  786MPD2    C211588   4.670   0.798  14.731 -0.3221 -0.6579  0.4624
  786MPD2    C311589   0.046   0.889  14.768 -0.5658  1.0168  0.4959
  786MPD2    C411590   0.148   0.908  14.682 -0.0928 -0.0685  0.0073
  786MPD2    C511591   0.152   0.847  14.559 -0.2501  0.1990 -0.0395
  786MPD2     H11592   4.592   0.776  14.803 -0.7461  1.2624  0.5745
  786MPD2    H111593   0.230   0.974  14.709  0.4598 -1.3437  1.4407
  786MPD2    H211594   0.039   0.734  14.415 -3.0976  1.9614 -0.2992
  786MPD2    H311595   0.241   0.865  14.500 -0.4044  1.8042  0.2393
  786MPD2     N11596   0.064   0.947  14.900  0.6903 -0.3619 -0.5549
  786MPD2    H511597   0.159   0.980  14.915  0.1630  0.8043  0.1765
  786MPD2    N111598   4.552   0.670  14.577 -0.7390  0.2040  0.0782
  786MPD2    H711599   4.476   0.663  14.643 -0.8814  2.4218  0.1339
  787MPD2     C11600   4.586   0.223  14.956  1.0535 -0.6016 -0.2175
  787MPD2    C111601   4.564   0.160  14.835 -0.1233 -0.4938  1.0984
  787MPD2    C211602   4.626   0.037  14.807  0.3434 -0.1332 -0.3989
  787MPD2    C311603   4.723   4.712  14.890 -0.3900  0.3311  0.8815
  787MPD2    C411604   0.034   0.066  15.003  0.2484  0.5719 -0.2892
  787MPD2    C511605   4.680   0.172  15.042 -0.7449 -0.3926 -0.2103
  787MPD2     H11606   4.597   4.705  14.719  0.6433 -0.2741 -0.4106
  787MPD2    H111607   0.127   0.052  15.057 -1.0084 -2.6864  1.0228
  787MPD2    H211608   4.542   0.319  14.980  0.7790 -0.5887 -0.7868
  787MPD2    H311609   4.704   0.224  15.134  1.7296 -0.7409 -0.6498
  787MPD2     N11610   0.065   4.595  14.846  0.0475 -0.5709 -0.3948
  787MPD2    H511611   0.053   4.559  14.752  1.4692  2.7510 -1.8598
  787MPD2    N111612   4.473   0.227  14.753 -0.1518  0.2632  0.1273
  787MPD2    H711613   4.429   0.312  14.785 -2.5707 -1.0052  0.2004
  788MPD2     C11614   1.317   2.945   1.412 -0.8058 -0.2386  0.1794
  788MPD2    C111615   1.442   2.909   1.353 -0.3039 -0.2172 -0.1191
  788MPD2    C211616   1.500   2.976   1.251  0.4837  0.3434  0.3295
  788MPD2    C311617   1.430   3.084   1.200 -0.5310 -0.4072 -0.1094
  788MPD2    C411618   1.311   3.123   1.261  0.6902 -0.5503  0.6278
  788MPD2    C511619   1.259   3.060   1.368  1.1167  1.1056 -0.8399
  788MPD2     H11620   1.592   2.941   1.205  0.0791  1.5803 -1.4477
  788MPD2    H111621   1.255   3.211   1.231 -1.2616 -1.7780  0.6797
  788MPD2    H211622   1.262   2.891   1.489  1.8419 -0.2523  2.0323
  788MPD2    H311623   1.165   3.095   1.409  0.2755 -2.2878  0.1180
  788MPD2     N11624   1.468   3.153   1.086  0.9005 -0.8436 -0.0764
  788MPD2    H511625   1.407   3.228   1.056  0.1896 -1.2963  0.2329
  788MPD2    N111626   1.513   2.792   1.401 -0.3697 -0.2156 -0.1098
  788MPD2    H711627   1.597   2.766   1.351  0.1143  3.8814 -1.4123
  789MPD2     C11628   2.127   3.020  16.306  0.1695 -0.3328 -0.7810
  789MPD2    C111629   2.060   2.910  16.365 -0.2462  0.4589 -0.1346
  789MPD2    C211630   1.940   2.932  16.427 -0.5099  0.5541 -0.2879
  789MPD2    C311631   1.879   3.051  16.422  0.4737  0.2795 -0.2103
  789MPD2    C411632   1.941   3.159  16.351  0.6941  0.0647  0.0472
  789MPD2    C511633   2.062   3.141  16.291 -0.1578  0.1351 -0.1728
  789MPD2     H11634   1.915   2.849  16.492  0.6380  1.0934  0.8364
  789MPD2    H111635   1.887   3.252  16.342 -1.4329 -1.2940 -1.0652
  789MPD2    H211636   2.229   3.008  16.271 -0.0656 -2.4804 -0.7310
  789MPD2    H311637   2.110   3.218  16.232  0.6671 -0.2812 -0.0469
  789MPD2     N11638   1.753   3.065  16.484  0.9601 -0.0971  0.7132
  789MPD2    H511639   1.708   3.156  16.482  1.9104  0.3411 -0.5830
  789MPD2    N111640   2.114   2.775  16.364  0.2252  0.4814  0.3820
  789MPD2    H711641   2.082   2.701  16.426  0.7958 -0.0744  0.0234
  790MPD2     C11642   2.596   4.317  14.039 -0.5332 -0.3008 -0.6045
  790MPD2    C111643   2.711   4.387  13.995  0.2279  0.3261  0.1600
  790MPD2    C211644   2.737   4.413  13.860  1.1551 -0.4016 -0.3504
  790MPD2    C311645   2.655   4.363  13.762 -0.6117  0.1110  0.1788
  790MPD2    C411646   2.551   4.286  13.805  0.5047  0.0500  0.3173
  790MPD2    C511647   2.527   4.267  13.933  0.6288 -1.0496 -0.1056
  790MPD2     H11648   2.832   4.453  13.829  1.1703  0.7255  1.1855
  790MPD2    H111649   2.492   4.240  13.727 -0.0908 -1.7381  1.8238
  790MPD2    H211650   2.558   4.296  14.138 -0.3156 -1.0976 -0.6910
  790MPD2    H311651   2.451   4.195  13.962 -0.0929  0.1845  1.0482
  790MPD2     N11652   2.676   4.405  13.630 -0.7596  0.7422  0.1089
  790MPD2    H511653   2.746   4.477  13.617 -1.3163  1.1808 -0.4342
  790MPD2    N111654   2.803   4.434  14.094 -0.4500 -0.0817 -0.2736
  790MPD2    H711655   2.777   4.435  14.192 -2.1979  2.1208 -0.7670
  791MPD2     C11656   2.457   0.046  12.791 -0.2050 -0.6073 -0.0712
  791MPD2    C111657   2.458   4.659  12.865 -0.0299 -0.0682 -0.8960
  791MPD2    C211658   2.392   4.549  12.827 -0.2339 -0.5433 -0.1861
  791MPD2    C311659   2.313   4.553  12.716 -0.1055 -0.4174 -0.7391
  791MPD2    C411660   2.321   4.656  12.630 -0.2760 -0.9006 -0.0874
  791MPD2    C511661   2.394   0.041  12.670 -0.2006 -0.2989  0.3065
  791MPD2     H11662   2.389   4.456  12.882  0.1345 -1.3166 -1.4826
  791MPD2    H111663   2.271   4.648  12.535  0.0506 -3.4533 -0.0606
  791MPD2    H211664   2.499   0.140  12.826  0.6472 -0.9523 -0.1656
  791MPD2    H311665   2.398   0.129  12.606  1.0553 -0.3513  0.3319
  791MPD2     N11666   2.223   4.446  12.697 -0.5415  0.0562  0.2975
  791MPD2    H511667   2.228   4.383  12.777 -0.3030  0.1912  0.3891
  791MPD2    N111668   2.517   4.671  12.996 -0.7812 -0.9771  0.1857
  791MPD2    H711669   2.568   0.033  13.016 -0.6736 -1.2352  1.0266
  792MPD2     C11670   3.260   4.367  11.413  0.1034 -0.5684 -0.3337
  792MPD2    C111671   3.140   4.425  11.374 -0.3837 -0.3166 -0.2966
  792MPD2    C211672   3.020   4.353  11.402  0.1592  0.7010 -0.2586
  792MPD2    C311673   3.018   4.218  11.439  0.5083  0.1816 -0.2368
  792MPD2    C411674   3.141   4.161  11.466 -0.1705  0.0540 -0.0053
  792MPD2    C511675   3.252   4.241  11.456  0.3830  0.1623 -0.2065
  792MPD2     H11676   2.927   4.406  11.387 -0.1460 -0.0620 -1.0601
  792MPD2    H111677   3.157   4.060  11.500  1.0327 -0.0476 -0.8454
  792MPD2    H211678   3.355   4.420  11.406 -0.2590 -0.1817 -2.1479
  792MPD2    H311679   3.352   4.200  11.467  0.4638  0.4172  0.0035
  792MPD2     N11680   2.900   4.142  11.456  0.4920  0.2662  0.2825
  792MPD2    H511681   2.920   4.052  11.498 -2.5292 -1.6344 -2.3460
  792MPD2    N111682   3.145   4.552  11.318 -0.6375  0.7916  0.2322
  792MPD2    H711683   3.239   4.591  11.323  0.1006 -0.9410 -0.1564
  793MPD2     C11684   2.411   3.923  10.700 -0.0136 -0.2854 -0.1046
  793MPD2    C111685   2.534   3.969  10.742 -0.5743  0.1440  0.6270
  793MPD2    C211686   2.562   3.991  10.873 -0.3258 -0.2456 -0.6964
  793MPD2    C311687   2.459   3.978  10.967 -0.0682  0.3934 -0.4218
  793MPD2    C411688   2.332   3.933  10.923 -0.1319  1.0199  0.5146
  793MPD2    C511689   2.310   3.909  10.790  0.1359  0.2535 -0.0246
  793MPD2     H11690   2.664   4.015  10.901 -0.9105  1.6738 -0.2545
  793MPD2    H111691   2.250   3.921  10.993  0.2508  2.3548  1.1988
  793MPD2    H211692   2.412   3.886  10.599 -0.9675 -1.3435  0.2740
  793MPD2    H311693   2.210   3.884  10.756  0.0909 -0.6657  0.7689
  793MPD2     N11694   2.492   4.006  11.102 -0.0252  0.7776  0.3619
  793MPD2    H511695   2.586   4.041  11.119  1.1817 -1.6311 -1.3422
  793MPD2    N111696   2.637   4.021  10.653  0.4302  0.3127 -0.1780
  793MPD2    H711697   2.719   4.067  10.693 -0.2166  1.8800 -0.6585
  794MPD2     C11698   3.049   4.120  17.373  0.1586  0.0142  0.2033
  794MPD2    C111699   2.963   4.017  17.406  0.5953  0.8884 -0.2703
  794MPD2    C211700   2.886   3.961  17.302  0.3755 -0.1860  0.0365
  794MPD2    C311701   2.910   4.009  17.179 -0.2686 -0.3344 -0.4252
  794MPD2    C411702   2.982   4.116  17.153  0.8848 -0.0876  0.3671
  794MPD2    C511703   3.051   4.176  17.253 -0.3081  0.2384 -0.4433
  794MPD2     H11704   2.817   3.879  17.320 -2.3891  2.5694  2.0195
  794MPD2    H111705   2.991   4.159  17.053 -2.7689  0.0785  0.0878
  794MPD2    H211706   3.114   4.162  17.448  0.7763 -0.6041  0.0138
  794MPD2    H311707   3.113   4.260  17.227  1.3388 -0.8035  0.1631
  794MPD2     N11708   2.827   3.972  17.078 -0.4702 -0.3027 -0.1939
  794MPD2    H511709   2.813   4.034  16.999  1.4229  2.2796  1.4936
  794MPD2    N111710   2.951   3.954  17.532 -0.2945 -0.0658 -0.8140
  794MPD2    H711711   2.870   3.895  17.548 -0.4970  0.4474  0.0861
  795MPD2     C11712   0.550   1.627  13.137  0.2878 -1.0695  0.6410
  795MPD2    C111713   0.526   1.576  13.262 -0.0752 -0.5612 -0.2880
  795MPD2    C211714   0.636   1.525  13.326  0.0624 -0.5483  0.3547
  795MPD2    C311715   0.764   1.542  13.284 -0.0028 -0.2517  0.0320
  795MPD2    C411716   0.785   1.618  13.167 -1.3511  0.0862 -0.6565
  795MPD2    C511717   0.678   1.656  13.093 -0.5093 -0.2995 -0.0888
  795MPD2     H11718   0.611   1.463  13.412  1.3140 -0.7109  0.5920
  795MPD2    H111719   0.883   1.648  13.132 -0.9311 -0.6136 -0.0760
  795MPD2    H211720   0.469   1.657  13.071 -0.9840 -0.9513  2.2683
  795MPD2    H311721   0.687   1.709  12.998 -1.0005  1.0293  0.5986
  795MPD2     N11722   0.870   1.479  13.363 -0.6018 -0.3428  0.5647
  795MPD2    H511723   0.843   1.432  13.449 -1.3882  1.7424  1.4548
  795MPD2    N111724   0.396   1.560  13.318  0.2561 -0.0362  0.1153
  795MPD2    H711725   0.392   1.514  13.408  1.2174  1.4484  0.9124
  796MPD2     C11726   0.013   2.756  16.079 -0.1584  0.3962 -0.5181
  796MPD2    C111727   0.033   2.803  16.208 -0.5327  0.0652  0.0375
  796MPD2    C211728   0.029   2.937  16.229 -0.6608 -0.0388 -0.0269
  796MPD2    C311729   0.010   3.021  16.121  0.7307  0.4486 -0.1291
  796MPD2    C411730   4.719   2.972  15.994  0.4514  0.9873  0.6039
  796MPD2    C511731   4.707   2.835  15.974 -0.1129  0.3364 -0.2342
  796MPD2     H11732   0.053   2.983  16.324 -0.2511 -0.1408 -0.0825
  796MPD2    H111733   4.703   3.041  15.912  1.5780 -1.3205 -1.5728
  796MPD2    H211734   0.010   2.648  16.067  0.6029  0.5307 -1.8024
  796MPD2    H311735   4.701   2.797  15.872  1.7239  0.5221 -0.4194
  796MPD2     N11736   0.010   3.159  16.148 -0.4362  0.7512  0.4494
  796MPD2    H511737   0.012   3.189  16.245 -0.9256  0.5143  0.5298
  796MPD2    N111738   0.059   2.709  16.313 -0.6255  0.2436 -1.2426
  796MPD2    H711739   0.060   2.611  16.284  1.1974  0.3956 -1.6916
  797MPD2     C11740   1.025   2.419  17.175  0.0133  0.1283  0.0865
  797MPD2    C111741   1.016   2.371  17.308  0.1461 -0.2009  0.5574
  797MPD2    C211742   0.900   2.354  17.376 -0.3207  0.6438 -0.1792
  797MPD2    C311743   0.782   2.389  17.312  0.4642 -0.3385  0.7058
  797MPD2    C411744   0.793   2.424  17.180 -0.0271  0.4285 -0.1181
  797MPD2    C511745   0.905   2.436  17.107  0.1719 -0.1120 -0.7343
  797MPD2     H11746   0.899   2.360  17.485 -1.0593 -1.6885 -0.0644
  797MPD2    H111747   0.700   2.434  17.126  0.7713  3.6958 -0.8596
  797MPD2    H211748   1.118   2.424  17.122  1.0177 -0.1704  1.8112
  797MPD2    H311749   0.905   2.449  16.999 -0.0564  1.9636 -0.4883
  797MPD2     N11750   0.653   2.384  17.369 -0.2766  0.9085 -0.2682
  797MPD2    H511751   0.586   2.416  17.300  0.9820  2.8405 -0.6194
  797MPD2    N111752   1.125   2.340  17.393  0.4425 -0.1745 -0.3873
  797MPD2    H711753   1.095   2.307  17.485 -4.1861  2.2200 -1.0486
  798MPD2     C11754   0.747   2.458   0.352  0.4040 -0.1660 -0.0815
  798MPD2    C111755   0.744   2.453   0.212  0.4082 -0.2275 -0.2529
  798MPD2    C211756   0.865   2.457   0.141  0.7276  0.1498  0.1466
  798MPD2    C311757   0.986   2.444   0.202 -0.2979  0.0942 -0.8276
  798MPD2    C411758   0.990   2.434   0.338 -0.0382 -0.2350  0.8986
  798MPD2    C511759   0.872   2.455   0.410 -0.2567  0.0354  0.1187
  798MPD2     H11760   0.858   2.461   0.033  1.9412 -1.2902  0.0113
  798MPD2    H111761   1.084   2.425   0.391  0.8633  2.2957 -0.2680
  798MPD2    H211762   0.669   2.469   0.427  2.2935 -0.3771  1.9088
  798MPD2    H311763   0.874   2.453   0.518 -2.5857  0.4433  0.1831
  798MPD2     N11764   1.102   2.427   0.113  0.0253 -0.5171 -0.0621
  798MPD2    H511765   1.099   2.436   0.012 -0.5742  0.0360  0.0096
  798MPD2    N111766   0.628   2.450   0.131  0.1727  0.7229 -0.4098
  798MPD2    H711767   0.652   2.454   0.032 -1.0033 -1.6299 -0.7891
  799MPD2     C11768   4.631   4.123  14.892 -0.6037  0.7711 -0.1240
  799MPD2    C111769   4.562   4.067  14.791  0.3512 -0.0335  0.2182
  799MPD2    C211770   4.468   4.144  14.722 -0.6316 -0.2663  0.3777
  799MPD2    C311771   4.448   4.273  14.757 -0.5133  0.2870 -0.0848
  799MPD2    C411772   4.519   4.330  14.862  0.2185  0.4945  0.5388
  799MPD2    C511773   4.601   4.248  14.935  0.4222  0.1767 -0.2496
  799MPD2     H11774   4.407   4.093  14.648 -1.9391  2.2419 -0.2896
  799MPD2    H111775   4.509   4.437  14.878 -1.0897  0.4438  0.0464
  799MPD2    H211776   4.706   4.066  14.945  0.1834  1.5624 -0.3706
  799MPD2    H311777   4.655   4.285  15.022  1.3349 -0.4300 -0.5437
  799MPD2     N11778   4.352   4.355  14.691  0.2861 -0.1342  0.8544
  799MPD2    H511779   4.338   4.442  14.741  3.1118 -0.0760  1.5128
  799MPD2    N111780   4.578   3.937  14.736  0.0177  0.1154 -0.2253
  799MPD2    H711781   4.545   3.924  14.641  0.2587  1.2874 -0.4724
  800MPD2     C11782   0.438   0.776  14.313  0.0942  0.2477  0.5094
  800MPD2    C111783   0.571   0.739  14.291  0.4560  0.4680  0.0037
  800MPD2    C211784   0.593   0.664  14.181  0.3236 -0.1432  0.7199
  800MPD2    C311785   0.494   0.630  14.088 -0.1615 -0.2041  0.2316
  800MPD2    C411786   0.363   0.657  14.123  0.1493 -0.3299 -0.2644
  800MPD2    C511787   0.343   0.739  14.226 -0.2630 -0.6309  0.3519
  800MPD2     H11788   0.688   0.623  14.149 -0.9435 -2.4005 -0.2373
  800MPD2    H111789   0.280   0.638  14.056  0.1509 -2.2228  0.2776
  800MPD2    H211790   0.394   0.837  14.391  3.2898  0.3256  2.2363
  800MPD2    H311791   0.243   0.765  14.258  1.5185  3.3195  2.7729
  800MPD2     N11792   0.529   0.566  13.967 -0.5892 -0.2208  0.6460
  800MPD2    H511793   0.626   0.564  13.936 -0.0680 -0.4647  2.3239
  800MPD2    N111794   0.669   0.794  14.373  0.0235 -0.2765 -0.4764
  800MPD2    H711795   0.639   0.852  14.450 -0.1375  1.1454 -1.6055
  801MPD2     C11796   0.761   1.466  14.348  0.3697 -0.5900 -0.3793
  801MPD2    C111797   0.730   1.378  14.448  0.3833  0.4228  0.1764
  801MPD2    C211798   0.631   1.412  14.534 -0.1807 -0.5228 -0.0343
  801MPD2    C311799   0.550   1.518  14.517  0.4277 -0.2050 -0.2721
  801MPD2    C411800   0.563   1.596  14.405 -0.5865 -0.6175  0.1435
  801MPD2    C511801   0.675   1.575  14.332  0.5826 -0.2933 -0.3727
  801MPD2     H11802   0.613   1.341  14.614 -2.4437  1.2180  0.9823
  801MPD2    H111803   0.489   1.673  14.386 -0.4104 -0.4148  0.2866
  801MPD2    H211804   0.845   1.451  14.281  1.0417  1.3661  0.0211
  801MPD2    H311805   0.687   1.646  14.251 -0.0008 -0.4213 -0.5720
  801MPD2     N11806   0.435   1.536  14.598 -0.3407 -0.0928 -0.4658
  801MPD2    H511807   0.360   1.589  14.554 -0.8507 -0.3104  0.1525
  801MPD2    N111808   0.800   1.258  14.476  1.1022  0.3732 -0.2954
  801MPD2    H711809   0.768   1.199  14.552 -0.2129 -1.4929 -2.3216
  802MPD2     C11810   0.626   1.409   0.325  0.4085 -0.0514  0.0692
  802MPD2    C111811   0.507   1.462   0.271 -0.5336  0.3092 -0.1289
  802MPD2    C211812   0.438   1.398   0.169  0.2468  0.2166  0.1198
  802MPD2    C311813   0.474   1.271   0.147  0.2829 -0.4386  0.4845
  802MPD2    C411814   0.582   1.209   0.213  0.4038 -0.4760 -0.1960
  802MPD2    C511815   0.656   1.282   0.300 -0.3824  0.1194 -0.4340
  802MPD2     H11816   0.346   1.434   0.125 -1.3406 -1.0056  2.4008
  802MPD2    H111817   0.624   1.113   0.185  0.2825 -0.3691 -0.7378
  802MPD2    H211818   0.678   1.457   0.407 -0.6573  1.2306 -0.0066
  802MPD2    H311819   0.751   1.244   0.335 -0.7515  0.5892  1.0984
  802MPD2     N11820   0.392   1.198   0.055  0.2802 -0.0139 -0.3568
  802MPD2    H511821   0.318   1.246   0.004  0.6470  1.5031  0.5112
  802MPD2    N111822   0.452   1.583   0.304 -0.1694  0.0419  0.1719
  802MPD2    H711823   0.375   1.616   0.247  1.6084  3.7784 -0.0972
  803MPD2     C11824   0.960   0.289  12.185 -0.1487 -0.3982 -0.1208
  803MPD2    C111825   1.059   0.266  12.273 -0.3313 -0.1925 -0.0386
  803MPD2    C211826   1.036   0.187  12.384 -0.1629  0.3249 -0.8521
  803MPD2    C311827   0.917   0.109  12.393  0.1014  0.5421 -0.2597
  803MPD2    C411828   0.818   0.131  12.303 -0.0381  0.5170 -0.1503
  803MPD2    C511829   0.839   0.221  12.202 -0.0817  0.7375 -0.1609
  803MPD2     H11830   1.107   0.175  12.465  0.0653  2.4111 -0.7372
  803MPD2    H111831   0.720   0.086  12.312 -0.2937  0.9009 -1.0528
  803MPD2    H211832   0.965   0.335  12.087 -1.7266 -3.9425 -1.8614
  803MPD2    H311833   0.759   0.228  12.129 -0.6135  1.3388  0.4737
  803MPD2     N11834   0.894   0.009  12.489  0.3726  0.9080  0.0504
  803MPD2    H511835   0.803   4.689  12.484  0.8098 -0.1896  1.5161
  803MPD2    N111836   1.183   0.334  12.262 -0.1223  0.1573  0.7255
  803MPD2    H711837   1.244   0.329  12.343 -1.4349  1.9248  1.8038
  804MPD2     C11838   0.602   0.800  17.311 -0.1569  0.0732 -0.3643
  804MPD2    C111839   0.590   0.768  17.443  0.3246 -0.2336 -0.3387
  804MPD2    C211840   0.642   0.853  17.536  0.4340  0.1289  0.7514
  804MPD2    C311841   0.698   0.974  17.504  0.1900  0.7255  0.3205
  804MPD2    C411842   0.685   1.013  17.375 -0.0892 -0.2865  0.5885
  804MPD2    C511843   0.644   0.924  17.278  0.7597 -0.3032  0.8747
  804MPD2     H11844   0.660   0.821  17.638 -2.7665 -0.1118  1.2428
  804MPD2    H111845   0.719   1.111  17.343 -1.0083  0.6695  2.5948
  804MPD2    H211846   0.558   0.739  17.232 -0.4117  0.5296 -0.5784
  804MPD2    H311847   0.641   0.960  17.176  0.8578  1.6476  1.5527
  804MPD2     N11848   0.749   1.053  17.605  0.2773  0.1590 -0.5802
  804MPD2    H511849   0.764   1.016   0.002 -0.4972 -0.5080 -0.7180
  804MPD2    N111850   0.539   0.647  17.489 -0.2323 -0.2367  0.1915
  804MPD2    H711851   0.515   0.646  17.588  0.9053 -0.1009  0.4684
  805MPD2     C11852   4.434   4.472  15.758 -0.9120 -0.9771 -0.0996
  805MPD2    C111853   4.491   4.429  15.638  0.5842  0.8258 -0.3700
  805MPD2    C211854   4.624   4.398  15.644  1.2437 -0.4943  0.4728
  805MPD2    C311855   4.701   4.393  15.761  0.7846  0.7428  0.5931
  805MPD2    C411856   4.636   4.411  15.876 -0.1589 -0.0878 -0.6703
  805MPD2    C511857   4.505   4.447  15.874  0.9504  0.0538  0.4590
  805MPD2     H11858   4.681   4.403  15.551 -0.4288 -1.7666 -0.6059
  805MPD2    H111859   4.680   4.411  15.975 -1.0143  3.0555 -0.2861
  805MPD2    H211860   4.330   4.502  15.753 -0.1200  1.7718  0.3804
  805MPD2    H311861   4.468   4.471  15.973 -2.0739  0.5821 -0.7932
  805MPD2     N11862   0.112   4.352  15.757 -0.1422 -0.5253 -0.7261
  805MPD2    H511863   0.137   4.321  15.664  0.6138  2.8234 -1.6482
  805MPD2    N111864   4.424   4.429  15.506 -0.2163 -0.3421 -0.1276
  805MPD2    H711865   4.495   4.409  15.437 -0.1392  0.0361 -0.1611
  806MPD2     C11866   0.179   2.898   0.713  0.6725 -0.2293  0.6137
  806MPD2    C111867   0.141   3.021   0.773  0.0299  1.0981  0.4884
  806MPD2    C211868   0.132   3.137   0.701  0.1924 -0.3589  0.2829
  806MPD2    C311869   0.169   3.139   0.571 -0.0916  0.5550  0.7388
  806MPD2    C411870   0.202   3.017   0.509  0.4267 -0.5058  0.2039
  806MPD2    C511871   0.201   2.898   0.578  0.3549  0.6207 -1.0114
  806MPD2     H11872   0.088   3.227   0.742  1.1219  1.0729 -1.8721
  806MPD2    H111873   0.228   3.004   0.404  1.8553  1.0811  0.3581
  806MPD2    H211874   0.196   2.806   0.768 -0.2919 -0.1216  1.0962
  806MPD2    H311875   0.216   2.807   0.521 -2.0621 -0.3275 -0.1209
  806MPD2     N11876   0.198   3.263   0.518  1.2096  0.3033 -0.5142
  806MPD2    H511877   0.190   3.342   0.582  0.0440  0.2102 -0.5423
  806MPD2    N111878   0.112   3.020   0.915 -0.1707 -0.5622  0.1269
  806MPD2    H711879   0.134   2.932   0.961 -2.3151 -1.0989  0.1483
  807MPD2     C11880   4.358   3.039   1.503  0.2194  0.3757 -0.9617
  807MPD2    C111881   4.492   3.046   1.542  0.0547 -0.4650  0.4531
  807MPD2    C211882   4.517   3.060   1.680 -0.5010  0.3250 -0.1100
  807MPD2    C311883   4.412   3.080   1.772 -0.2487 -0.2415 -0.2993
  807MPD2    C411884   4.283   3.069   1.727 -0.0999 -0.3305  0.4475
  807MPD2    C511885   4.258   3.049   1.592  0.2999  0.1210  0.0178
  807MPD2     H11886   4.618   3.064   1.718 -0.1204 -0.7975 -0.9882
  807MPD2    H111887   4.202   3.079   1.798  0.0010 -2.2225  0.8353
  807MPD2    H211888   4.328   3.029   1.400  1.3942  0.4080 -1.2973
  807MPD2    H311889   4.156   3.047   1.558  0.6261 -2.0430 -0.8445
  807MPD2     N11890   4.449   3.102   1.909 -0.2254 -0.7608  0.1989
  807MPD2    H511891   4.544   3.139   1.917  0.4958 -2.7093  0.7669
  807MPD2    N111892   4.595   3.055   1.444  0.0549 -0.4358  0.6697
  807MPD2    H711893   4.568   3.053   1.346  0.1158 -2.5129  0.6991
  808MPD2     C11894   0.515   0.191   9.113  0.5372 -0.5882 -0.3025
  808MPD2    C111895   0.519   0.183   9.245 -0.6367  0.7088 -0.3433
  808MPD2    C211896   0.642   0.210   9.303  0.2530 -0.2648 -0.9315
  808MPD2    C311897   0.753   0.251   9.234 -0.0010  0.7492  0.5987
  808MPD2    C411898   0.748   0.257   9.096  0.0023 -0.0941  0.6140
  808MPD2    C511899   0.629   0.228   9.040 -1.1176  0.1324 -0.1426
  808MPD2     H11900   0.651   0.186   9.409  0.5813  0.2659 -0.8432
  808MPD2    H111901   0.837   0.284   9.041 -0.7780  0.4203 -0.4165
  808MPD2    H211902   0.424   0.189   9.054 -1.0360  1.2344  2.0438
  808MPD2    H311903   0.610   0.254   8.936 -1.5716 -1.3369 -0.4235
  808MPD2     N11904   0.872   0.292   9.294  0.4783  0.1763 -0.0097
  808MPD2    H511905   0.947   0.325   9.234  1.6862 -4.0574 -0.7957
  808MPD2    N111906   0.411   0.146   9.327 -0.8722  0.7399 -0.1627
  808MPD2    H711907   0.423   0.162   9.426  0.2838  2.7548 -0.6256
  809MPD2     C11908   1.377   4.278   9.455 -0.7860  0.0617 -0.3000
  809MPD2    C111909   1.348   4.351   9.565 -0.1735  0.0274 -0.5174
  809MPD2    C211910   1.318   4.485   9.549  0.4555  0.0054  1.0083
  809MPD2    C311911   1.303   4.546   9.429 -0.2536 -0.2018  0.0441
  809MPD2    C411912   1.315   4.472   9.317  0.6839 -0.3788 -0.3903
  809MPD2    C511913   1.357   4.339   9.335  0.0778  0.2706  0.1673
  809MPD2     H11914   1.298   4.550   9.633  1.7493 -0.4360  1.6604
  809MPD2    H111915   1.291   4.511   9.218  0.1056  0.9627  0.2695
  809MPD2    H211916   1.400   4.172   9.451  1.5496  0.4560  2.3648
  809MPD2    H311917   1.383   4.287   9.244  1.7045 -2.0407  1.9288
  809MPD2     N11918   1.246   4.676   9.414 -0.3076  0.6516  0.2839
  809MPD2    H511919   1.201   4.698   9.326  0.2415  1.3755  0.1775
  809MPD2    N111920   1.358   4.294   9.693  0.3914  0.3633  0.3607
  809MPD2    H711921   1.362   4.359   9.771 -0.4647  0.9182 -0.0621
  810MPD2     C11922   0.563   3.595   9.880  0.6176  0.7123 -0.2403
  810MPD2    C111923   0.499   3.702   9.932  0.2981  0.0386  0.5914
  810MPD2    C211924   0.574   3.801   9.992 -0.5649  0.1393  0.2919
  810MPD2    C311925   0.712   3.799   9.997 -0.3332  0.2842  0.1451
  810MPD2    C411926   0.780   3.692   9.946 -0.0956 -0.8281  0.4666
  810MPD2    C511927   0.703   3.597   9.888 -0.2964 -0.2918  0.4920
  810MPD2     H11928   0.526   3.887  10.037 -3.7546 -1.1361 -0.6697
  810MPD2    H111929   0.887   3.703   9.936 -0.0158 -0.5529  1.6176
  810MPD2    H211930   0.514   3.508   9.836 -1.0746  0.9695  1.1196
  810MPD2    H311931   0.763   3.520   9.841 -2.1249 -0.6152 -1.3144
  810MPD2     N11932   0.785   3.906  10.038  0.4521 -0.2168  0.0084
  810MPD2    H511933   0.885   3.892  10.050  0.2758 -0.8534  0.7428
  810MPD2    N111934   0.355   3.696   9.944 -0.0531  0.4356 -0.5338
  810MPD2    H711935   0.312   3.610   9.911  2.3863 -1.2459  0.7016
  811MPD2     C11936   4.212   3.910   9.729 -0.0874 -0.3368  0.1308
  811MPD2    C111937   4.323   3.972   9.786  0.2520 -0.4660 -0.0055
  811MPD2    C211938   4.326   4.102   9.814 -0.6268  0.2691 -0.0406
  811MPD2    C311939   4.219   4.183   9.780  0.0008 -0.2613 -0.2198
  811MPD2    C411940   4.115   4.122   9.715 -0.1449  0.2955 -0.2366
  811MPD2    C511941   4.107   3.983   9.690  0.5047 -0.2174  0.3192
  811MPD2     H11942   4.403   4.148   9.875 -1.1304 -0.8303  1.4270
  811MPD2    H111943   4.040   4.179   9.661  0.0855  2.1749  1.4199
  811MPD2    H211944   4.217   3.805   9.703 -2.7314 -0.3093 -0.5508
  811MPD2    H311945   4.028   3.938   9.632  0.4229  1.9711 -1.2671
  811MPD2     N11946   4.209   4.322   9.822  0.1654 -0.3569  0.2371
  811MPD2    H511947   4.277   4.363   9.884  2.1827 -2.3676 -0.6324
  811MPD2    N111948   4.434   3.889   9.824  0.1191  0.0132  0.5821
  811MPD2    H711949   4.430   3.791   9.797  1.8079  0.9129 -3.0182
  812MPD2     C11950   3.732   4.298  12.297 -0.9686 -0.1658 -0.1670
  812MPD2    C111951   3.671   4.369  12.389 -0.0834  0.9503  0.4526
  812MPD2    C211952   3.659   4.316  12.521 -0.3376  0.0953 -0.7569
  812MPD2    C311953   3.708   4.189  12.549  0.4014 -0.1736 -0.0733
  812MPD2    C411954   3.758   4.117  12.448  0.0058 -0.1517 -0.2710
  812MPD2    C511955   3.781   4.171  12.329  0.4251  0.2815  1.1285
  812MPD2     H11956   3.621   4.378  12.601  0.4926  1.0860 -1.1245
  812MPD2    H111957   3.771   4.010  12.452 -1.9589 -0.4400 -2.0280
  812MPD2    H211958   3.750   4.341  12.199 -2.4897 -0.3924 -0.5422
  812MPD2    H311959   3.827   4.114  12.250 -1.6824  1.8057 -1.1674
  812MPD2     N11960   3.686   4.130  12.677 -0.3023 -0.4850 -0.8470
  812MPD2    H511961   3.651   4.190  12.751 -1.0140  1.8862 -3.0688
  812MPD2    N111962   3.625   4.497  12.359  0.3350 -0.0870 -0.0508
  812MPD2    H711963   3.651   4.533  12.267 -0.6695 -0.4706 -0.4861
  813MPD2     C11964   2.495   1.195  12.863 -0.1811  0.3200 -0.7377
  813MPD2    C111965   2.487   1.334  12.860  0.0456 -0.2006 -0.0038
  813MPD2    C211966   2.401   1.391  12.954  0.1258 -0.5474  0.1860
  813MPD2    C311967   2.317   1.320  13.034  0.8855  0.2024 -0.3491
  813MPD2    C411968   2.323   1.182  13.025 -0.1763 -0.0190  0.3282
  813MPD2    C511969   2.410   1.122  12.942  0.1340  0.5519  0.6984
  813MPD2     H11970   2.411   1.498  12.969  0.0962 -0.4147 -0.7544
  813MPD2    H111971   2.245   1.126  13.077 -1.3659  2.2289  0.9643
  813MPD2    H211972   2.570   1.138  12.810 -1.2133 -0.2771 -1.5543
  813MPD2    H311973   2.421   1.014  12.943  0.0510  0.5309 -0.5290
  813MPD2     N11974   2.232   1.392  13.122  0.8162 -0.1631 -0.4895
  813MPD2    H511975   2.243   1.493  13.116 -3.6270  0.3151 -0.6597
  813MPD2    N111976   2.572   1.409  12.771  0.0948  0.5039 -0.4298
  813MPD2    H711977   2.653   1.362  12.730  0.7575  0.3011  1.1143
  814MPD2     C11978   3.186   2.760  12.330  0.5823 -0.4576  0.6518
  814MPD2    C111979   3.205   2.854  12.234 -0.0444  0.4004 -0.2642
  814MPD2    C211980   3.257   2.973  12.273 -0.0102 -0.2401 -0.4258
  814MPD2    C311981   3.303   2.997  12.404 -0.2182 -0.2573 -0.9272
  814MPD2    C411982   3.290   2.897  12.499 -0.2306 -0.2958  0.0116
  814MPD2    C511983   3.221   2.785  12.458  0.1561  0.6108 -0.3567
  814MPD2     H11984   3.267   3.052  12.200  3.2773  1.7488  2.1448
  814MPD2    H111985   3.317   2.915  12.603 -2.1943 -0.4344  0.5547
  814MPD2    H211986   3.142   2.664  12.303  1.2919 -0.1038 -1.8146
  814MPD2    H311987   3.218   2.706  12.532  1.9807 -0.0656 -0.9889
  814MPD2     N11988   3.373   3.116  12.443 -1.0924  0.2425 -0.3399
  814MPD2    H511989   3.421   3.117  12.532  0.1746 -0.9526 -1.0104
  814MPD2    N111990   3.164   2.838  12.099  0.0900  0.1692 -0.4455
  814MPD2    H711991   3.213   2.898  12.034 -2.0638 -0.0457 -2.2620
  815MPD2     C11992   3.826   1.583  11.351  0.4656  0.0872 -0.1751
  815MPD2    C111993   3.773   1.487  11.271  1.0816  0.1581 -0.3930
  815MPD2    C211994   3.660   1.418  11.318  0.1099  0.8856  0.5084
  815MPD2    C311995   3.607   1.435  11.445  0.0239 -0.4175  0.2032
  815MPD2    C411996   3.666   1.526  11.523 -0.6334  0.4339  0.0584
  815MPD2    C511997   3.768   1.599  11.472  0.3696 -0.1313 -0.7394
  815MPD2     H11998   3.615   1.350  11.246  0.1186  3.0392 -1.5031
  815MPD2    H111999   3.624   1.556  11.619 -1.9675 -0.7164 -0.1627
  815MPD2    H212000   3.902   1.654  11.320  1.3418 -0.9648 -0.4365
  815MPD2    H312001   3.803   1.682  11.532 -0.2716 -0.2700 -0.1794
  815MPD2     N12002   3.501   1.351  11.487 -0.2717  0.2687 -0.3205
  815MPD2    H512003   3.456   1.299  11.412 -0.3020  0.8681 -0.7198
  815MPD2    N112004   3.846   1.430  11.160 -0.0475 -0.4387  0.0943
  815MPD2    H712005   3.797   1.370  11.095  2.2546  0.3831 -2.3657
  816MPD2     C12006   4.216   0.760   0.021  0.0369 -0.1849 -0.2396
  816MPD2    C112007   4.095   0.758  17.653  0.1727  0.1051 -0.3139
  816MPD2    C212008   4.086   0.694  17.534 -0.1083  0.5958 -0.6555
  816MPD2    C312009   4.193   0.620  17.483 -0.2601  0.5751 -0.3069
  816MPD2    C412010   4.313   0.619  17.551 -0.6639 -0.4465 -0.1250
  816MPD2    C512011   4.318   0.679  17.673 -0.0842 -0.8387 -0.2418
  816MPD2     H12012   3.996   0.712  17.475  0.0329 -2.2114 -1.7691
  816MPD2    H112013   4.402   0.572  17.510  0.3625  0.6153  0.8926
  816MPD2    H212014   4.239   0.815   0.112  0.6437 -1.7180  0.5509
  816MPD2    H312015   4.415   0.671   0.025  0.4756  2.9672 -0.7779
  816MPD2     N12016   4.181   0.564  17.352 -0.5975 -0.4484  0.1767
  816MPD2    H512017   4.087   0.574  17.314 -0.4912 -2.4793 -0.5960
  816MPD2    N112018   4.007   0.858   0.004  0.2411 -0.3289 -0.1056
  816MPD2    H712019   4.037   0.912   0.084 -0.7395 -1.5465  1.0827
  817MPD2     C12020   3.312   1.800   9.824 -0.2218 -0.0072  0.0555
  817MPD2    C112021   3.219   1.748   9.738 -0.6030  0.2162 -0.0997
  817MPD2    C212022   3.146   1.822   9.645 -0.2121  0.6790 -0.4076
  817MPD2    C312023   3.156   1.958   9.649 -0.3810  0.7599 -0.9221
  817MPD2    C412024   3.245   2.021   9.739 -0.4207  0.3132 -0.5022
  817MPD2    C512025   3.315   1.941   9.825  0.3534  0.1825 -0.9287
  817MPD2     H12026   3.074   1.776   9.578 -0.4307  0.2508  0.1169
  817MPD2    H112027   3.257   2.127   9.759 -1.9520  0.3733  0.1627
  817MPD2    H212028   3.381   1.746   9.888 -2.1596  0.6315  2.6178
  817MPD2    H312029   3.376   1.976   9.907 -1.3475  2.4656 -0.6139
  817MPD2     N12030   3.082   2.024   9.549 -0.3332  0.1352  0.0749
  817MPD2    H512031   3.048   1.968   9.473  2.6190 -0.4294 -0.8263
  817MPD2    N112032   3.195   1.608   9.740 -0.4054 -0.1454  0.4405
  817MPD2    H712033   3.139   1.578   9.661  1.5993 -1.9532 -0.3006
  818MPD2     C12034   2.104   2.048   9.984 -0.3899 -0.0012  0.9879
  818MPD2    C112035   1.989   1.985  10.014  0.1304 -0.0591  0.3709
  818MPD2    C212036   1.991   1.847  10.029 -0.1405  0.8444  0.9837
  818MPD2    C312037   2.110   1.771  10.016  0.7171  0.5109  0.3129
  818MPD2    C412038   2.228   1.843  10.007  0.2623  0.4130  0.1359
  818MPD2    C512039   2.223   1.980   9.976  0.8305  0.1222  0.3793
  818MPD2     H12040   1.899   1.798  10.059 -0.2070  0.1035 -0.4255
  818MPD2    H112041   2.317   1.781  10.015  0.4737  0.5308 -1.2550
  818MPD2    H212042   2.108   2.156   9.991  0.7058 -0.0516  1.0494
  818MPD2    H312043   2.315   2.037   9.975  1.0607 -0.3486 -3.0985
  818MPD2     N12044   2.121   1.635  10.061  0.3205 -0.0938  0.0116
  818MPD2    H512045   2.214   1.604  10.089 -0.1555 -1.5070  0.0386
  818MPD2    N112046   1.871   2.049  10.048  0.0335  0.2298  0.3837
  818MPD2    H712047   1.797   1.992  10.088  0.3269 -0.7096 -0.4043
  819MPD2     C12048   0.303   3.970  15.531  0.1612  0.3570 -0.3395
  819MPD2    C112049   0.284   3.865  15.617 -0.0655 -0.1665  0.0761
  819MPD2    C212050   0.394   3.794  15.671 -0.3546 -0.5399 -0.5990
  819MPD2    C312051   0.521   3.853  15.648  0.4090 -0.0275 -0.1105
  819MPD2    C412052   0.541   3.963  15.562 -0.2233  0.4172 -0.6872
  819MPD2    C512053   0.430   4.008  15.496 -0.0018  0.5317 -0.2654
  819MPD2     H12054   0.381   3.701  15.724 -1.6358  0.0813  0.1739
  819MPD2    H112055   0.638   4.006  15.540  0.6518 -0.8267  0.7432
  819MPD2    H212056   0.222   4.012  15.473  0.2819  0.1384 -0.6665
  819MPD2    H312057   0.456   4.080  15.419 -3.7080  0.6468 -1.3946
  819MPD2     N12058   0.638   3.790  15.696 -0.0752  0.4397  0.6369
  819MPD2    H512059   0.730   3.833  15.689  0.0592  0.2193  1.0411
  819MPD2    N112060   0.153   3.815  15.634 -0.3372  0.4136  0.0126
  819MPD2    H712061   0.087   3.859  15.571 -1.8223 -1.3216  0.3286
  820MPD2     C12062   4.067   3.870  15.086 -0.3513 -0.1367  0.1664
  820MPD2    C112063   4.172   3.946  15.135 -0.1630 -0.6820 -0.7497
  820MPD2    C212064   4.255   3.898  15.239  0.4991  0.4248  0.1608
  820MPD2    C312065   4.251   3.762  15.283 -0.6096  0.3291  0.4720
  820MPD2    C412066   4.145   3.692  15.225  0.4951  0.1755  0.0420
  820MPD2    C512067   4.055   3.751  15.137 -0.2746 -0.4852 -0.4157
  820MPD2     H12068   4.317   3.973  15.288  3.2763 -2.4113  0.9715
  820MPD2    H112069   4.117   3.594  15.261 -4.7219  2.5176  2.4887
  820MPD2    H212070   4.000   3.907  15.009  1.4014  1.5670 -0.5312
  820MPD2    H312071   3.967   3.697  15.103 -0.9794  0.4803 -0.1103
  820MPD2     N12072   4.332   3.708  15.382 -0.4117 -0.1484  0.3388
  820MPD2    H512073   4.305   3.613  15.407 -2.3363  0.1643 -0.5824
  820MPD2    N112074   4.178   4.082  15.101  0.0899  0.0434 -0.2908
  820MPD2    H712075   4.099   4.118  15.048 -0.3593  0.4075  0.6278
  821MPD2     C12076   0.560   0.814  13.234 -0.0613  0.1136  0.0450
  821MPD2    C112077   0.672   0.775  13.299 -0.1997  0.2673  0.1767
  821MPD2    C212078   0.791   0.846  13.285 -0.0811 -0.3937 -0.6057
  821MPD2    C312079   0.794   0.958  13.203  0.5795 -0.1294 -0.1796
  821MPD2    C412080   0.674   0.992  13.134 -0.4322  0.0532  0.7360
  821MPD2    C512081   0.555   0.929  13.153  0.1728  0.6636 -0.2038
  821MPD2     H12082   0.872   0.819  13.351 -0.2958  0.6929  0.1010
  821MPD2    H112083   0.670   1.057  13.047 -3.9627 -1.8500 -0.5385
  821MPD2    H212084   0.462   0.773  13.254  0.5424 -0.1520  2.4947
  821MPD2    H312085   0.469   0.956  13.093  1.2184  0.7809 -1.6321
  821MPD2     N12086   0.914   1.027  13.179 -0.0176 -0.4215 -0.4042
  821MPD2    H512087   0.897   1.104  13.115  0.7014 -1.0236 -1.3226
  821MPD2    N112088   0.682   0.658  13.382 -0.1334 -0.2376  0.0452
  821MPD2    H712089   0.777   0.633  13.408  1.1452  1.4261 -2.9795
  822MPD2     C12090   1.323   0.227  16.093  0.0443  0.8245 -0.5661
  822MPD2    C112091   1.349   0.214  16.231  0.4299 -0.8676 -0.5494
  822MPD2    C212092   1.261   0.278  16.320  0.4291 -0.5290  0.0334
  822MPD2    C312093   1.152   0.352  16.274  0.1428 -0.5106 -0.0578
  822MPD2    C412094   1.126   0.362  16.139  0.0668  0.0811 -0.5695
  822MPD2    C512095   1.211   0.290  16.052 -0.2895  0.0641 -0.6518
  822MPD2     H12096   1.275   0.281  16.427 -0.4294 -0.9297  0.1605
  822MPD2    H112097   1.043   0.418  16.096  0.5429  2.6698  1.8756
  822MPD2    H212098   1.379   0.163  16.026  0.2895  0.6894 -0.2347
  822MPD2    H312099   1.192   0.295  15.945  2.3527  1.4798 -1.0572
  822MPD2     N12100   1.070   0.418  16.373  0.2939 -0.2337  0.0787
  822MPD2    H512101   1.100   0.407  16.470  1.6888 -1.7443 -0.5222
  822MPD2    N112102   1.439   0.132  16.293 -0.5007  0.5669  0.6611
  822MPD2    H712103   1.478   0.162  16.382  1.3278  1.4670 -0.4319
  823MPD2     C12104   0.818   0.532  17.142 -0.3015  0.3296 -0.1291
  823MPD2    C112105   0.829   0.438  17.042  0.3292  0.8818  0.2428
  823MPD2    C212106   0.835   0.310  17.078 -0.0624  0.4416  0.1259
  823MPD2    C312107   0.848   0.273  17.212  0.2128 -0.1635  0.2087
  823MPD2    C412108   0.833   0.367  17.314  0.0855 -0.7549 -0.4587
  823MPD2    C512109   0.827   0.498  17.277  0.8059  0.5202 -0.5573
  823MPD2     H12110   0.838   0.242  16.993 -1.0996 -0.0541  0.4857
  823MPD2    H112111   0.829   0.341  17.419  0.4074 -1.4275 -0.6102
  823MPD2    H212112   0.810   0.638  17.119  0.2786  0.2299 -0.7737
  823MPD2    H312113   0.809   0.573  17.353  2.4325  0.3931 -0.0448
  823MPD2     N12114   0.865   0.139  17.252  0.1462 -0.4161  0.0011
  823MPD2    H512115   0.856   0.121  17.351  0.1651  0.7684  0.2221
  823MPD2    N112116   0.830   0.479  16.909 -0.3492 -0.0065 -0.1102
  823MPD2    H712117   0.833   0.577  16.883  2.2586  0.4782  1.9988
  824MPD2     C12118   2.147   4.406  16.326  0.7592  0.5689 -0.4034
  824MPD2    C112119   2.033   4.433  16.248 -0.3857 -0.4330  0.6873
  824MPD2    C212120   2.001   4.343  16.146  0.5087 -0.6086 -0.2088
  824MPD2    C312121   2.073   4.227  16.133 -0.8232  0.2853  0.8619
  824MPD2    C412122   2.181   4.203  16.213 -0.1071  0.6601  0.9815
  824MPD2    C512123   2.215   4.293  16.308  0.4033 -0.6640 -0.3394
  824MPD2     H12124   1.917   4.365  16.081  1.1305  0.0261 -0.7918
  824MPD2    H112125   2.251   4.121  16.201  0.3645  0.9602  1.6657
  824MPD2    H212126   2.184   4.466  16.408 -0.2089 -1.0122  1.1987
  824MPD2    H312127   2.293   4.272  16.380  0.4547 -2.5711 -0.9366
  824MPD2     N12128   2.039   4.142  16.024  0.6299  0.3784 -0.3283
  824MPD2    H512129   1.958   4.182  15.977  0.0601 -0.4438 -0.0616
  824MPD2    N112130   1.954   4.547  16.261  0.2506  0.2473 -0.8063
  824MPD2    H712131   1.865   4.535  16.213 -0.1776 -0.8520  0.2530
  825MPD2     C12132   2.185   4.233  15.242 -0.2845 -0.3440  0.0665
  825MPD2    C112133   2.236   4.237  15.370 -0.1913  0.8791  0.1737
  825MPD2    C212134   2.307   4.346  15.411 -0.2407 -0.0711  0.3801
  825MPD2    C312135   2.332   4.457  15.328  0.4901  0.4871 -0.7006
  825MPD2    C412136   2.265   4.452  15.210 -0.0598 -0.1279  0.3469
  825MPD2    C512137   2.196   4.343  15.162 -0.5182  0.5226 -0.0933
  825MPD2     H12138   2.360   4.345  15.506 -1.8268 -1.5450  1.2432
  825MPD2    H112139   2.269   4.541  15.148  2.3929 -0.4036  0.0815
  825MPD2    H212140   2.125   4.149  15.209  1.8278 -2.0661  0.6483
  825MPD2    H312141   2.142   4.355  15.069  3.0301  1.6192 -1.9906
  825MPD2     N12142   2.410   4.570  15.362  0.1273  0.0668  0.2664
  825MPD2    H512143   2.417   4.636  15.285 -0.3601 -1.2243 -0.8765
  825MPD2    N112144   2.211   4.123  15.452  0.3005 -0.1526  0.5648
  825MPD2    H712145   2.162   4.046  15.409  1.8849 -0.8545  0.0324
  826MPD2     C12146   1.693   4.070  13.707 -0.3845 -0.3650 -0.2506
  826MPD2    C112147   1.722   4.198  13.650  0.6724  0.3796 -0.4474
  826MPD2    C212148   1.632   4.301  13.663  0.2919 -0.0937 -0.3572
  826MPD2    C312149   1.519   4.286  13.744  0.2872 -0.3365 -0.2244
  826MPD2    C412150   1.495   4.167  13.805 -0.1399  0.0608 -0.2989
  826MPD2    C512151   1.574   4.056  13.777  0.4634  0.4599  0.4821
  826MPD2     H12152   1.656   4.396  13.617  0.5289  0.6175  1.2067
  826MPD2    H112153   1.410   4.169  13.872  0.6454  1.6599  0.6409
  826MPD2    H212154   1.759   3.984  13.697  0.0818  0.3562 -3.0722
  826MPD2    H312155   1.539   3.966  13.825  1.3373 -0.2957 -0.2789
  826MPD2     N12156   1.434   4.398  13.776  0.1222  0.0696  0.6827
  826MPD2    H512157   1.364   4.394  13.849  0.1232 -0.8018  0.6355
  826MPD2    N112158   1.841   4.205  13.569 -0.4458  0.4234 -0.9021
  826MPD2    H712159   1.900   4.126  13.549  0.7690  1.0463  0.2727
  827MPD2     C12160   2.266   0.763  10.087 -0.4236 -0.0742  0.1800
  827MPD2    C112161   2.304   0.635  10.109  0.6470  0.0021  0.1269
  827MPD2    C212162   2.254   0.537  10.026  0.3251  0.1587  0.0411
  827MPD2    C312163   2.159   0.564   9.928  0.6119 -0.1226 -0.1393
  827MPD2    C412164   2.123   0.694   9.910  0.3323 -0.2350  0.0646
  827MPD2    C512165   2.178   0.798   9.989 -0.3291 -0.5396 -0.2930
  827MPD2     H12166   2.285   0.433  10.036  1.0458  0.3735  0.0018
  827MPD2    H112167   2.046   0.718   9.838  0.4910  0.8493  0.2638
  827MPD2    H212168   2.298   0.853  10.138 -1.8326  1.1863 -1.1462
  827MPD2    H312169   2.157   0.904   9.980  0.9222 -0.3684 -1.3887
  827MPD2     N12170   2.109   0.459   9.847  0.3128 -0.3780  0.5506
  827MPD2    H512171   2.123   0.363   9.879 -0.6664 -0.2622  1.3121
  827MPD2    N112172   2.392   0.614  10.215  0.3601 -0.4971 -0.2430
  827MPD2    H712173   2.421   0.706  10.247  0.0506 -0.1814 -0.8698
  828MPD2     C12174   0.912   1.103  12.675 -0.2925  0.0863  0.8218
  828MPD2    C112175   0.875   1.111  12.542  0.7808  0.2221  0.4232
  828MPD2    C212176   0.970   1.089  12.442  0.3714  0.4191  0.1759
  828MPD2    C312177   1.100   1.050  12.474  0.7458 -0.6656  0.0385
  828MPD2    C412178   1.131   1.052  12.610 -0.2179 -0.0043 -0.7017
  828MPD2    C512179   1.046   1.077  12.706  0.0497  0.0076  0.2455
  828MPD2     H12180   0.940   1.101  12.339 -2.2363 -0.3384  0.8389
  828MPD2    H112181   1.231   1.018  12.634  0.1461  0.5141 -1.5132
  828MPD2    H212182   0.841   1.116  12.756  0.6707 -2.5314  2.1035
  828MPD2    H312183   1.072   1.075  12.811 -0.7451 -0.2542  0.4320
  828MPD2     N12184   1.205   1.018  12.388  0.1076  0.0052 -0.0256
  828MPD2    H512185   1.300   1.003  12.422  0.1996  1.6077  0.4360
  828MPD2    N112186   0.740   1.122  12.493 -0.4175  0.6759 -0.6612
  828MPD2    H712187   0.725   1.100  12.395 -0.2521  0.3361 -0.6095
  829MPD2     C12188   0.648   0.899  11.716 -0.6139 -0.3856 -0.0393
  829MPD2    C112189   0.518   0.910  11.745  0.1913  0.3799  0.4022
  829MPD2    C212190   0.475   0.960  11.869 -0.0921  0.5483  0.3443
  829MPD2    C312191   0.577   0.994  11.964  1.3228 -0.6712  0.1615
  829MPD2    C412192   0.708   0.995  11.924 -0.5260  0.3748 -0.4023
  829MPD2    C512193   0.743   0.935  11.803  0.7034  0.0062  0.0553
  829MPD2     H12194   0.371   0.969  11.899 -0.5636  0.2876 -1.2433
  829MPD2    H112195   0.790   1.041  11.977  0.2032 -1.3951 -0.0067
  829MPD2    H212196   0.682   0.858  11.621 -4.5850  1.6018 -2.2827
  829MPD2    H312197   0.849   0.930  11.779  0.8131 -1.9308  0.9459
  829MPD2     N12198   0.544   1.041  12.092  0.3698 -0.4157  0.3499
  829MPD2    H512199   0.623   1.060  12.153  0.1823 -2.9765  1.3891
  829MPD2    N112200   0.439   0.876  11.637 -0.6255 -0.2044  0.4171
  829MPD2    H712201   0.479   0.844  11.550 -4.1366  1.9547 -2.0141
  830MPD2     C12202   1.097   3.679  15.290  0.2626  0.0103  0.4895
  830MPD2    C112203   1.124   3.722  15.422 -0.5875 -0.0849  0.2773
  830MPD2    C212204   1.219   3.820  15.443  0.0373  0.2561  0.4989
  830MPD2    C312205   1.290   3.874  15.337 -0.2253 -0.3773  0.6227
  830MPD2    C412206   1.271   3.832  15.211  0.3667  0.2118  0.0265
  830MPD2    C512207   1.168   3.737  15.187 -0.0361 -0.0086 -0.4258
  830MPD2     H12208   1.220   3.873  15.538  1.5385 -0.0409  0.6628
  830MPD2    H112209   1.326   3.866  15.124  0.4341 -0.0056 -0.0141
  830MPD2    H212210   1.012   3.616  15.265 -0.5746  1.4819 -0.3383
  830MPD2    H312211   1.128   3.718  15.088 -2.6544 -1.1284  0.8422
  830MPD2     N12212   1.365   3.991  15.344  0.1169 -0.1258  0.0654
  830MPD2    H512213   1.398   4.035  15.259 -1.0376  0.3908 -0.1220
  830MPD2    N112214   1.055   3.660  15.531  0.2593 -0.6435  0.0772
  830MPD2    H712215   0.977   3.596  15.517  0.7865 -0.5645 -3.2262
  831MPD2     C12216   1.310   0.464  17.019 -0.2558  1.0261  0.0025
  831MPD2    C112217   1.292   0.476  16.883 -0.0882  0.4966  0.2181
  831MPD2    C212218   1.201   0.383  16.820  0.8236  0.0536 -0.5214
  831MPD2    C312219   1.129   0.282  16.897  0.2330 -0.2207 -0.3723
  831MPD2    C412220   1.159   0.277  17.031 -0.2306  0.4339  0.1967
  831MPD2    C512221   1.246   0.370  17.087  0.7065  0.2364 -0.5072
  831MPD2     H12222   1.185   0.391  16.713 -1.0688  1.9864 -0.0782
  831MPD2    H112223   1.122   0.190  17.084  1.0011  0.0873  0.4984
  831MPD2    H212224   1.377   0.525  17.078  2.3117 -2.7049  0.9306
  831MPD2    H312225   1.256   0.378  17.194  0.1881 -0.8373 -0.3754
  831MPD2     N12226   1.050   0.177  16.833 -0.0687  0.2440 -0.3683
  831MPD2    H512227   1.009   0.110  16.896 -1.8870 -0.1276 -1.9709
  831MPD2    N112228   1.370   0.574  16.819 -0.2842 -0.2072 -0.1114
  831MPD2    H712229   1.439   0.622  16.876 -2.2329  1.0832  1.1814
  832MPD2     C12230   4.320   1.837  17.425  0.2733  0.1785 -1.2587
  832MPD2    C112231   4.301   1.912  17.314 -0.2685 -0.5418 -0.5510
  832MPD2    C212232   4.188   1.893  17.239 -0.8685 -0.3500 -0.6884
  832MPD2    C312233   4.092   1.806  17.277  1.3596  0.1080 -0.4851
  832MPD2    C412234   4.117   1.723  17.391 -0.6272  0.0606  0.2652
  832MPD2    C512235   4.229   1.740  17.458  0.6599  0.5039  0.4295
  832MPD2     H12236   4.168   1.976  17.172  1.4898  1.9515  1.4535
  832MPD2    H112237   4.057   1.637  17.417 -1.2437 -0.5150 -3.0915
  832MPD2    H212238   4.413   1.832  17.480 -0.3762  0.9709 -0.0950
  832MPD2    H312239   4.248   1.670  17.539  1.1268  0.2520  0.0976
  832MPD2     N12240   3.972   1.799  17.213 -0.3928 -0.1274  0.6693
  832MPD2    H512241   3.902   1.748  17.266  1.3063 -2.3416  0.8051
  832MPD2    N112242   4.403   1.998  17.276  0.2493  0.7596 -0.2377
  832MPD2    H712243   4.493   1.989  17.322  0.8069 -1.4256 -1.7061
  833MPD2     C12244   1.690   2.850  12.493 -0.8624  0.3366 -0.9627
  833MPD2    C112245   1.793   2.942  12.507  0.1366  0.3958 -0.1331
  833MPD2    C212246   1.890   2.962  12.412 -0.2390  0.2760  0.0105
  833MPD2    C312247   1.884   2.899  12.290 -0.7507 -0.4943 -0.2537
  833MPD2    C412248   1.788   2.801  12.276  0.1318  0.0283  0.0291
  833MPD2    C512249   1.685   2.780  12.371 -0.1679  0.6803 -0.5775
  833MPD2     H12250   1.955   3.048  12.425 -0.8224  0.8112 -0.5664
  833MPD2    H112251   1.797   2.733  12.192  0.2768 -1.4868  1.2600
  833MPD2    H212252   1.608   2.839  12.563  0.1413  0.2287  0.1936
  833MPD2    H312253   1.610   2.704  12.351  0.6661 -0.3276  0.1491
  833MPD2     N12254   1.980   2.939  12.197  0.1861 -0.0524  0.8464
  833MPD2    H512255   2.049   3.003  12.236 -0.3443  1.0932 -0.1018
  833MPD2    N112256   1.786   3.028  12.623 -0.0809 -0.1066 -0.5531
  833MPD2    H712257   1.704   3.018  12.682  0.1790 -2.3004 -0.5476
  834MPD2     C12258   1.801   3.244  11.269 -0.6854 -0.2817  0.7466
  834MPD2    C112259   1.758   3.136  11.337 -0.2254  0.0438 -0.0535
  834MPD2    C212260   1.798   3.121  11.469  0.3606  0.0286 -0.2412
  834MPD2    C312261   1.881   3.209  11.531  0.4468 -0.4054  0.3543
  834MPD2    C412262   1.921   3.320  11.465  0.1397  0.2365 -0.1887
  834MPD2    C512263   1.880   3.329  11.335  0.2720 -0.1286 -0.1153
  834MPD2     H12264   1.780   3.031  11.526 -0.1534  0.9323  1.0269
  834MPD2    H112265   1.988   3.396  11.502 -0.3686  0.7616 -0.3318
  834MPD2    H212266   1.771   3.266  11.167 -0.3043 -0.3906  0.6098
  834MPD2    H312267   1.906   3.415  11.273 -0.3308 -0.0695 -0.2940
  834MPD2     N12268   1.932   3.171  11.657 -0.2650 -0.4511 -0.2881
  834MPD2    H512269   1.897   3.086  11.700  1.2527 -0.0793  1.6764
  834MPD2    N112270   1.671   3.053  11.268 -0.7408  0.3387  0.3042
  834MPD2    H712271   1.641   3.086  11.177  1.8554  1.6601 -0.0532
  835MPD2     C12272   1.502   0.546  10.743  0.2076  0.1064 -0.6858
  835MPD2    C112273   1.402   0.563  10.825 -0.0262  0.0037  0.0390
  835MPD2    C212274   1.423   0.585  10.965 -0.4605  0.6594  0.7343
  835MPD2    C312275   1.559   0.610  11.011 -0.1634 -0.1345 -0.2953
  835MPD2    C412276   1.663   0.591  10.918  0.2152  0.5897 -0.0279
  835MPD2    C512277   1.628   0.558  10.790  0.6972 -0.2781 -0.4441
  835MPD2     H12278   1.341   0.582  11.036 -1.1054 -1.6102 -0.1008
  835MPD2    H112279   1.769   0.593  10.940 -0.0554  2.9665  1.0079
  835MPD2    H212280   1.498   0.523  10.637  0.9588 -3.4773  0.0805
  835MPD2    H312281   1.710   0.542  10.720 -0.4168 -0.1026 -1.7772
  835MPD2     N12282   1.592   0.668  11.138 -0.2942 -0.1539 -0.8373
  835MPD2    H512283   1.688   0.699  11.152 -0.0091 -2.3333  2.0543
  835MPD2    N112284   1.271   0.545  10.786  0.5609 -0.5846  0.4553
  835MPD2    H712285   1.197   0.548  10.856  0.9059  3.0932  0.6342
  836MPD2     C12286   1.104   1.131  11.492 -0.4085 -0.0910 -0.2603
  836MPD2    C112287   1.213   1.113  11.580  0.3115 -0.5022 -0.1095
  836MPD2    C212288   1.195   1.148  11.709  0.6645  0.7488  0.1368
  836MPD2    C312289   1.081   1.211  11.754 -0.5409  0.5980 -0.3863
  836MPD2    C412290   0.977   1.220  11.679 -0.2084 -0.2902  0.1912
  836MPD2    C512291   0.986   1.184  11.548  0.1569 -0.0029 -0.8793
  836MPD2     H12292   1.269   1.122  11.784 -0.1976 -1.3032  0.2556
  836MPD2    H112293   0.885   1.253  11.725 -1.6569  0.4078 -3.1528
  836MPD2    H212294   1.107   1.124  11.384  2.2431  0.5347 -0.2133
  836MPD2    H312295   0.895   1.197  11.491 -0.4201 -1.2468 -0.2366
  836MPD2     N12296   1.058   1.243  11.891 -0.0309  0.2207  0.3895
  836MPD2    H512297   0.968   1.287  11.908  0.1927  1.1726 -0.7879
  836MPD2    N112298   1.325   1.039  11.533  0.0300 -0.3151 -0.2383
  836MPD2    H712299   1.307   1.006  11.439 -2.9372 -0.5456  0.4000
  837MPD2     C12300   4.571   0.141  10.263  0.1220  0.4182  0.1203
  837MPD2    C112301   4.450   0.180  10.208  0.2782  0.2627 -0.1880
  837MPD2    C212302   4.401   0.307  10.235  0.2880  0.1062  0.0480
  837MPD2    C312303   4.457   0.393  10.326 -0.5818 -0.2546  0.1728
  837MPD2    C412304   4.563   0.346  10.391  0.4965  0.3375 -0.0735
  837MPD2    C512305   4.627   0.228  10.351 -0.1042 -0.0759  0.7880
  837MPD2     H12306   4.312   0.340  10.184 -1.2591  0.8094  3.2101
  837MPD2    H112307   4.622   0.403  10.462 -0.8190  0.0778  1.2356
  837MPD2    H212308   4.620   0.046  10.248  2.3149  1.2695  1.8777
  837MPD2    H312309   4.719   0.188  10.391  0.1456  0.6531  0.9452
  837MPD2     N12310   4.384   0.514  10.351 -0.3817  0.0162 -0.3345
  837MPD2    H512311   4.294   0.515  10.304 -0.2923  0.8543 -0.4967
  837MPD2    N112312   4.382   0.115  10.101 -0.7616  0.3072 -0.2158
  837MPD2    H712313   4.304   0.164  10.058 -1.0951 -1.2703 -1.3818
  838MPD2     C12314   3.304   3.893  12.091  0.0671 -0.1513  0.1112
  838MPD2    C112315   3.248   3.770  12.066  0.6477  0.2825 -0.3813
  838MPD2    C212316   3.116   3.746  12.100  0.0021 -0.0929 -0.6656
  838MPD2    C312317   3.044   3.838  12.169 -1.1914  0.5609  0.5010
  838MPD2    C412318   3.097   3.959  12.190 -0.0017 -0.8306 -0.1480
  838MPD2    C512319   3.227   3.985  12.152  0.2942  0.3419  0.1034
  838MPD2     H12320   3.074   3.647  12.088 -2.5540  0.9495 -0.3795
  838MPD2    H112321   3.048   4.044  12.237  1.5608  2.1890 -3.9690
  838MPD2    H212322   3.394   3.927  12.042  1.1208 -0.2787  1.9999
  838MPD2    H312323   3.278   4.079  12.167  1.3148 -0.0300 -0.9783
  838MPD2     N12324   2.917   3.807  12.215  0.0084  0.5687 -0.4655
  838MPD2    H512325   2.894   3.708  12.208 -0.6222  0.6019  1.1603
  838MPD2    N112326   3.310   3.679  11.982  0.3208 -0.3132 -0.0370
  838MPD2    H712327   3.256   3.596  11.960  2.2243 -1.1494 -1.5655
  839MPD2     C12328   2.850   3.096  11.798  0.4547  0.4684 -0.3384
  839MPD2    C112329   2.892   3.138  11.677 -0.4015 -0.3620  0.2245
  839MPD2    C212330   3.023   3.181  11.657 -0.2531  0.0871  0.4589
  839MPD2    C312331   3.100   3.189  11.772  0.5474 -0.1760  0.3638
  839MPD2    C412332   3.049   3.148  11.894 -0.1678  0.3888 -0.2098
  839MPD2    C512333   2.931   3.095  11.907  0.2922  1.6224 -0.2869
  839MPD2     H12334   3.057   3.201  11.555 -0.1040  1.3593  0.7566
  839MPD2    H112335   3.111   3.165  11.981  1.4295 -1.6708 -0.9482
  839MPD2    H212336   2.751   3.065  11.828 -0.8653  1.5607 -3.5454
  839MPD2    H312337   2.902   3.057  12.004 -1.0834 -0.9910 -1.7020
  839MPD2     N12338   3.225   3.259  11.773 -0.2407  0.0259 -0.5903
  839MPD2    H512339   3.274   3.267  11.861 -0.6325  0.8715 -0.4408
  839MPD2    N112340   2.803   3.142  11.560 -0.1013 -0.0382 -0.0741
  839MPD2    H712341   2.848   3.136  11.469 -1.0385 -4.0281 -0.2493
  840MPD2     C12342   2.763   1.062  10.327  0.4870  0.4880 -0.0318
  840MPD2    C112343   2.806   0.975  10.422  0.4028 -0.1488  0.4773
  840MPD2    C212344   2.890   1.018  10.525 -0.1583 -0.1272  0.2477
  840MPD2    C312345   2.937   1.147  10.533  0.6745 -0.4170  0.6371
  840MPD2    C412346   2.890   1.239  10.443 -0.6531  0.4706 -0.0407
  840MPD2    C512347   2.802   1.194  10.349  0.4824 -0.1046 -0.2732
  840MPD2     H12348   2.931   0.943  10.591 -1.8543  2.0467  3.7195
  840MPD2    H112349   2.930   1.339  10.435  0.0989  0.3045  1.8903
  840MPD2    H212350   2.679   1.043  10.260 -1.2662  1.9305  1.7480
  840MPD2    H312351   2.764   1.272  10.283 -1.4564  0.1285  1.1380
  840MPD2     N12352   3.041   1.189  10.617 -0.2730  0.3228  0.4301
  840MPD2    H512353   3.041   1.287  10.645 -0.0070 -0.4497  3.1262
  840MPD2    N112354   2.777   0.838  10.407 -0.3761 -0.1755 -0.6470
  840MPD2    H712355   2.728   0.817  10.321 -1.1531  0.4405 -0.3522
  841MPD2     C12356   2.670   1.104  14.634 -0.0977 -0.3698  0.2694
  841MPD2    C112357   2.760   1.002  14.608  0.0596 -0.3205 -0.4832
  841MPD2    C212358   2.896   1.026  14.630  0.5772  0.2708 -0.3202
  841MPD2    C312359   2.946   1.151  14.661  0.0447 -0.0715  0.4739
  841MPD2    C412360   2.856   1.253  14.676  0.7883  0.4631  1.1559
  841MPD2    C512361   2.721   1.230  14.660  0.1093  0.6501 -0.0519
  841MPD2     H12362   2.968   0.949  14.604 -1.1202 -0.7545 -1.9688
  841MPD2    H112363   2.884   1.357  14.687  2.4921 -0.2218  3.4956
  841MPD2    H212364   2.564   1.106  14.616 -0.2653  0.9034  1.3908
  841MPD2    H312365   2.647   1.308  14.666 -1.8208 -1.1855  0.0861
  841MPD2     N12366   3.081   1.169  14.672 -0.2796  0.3662  0.2186
  841MPD2    H512367   3.139   1.089  14.695 -0.2935 -0.2781 -2.0614
  841MPD2    N112368   2.733   0.863  14.561  0.4677  0.2761 -0.1501
  841MPD2    H712369   2.811   0.806  14.529  2.7160  0.8842  4.2982
  842MPD2     C12370   2.535   1.565  16.872 -0.2277  0.3570  0.3747
  842MPD2    C112371   2.651   1.589  16.809 -0.6111 -0.7828  0.1970
  842MPD2    C212372   2.765   1.599  16.887  0.4442  0.1411 -0.4403
  842MPD2    C312373   2.759   1.591  17.029 -0.2480  0.6516  0.1759
  842MPD2    C412374   2.638   1.572  17.086 -0.5458  0.5310  1.0852
  842MPD2    C512375   2.525   1.550  17.008 -0.0659  0.3593 -0.0947
  842MPD2     H12376   2.859   1.628  16.842  0.7997 -1.8020 -0.9680
  842MPD2    H112377   2.619   1.572  17.193 -0.0813  1.4946  1.1719
  842MPD2    H212378   2.444   1.562  16.813  0.2436  0.5733 -0.3666
  842MPD2    H312379   2.433   1.541  17.065  1.5557 -1.1165  2.3207
  842MPD2     N12380   2.872   1.617  17.108 -0.0431 -0.3873 -0.3574
  842MPD2    H512381   2.860   1.615  17.209  0.9883 -0.0421 -0.2333
  842MPD2    N112382   2.657   1.591  16.668  0.1998 -0.0891  0.1615
  842MPD2    H712383   2.566   1.587  16.623 -0.4978  1.4301  1.3931
  843MPD2     C12384   0.846   1.896   0.353 -0.6426 -0.2632  0.0424
  843MPD2    C112385   0.943   1.822   0.412  0.3578  0.2406  0.3630
  843MPD2    C212386   1.065   1.876   0.445 -0.0534 -0.0589  0.4549
  843MPD2    C312387   1.092   2.006   0.409  0.0641  0.1584  0.7242
  843MPD2    C412388   0.994   2.078   0.345  0.5483  0.4706  0.1547
  843MPD2    C512389   0.867   2.030   0.330  0.0172  1.3595 -0.2004
  843MPD2     H12390   1.135   1.811   0.495  0.1110 -0.0979  0.1742
  843MPD2    H112391   1.020   2.181   0.324  2.0823  0.6448  2.8448
  843MPD2    H212392   0.750   1.851   0.330  0.0465 -1.6988 -0.0686
  843MPD2    H312393   0.784   2.092   0.299 -0.4707  0.8977  0.2005
  843MPD2     N12394   1.216   2.069   0.434  0.1897  0.3315  0.3018
  843MPD2    H512395   1.227   2.157   0.384  1.6570  0.4868  0.9060
  843MPD2    N112396   0.906   1.690   0.440 -0.1999 -0.1090 -0.3340
  843MPD2    H712397   0.809   1.667   0.424 -0.4710  0.6516  0.1791
  844MPD2     C12398   3.771   1.366  17.051 -0.0598  0.1443  0.1088
  844MPD2    C112399   3.848   1.383  16.934 -0.6238 -0.2655  0.0936
  844MPD2    C212400   3.967   1.454  16.937 -0.5242  0.0666  0.2778
  844MPD2    C312401   4.014   1.499  17.059 -0.3809 -0.0749  0.6017
  844MPD2    C412402   3.945   1.475  17.171  0.0676 -0.3585  0.7522
  844MPD2    C512403   3.822   1.412  17.166  0.3415  0.0304  0.0902
  844MPD2     H12404   4.026   1.464  16.847 -1.8919 -1.1246 -0.7508
  844MPD2    H112405   3.992   1.495  17.267  0.6436  1.0471  0.1785
  844MPD2    H212406   3.674   1.316  17.052  1.2059 -2.2928  0.2592
  844MPD2    H312407   3.771   1.412  17.261  0.4110 -0.6696  0.1320
  844MPD2     N12408   4.137   1.561  17.072  0.0097  0.1151  0.1129
  844MPD2    H512409   4.179   1.569  17.164  1.0717  2.0736 -0.5419
  844MPD2    N112410   3.794   1.346  16.805 -0.4756  0.2447 -0.5361
  844MPD2    H712411   3.834   1.382  16.719  0.6192 -2.2845 -1.0576
  845MPD2     C12412   4.546   2.441  16.885  0.0982  0.0410 -0.6611
  845MPD2    C112413   4.426   2.382  16.849 -0.3946  0.2435 -0.2378
  845MPD2    C212414   4.421   2.246  16.830 -0.4609  0.1566 -0.1488
  845MPD2    C312415   4.524   2.156  16.864 -0.1000 -0.5525  0.1098
  845MPD2    C412416   4.644   2.213  16.904 -0.3348 -0.0308 -0.4721
  845MPD2    C512417   4.652   2.350  16.916 -0.3407  0.4000 -0.1099
  845MPD2     H12418   4.332   2.201  16.789  0.8621 -1.4607 -1.2350
  845MPD2    H112419   0.007   2.163  16.948 -0.5097 -1.8969 -2.2555
  845MPD2    H212420   4.567   2.546  16.903 -0.8311  0.1755 -0.3887
  845MPD2    H312421   0.021   2.391  16.954 -0.5567 -0.1394  1.0136
  845MPD2     N12422   4.490   2.021  16.880 -0.0803  0.6461  0.0446
  845MPD2    H512423   4.394   1.989  16.876  0.3425 -0.6249  0.0937
  845MPD2    N112424   4.310   2.462  16.844  1.2122 -0.4327 -0.6425
  845MPD2    H712425   4.327   2.562  16.847 -1.7072  0.1115 -1.9394
  846MPD2     C12426   0.997   2.932  14.220 -0.6144  0.5190  0.7947
  846MPD2    C112427   0.880   2.988  14.167 -0.3044  0.1389 -0.3254
  846MPD2    C212428   0.766   2.994  14.245 -0.3311 -0.1883 -0.1252
  846MPD2    C312429   0.776   2.953  14.376 -0.5526  0.0494  0.3174
  846MPD2    C412430   0.892   2.901  14.429  0.0772  0.9458  0.3079
  846MPD2    C512431   1.002   2.890  14.348 -0.2708 -0.3599 -0.2726
  846MPD2     H12432   0.679   3.039  14.197  0.2235 -0.3817 -1.2956
  846MPD2    H112433   0.900   2.870  14.533  1.3822  1.4123  0.3457
  846MPD2    H212434   1.087   2.938  14.160 -0.8220  1.7228  0.6018
  846MPD2    H312435   1.095   2.857  14.394 -0.0297  0.4339 -0.1984
  846MPD2     N12436   0.656   2.969  14.446  0.2078  0.0642  0.1714
  846MPD2    H512437   0.587   3.031  14.405 -1.3773  0.0314  2.7834
  846MPD2    N112438   0.867   3.012  14.024 -0.4067 -0.0665  0.6367
  846MPD2    H712439   0.790   3.073  14.000 -0.4560 -0.3306  0.1289
  847MPD2     C12440   0.704   4.026  14.196  0.3295 -0.3244  0.1144
  847MPD2    C112441   0.823   4.011  14.265 -0.7897 -0.1574 -1.0528
  847MPD2    C212442   0.827   3.913  14.363  0.6799  0.1658 -0.4863
  847MPD2    C312443   0.719   3.834  14.392 -0.6776  0.1559  0.8105
  847MPD2    C412444   0.602   3.855  14.328 -0.1544 -0.2885 -0.2599
  847MPD2    C512445   0.596   3.952  14.241  0.5238  0.0122 -0.1361
  847MPD2     H12446   0.917   3.903  14.423  0.4719  4.2769  0.5112
  847MPD2    H112447   0.510   3.804  14.355  0.0470 -0.5507 -0.0652
  847MPD2    H212448   0.676   4.094  14.117  0.6083 -0.3357  0.0069
  847MPD2    H312449   0.501   3.949  14.188  2.5525  2.0142 -3.8664
  847MPD2     N12450   0.731   3.754  14.506 -0.4375 -0.1206  0.5625
  847MPD2    H512451   0.819   3.754  14.555  0.8133 -1.4833 -1.7055
  847MPD2    N112452   0.939   4.089  14.251  0.5256  0.0024  0.7913
  847MPD2    H712453   1.021   4.068  14.307  0.0457 -0.2365  1.4014
  848MPD2     C12454   3.584   1.678  16.473 -0.4358 -0.3651 -0.1394
  848MPD2    C112455   3.620   1.797  16.535 -0.5603  0.1586  0.3120
  848MPD2    C212456   3.619   1.915  16.463  0.0645  0.4673  0.2870
  848MPD2    C312457   3.581   1.909  16.325 -0.3491 -0.4358 -0.7830
  848MPD2    C412458   3.528   1.794  16.276  0.3132  0.1226  0.5349
  848MPD2    C512459   3.538   1.677  16.346 -0.6762  0.3186 -0.7876
  848MPD2     H12460   3.651   2.007  16.511  0.2665 -0.0952  1.2255
  848MPD2    H112461   3.478   1.786  16.180 -1.7230  0.5985  1.5408
  848MPD2    H212462   3.601   1.580  16.517  2.9067  0.3829  0.2123
  848MPD2    H312463   3.498   1.582  16.312  0.0572 -0.8859  1.6704
  848MPD2     N12464   3.577   2.022  16.244 -0.0074  0.5565  0.0547
  848MPD2    H512465   3.527   2.007  16.157  1.0398  0.4911 -0.5319
  848MPD2    N112466   3.652   1.801  16.669 -0.4646 -0.2029  0.3715
  848MPD2    H712467   3.678   1.894  16.700 -0.0773 -0.8001  1.8686
  849MPD2     C12468   2.485   2.051  14.318 -0.2349  0.4042 -0.2633
  849MPD2    C112469   2.584   1.988  14.249 -0.5746 -0.3340 -0.4468
  849MPD2    C212470   2.710   1.958  14.308  0.2503  0.6915 -0.6863
  849MPD2    C312471   2.721   1.967  14.444  0.3909  0.5096  0.1196
  849MPD2    C412472   2.625   2.029  14.520 -0.0756 -0.2557 -0.6722
  849MPD2    C512473   2.512   2.073  14.455  0.2254  0.5024 -0.4374
  849MPD2     H12474   2.796   1.922  14.253 -1.0225 -0.7963 -1.6879
  849MPD2    H112475   2.630   2.036  14.628  2.7791 -1.6290 -0.7079
  849MPD2    H212476   2.395   2.089  14.273 -0.9255 -0.8520  0.0532
  849MPD2    H312477   2.434   2.130  14.505  0.8346  1.0093 -0.0661
  849MPD2     N12478   2.835   1.898  14.497 -0.1332  0.1284 -0.2368
  849MPD2    H512479   2.896   1.848  14.434 -0.6704 -1.5802  0.5966
  849MPD2    N112480   2.567   1.972  14.111 -0.7103 -0.0593 -0.3386
  849MPD2    H712481   2.480   2.003  14.068 -2.3577 -2.4197  1.3366
  850MPD2     C12482   1.358   0.500  15.091  0.2495 -0.1213 -0.2626
  850MPD2    C112483   1.259   0.493  15.185  0.2518 -1.1551 -0.1079
  850MPD2    C212484   1.293   0.464  15.318  0.5020  0.5810  0.3612
  850MPD2    C312485   1.427   0.429  15.341  1.1470  0.5994  0.3766
  850MPD2    C412486   1.522   0.428  15.242 -0.0301  0.4877  0.3349
  850MPD2    C512487   1.485   0.466  15.120  0.2615  0.6619  0.0375
  850MPD2     H12488   1.232   0.478  15.407  0.8582 -0.5148  0.7799
  850MPD2    H112489   1.629   0.417  15.260  0.1066 -1.0185 -1.3544
  850MPD2    H212490   1.333   0.519  14.987 -2.3308  2.2453  0.7837
  850MPD2    H312491   1.549   0.464  15.032  1.2604 -0.2196  0.7864
  850MPD2     N12492   1.471   0.393  15.474 -0.1511 -0.4938  0.0611
  850MPD2    H512493   1.571   0.374  15.479 -0.1060 -0.3145 -0.1249
  850MPD2    N112494   1.131   0.527  15.142  0.4453 -0.0726  0.2297
  850MPD2    H712495   1.126   0.556  15.045 -1.4447 -1.2102 -0.0168
  851MPD2     C12496   1.171   0.039  15.829 -0.1123 -0.1067  0.2219
  851MPD2    C112497   1.175   0.020  15.691  0.1091 -0.0274 -0.2161
  851MPD2    C212498   1.265   4.657  15.633  0.0590  0.4788 -0.1168
  851MPD2    C312499   1.357   4.590  15.709 -0.0521  0.6083 -0.7319
  851MPD2    C412500   1.349   4.599  15.844 -0.1733 -0.3831 -0.4801
  851MPD2    C512501   1.247   4.678  15.903  0.3981 -0.0438  0.0415
  851MPD2     H12502   1.272   4.656  15.525 -1.1535  4.1167 -0.2464
  851MPD2    H112503   1.416   4.533  15.898  1.7733  2.7555  0.9726
  851MPD2    H212504   1.105   0.102  15.887 -0.4233  0.6972 -1.0044
  851MPD2    H312505   1.233   4.685  16.010  0.0911  0.4163 -0.0273
  851MPD2     N12506   1.446   4.513  15.637 -0.3288  0.3773  0.3880
  851MPD2    H512507   1.441   4.522  15.536 -0.7235  1.1220  0.4717
  851MPD2    N112508   1.091   0.108  15.613 -0.0736  0.5175  0.2827
  851MPD2    H712509   1.015   0.149  15.667  1.5700  3.2320  0.5404
  852MPD2     C12510   0.989   1.287   9.574  0.6394 -0.0850 -0.3479
  852MPD2    C112511   0.958   1.378   9.671  0.1345 -0.3216  0.7255
  852MPD2    C212512   0.985   1.510   9.652 -0.4026  0.2395 -0.4220
  852MPD2    C312513   1.045   1.555   9.538 -0.1557 -0.4190 -0.6211
  852MPD2    C412514   1.070   1.464   9.437  0.4159 -0.4306  0.8276
  852MPD2    C512515   1.035   1.329   9.449  0.2011 -0.3820 -0.4403
  852MPD2     H12516   0.968   1.578   9.734 -1.6810  0.9883 -1.3049
  852MPD2    H112517   1.122   1.495   9.347  1.6523 -0.5619  1.4981
  852MPD2    H212518   0.967   1.182   9.585 -0.7701  0.2625  0.1597
  852MPD2    H312519   1.059   1.251   9.377 -1.3912 -1.8409  0.5939
  852MPD2     N12520   1.101   1.684   9.546 -0.4402  0.1316  0.6209
  852MPD2    H512521   1.089   1.725   9.637  0.0960 -0.8897  1.1523
  852MPD2    N112522   0.896   1.347   9.793  0.5215  0.1994  0.4860
  852MPD2    H712523   0.877   1.419   9.861 -1.0774 -0.4477  0.7164
  853MPD2     C12524   2.374   2.063  12.360 -0.3514  0.0959 -0.0856
  853MPD2    C112525   2.277   2.142  12.306  0.0872  0.0102 -0.3688
  853MPD2    C212526   2.297   2.201  12.185  0.2123  0.3708 -0.1915
  853MPD2    C312527   2.421   2.186  12.122  0.2467  0.0877 -0.1387
  853MPD2    C412528   2.516   2.105  12.179  0.4962  0.3754 -0.0871
  853MPD2    C512529   2.488   2.037  12.294 -0.2084 -0.3922 -0.0197
  853MPD2     H12530   2.217   2.246  12.128 -0.8700 -2.4682 -0.9072
  853MPD2    H112531   2.607   2.082  12.126  0.4180 -1.6721  0.6588
  853MPD2    H212532   2.358   2.012  12.455  1.7569 -1.7021 -0.6849
  853MPD2    H312533   2.560   1.961  12.321 -0.9860 -1.0700  0.1598
  853MPD2     N12534   2.453   2.252  11.995 -0.4627 -0.2443  0.1861
  853MPD2    H512535   2.539   2.228  11.946 -1.1474 -2.7525  0.2288
  853MPD2    N112536   2.158   2.161  12.385  0.3697  0.0751 -0.5245
  853MPD2    H712537   2.147   2.099  12.465  3.2743  0.7944  0.4248
  854MPD2     C12538   3.268   2.705  13.896 -0.3334 -0.3255 -0.0520
  854MPD2    C112539   3.287   2.744  13.764  0.9428  0.2300  0.2902
  854MPD2    C212540   3.376   2.673  13.687 -0.3898 -0.3128  0.1312
  854MPD2    C312541   3.446   2.569  13.739  0.4690  0.1529 -0.1934
  854MPD2    C412542   3.425   2.530  13.867  0.0100  0.2309  0.0874
  854MPD2    C512543   3.333   2.596  13.944 -0.4440  0.2467  0.4268
  854MPD2     H12544   3.388   2.703  13.583  1.8315 -1.2440  0.1246
  854MPD2    H112545   3.454   2.431  13.900  2.4782  1.1026  0.4757
  854MPD2    H212546   3.190   2.747  13.959  1.4032  1.8153  0.6666
  854MPD2    H312547   3.308   2.564  14.044  0.6609 -1.0648  0.2880
  854MPD2     N12548   3.549   2.500  13.668  0.1892 -0.1701  0.0896
  854MPD2    H512549   3.570   2.409  13.706 -0.7130 -0.6314 -0.5460
  854MPD2    N112550   3.199   2.842  13.715 -0.6153 -0.4475  0.4812
  854MPD2    H712551   3.135   2.879  13.785 -1.4755  0.3827 -0.7415
  855MPD2     C12552   4.143   1.721  13.700 -0.0957 -0.2681 -0.0528
  855MPD2    C112553   4.183   1.851  13.737  0.0744  0.6803  0.1270
  855MPD2    C212554   4.100   1.961  13.714  0.1985  0.5302  0.1165
  855MPD2    C312555   3.977   1.930  13.654 -0.9396 -0.0613  0.3369
  855MPD2    C412556   3.943   1.805  13.613 -0.2324 -0.1721  0.8671
  855MPD2    C512557   4.025   1.695  13.633  0.4916  0.0209  0.5177
  855MPD2     H12558   4.121   2.060  13.752 -0.7019  0.9533 -0.4733
  855MPD2    H112559   3.855   1.791  13.552 -0.1904  1.4161  0.4180
  855MPD2    H212560   4.220   1.645  13.703  1.8461  1.7331  0.0242
  855MPD2    H312561   3.994   1.599  13.594  0.0696  0.4122 -0.1032
  855MPD2     N12562   3.879   2.028  13.617 -0.6843  0.1494 -0.8333
  855MPD2    H512563   3.813   2.001  13.546  1.8949 -1.5383 -2.6005
  855MPD2    N112564   4.308   1.861  13.795 -0.0486 -0.3754  0.3951
  855MPD2    H712565   4.366   1.778  13.797  0.1271 -0.3000 -1.6449
  856MPD2     C12566   1.623   3.263  14.509 -0.8307 -0.1268 -0.3174
  856MPD2    C112567   1.716   3.362  14.513 -0.4659  0.5161 -0.1330
  856MPD2    C212568   1.683   3.486  14.464  0.5020 -0.0824  0.8561
  856MPD2    C312569   1.559   3.508  14.409 -0.9604 -0.3708  0.2711
  856MPD2    C412570   1.467   3.408  14.411  0.2791  0.4081 -0.2251
  856MPD2    C512571   1.500   3.279  14.455  0.0883  0.6712  0.2676
  856MPD2     H12572   1.767   3.555  14.469  0.8784 -0.5759  1.2306
  856MPD2    H112573   1.366   3.412  14.370  0.1499 -0.6700 -0.0150
  856MPD2    H212574   1.644   3.161  14.538  0.3562  0.4976  1.0375
  856MPD2    H312575   1.438   3.190  14.453  0.6551  0.2068  4.3625
  856MPD2     N12576   1.528   3.632  14.351 -0.1649  0.0492  0.3367
  856MPD2    H512577   1.436   3.638  14.307  0.7993 -1.2826 -1.8292
  856MPD2    N112578   1.852   3.336  14.556 -0.0255  0.1114  0.3737
  856MPD2    H712579   1.906   3.422  14.559  2.5966 -1.5385 -0.0958
  857MPD2     C12580   3.661   0.115  13.497 -0.8761 -0.4318 -0.3162
  857MPD2    C112581   3.711   0.174  13.381  0.0041 -0.1418  0.1336
  857MPD2    C212582   3.776   0.294  13.384  0.5084 -0.5110 -0.3088
  857MPD2    C312583   3.772   0.363  13.499  0.4891  1.4006  0.1929
  857MPD2    C412584   3.730   0.312  13.620 -0.5111 -0.6776  0.6129
  857MPD2    C512585   3.670   0.186  13.618  0.7376 -0.1610  0.2849
  857MPD2     H12586   3.817   0.345  13.297  1.1503  2.6387  1.8440
  857MPD2    H112587   3.742   0.362  13.715  2.6015 -0.3993  0.0557
  857MPD2    H212588   3.624   0.013  13.492 -0.0275 -0.8068  1.0845
  857MPD2    H312589   3.636   0.145  13.712  1.7705  0.7467  1.0457
  857MPD2     N12590   3.826   0.491  13.501  0.3663  0.3645 -0.1401
  857MPD2    H512591   3.879   0.523  13.420  0.5714  0.3326 -0.0177
  857MPD2    N112592   3.691   0.097  13.258 -0.6820 -0.2526  0.9631
  857MPD2    H712593   3.652   0.004  13.266  0.3991 -0.7117  0.9972
  858MPD2     C12594   4.320   4.608  16.909 -0.8266  0.1792  0.0343
  858MPD2    C112595   4.422   4.517  16.938  0.8998  0.4093  0.1824
  858MPD2    C212596   4.450   4.493  17.076  0.0085 -0.1558 -1.0851
  858MPD2    C312597   4.381   4.556  17.177 -0.0969  0.1839 -0.2276
  858MPD2    C412598   4.281   4.643  17.141 -0.1536  0.2665 -0.4216
  858MPD2    C512599   4.251   4.674  17.009 -0.4515 -0.0306  0.2445
  858MPD2     H12600   4.529   4.423  17.102  1.7809  1.4026 -2.2629
  858MPD2    H112601   4.214   4.694  17.209  0.3885 -0.8320  0.9326
  858MPD2    H212602   4.304   4.635  16.805 -0.5011  2.7456  0.6435
  858MPD2    H312603   4.168   0.017  16.990  1.6027  2.6024  0.4045
  858MPD2     N12604   4.417   4.548  17.312 -0.2075 -0.4342 -0.1493
  858MPD2    H512605   4.365   4.611  17.372  1.8850  1.2325 -0.0845
  858MPD2    N112606   4.475   4.442  16.832  0.1530  0.2156 -0.3585
  858MPD2    H712607   4.445   4.455  16.736 -3.3128  1.8354  0.9604
  859MPD2     C12608   2.589   1.629  15.365  0.5557  0.1916 -0.0160
  859MPD2    C112609   2.721   1.656  15.387 -0.6791 -0.8550 -0.2672
  859MPD2    C212610   2.796   1.571  15.463  0.1186 -0.5987  0.6163
  859MPD2    C312611   2.739   1.453  15.512 -0.2702  0.9786 -0.3009
  859MPD2    C412612   2.610   1.426  15.492  0.4847  0.2089 -0.3518
  859MPD2    C512613   2.535   1.513  15.417 -0.2182 -0.3425 -1.3352
  859MPD2     H12614   2.890   1.608  15.501  0.4451  1.6978 -2.4806
  859MPD2    H112615   2.566   1.334  15.529  0.8143 -0.5490 -1.8478
  859MPD2    H212616   2.524   1.690  15.304  1.0067 -0.5494 -1.2344
  859MPD2    H312617   2.430   1.499  15.396 -1.0413  0.9668  2.0329
  859MPD2     N12618   2.809   1.360  15.593  0.6786 -0.5196  0.1492
  859MPD2    H512619   2.762   1.273  15.615 -1.7682  1.2953  2.1697
  859MPD2    N112620   2.768   1.778  15.337  0.5242 -1.4149  0.2261
  859MPD2    H712621   2.701   1.850  15.311  1.3906 -0.5630  0.3560
  860MPD2     C12622   0.039   1.386  12.137  1.3745  0.9877  0.4463
  860MPD2    C112623   0.120   1.474  12.206  0.2514 -0.1329 -1.0112
  860MPD2    C212624   0.053   1.552  12.300  0.3865 -0.2215 -0.1360
  860MPD2    C312625   4.639   1.548  12.323  0.1728  0.2551  0.2004
  860MPD2    C412626   4.568   1.460  12.241  0.2769  0.3958 -0.4075
  860MPD2    C512627   4.626   1.377  12.152  0.8746  0.1742  0.0872
  860MPD2     H12628   0.114   1.625  12.350 -0.7674  0.8883 -0.3589
  860MPD2    H112629   4.462   1.443  12.256  0.3830 -0.2195 -0.3871
  860MPD2    H212630   0.069   1.320  12.057 -0.5141  0.3016  0.3045
  860MPD2    H312631   4.561   1.305  12.103  2.2331  0.1673 -1.7437
  860MPD2     N12632   4.584   1.632  12.421  0.3176 -0.1413  0.1133
  860MPD2    H512633   4.645   1.693  12.474 -2.3117  0.4754  2.4149
  860MPD2    N112634   0.259   1.500  12.178 -0.7689  0.0845 -0.0473
  860MPD2    H712635   0.313   1.553  12.245 -1.3228  1.2911 -0.5470
  861MPD2     C12636   4.234   0.009  10.957 -0.5192  0.2521 -0.6162
  861MPD2    C112637   4.162   0.114  11.005  0.5515  0.6665  0.3150
  861MPD2    C212638   4.055   0.158  10.929 -1.0190  0.2231  0.5523
  861MPD2    C312639   4.033   0.112  10.801 -0.0530  0.7826 -0.1463
  861MPD2    C412640   4.111   0.007  10.760  0.0634 -0.1249 -0.5538
  861MPD2    C512641   4.210   4.681  10.833 -0.3650  1.2406 -0.2649
  861MPD2     H12642   3.984   0.233  10.964 -0.2058  1.2883 -0.0754
  861MPD2    H112643   4.102   4.685  10.662 -2.8949  3.0691 -1.7535
  861MPD2    H212644   4.322   4.700  11.011  0.5403  2.0526 -1.2362
  861MPD2    H312645   4.273   4.596  10.809  0.5311  2.3656 -1.8869
  861MPD2     N12646   3.918   0.141  10.717 -0.3531  0.3854  0.0402
  861MPD2    H512647   3.912   0.105  10.622 -2.4218 -0.0916  0.3398
  861MPD2    N112648   4.188   0.162  11.142 -0.1282  0.4518 -0.2253
  861MPD2    H712649   4.130   0.241  11.170 -0.2332  0.5282 -0.6594
  862MPD2     C12650   3.615   4.525  10.191  0.3887 -0.4718  0.4687
  862MPD2    C112651   3.674   4.539  10.314  0.4161  0.5010  0.1840
  862MPD2    C212652   3.750   4.436  10.357  0.4055  0.6509 -0.0831
  862MPD2    C312653   3.775   4.320  10.275 -0.1889 -0.4020  0.0547
  862MPD2    C412654   3.724   4.308  10.147  0.1142 -0.1486 -0.1343
  862MPD2    C512655   3.644   4.418  10.114  0.1596  0.7389 -0.2603
  862MPD2     H12656   3.801   4.445  10.452 -0.6033 -2.1381  0.6992
  862MPD2    H112657   3.725   4.221  10.082  1.1595 -0.0377 -0.2723
  862MPD2    H212658   3.553   4.597  10.139  1.0072 -1.4954 -1.6580
  862MPD2    H312659   3.597   4.406  10.017  0.4394 -1.3726 -0.1399
  862MPD2     N12660   3.845   4.211  10.324  0.3706 -0.0503  0.7009
  862MPD2    H512661   3.815   4.123  10.283 -3.7554  1.5102  0.3460
  862MPD2    N112662   3.664   4.658  10.396  0.0690 -0.1341 -0.7496
  862MPD2    H712663   3.738   4.657  10.466  0.2791 -0.4951 -0.9718
  863MPD2     C12664   3.053   3.401  16.783 -0.1623  0.4060 -0.1948
  863MPD2    C112665   2.982   3.348  16.888 -0.2838  0.2727 -0.1063
  863MPD2    C212666   3.050   3.320  17.004 -0.3604  0.4074 -0.0361
  863MPD2    C312667   3.189   3.333  17.010 -0.2971 -0.2943  0.1085
  863MPD2    C412668   3.249   3.392  16.902  0.9066 -0.3944  0.1620
  863MPD2    C512669   3.183   3.430  16.792  0.1975  0.6687 -0.1182
  863MPD2     H12670   2.994   3.283  17.089  2.2214 -0.8121  1.1341
  863MPD2    H112671   3.353   3.414  16.923  0.2125  2.0780  1.0519
  863MPD2    H212672   3.008   3.453  16.699 -0.0200 -1.0757 -1.1999
  863MPD2    H312673   3.235   3.478  16.710 -0.1273  2.5818  0.7800
  863MPD2     N12674   3.266   3.311  17.124 -0.2803  0.0571 -0.8207
  863MPD2    H512675   3.363   3.340  17.121 -0.4334  0.4900 -1.5343
  863MPD2    N112676   2.840   3.321  16.879  0.1801  0.6885 -0.3387
  863MPD2    H712677   2.801   3.315  16.786  1.0063 -1.5090 -0.5497
  864MPD2     C12678   3.287   4.415  17.541  0.2033 -0.2354  0.3526
  864MPD2    C112679   3.356   4.364  17.434  0.0068 -0.1321  0.1332
  864MPD2    C212680   3.413   4.446  17.343  0.5046 -0.6235  0.3269
  864MPD2    C312681   3.384   4.578  17.352  0.6166 -0.0647  0.0619
  864MPD2    C412682   3.323   4.635  17.470  0.1439 -0.2410 -0.1100
  864MPD2    C512683   3.265   4.549  17.558 -0.0380  1.0381  0.0008
  864MPD2     H12684   3.467   4.407  17.258 -0.4586 -1.1824 -0.0375
  864MPD2    H112685   3.305   0.014  17.500 -1.0817 -1.1025  2.2156
  864MPD2    H212686   3.246   4.352  17.619 -1.4612  0.6281  0.1721
  864MPD2    H312687   3.225   4.585  17.653  1.0114  2.6394 -0.1691
  864MPD2     N12688   3.432   4.678  17.256 -0.4057  0.0303 -0.3870
  864MPD2    H512689   3.407   0.052  17.272  0.5956 -0.4777  4.1232
  864MPD2    N112690   3.360   4.225  17.425  0.0518  0.0970 -0.1119
  864MPD2    H712691   3.316   4.177  17.503  0.6776 -2.4423 -1.3093
  865MPD2     C12692   3.220   0.171  16.394 -0.4966  0.2176  0.3984
  865MPD2    C112693   3.275   0.091  16.492  0.8517  0.2797  0.2944
  865MPD2    C212694   3.273   0.129  16.625 -0.9366  0.7943  0.1986
  865MPD2    C312695   3.222   0.257  16.657  0.2967 -0.0341  0.0679
  865MPD2    C412696   3.165   0.331  16.564 -0.3909 -0.2400  0.0819
  865MPD2    C512697   3.153   0.286  16.438 -0.3074 -0.0062 -0.0951
  865MPD2     H12698   3.308   0.066  16.706  2.0678 -1.1502 -2.6263
  865MPD2    H112699   3.119   0.424  16.593 -0.7653 -0.9248  1.6850
  865MPD2    H212700   3.205   0.146  16.289 -3.0709 -0.8832  1.0449
  865MPD2    H312701   3.100   0.352  16.371  0.5895 -0.8441 -1.6264
  865MPD2     N12702   3.209   0.320  16.788 -0.2312  0.3752  0.1953
  865MPD2    H512703   3.126   0.377  16.795  0.2203  1.1238 -0.5121
  865MPD2    N112704   3.328   4.692  16.443  0.5202  0.0307 -0.2855
  865MPD2    H712705   3.335   4.688  16.342 -0.1255  0.6183 -0.3569
  866MPD2     C12706   4.721   0.390  11.319  0.7942 -0.2769 -0.2842
  866MPD2    C112707   4.649   0.305  11.233 -0.0532  0.2010  0.5226
  866MPD2    C212708   4.561   0.356  11.137 -1.1250 -0.1486  0.5369
  866MPD2    C312709   4.548   0.492  11.118  0.2426 -1.0284 -0.1945
  866MPD2    C412710   4.613   0.575  11.203  0.5198  0.2857  0.1632
  866MPD2    C512711   4.690   0.525  11.304  0.2748  0.5068  0.7172
  866MPD2     H12712   4.503   0.288  11.075 -2.5372  1.2651  0.3009
  866MPD2    H112713   4.598   0.682  11.198 -1.0209  0.0408 -0.3013
  866MPD2    H212714   0.066   0.368  11.400  0.7974  2.0436  0.3430
  866MPD2    H312715   0.026   0.592  11.365 -0.3286  0.0111  1.8486
  866MPD2     N12716   4.453   0.545  11.034 -0.0454  0.1002  0.4933
  866MPD2    H512717   4.454   0.646  11.034  2.3163  0.0934  0.1840
  866MPD2    N112718   4.654   0.167  11.260 -0.4294 -0.0065  0.3078
  866MPD2    H712719   4.702   0.131  11.341 -0.3862 -0.6032  0.0198
  867MPD2     C12720   2.125   4.140  16.656  0.1726 -0.0388 -0.1668
  867MPD2    C112721   2.205   4.160  16.772 -0.0206  0.4265  0.1214
  867MPD2    C212722   2.192   4.279  16.833 -0.2063 -0.2564  0.3076
  867MPD2    C312723   2.112   4.384  16.786 -0.3681 -0.6534  0.4007
  867MPD2    C412724   2.039   4.356  16.671  0.3480 -0.0804  0.4471
  867MPD2    C512725   2.041   4.236  16.613 -0.2829 -0.0827  0.4810
  867MPD2     H12726   2.263   4.290  16.913 -2.2140  1.0193  1.9092
  867MPD2    H112727   1.973   4.435  16.635  0.4167  0.1728  0.8765
  867MPD2    H212728   2.126   4.045  16.603  3.4281 -0.9935  1.5917
  867MPD2    H312729   1.967   4.226  16.535  1.6744  1.5544 -1.5597
  867MPD2     N12730   2.112   4.513  16.852  0.4916 -0.3571  0.5249
  867MPD2    H512731   2.048   4.584  16.817 -0.0366 -1.4294 -0.6812
  867MPD2    N112732   2.295   4.055  16.796 -0.5901 -0.2918  0.3063
  867MPD2    H712733   2.305   3.985  16.724 -0.2653  0.9175 -0.8242
  868MPD2     C12734   4.128   3.821  13.019  0.0909  0.5738 -1.2893
  868MPD2    C112735   4.106   3.728  13.116  0.1676 -0.3482 -0.2610
  868MPD2    C212736   4.016   3.755  13.221 -0.2449  0.1767  0.3517
  868MPD2    C312737   3.954   3.883  13.237  0.2379  0.7885  0.0628
  868MPD2    C412738   3.977   3.968  13.130  0.4836  0.6063 -0.1764
  868MPD2    C512739   4.062   3.936  13.024 -0.4118  0.2947  0.0291
  868MPD2     H12740   4.000   3.681  13.299  0.0793 -0.4118 -0.1358
  868MPD2    H112741   3.922   4.061  13.124 -0.4104  0.0519 -0.5706
  868MPD2    H212742   4.201   3.815  12.939  2.2769  3.3731  0.4983
  868MPD2    H312743   4.086   4.019  12.957  1.1614 -0.9960 -1.0103
  868MPD2     N12744   3.863   3.908  13.340  0.2183  0.1457 -0.1193
  868MPD2    H512745   3.829   3.822  13.383 -1.1253  0.9437  0.3726
  868MPD2    N112746   4.171   3.607  13.103  0.0197  0.3533  0.7038
  868MPD2    H712747   4.226   3.595  13.018 -3.0297 -1.6804 -0.9687
  869MPD2     C12748   0.650   0.930   1.848 -0.8618 -0.2052  0.6644
  869MPD2    C112749   0.564   1.022   1.913 -0.5151 -0.5193 -0.1911
  869MPD2    C212750   0.562   1.149   1.867 -0.9840 -0.4159  0.1046
  869MPD2    C312751   0.621   1.180   1.744  0.3891  0.8912  0.3855
  869MPD2    C412752   0.696   1.085   1.676 -0.1486  0.0353 -0.5107
  869MPD2    C512753   0.712   0.959   1.729  0.5165  0.2042  0.2576
  869MPD2     H12754   0.488   1.222   1.898 -1.3914 -0.7811 -0.0031
  869MPD2    H112755   0.753   1.112   1.587 -0.0009 -0.2334 -0.4981
  869MPD2    H212756   0.664   0.831   1.888 -1.0210  0.7686  3.1409
  869MPD2    H312757   0.781   0.885   1.688 -0.2566 -0.3317 -0.0833
  869MPD2     N12758   0.614   1.306   1.687 -0.5763  0.7698 -0.4382
  869MPD2    H512759   0.653   1.312   1.593  1.1852  0.8017  0.2951
  869MPD2    N112760   0.486   0.973   2.021 -0.1224 -0.0939  0.1895
  869MPD2    H712761   0.488   0.873   2.037  2.0585 -0.0938 -0.0246
  870MPD2     C12762   0.175   0.055   2.493  0.7362 -0.3199 -0.3967
  870MPD2    C112763   0.116   0.114   2.387 -0.6749  0.0553  0.1831
  870MPD2    C212764   0.160   0.073   2.257 -0.1070 -0.2967  0.5354
  870MPD2    C312765   0.245   4.687   2.240  0.3283 -0.3589  0.2485
  870MPD2    C412766   0.311   4.631   2.353  0.0588  0.5009 -0.9564
  870MPD2    C512767   0.273   4.684   2.472  0.8149  0.5875  0.0755
  870MPD2     H12768   0.112   0.112   2.168  0.0854  0.9049  0.9623
  870MPD2    H112769   0.386   4.554   2.346  1.6772  1.8056  2.4681
  870MPD2    H212770   0.152   0.083   2.595  3.3617 -0.7784  0.3085
  870MPD2    H312771   0.318   4.636   2.558  0.5246  0.9489  0.4302
  870MPD2     N12772   0.257   4.620   2.119 -0.5581  0.0916  0.2206
  870MPD2    H512773   0.213   4.665   2.039  1.2334 -1.9725 -1.8997
  870MPD2    N112774   0.017   0.202   2.408 -0.0204  0.1496 -0.2713
  870MPD2    H712775   4.704   0.218   2.502 -0.9447 -0.9428 -0.4451
  871MPD2     C12776   0.950   4.157  16.838  0.2710  0.5274 -0.1681
  871MPD2    C112777   0.980   4.162  16.972  0.5388  0.0256  0.1655
  871MPD2    C212778   1.061   4.060  17.025  0.2891 -0.2667 -0.2196
  871MPD2    C312779   1.087   3.950  16.943  0.9036  0.8435 -0.3184
  871MPD2    C412780   1.052   3.943  16.810  0.5103  0.9308 -0.1402
  871MPD2    C512781   0.980   4.049  16.756 -0.3316  0.4739  0.9812
  871MPD2     H12782   1.106   4.073  17.123 -1.3596  0.0537  0.4958
  871MPD2    H112783   1.090   3.869  16.740  1.3447  0.9926  0.2438
  871MPD2    H212784   0.907   4.248  16.798 -0.7664  0.9833  1.9652
  871MPD2    H312785   0.954   4.059  16.651 -1.5221  4.1454  1.6455
  871MPD2     N12786   1.171   3.851  17.012 -0.0989 -0.8875 -0.7436
  871MPD2    H512787   1.184   3.865  17.111 -0.4872  1.2210 -0.9929
  871MPD2    N112788   0.934   4.270  17.048 -0.3518  0.2544  0.1744
  871MPD2    H712789   0.878   4.337  16.996 -2.2213  0.2721  2.2538
  872MPD2     C12790   1.969   2.861  14.207 -1.2030  0.1482  0.9702
  872MPD2    C112791   2.025   2.733  14.216  0.7555 -0.0948 -0.2660
  872MPD2    C212792   1.971   2.647  14.308  0.3267 -0.5873 -0.9433
  872MPD2    C312793   1.867   2.681  14.388  0.5460  0.5399 -0.4984
  872MPD2    C412794   1.814   2.810  14.382 -0.5105 -0.2308  0.2779
  872MPD2    C512795   1.871   2.901  14.292 -0.1934  0.1459  0.9578
  872MPD2     H12796   2.012   2.547  14.305  2.4842  0.3425 -1.9226
  872MPD2    H112797   1.736   2.842  14.450  0.3958 -0.9551  1.6551
  872MPD2    H212798   2.028   2.935  14.152 -0.0687 -0.2889  1.6007
  872MPD2    H312799   1.840   3.005  14.293 -2.3508 -0.4866  0.5404
  872MPD2     N12800   1.801   2.595  14.482 -0.6131 -0.5277  0.2358
  872MPD2    H512801   1.711   2.632  14.510 -1.1498 -1.3527 -0.3856
  872MPD2    N112802   2.139   2.693  14.139 -0.2801 -0.0868  0.0022
  872MPD2    H712803   2.169   2.599  14.163  0.4539  0.5945  1.7523
  873MPD2     C12804   4.110   2.419   1.470  0.1682 -0.5524 -0.5665
  873MPD2    C112805   3.981   2.433   1.516  0.4057  0.0632  0.3220
  873MPD2    C212806   3.885   2.331   1.496 -0.3159  0.3009 -0.3560
  873MPD2    C312807   3.916   2.220   1.424 -0.0947  0.1003 -0.0298
  873MPD2    C412808   4.046   2.197   1.395 -0.0180  0.0831  0.7457
  873MPD2    C512809   4.144   2.290   1.429  0.0719 -0.0367  0.0370
  873MPD2     H12810   3.782   2.344   1.527  0.2968 -0.0807  1.8338
  873MPD2    H112811   4.076   2.108   1.340  0.2583  0.0873  0.8923
  873MPD2    H212812   4.182   2.499   1.459 -1.8905  1.4463  0.4017
  873MPD2    H312813   4.250   2.269   1.419 -0.0547  0.8371 -3.0634
  873MPD2     N12814   3.823   2.116   1.393 -0.3392 -0.1288 -0.3585
  873MPD2    H512815   3.859   2.051   1.325  0.6577 -2.6552  2.5942
  873MPD2    N112816   3.946   2.549   1.597 -0.4177  0.3469 -0.5469
  873MPD2    H712817   4.018   2.614   1.626  0.6782 -1.4695  0.8420
  874MPD2     C12818   2.785   2.032  15.934  0.4217  0.3011 -0.3290
  874MPD2    C112819   2.867   1.975  16.031  0.6303  0.3478 -0.5441
  874MPD2    C212820   2.983   2.029  16.068 -0.2238  0.3944 -0.3027
  874MPD2    C312821   3.022   2.154  16.029  0.2821 -0.1680  0.0862
  874MPD2    C412822   2.946   2.213  15.931 -0.4152 -0.2262 -0.2060
  874MPD2    C512823   2.830   2.156  15.885 -0.5817  0.0426  0.5231
  874MPD2     H12824   3.051   1.976  16.133 -0.1510  2.3647  1.2104
  874MPD2    H112825   2.971   2.305  15.879 -0.3697 -0.2373 -0.2037
  874MPD2    H212826   2.704   1.972  15.895  0.1082  0.0875  0.6655
  874MPD2    H312827   2.781   2.206  15.803 -1.7602  0.0496  1.2418
  874MPD2     N12828   3.153   2.193  16.072  0.3697 -0.1873 -0.6677
  874MPD2    H512829   3.211   2.142  16.137 -0.4806  0.2932  0.4657
  874MPD2    N112830   2.819   1.847  16.080 -0.0639  0.3692 -0.3324
  874MPD2    H712831   2.723   1.822  16.061 -0.3752 -0.0114  1.7120
  875MPD2     C12832   4.310   0.984  14.735  0.0107  0.5149 -0.7550
  875MPD2    C112833   4.195   0.954  14.796 -0.3465 -0.6537 -0.0096
  875MPD2    C212834   4.173   1.011  14.924  0.0743 -0.5515 -0.1651
  875MPD2    C312835   4.276   1.085  14.979  0.4095  0.3698 -0.5961
  875MPD2    C412836   4.378   1.136  14.906 -0.0500  0.2035  0.1930
  875MPD2    C512837   4.396   1.073  14.789 -0.0297  0.9647  0.2864
  875MPD2     H12838   4.081   0.992  14.978 -0.6411 -0.3965 -1.3149
  875MPD2    H112839   4.463   1.190  14.945 -0.8659  0.9948  0.8680
  875MPD2    H212840   4.338   0.932  14.644  1.0364 -3.4198  1.7762
  875MPD2    H312841   4.494   1.082  14.744 -0.6582 -0.7845 -1.4487
  875MPD2     N12842   4.269   1.137  15.115  0.3274 -0.1707  0.3125
  875MPD2    H512843   4.322   1.220  15.137 -0.8737  0.9408 -0.9865
  875MPD2    N112844   4.091   0.875  14.734 -1.0774 -0.3757 -0.0228
  875MPD2    H712845   4.005   0.860  14.786 -0.8519 -2.3063 -0.2120
  876MPD2     C12846   2.829   1.734  15.772  0.0360 -0.7843  1.0333
  876MPD2    C112847   2.968   1.755  15.781 -0.2393  1.4099 -0.5858
  876MPD2    C212848   3.037   1.657  15.853 -0.0703 -0.8920  0.1760
  876MPD2    C312849   2.969   1.550  15.899 -0.5356  0.2871 -0.3469
  876MPD2    C412850   2.827   1.535  15.890  0.7641 -0.4174 -0.0792
  876MPD2    C512851   2.758   1.626  15.817 -0.6739 -1.2333 -0.0009
  876MPD2     H12852   3.142   1.660  15.880  0.0826  1.3413 -0.6669
  876MPD2    H112853   2.776   1.446  15.925 -1.5623  1.2429  0.7523
  876MPD2    H212854   2.775   1.808  15.713 -0.5814 -1.3483  0.8802
  876MPD2    H312855   2.651   1.618  15.798 -0.6811 -0.4403 -0.3008
  876MPD2     N12856   3.046   1.459  15.969  0.4475 -0.4698 -0.0514
  876MPD2    H512857   3.144   1.460  15.941  0.0236  0.1967 -1.5305
  876MPD2    N112858   3.025   1.873  15.723 -0.3437  0.7280 -0.2356
  876MPD2    H712859   2.951   1.924  15.674 -0.2428  0.1903 -0.9433
  877MPD2     C12860   2.871   2.486  15.317 -0.2523  0.0367 -0.2653
  877MPD2    C112861   3.004   2.483  15.347 -0.1532  0.2842 -0.5325
  877MPD2    C212862   3.089   2.551  15.259  0.0532 -0.1224 -0.3428
  877MPD2    C312863   3.051   2.630  15.153 -0.1957 -0.4158  0.6354
  877MPD2    C412864   2.913   2.633  15.126  0.1575  1.0585 -0.0225
  877MPD2    C512865   2.830   2.560  15.206 -0.2693 -0.6660  0.7134
  877MPD2     H12866   3.196   2.539  15.274  0.1879  0.2238 -1.0484
  877MPD2    H112867   2.865   2.679  15.041 -0.7494  1.3476  0.6451
  877MPD2    H212868   2.791   2.440  15.374  0.1448  1.9799  1.8394
  877MPD2    H312869   2.723   2.569  15.190 -0.3023 -0.7157  0.9171
  877MPD2     N12870   3.143   2.690  15.060  0.0167  0.4125 -0.2567
  877MPD2    H512871   3.106   2.701  14.966 -0.4183  1.8627  0.0760
  877MPD2    N112872   3.062   2.414  15.452  0.6494  0.8180  0.0421
  877MPD2    H712873   3.163   2.420  15.448  0.8429 -1.7977  1.3289
  878MPD2     C12874   2.790   1.402  13.193  0.1581 -0.7831 -1.0118
  878MPD2    C112875   2.808   1.538  13.164  0.5898  0.6974 -0.1002
  878MPD2    C212876   2.777   1.643  13.255  0.4968 -0.5181 -0.2654
  878MPD2    C312877   2.744   1.598  13.384 -0.6946  0.7204  0.3106
  878MPD2    C412878   2.747   1.464  13.417  0.1497 -0.2314 -0.1779
  878MPD2    C512879   2.762   1.369  13.323 -0.8136  0.6097 -0.5354
  878MPD2     H12880   2.794   1.747  13.226 -0.2423 -0.5377 -0.7837
  878MPD2    H112881   2.748   1.421  13.517 -0.8741 -0.1570 -0.1368
  878MPD2    H212882   2.794   1.316  13.126 -1.0913  0.9445 -3.3041
  878MPD2    H312883   2.764   1.263  13.346 -1.1188  0.9366  0.9633
  878MPD2     N12884   2.730   1.691  13.487 -0.0805  0.4865  0.3033
  878MPD2    H512885   2.722   1.786  13.454  0.0141 -0.2522 -1.8819
  878MPD2    N112886   2.847   1.563  13.033 -0.2379  0.2307 -0.2170
  878MPD2    H712887   2.852   1.485  12.968  2.4249 -0.8452  1.2730
  879MPD2     C12888   3.672   3.468  17.087  0.1270 -0.2124 -0.1326
  879MPD2    C112889   3.734   3.385  17.178  0.0246  0.3430  0.2471
  879MPD2    C212890   3.721   3.251  17.175 -0.1463  0.1919  0.8422
  879MPD2    C312891   3.640   3.192  17.082  0.4950  0.0520 -0.8467
  879MPD2    C412892   3.572   3.273  16.988  0.8036  0.2033  0.1849
  879MPD2    C512893   3.593   3.411  16.990  0.4989 -0.6699 -0.0802
  879MPD2     H12894   3.780   3.186  17.239  1.6388  0.9233 -0.0498
  879MPD2    H112895   3.504   3.232  16.914  0.3063 -0.0435  0.7773
  879MPD2    H212896   3.691   3.574  17.082  1.2974 -0.4452 -0.6056
  879MPD2    H312897   3.549   3.470  16.910  0.8721 -2.8611 -1.8828
  879MPD2     N12898   3.615   3.057  17.072 -0.1766  0.2849 -0.3740
  879MPD2    H512899   3.551   3.024  17.001 -0.0766 -0.2768 -0.2032
  879MPD2    N112900   3.809   3.454  17.279  0.0326  0.7747  0.9071
  879MPD2    H712901   3.808   3.556  17.273  2.0988  0.6307 -1.7545
  880MPD2     C12902   0.702   4.553   0.683  0.2174  0.2862 -0.1921
  880MPD2    C112903   0.599   4.518   0.768 -0.6420 -0.2054  0.7145
  880MPD2    C212904   0.587   4.377   0.784  0.3411 -0.3314 -0.4175
  880MPD2    C312905   0.672   4.282   0.721 -0.2855  0.2364  0.4227
  880MPD2    C412906   0.779   4.327   0.649  0.3318  0.1961 -0.4077
  880MPD2    C512907   0.791   4.458   0.625 -0.0725 -0.5311  1.0140
  880MPD2     H12908   0.500   4.339   0.837  1.1086 -1.3345  0.1128
  880MPD2    H112909   0.839   4.255   0.595  1.2476  1.7890 -1.4883
  880MPD2    H212910   0.704   4.652   0.638  1.8777  0.2293 -0.2363
  880MPD2    H312911   0.849   4.486   0.538 -2.0472  0.3315 -0.0315
  880MPD2     N12912   0.632   4.144   0.729  0.1699 -0.7992 -0.3745
  880MPD2    H512913   0.567   4.128   0.805 -0.7163  0.2980 -0.9020
  880MPD2    N112914   0.486   4.605   0.792 -0.4948  0.0204  0.0177
  880MPD2    H712915   0.489   4.689   0.736  0.0972  0.5821  0.8892
  881MPD2     C12916   0.237   0.627   0.342 -0.0290 -0.0898 -0.1954
  881MPD2    C112917   0.261   0.496   0.315  0.0363 -0.2462 -0.5677
  881MPD2    C212918   0.238   0.401   0.412  0.0622 -0.2913 -0.9817
  881MPD2    C312919   0.208   0.437   0.538  0.7231 -0.0473  0.0374
  881MPD2    C412920   0.202   0.571   0.575  0.3330 -0.2249  0.1652
  881MPD2    C512921   0.218   0.664   0.468  0.5549  0.3740  0.4250
  881MPD2     H12922   0.249   0.297   0.386 -1.7429 -1.0075  1.1906
  881MPD2    H112923   0.184   0.606   0.676 -0.7535  0.4627 -0.2631
  881MPD2    H212924   0.249   0.696   0.259  1.6477 -0.4992 -0.2888
  881MPD2    H312925   0.202   0.767   0.498 -0.3205  0.5658 -0.6797
  881MPD2     N12926   0.189   0.335   0.642  0.2431 -0.2484 -0.4025
  881MPD2    H512927   0.196   0.375   0.735 -0.5272  0.2098 -0.5456
  881MPD2    N112928   0.293   0.465   0.176  1.0365  0.8603 -0.1453
  881MPD2    H712929   0.308   0.542   0.112 -0.0714 -2.7379 -4.7495
  882MPD2     C12930   3.197   2.337  14.534  0.5455 -0.1317 -0.8698
  882MPD2    C112931   3.149   2.465  14.554  0.2515  0.0554 -0.0699
  882MPD2    C212932   3.023   2.503  14.520 -1.0916  0.1503 -0.2865
  882MPD2    C312933   2.934   2.413  14.476 -0.3112 -0.6923 -1.1204
  882MPD2    C412934   2.984   2.284  14.449 -0.2662 -0.0641 -0.1790
  882MPD2    C512935   3.117   2.250  14.476 -0.9157  0.1410 -0.0593
  882MPD2     H12936   2.997   2.608  14.525 -0.3705  0.2823  0.6436
  882MPD2    H112937   2.926   2.204  14.404  1.4082 -1.0665 -0.5357
  882MPD2    H212938   3.300   2.308  14.554  0.2462  0.8449  2.0711
  882MPD2    H312939   3.163   2.167  14.424 -1.2316 -0.4811  0.6423
  882MPD2     N12940   2.800   2.446  14.439 -0.3407  0.0438 -0.6290
  882MPD2    H512941   2.742   2.369  14.406  0.7244 -0.7195 -0.7076
  882MPD2    N112942   3.250   2.548  14.607 -0.3925 -0.1546 -0.4454
  882MPD2    H712943   3.335   2.502  14.638  0.5050  1.3077 -0.7163
  883MPD2     C12944   0.537   2.755  16.748  0.0585 -0.4002 -0.2595
  883MPD2    C112945   0.614   2.725  16.639  0.2604 -0.3868 -0.1246
  883MPD2    C212946   0.750   2.692  16.666  0.0411  0.3421  0.7199
  883MPD2    C312947   0.800   2.699  16.787 -0.4611  1.0962  0.1730
  883MPD2    C412948   0.713   2.728  16.894 -0.8198  0.0625 -0.3967
  883MPD2    C512949   0.582   2.759  16.869 -0.0906 -0.1503 -0.6060
  883MPD2     H12950   0.808   2.644  16.588  1.3772  0.3860  1.6793
  883MPD2    H112951   0.748   2.749  16.995 -1.3846  0.7165 -0.3359
  883MPD2    H212952   0.432   2.777  16.732 -0.4543 -0.4283  3.1000
  883MPD2    H312953   0.517   2.799  16.946  2.2004  1.1152  0.6722
  883MPD2     N12954   0.929   2.665  16.812  0.0805 -0.1331 -0.1523
  883MPD2    H512955   0.981   2.628  16.733 -1.0012  0.0433 -0.9392
  883MPD2    N112956   0.574   2.723  16.500 -0.3882 -0.4253  0.4906
  883MPD2    H712957   0.653   2.721  16.436 -1.7782  1.4830 -1.2891
  884MPD2     C12958   2.119   2.942  15.592  0.3716  0.1101  0.8784
  884MPD2    C112959   2.172   3.068  15.566  0.9886  0.0887  0.0383
  884MPD2    C212960   2.090   3.171  15.559 -0.3406  0.1451 -0.3199
  884MPD2    C312961   1.957   3.159  15.599  0.1154  0.5812  0.5825
  884MPD2    C412962   1.908   3.039  15.646  0.0195  0.4670 -0.2890
  884MPD2    C512963   1.989   2.930  15.634 -0.3421 -0.5812 -0.7574
  884MPD2     H12964   2.127   3.262  15.514  2.5085 -0.4785  0.7639
  884MPD2    H112965   1.811   3.006  15.681  0.3554 -1.4696 -1.1771
  884MPD2    H212966   2.179   2.852  15.597 -0.8378 -0.6186  2.2696
  884MPD2    H312967   1.956   2.834  15.671  0.7449 -0.6745 -0.0348
  884MPD2     N12968   1.879   3.269  15.579  0.3904  0.1078 -0.3395
  884MPD2    H512969   1.921   3.345  15.525  0.6243 -0.8600 -1.5147
  884MPD2    N112970   2.308   3.080  15.538 -0.0725  0.4231 -0.1984
  884MPD2    H712971   2.333   3.173  15.507 -0.7500  2.0855  4.1766
  885MPD2     C12972   0.577   2.787   0.322  0.4518  0.5961  0.1508
  885MPD2    C112973   0.696   2.854   0.315  0.2572 -0.1271  0.4949
  885MPD2    C212974   0.715   2.944   0.210  0.5137  0.2857  0.4611
  885MPD2    C312975   0.612   2.969   0.122 -0.1821  0.3300 -0.5068
  885MPD2    C412976   0.497   2.900   0.128  0.0535 -0.5363  0.2350
  885MPD2    C512977   0.485   2.806   0.223  0.1764  0.4409  0.3445
  885MPD2     H12978   0.812   2.988   0.190  1.4605 -1.2636  1.5765
  885MPD2    H112979   0.416   2.921   0.060 -0.5938 -2.2691  0.4778
  885MPD2    H212980   0.544   2.723   0.403 -0.1045  0.4463 -0.1929
  885MPD2    H312981   0.394   2.747   0.225  0.3223  0.2226  0.5855
  885MPD2     N12982   0.648   3.050   0.016  0.4566 -0.4099  0.0845
  885MPD2    H512983   0.742   3.089   0.018  0.3066 -0.0164 -0.3400
  885MPD2    N112984   0.792   2.844   0.420  0.5742 -0.0101 -0.0863
  885MPD2    H712985   0.773   2.771   0.489 -0.9014 -1.0871 -1.6575
  886MPD2     C12986   1.504   1.952  15.810  0.8104  0.5160  0.2445
  886MPD2    C112987   1.564   1.878  15.705 -0.5075 -0.2054 -0.2795
  886MPD2    C212988   1.635   1.950  15.608 -0.1370  0.2308  1.0443
  886MPD2    C312989   1.640   2.087  15.617 -0.1658 -0.9856 -0.2433
  886MPD2    C412990   1.571   2.161  15.710 -0.3533  0.0530 -0.2189
  886MPD2    C512991   1.514   2.092  15.811 -0.0411 -0.0685 -0.6655
  886MPD2     H12992   1.681   1.890  15.530 -2.5670 -0.4614  0.1260
  886MPD2    H112993   1.570   2.270  15.710  3.0044  0.0858 -1.9838
  886MPD2    H212994   1.426   1.908  15.870 -0.3167  1.0936 -0.7878
  886MPD2    H312995   1.459   2.154  15.881  1.6681 -1.0439  1.5185
  886MPD2     N12996   1.701   2.167  15.520 -0.2074  0.2988 -0.0277
  886MPD2    H512997   1.697   2.268  15.530  0.9247  0.4517 -1.1303
  886MPD2    N112998   1.571   1.738  15.699  0.5261 -0.4695  1.1305
  886MPD2    H712999   1.618   1.697  15.619  1.6112  1.4708  0.7623
  887MPD2     C13000   2.088   1.519  15.338 -0.5428 -0.7299 -0.7077
  887MPD2    C113001   1.980   1.566  15.405  0.6221 -0.1051  0.6918
  887MPD2    C213002   1.986   1.688  15.455  0.4620  0.9542 -0.1739
  887MPD2    C313003   2.102   1.763  15.436 -0.0014 -0.7797 -0.6759
  887MPD2    C413004   2.213   1.711  15.375  0.3799 -0.5265  0.1329
  887MPD2    C513005   2.198   1.589  15.318  0.1581  0.3790  0.3408
  887MPD2     H13006   1.898   1.725  15.505  0.6122  0.3858  0.5170
  887MPD2    H113007   2.308   1.763  15.371  0.0081  0.1542  0.1173
  887MPD2    H213008   2.083   1.418  15.298  2.3419 -0.4901 -1.6448
  887MPD2    H313009   2.279   1.552  15.256 -0.6381 -1.1477  0.2185
  887MPD2     N13010   2.111   1.878  15.511 -0.5098  0.0610 -0.2497
  887MPD2    H513011   2.022   1.909  15.550  0.3638  1.4354  0.6463
  887MPD2    N113012   1.864   1.481  15.429 -0.0931  0.6574  0.2992
  887MPD2    H713013   1.878   1.383  15.405  1.0381  1.0652 -0.6840
  888MPD2     C13014   4.331   2.175  15.013 -0.3616 -0.2560 -0.5418
  888MPD2    C113015   4.244   2.219  15.108  0.5660  0.1857 -0.0787
  888MPD2    C213016   4.221   2.358  15.121  0.0708  0.0459 -1.0512
  888MPD2    C313017   4.269   2.445  15.026 -0.3626 -0.4115  0.4616
  888MPD2    C413018   4.350   2.400  14.923 -0.2071 -0.1239  0.1796
  888MPD2    C513019   4.379   2.265  14.919  0.1943 -0.0893 -0.3225
  888MPD2     H13020   4.155   2.396  15.199 -0.3296  1.6410 -2.1667
  888MPD2    H113021   4.391   2.457  14.840 -2.7461 -0.1758 -1.1011
  888MPD2    H213022   4.346   2.070  14.993 -0.2281 -0.8197  2.5373
  888MPD2    H313023   4.437   2.225  14.836 -1.8292 -1.7753 -0.9179
  888MPD2     N13024   4.228   2.585  15.039  0.0981 -0.4212 -1.0563
  888MPD2    H513025   4.177   2.618  15.120  0.2392  0.9841 -1.5370
  888MPD2    N113026   4.185   2.128  15.197  0.3776 -0.0277 -1.2156
  888MPD2    H713027   4.127   2.173  15.267  2.8297  2.2037 -0.6237
  889MPD2     C13028   3.528   1.152  13.594  0.3862 -0.0168  0.8846
  889MPD2    C113029   3.661   1.180  13.602  0.1826  0.2607  0.1439
  889MPD2    C213030   3.710   1.306  13.651 -0.7770  0.3361 -0.1334
  889MPD2    C313031   3.615   1.409  13.666 -0.2350 -0.2653 -0.7447
  889MPD2    C413032   3.481   1.377  13.637 -0.0189 -0.3359 -0.0566
  889MPD2    C513033   3.437   1.246  13.599  0.5656 -0.7205  0.3307
  889MPD2     H13034   3.815   1.333  13.658 -1.0403  1.5120 -0.6057
  889MPD2    H113035   3.404   1.446  13.671  1.1053 -0.4468  2.7261
  889MPD2    H213036   3.486   1.063  13.549 -3.2491  2.5315 -0.6653
  889MPD2    H313037   3.334   1.223  13.574  1.5181 -3.0348 -1.4934
  889MPD2     N13038   3.651   1.533  13.713 -0.4978  0.0410  0.3230
  889MPD2    H513039   3.741   1.556  13.756 -0.4816  1.4455 -0.4552
  889MPD2    N113040   3.736   1.065  13.604 -0.1502  0.0698  0.2813
  889MPD2    H713041   3.687   0.980  13.574  0.5115 -1.4859  3.6973
  890MPD2     C13042   2.879   3.491  15.069  0.3251 -0.3007  0.0210
  890MPD2    C113043   2.992   3.487  15.145  0.4290  0.0421  0.7085
  890MPD2    C213044   3.028   3.368  15.203  0.1037  0.3082 -0.4643
  890MPD2    C313045   2.957   3.256  15.183  0.0705 -0.5639  0.5835
  890MPD2    C413046   2.832   3.264  15.116  0.3515  0.0435  0.2075
  890MPD2    C513047   2.799   3.381  15.057 -0.6205 -0.1370 -0.1149
  890MPD2     H13048   3.112   3.353  15.270  0.4305 -1.7960 -1.3449
  890MPD2    H113049   2.772   3.177  15.093 -0.7815  1.0307 -0.5545
  890MPD2    H213050   2.845   3.579  15.017  0.0606 -1.0671 -1.1230
  890MPD2    H313051   2.703   3.392  15.008 -0.6770 -0.9581 -0.1887
  890MPD2     N13052   2.998   3.133  15.251  0.1025  0.0567 -0.5978
  890MPD2    H513053   3.080   3.141  15.310  1.0660 -1.1976 -1.7646
  890MPD2    N113054   3.069   3.608  15.160 -0.4872  0.0866 -0.3485
  890MPD2    H713055   3.030   3.693  15.119  2.2801  0.6190 -1.8342
  891MPD2     C13056   1.637   1.905  16.724 -0.3139 -0.6034  0.7620
  891MPD2    C113057   1.554   1.837  16.805 -0.8504 -0.7081 -0.3781
  891MPD2    C213058   1.586   1.832  16.934 -0.1435 -0.3704  0.8759
  891MPD2    C313059   1.706   1.886  16.977 -0.0483 -0.8643  0.0334
  891MPD2    C413060   1.789   1.961  16.899  0.3013  0.0825 -0.2774
  891MPD2    C513061   1.753   1.962  16.768  1.5871  0.3739  1.0781
  891MPD2     H13062   1.526   1.783  17.010 -2.0520 -1.4073 -1.3258
  891MPD2    H113063   1.880   2.009  16.933 -0.0254  0.3273  0.2597
  891MPD2    H213064   1.603   1.919  16.622 -0.5572 -0.6743  0.8316
  891MPD2    H313065   1.812   2.019  16.696  0.9034 -0.3631 -0.0621
  891MPD2     N13066   1.720   1.879  17.117  0.2316  0.1291 -0.2130
  891MPD2    H513067   1.646   1.834  17.170  1.6942 -0.7906  1.0690
  891MPD2    N113068   1.434   1.788  16.754 -0.2965 -0.3034  0.4108
  891MPD2    H713069   1.410   1.818  16.660  0.5903  1.1414  0.6482
  892MPD2     C13070   2.215   3.120  14.891  0.5089 -0.6843  0.6603
  892MPD2    C113071   2.144   3.008  14.900 -0.0446 -0.5619  0.8209
  892MPD2    C213072   2.202   2.888  14.868  0.0604  0.0697 -0.1736
  892MPD2    C313073   2.328   2.892  14.813 -0.2198 -0.8297 -0.2779
  892MPD2    C413074   2.406   3.003  14.813  0.0774 -1.6046  0.0667
  892MPD2    C513075   2.348   3.124  14.842  0.0689 -0.4626 -0.2896
  892MPD2     H13076   2.140   2.800  14.863  0.8463 -0.3840 -2.1524
  892MPD2    H113077   2.511   3.008  14.789 -0.1969  0.1731 -0.7802
  892MPD2    H213078   2.162   3.214  14.905  0.3533 -0.4530 -1.3706
  892MPD2    H313079   2.398   3.219  14.834  0.5165 -0.5749  1.1577
  892MPD2     N13080   2.377   2.792  14.729 -0.6434 -0.3974  0.5866
  892MPD2    H513081   2.466   2.810  14.685 -2.0332 -0.2101 -2.1565
  892MPD2    N113082   2.011   3.006  14.938  0.0304 -0.6104  0.0346
  892MPD2    H713083   1.969   2.914  14.947 -0.0735 -0.4873  0.7682
  893MPD2     C13084   4.121   2.027   2.058 -0.0357 -0.1124 -0.5940
  893MPD2    C113085   4.051   1.929   1.986  0.2399 -0.8185  0.1887
  893MPD2    C213086   3.915   1.933   1.985  0.3416  0.3305  0.3790
  893MPD2    C313087   3.847   2.026   2.064 -0.9446 -0.5215  0.4435
  893MPD2    C413088   3.921   2.112   2.145  0.2005 -0.0558  0.0470
  893MPD2    C513089   4.057   2.121   2.136  1.1012  0.0918  0.1681
  893MPD2     H13090   3.869   1.856   1.926 -0.2372  1.0782 -0.1464
  893MPD2    H113091   3.867   2.180   2.208  1.0569  0.4207  0.2734
  893MPD2    H213092   4.229   2.041   2.064 -0.2909  1.8152 -0.6597
  893MPD2    H313093   4.109   2.191   2.200  0.7275  0.8424 -0.3543
  893MPD2     N13094   3.705   2.028   2.067  0.1384  0.3879  0.0266
  893MPD2    H513095   3.662   2.086   2.139  1.4896  3.9210 -2.0088
  893MPD2    N113096   4.130   1.833   1.928 -0.1597  0.9883  0.4150
  893MPD2    H713097   4.229   1.849   1.945 -0.3215  1.1865  1.1831
  894MPD2     C13098   2.461   3.540   1.127 -0.2406 -0.0403 -0.2514
  894MPD2    C113099   2.540   3.533   1.239  0.1171 -0.1918  0.0554
  894MPD2    C213100   2.641   3.625   1.264 -0.2159  0.4794  0.1430
  894MPD2    C313101   2.667   3.729   1.173  0.3617  0.3232 -0.2354
  894MPD2    C413102   2.590   3.734   1.061 -0.0019  0.1722  0.8529
  894MPD2    C513103   2.480   3.651   1.041  0.3300 -0.6369  0.3665
  894MPD2     H13104   2.698   3.611   1.356 -0.3235  1.7311  0.3943
  894MPD2    H113105   2.599   3.813   0.987 -0.3102 -1.4493 -0.9367
  894MPD2    H213106   2.390   3.465   1.093 -1.3624  0.2396  1.5006
  894MPD2    H313107   2.425   3.659   0.949 -0.9611  3.2320  1.4672
  894MPD2     N13108   2.758   3.838   1.207  0.0319 -0.8191  0.1979
  894MPD2    H513109   2.827   3.826   1.280 -0.8772 -2.8866  0.7119
  894MPD2    N113110   2.522   3.433   1.340  0.0199  0.3041  0.2179
  894MPD2    H713111   2.584   3.430   1.420  0.3784 -0.2788 -0.0893
  895MPD2     C13112   0.933   2.217  14.218  0.1941 -0.5074 -0.2682
  895MPD2    C113113   0.943   2.217  14.084  0.8067  0.2538 -0.1838
  895MPD2    C213114   1.066   2.232  14.031 -0.0897 -0.2501 -0.5497
  895MPD2    C313115   1.180   2.268  14.097  0.0453  0.1919 -0.3813
  895MPD2    C413116   1.172   2.251  14.230  0.0746  0.0516  0.8364
  895MPD2    C513117   1.048   2.222  14.290  0.3073  0.4047  0.0879
  895MPD2     H13118   1.070   2.252  13.924 -1.1379  0.4305 -0.4580
  895MPD2    H113119   1.258   2.260  14.295 -0.1245 -0.7381  1.2160
  895MPD2    H213120   0.838   2.227  14.269 -0.0074  1.9272 -1.1268
  895MPD2    H313121   1.043   2.233  14.397 -0.3570  2.6852 -0.1724
  895MPD2     N13122   1.295   2.296  14.023  0.0941  0.4291  0.4996
  895MPD2    H513123   1.290   2.304  13.922  0.8266  1.4337  0.5362
  895MPD2    N113124   0.834   2.239  13.994 -0.3324 -0.8050  0.3278
  895MPD2    H713125   0.860   2.231  13.896  0.0605  0.7383  0.3116
  896MPD2     C13126   3.852   3.765   2.447 -0.8620  0.3854  0.2024
  896MPD2    C113127   3.916   3.801   2.335 -0.6208 -0.4121  0.1397
  896MPD2    C213128   3.842   3.795   2.207 -0.0716  0.4488 -0.6766
  896MPD2    C313129   3.706   3.779   2.211  0.2497  0.0728  0.2161
  896MPD2    C413130   3.651   3.742   2.330 -0.0827  0.2042 -0.0367
  896MPD2    C513131   3.721   3.729   2.449 -0.0661  0.1180  0.6796
  896MPD2     H13132   3.887   3.816   2.110  0.7464 -1.0881 -0.6344
  896MPD2    H113133   3.549   3.704   2.332  0.7868 -2.2591 -1.7430
  896MPD2    H213134   3.911   3.764   2.539 -0.4718 -0.4896 -0.0577
  896MPD2    H313135   3.672   3.682   2.533 -0.1054 -2.1457 -0.6027
  896MPD2     N13136   3.635   3.808   2.092  0.1925  0.4739  0.0353
  896MPD2    H513137   3.693   3.842   2.016  0.4613  0.9183  0.4343
  896MPD2    N113138   4.050   3.843   2.344 -0.6349 -0.6829 -0.4046
  896MPD2    H713139   4.095   3.844   2.435  0.6946 -0.6605 -1.0639
  897MPD2     C13140   0.031   1.080  10.429  0.5137  0.2211 -1.1166
  897MPD2    C113141   0.076   1.106  10.555  0.5664 -0.3029 -0.5828
  897MPD2    C213142   0.010   1.200  10.627  0.2824 -0.4897 -0.4349
  897MPD2    C313143   4.620   1.258  10.570  0.9192  0.2470 -0.2952
  897MPD2    C413144   4.571   1.223  10.448 -0.1796 -0.2905  0.0331
  897MPD2    C513145   4.637   1.135  10.379  0.0336  0.3861 -0.8561
  897MPD2     H13146   0.020   1.217  10.733 -0.7512  1.8083 -0.6895
  897MPD2    H113147   4.477   1.254  10.405  0.5007 -0.7426 -1.7900
  897MPD2    H213148   0.081   1.011  10.362  3.9208  0.6824  0.9117
  897MPD2    H313149   4.597   1.101  10.285  2.0113 -1.9665 -0.8440
  897MPD2     N13150   4.548   1.353  10.646  0.3862  0.1591  0.2220
  897MPD2    H513151   4.584   1.368  10.739  1.8708  0.4804 -0.4006
  897MPD2    N113152   0.187   1.030  10.605  0.2941  0.4830  0.0124
  897MPD2    H713153   0.232   0.965  10.541 -1.3342  0.1301 -0.7640
  898MPD2     C13154   2.507   2.047   0.141 -0.4662  0.0309  0.5866
  898MPD2    C113155   2.514   2.162   0.220  0.3344  0.2159  0.0350
  898MPD2    C213156   2.454   2.283   0.186  0.2966 -0.7543 -0.0675
  898MPD2    C313157   2.391   2.296   0.061 -0.1207  0.6602  0.3367
  898MPD2    C413158   2.388   2.179  17.686  0.1988 -0.1685  0.0725
  898MPD2    C513159   2.440   2.054   0.024  0.0092 -0.1672 -0.6062
  898MPD2     H13160   2.461   2.376   0.241  1.8230 -0.8635 -0.0634
  898MPD2    H113161   2.354   2.191  17.584  0.7391 -2.6334 -0.4131
  898MPD2    H213162   2.558   1.957   0.175  0.2936  1.6370  3.6863
  898MPD2    H313163   2.435   1.973  17.648  0.5837 -2.1028  1.5366
  898MPD2     N13164   2.344   2.421   0.017  0.2607  0.2461  0.5870
  898MPD2    H513165   2.335   2.500   0.080 -0.4651 -0.2030  1.0323
  898MPD2    N113166   2.581   2.173   0.346  0.2827 -0.5247  0.1926
  898MPD2    H713167   2.556   2.253   0.403  1.9839  0.6740 -0.7298
  899MPD2     C13168   3.125   2.710  17.644  0.1710 -0.0096  0.1376
  899MPD2    C113169   3.157   2.830   0.005 -0.2559  0.2589 -0.9924
  899MPD2    C213170   3.116   2.850   0.134  0.1750 -0.6712 -0.5211
  899MPD2    C313171   3.058   2.742   0.205  0.4496  0.2627  0.6022
  899MPD2    C413172   3.025   2.626   0.144 -0.3485 -0.1411  0.1452
  899MPD2    C513173   3.062   2.615   0.016  0.0169  0.1653 -0.9192
  899MPD2     H13174   3.136   2.942   0.188 -0.3095 -1.0320  0.2764
  899MPD2    H113175   2.989   2.543   0.203  1.9211 -0.4245  1.1303
  899MPD2    H213176   3.165   2.687  17.546 -1.2654 -1.9016  0.0150
  899MPD2    H313177   3.044   2.524  17.657 -0.3277  1.2253 -2.5434
  899MPD2     N13178   3.019   2.750   0.340  0.0377  0.4215 -0.4769
  899MPD2    H513179   2.962   2.668   0.362  0.7980 -0.3820 -1.4793
  899MPD2    N113180   3.227   2.923  17.623 -0.4777 -0.5585  0.3347
  899MPD2    H713181   3.253   2.893  17.529  1.4896 -0.4623  0.8408
  900MPD2     C13182   2.662   4.303  12.206 -0.1441  0.1954 -0.5618
  900MPD2    C113183   2.578   4.295  12.309 -0.5920  0.0430 -0.0576
  900MPD2    C213184   2.453   4.356  12.315 -0.5704  0.2903  0.8824
  900MPD2    C313185   2.420   4.441  12.211 -0.8678  0.2143  0.0694
  900MPD2    C413186   2.504   4.436  12.099  0.2921  0.1464  0.2209
  900MPD2    C513187   2.628   4.384  12.107 -0.1343 -0.0303  0.3459
  900MPD2     H13188   2.390   4.356  12.403 -0.6761  0.6240  0.8076
  900MPD2    H113189   2.485   4.484  12.004 -0.7292 -2.5861 -0.9688
  900MPD2    H213190   2.755   4.246  12.210 -0.6046 -0.5468 -0.2844
  900MPD2    H313191   2.689   4.397  12.018 -0.3106 -2.9246 -0.1831
  900MPD2     N13192   2.307   4.523  12.210  0.1985 -0.2873 -0.2165
  900MPD2    H513193   2.239   4.507  12.284 -0.4888 -0.5286 -0.8972
  900MPD2    N113194   2.627   4.209  12.410 -0.5075 -0.4329  0.1207
  900MPD2    H713195   2.711   4.159  12.383 -0.2332 -0.0014  0.1741
  901MPD2     C13196   2.399   3.227  12.693  0.5206  0.1831 -0.6170
  901MPD2    C113197   2.531   3.230  12.649  0.0146 -0.4323 -0.6445
  901MPD2    C213198   2.590   3.361  12.618 -0.2723 -0.6390 -0.2651
  901MPD2    C313199   2.507   3.474  12.643 -0.2813 -0.5582  0.5589
  901MPD2    C413200   2.383   3.461  12.683  0.7543  0.0323 -0.2154
  901MPD2    C513201   2.324   3.342  12.713  0.1186 -0.4692 -0.3542
  901MPD2     H13202   2.694   3.372  12.592  0.6460  0.4058  4.0174
  901MPD2    H113203   2.314   3.542  12.702  1.6577  1.0980 -1.5429
  901MPD2    H213204   2.347   3.133  12.707  1.3895  0.0143  1.4892
  901MPD2    H313205   2.218   3.339  12.738  0.2290 -1.1405  0.0286
  901MPD2     N13206   2.566   3.600  12.625  0.3393  0.3544  0.2338
  901MPD2    H513207   2.664   3.596  12.599 -0.1323 -0.2020 -1.4361
  901MPD2    N113208   2.589   3.101  12.632 -0.2596  0.1680  0.2757
  901MPD2    H713209   2.535   3.021  12.665  3.1135 -1.2477  2.3429
  902MPD2     C13210   1.246   2.253  12.868  0.3868  0.3565 -0.3504
  902MPD2    C113211   1.375   2.274  12.814 -0.2616  0.8773  0.3625
  902MPD2    C213212   1.449   2.170  12.766  0.5121 -0.5749  0.2053
  902MPD2    C313213   1.409   2.038  12.782 -0.5219  0.2130 -0.2294
  902MPD2    C413214   1.286   2.018  12.843 -0.5218  0.6376  0.1696
  902MPD2    C513215   1.205   2.125  12.887  0.4578 -0.4002  0.1574
  902MPD2     H13216   1.552   2.177  12.734  0.0767  2.1124 -0.6332
  902MPD2    H113217   1.242   1.920  12.860 -1.4257  1.1469  0.8123
  902MPD2    H213218   1.195   2.331  12.924 -1.2920 -2.4126  1.9884
  902MPD2    H313219   1.121   2.115  12.955  0.7737  0.1149  0.6251
  902MPD2     N13220   1.477   1.925  12.726  0.1670  0.6808 -0.8025
  902MPD2    H513221   1.440   1.833  12.750  1.2187  0.3580 -0.4014
  902MPD2    N113222   1.415   2.408  12.818  0.3890  0.3192 -0.1878
  902MPD2    H713223   1.348   2.480  12.843 -2.2134 -1.2813 -2.5938
  903MPD2     C13224   1.300   1.591  11.945 -0.2373  0.0052 -0.3325
  903MPD2    C113225   1.261   1.648  12.067 -0.0670 -0.3059  0.1767
  903MPD2    C213226   1.128   1.661  12.097 -0.7331  0.1184 -0.3657
  903MPD2    C313227   1.039   1.615  12.000  0.4048  0.3765  0.1719
  903MPD2    C413228   1.079   1.562  11.877 -0.6588  0.1602  0.0249
  903MPD2    C513229   1.212   1.545  11.852  0.0928  0.0190  0.0512
  903MPD2     H13230   1.099   1.689  12.197  1.5243  1.3626 -0.0557
  903MPD2    H113231   1.008   1.528  11.803  2.2627 -1.0070 -2.2166
  903MPD2    H213232   1.401   1.565  11.916  0.0796 -0.1699  0.9399
  903MPD2    H313233   1.240   1.513  11.753  2.5022 -0.3117  0.8366
  903MPD2     N13234   0.902   1.620  12.040 -0.5485  0.4325 -0.4253
  903MPD2    H513235   0.886   1.663  12.130  3.4079  1.0458  0.0188
  903MPD2    N113236   1.359   1.684  12.163 -0.7549  0.0138 -0.4146
  903MPD2    H713237   1.457   1.687  12.135 -1.0822  1.4414 -1.4002
  904MPD2     C13238   1.179   1.834  13.816  0.1710  0.3400  0.4938
  904MPD2    C113239   1.199   1.697  13.845 -0.7671 -0.1880  0.3744
  904MPD2    C213240   1.308   1.664  13.922  0.0016 -0.4284 -0.1723
  904MPD2    C313241   1.387   1.763  13.993  0.0752 -0.7635  0.2882
  904MPD2    C413242   1.355   1.895  13.976  0.8437 -0.1637 -0.0455
  904MPD2    C513243   1.255   1.921  13.889  0.7370  0.3588 -0.6249
  904MPD2     H13244   1.336   1.562  13.943  0.3986 -0.1811  0.5220
  904MPD2    H113245   1.405   1.971  14.036  0.2436  1.1857 -1.2803
  904MPD2    H213246   1.110   1.863  13.737 -0.2555 -0.1049  0.6981
  904MPD2    H313247   1.227   2.025  13.873  2.5405  1.2647  2.0540
  904MPD2     N13248   1.493   1.722  14.082  0.1448  0.6700 -0.1245
  904MPD2    H513249   1.497   1.622  14.095  0.5535  0.4423 -2.0311
  904MPD2    N113250   1.126   1.589  13.798  0.2421 -0.4160 -0.5844
  904MPD2    H713251   1.167   1.499  13.820 -0.6005 -0.5808  0.3344
  905MPD2     C13252   1.024   2.023  13.352 -0.2851  0.2897 -0.5010
  905MPD2    C113253   1.006   2.060  13.479 -0.2350 -0.0071  0.0919
  905MPD2    C213254   1.094   2.146  13.539  0.1590 -0.1958  0.7140
  905MPD2    C313255   1.206   2.193  13.470  0.6206 -0.3809  0.0648
  905MPD2    C413256   1.216   2.164  13.338  0.4986  0.2744  0.2122
  905MPD2    C513257   1.124   2.076  13.275  1.0014  0.8774  0.2451
  905MPD2     H13258   1.081   2.174  13.643 -3.4444  2.0454 -0.3347
  905MPD2    H113259   1.287   2.217  13.276  0.5339 -0.6573 -0.5341
  905MPD2    H213260   0.956   1.953  13.304 -1.6365  1.1485  0.1688
  905MPD2    H313261   1.129   2.052  13.170 -1.5791  1.1404  0.0567
  905MPD2     N13262   1.320   2.262  13.528 -0.2723 -0.3946 -0.4421
  905MPD2    H513263   1.400   2.290  13.472 -0.0481 -1.3938 -0.6177
  905MPD2    N113264   0.895   2.002  13.545 -0.5153  0.1768 -0.2617
  905MPD2    H713265   0.849   1.930  13.490 -1.2319  1.3528 -1.2038
  906MPD2     C13266   3.539   1.074  11.298 -0.4659 -0.0666  0.3719
  906MPD2    C113267   3.425   1.049  11.229  0.0551 -0.2775  0.7634
  906MPD2    C213268   3.327   0.982  11.299  0.0495  0.2851 -0.6434
  906MPD2    C313269   3.360   0.924  11.423  0.8050 -0.1673  0.0653
  906MPD2    C413270   3.476   0.942  11.485 -0.4815  0.1949 -0.2533
  906MPD2    C513271   3.565   1.026  11.423  0.2614  0.1121  0.0421
  906MPD2     H13272   3.244   0.960  11.234 -0.1996  0.8435 -0.5166
  906MPD2    H113273   3.500   0.892  11.578 -0.4238 -1.2430 -1.0406
  906MPD2    H213274   3.620   1.129  11.253 -0.4299  2.7116  3.7808
  906MPD2    H313275   3.660   1.037  11.475  1.1323  0.3949 -1.5924
  906MPD2     N13276   3.279   0.824  11.483  0.0802  0.7752 -0.0924
  906MPD2    H513277   3.318   0.780  11.566  0.3332  0.4286 -0.3950
  906MPD2    N113278   3.402   1.091  11.096 -0.5159  0.0344  0.5285
  906MPD2    H713279   3.313   1.055  11.061 -0.2601  1.0207 -1.1512
  907MPD2     C13280   2.398   0.538  15.840 -0.0408  0.1675 -0.1156
  907MPD2    C113281   2.462   0.414  15.844  0.4245  0.0612  0.3846
  907MPD2    C213282   2.544   0.384  15.956  0.3911 -0.1260 -0.2393
  907MPD2    C313283   2.551   0.471  16.069 -0.3678  0.3417  0.3906
  907MPD2    C413284   2.486   0.591  16.059 -0.4046 -0.6661  0.3771
  907MPD2    C513285   2.414   0.623  15.943  0.3630 -0.2480  0.7929
  907MPD2     H13286   2.587   0.285  15.955  0.7117 -0.0136  2.1346
  907MPD2    H113287   2.494   0.668  16.134 -1.4611 -0.3388  0.1564
  907MPD2    H213288   2.328   0.565  15.761 -2.9359 -1.6614  1.8291
  907MPD2    H313289   2.368   0.721  15.939  1.1559  0.0279 -1.4593
  907MPD2     N13290   2.628   0.435  16.181  0.2914 -0.2325  0.7053
  907MPD2    H513291   2.689   0.356  16.163  1.4140  0.1865  2.6681
  907MPD2    N113292   2.445   0.315  15.746 -0.4728  0.2211 -0.1485
  907MPD2    H713293   2.489   0.224  15.756  0.0165  0.6931  1.9677
  908MPD2     C13294   0.416   0.277  10.342 -0.2993 -0.3380  0.0498
  908MPD2    C113295   0.333   0.386  10.302 -0.0999  0.1259 -0.7414
  908MPD2    C213296   0.331   0.499  10.378 -0.4125  0.5932 -0.0311
  908MPD2    C313297   0.417   0.507  10.487 -0.0886 -0.0885  0.2307
  908MPD2    C413298   0.485   0.391  10.522  0.1482  0.6319  0.0773
  908MPD2    C513299   0.489   0.277  10.452  0.0194  0.2198  0.0251
  908MPD2     H13300   0.267   0.584  10.356 -1.9444 -0.5396  0.0670
  908MPD2    H113301   0.561   0.401  10.599  0.4087 -0.1965 -0.0784
  908MPD2    H213302   0.419   0.178  10.299 -1.3920  0.2310 -1.3357
  908MPD2    H313303   0.556   0.194  10.472  1.4005  0.8983 -1.7428
  908MPD2     N13304   0.412   0.621  10.564 -0.2300  0.2122  0.1770
  908MPD2    H513305   0.369   0.697  10.513  0.8493  1.1148  0.6313
  908MPD2    N113306   0.241   0.362  10.193 -0.2111  0.4901  0.2502
  908MPD2    H713307   0.256   0.280  10.135 -1.9387 -0.5677  1.2800
  909MPD2     C13308   0.066   4.031  12.231  0.4870 -0.2032  0.1894
  909MPD2    C113309   0.112   4.163  12.234  0.5120 -0.5238  0.0961
  909MPD2    C213310   0.029   4.268  12.261 -0.8940  0.2401 -0.3024
  909MPD2    C313311   4.629   4.256  12.306  0.2334  0.7633 -0.0293
  909MPD2    C413312   4.581   4.124  12.314 -0.4419  0.1762 -0.0237
  909MPD2    C513313   4.659   4.012  12.272 -0.0309 -0.0524  1.0807
  909MPD2     H13314   0.068   4.368  12.244 -0.4017  0.3612  1.5355
  909MPD2    H113315   4.484   4.105  12.358 -0.8900 -1.3026 -1.6687
  909MPD2    H213316   0.118   3.946  12.188  0.6111 -1.5430  2.9893
  909MPD2    H313317   4.606   3.917  12.270 -0.4945  0.2285  0.0451
  909MPD2     N13318   4.573   4.377  12.348  0.4176  0.4385  0.1064
  909MPD2    H513319   4.634   4.458  12.345 -0.4569  1.0147 -2.4614
  909MPD2    N113320   0.247   4.187  12.197 -0.0326 -0.2085 -0.4488
  909MPD2    H713321   0.271   4.284  12.180 -2.2061  0.1648 -1.5022
  910MPD2     C13322   1.551   0.988  15.994  0.3777  0.5018  0.0930
  910MPD2    C113323   1.650   0.982  15.901  0.7629  0.1863  0.3835
  910MPD2    C213324   1.617   1.008  15.764 -0.0228 -0.1964 -0.2338
  910MPD2    C313325   1.492   1.060  15.729 -0.2893  0.1351  0.0158
  910MPD2    C413326   1.398   1.073  15.827 -0.0979  0.0812 -0.9593
  910MPD2    C513327   1.425   1.027  15.955 -0.2179  0.5685  0.1930
  910MPD2     H13328   1.694   1.012  15.688  0.4326 -0.7346  0.1971
  910MPD2    H113329   1.298   1.105  15.801 -0.9348 -1.2153  0.6590
  910MPD2    H213330   1.559   0.971  16.101  0.5611 -0.8806 -0.1489
  910MPD2    H313331   1.353   1.026  16.036 -1.0852  2.2577 -0.5570
  910MPD2     N13332   1.448   1.094  15.600  0.1319  0.0009 -0.1351
  910MPD2    H513333   1.351   1.121  15.585 -1.3492 -2.9091  4.2021
  910MPD2    N113334   1.777   0.939  15.936  0.2030  0.3018 -0.6345
  910MPD2    H713335   1.846   0.929  15.861 -0.2733  0.3689 -1.0810
  911MPD2     C13336   4.419   1.404  16.484  0.5400  0.0590  0.1911
  911MPD2    C113337   4.507   1.485  16.544 -0.1480  0.1338  0.0844
  911MPD2    C213338   4.471   1.618  16.564 -0.2822 -0.2983  0.2460
  911MPD2    C313339   4.348   1.665  16.518 -0.2438  0.1853  0.0039
  911MPD2    C413340   4.262   1.579  16.459 -0.0268  0.5412 -0.0246
  911MPD2    C513341   4.301   1.453  16.435  0.5159  0.1063 -0.1545
  911MPD2     H13342   4.534   1.675  16.631 -2.8234  0.0936  2.2680
  911MPD2    H113343   4.175   1.626  16.414  0.5587  1.0482 -0.6286
  911MPD2    H213344   4.442   1.302  16.457  2.9616 -0.2594  3.4112
  911MPD2    H313345   4.233   1.388  16.380  0.4008 -0.3435  0.5224
  911MPD2     N13346   4.303   1.800  16.530  0.5988  0.0783  0.6779
  911MPD2    H513347   4.203   1.803  16.512  0.5807 -1.4549  0.5302
  911MPD2    N113348   4.615   1.420  16.597 -0.5867 -0.6371  0.5509
  911MPD2    H713349   4.622   1.320  16.579  3.6313 -0.6107  1.9836
  912MPD2     C13350   3.849   1.760  16.083  0.8089 -0.4005 -0.0700
  912MPD2    C113351   3.904   1.763  16.208  0.6207  0.3835 -0.5323
  912MPD2    C213352   3.888   1.646  16.282 -0.1059  0.0901  0.6157
  912MPD2    C313353   3.810   1.539  16.239 -0.2279  0.0343  0.0079
  912MPD2    C413354   3.752   1.543  16.116 -0.5781 -0.5346 -1.4027
  912MPD2    C513355   3.774   1.653  16.033  0.0932 -0.3293 -0.0901
  912MPD2     H13356   3.927   1.639  16.383  0.5423 -1.0926  0.2841
  912MPD2    H113357   3.684   1.463  16.086 -0.5274 -0.8384 -0.7162
  912MPD2    H213358   3.869   1.841  16.014 -1.5239  1.2166  1.1396
  912MPD2    H313359   3.739   1.650  15.930 -0.2245 -3.3766  0.0966
  912MPD2     N13360   3.785   1.439  16.329  0.5820  0.5678  0.4410
  912MPD2    H513361   3.834   1.443  16.418 -1.0795 -1.8067  1.4614
  912MPD2    N113362   3.982   1.878  16.243  0.2418  0.2742  0.7035
  912MPD2    H713363   3.991   1.956  16.178  1.8749  0.9637  1.7568
  913MPD2     C13364   3.156   1.543  11.258 -0.3818  0.4031 -0.2077
  913MPD2    C113365   3.249   1.646  11.273 -0.2187 -0.0469 -0.2159
  913MPD2    C213366   3.317   1.693  11.166  0.1564  0.8571  0.1577
  913MPD2    C313367   3.283   1.650  11.044  0.1798 -0.5972  0.6673
  913MPD2    C413368   3.200   1.547  11.027  0.2041 -0.2073  1.4108
  913MPD2    C513369   3.136   1.490  11.136  0.8784 -0.3875  0.3830
  913MPD2     H13370   3.382   1.779  11.169  0.3117  0.6876  1.2957
  913MPD2    H113371   3.177   1.506  10.929  1.6977 -1.8774  1.7611
  913MPD2    H213372   3.113   1.494  11.344 -1.6471  0.1006 -1.0134
  913MPD2    H313373   3.066   1.408  11.127 -0.7641  0.8053  2.2208
  913MPD2     N13374   3.331   1.708  10.927  0.0851  0.0790  0.3375
  913MPD2    H513375   3.296   1.684  10.834 -1.3643 -0.2197  0.9683
  913MPD2    N113376   3.275   1.685  11.407 -0.3698  0.0472  0.2201
  913MPD2    H713377   3.212   1.640  11.473 -3.6047  2.1579 -1.3944
  914MPD2     C13378   2.483   3.209  12.011  0.4549 -0.3384  0.0506
  914MPD2    C113379   2.555   3.267  12.116 -0.0153 -0.2800  0.1335
  914MPD2    C213380   2.637   3.181  12.181  0.5132 -0.0052  0.5041
  914MPD2    C313381   2.656   3.046  12.149  0.5445 -0.5760  0.2545
  914MPD2    C413382   2.587   2.994  12.047  0.2636 -0.6973 -0.2637
  914MPD2    C513383   2.494   3.076  11.988 -0.1578 -0.2763 -0.4502
  914MPD2     H13384   2.690   3.213  12.271 -3.0451  0.2597  2.4985
  914MPD2    H113385   2.595   2.893  12.008 -1.2241 -1.2790  0.9540
  914MPD2    H213386   2.418   3.265  11.945 -1.5211 -1.1957  1.2736
  914MPD2    H313387   2.441   3.031  11.905 -0.4878 -0.1001 -0.3363
  914MPD2     N13388   2.748   2.968  12.222 -0.0883  0.1844 -0.0807
  914MPD2    H513389   2.797   3.026  12.289  0.4132  2.3479 -2.2928
  914MPD2    N113390   2.540   3.401  12.145  0.5063  0.1834  0.0796
  914MPD2    H713391   2.460   3.445  12.101  1.2578 -0.3833 -1.8475
  915MPD2     C13392   0.833   2.840  15.799 -0.1140 -0.4483  0.4301
  915MPD2    C113393   0.745   2.934  15.765 -0.2824  0.0476 -0.4032
  915MPD2    C213394   0.694   3.017  15.860  0.2356 -0.2628 -0.3561
  915MPD2    C313395   0.723   3.000  15.994  0.1805  0.6887 -0.7865
  915MPD2    C413396   0.808   2.897  16.030 -0.6395  0.1647 -0.4544
  915MPD2    C513397   0.867   2.827  15.930 -0.8248 -0.2880 -1.0741
  915MPD2     H13398   0.625   3.097  15.835  1.5431  0.4411 -1.6642
  915MPD2    H113399   0.839   2.868  16.129  0.2876 -2.0397 -1.4028
  915MPD2    H213400   0.867   2.767  15.727  2.7533 -0.3224  1.6545
  915MPD2    H313401   0.943   2.754  15.958  0.4461  1.1639 -0.7455
  915MPD2     N13402   0.665   3.086  16.094 -0.3739 -0.2266 -0.2497
  915MPD2    H513403   0.613   3.164  16.055 -0.8366 -1.3864 -1.9505
  915MPD2    N113404   0.714   2.941  15.624  0.1598 -0.1820 -0.4315
  915MPD2    H713405   0.733   2.859  15.568  2.8146 -0.9321  1.5539
  916MPD2     C13406   3.471   1.239  15.661 -0.0354 -0.6864 -0.2557
  916MPD2    C113407   3.500   1.177  15.780 -0.1984  0.0457 -0.7830
  916MPD2    C213408   3.601   1.081  15.778 -0.3444  0.1217  0.0961
  916MPD2    C313409   3.676   1.056  15.665 -0.3901  0.7816 -0.6075
  916MPD2    C413410   3.650   1.128  15.550 -0.8936  0.6726  0.4828
  916MPD2    C513411   3.548   1.214  15.550 -0.7118 -0.3738  0.4433
  916MPD2     H13412   3.613   1.023  15.869 -3.8937 -1.5031 -0.4678
  916MPD2    H113413   3.705   1.129  15.457  0.5936  1.0242  1.3782
  916MPD2    H213414   3.399   1.320  15.650  1.9531  0.6914 -3.1597
  916MPD2    H313415   3.525   1.280  15.466 -1.3760 -1.2342 -0.0512
  916MPD2     N13416   3.774   0.955  15.666 -0.6053 -0.3997  0.1075
  916MPD2    H513417   3.778   0.908  15.756  0.3704 -1.5324 -0.5400
  916MPD2    N113418   3.425   1.221  15.892 -0.3504  0.0650 -0.7403
  916MPD2    H713419   3.371   1.306  15.881 -2.1002 -0.7860  1.2709
  917MPD2     C13420   4.593   3.090  11.725  0.0031 -0.0620  0.4865
  917MPD2    C113421   4.482   3.113  11.642  0.7080  0.5607 -0.2510
  917MPD2    C213422   4.488   3.137  11.512  0.9610 -0.5777  0.0352
  917MPD2    C313423   4.614   3.131  11.448  0.6308  0.2278  0.0651
  917MPD2    C413424   4.718   3.078  11.518 -0.0158  0.7300 -0.1125
  917MPD2    C513425   4.708   3.063  11.656 -0.0729 -0.6720  0.3197
  917MPD2     H13426   4.400   3.169  11.457  0.5607 -0.4076  0.7758
  917MPD2    H113427   0.095   3.069  11.479 -0.7547 -1.7512 -1.4331
  917MPD2    H213428   4.599   3.077  11.832  2.1209 -0.1247  0.3598
  917MPD2    H313429   0.078   3.050  11.710 -0.0870 -0.5601  0.3721
  917MPD2     N13430   4.638   3.172  11.316 -0.0599 -0.3463  0.5479
  917MPD2    H513431   0.010   3.161  11.282  0.0993  2.5437  0.0684
  917MPD2    N113432   4.356   3.112  11.707  0.0183 -0.4462 -0.4104
  917MPD2    H713433   4.359   3.109  11.809  1.1497  2.6256 -0.3560
  918MPD2     C13434   4.439   3.745  12.049  0.6164 -0.5456 -0.0105
  918MPD2    C113435   4.476   3.622  12.102  0.4074 -0.1803  0.3314
  918MPD2    C213436   4.392   3.520  12.099  0.0674 -0.0373 -0.2772
  918MPD2    C313437   4.265   3.525  12.040 -0.1799 -0.4072  0.4523
  918MPD2    C413438   4.232   3.649  11.993  1.0566  0.5729 -0.3311
  918MPD2    C513439   4.315   3.759  11.994 -0.1497 -0.0035  0.0379
  918MPD2     H13440   4.424   3.434  12.157  0.4263 -0.6693 -1.4065
  918MPD2    H113441   4.133   3.667  11.951 -0.6975  0.2853  3.5622
  918MPD2    H213442   4.503   3.832  12.047 -1.2825  0.8501 -0.9870
  918MPD2    H313443   4.289   3.855  11.951 -0.7781 -0.8364 -1.4343
  918MPD2     N13444   4.186   3.406  12.033  0.0603  0.0153 -0.1420
  918MPD2    H513445   4.237   3.320  12.052  0.7416  0.6710  0.9251
  918MPD2    N113446   4.605   3.589  12.158  0.4391 -0.4455 -0.3048
  918MPD2    H713447   4.613   3.500  12.206 -0.1949 -1.0729 -1.3654
  919MPD2     C13448   4.527   2.458  11.536 -0.1594 -0.0806 -0.6584
  919MPD2    C113449   4.407   2.388  11.547  0.4239 -0.1782  0.7153
  919MPD2    C213450   4.310   2.392  11.449  0.4293 -0.4806  0.2177
  919MPD2    C313451   4.333   2.465  11.334 -0.4994 -0.3706  0.3469
  919MPD2    C413452   4.455   2.521  11.326 -0.7581 -0.1475  0.5308
  919MPD2    C513453   4.546   2.536  11.424  0.1195  0.3693 -0.3263
  919MPD2     H13454   4.221   2.332  11.468  0.1262  0.3174  1.3603
  919MPD2    H113455   4.479   2.569  11.232 -1.1488  0.0010  0.5040
  919MPD2    H213456   4.611   2.456  11.604 -0.1613  0.3276 -0.6412
  919MPD2    H313457   4.643   2.580  11.402 -0.3730  0.9427 -1.3476
  919MPD2     N13458   4.252   2.457  11.223 -0.2262 -0.0609  0.0972
  919MPD2    H513459   4.289   2.515  11.148  1.4535  1.5771  2.2160
  919MPD2    N113460   4.377   2.297  11.651 -0.7933 -0.3360  0.1427
  919MPD2    H713461   4.288   2.249  11.650 -2.2758  2.5490 -4.0258
  920MPD2     C13462   4.221   2.779  10.295  0.3397  0.4474 -1.0624
  920MPD2    C113463   4.090   2.736  10.311  0.3882  0.2100  0.0132
  920MPD2    C213464   4.060   2.655  10.423  0.0025 -0.1841 -0.1490
  920MPD2    C313465   4.153   2.617  10.518 -0.4020  0.3249  0.0517
  920MPD2    C413466   4.281   2.656  10.497  0.5305 -0.8101  0.1643
  920MPD2    C513467   4.320   2.733  10.387  0.2300 -0.3738  0.9373
  920MPD2     H13468   3.960   2.615  10.433  0.0441 -1.2750 -4.2642
  920MPD2    H113469   4.362   2.622  10.560  0.7127 -1.4981 -0.4463
  920MPD2    H213470   4.249   2.848  10.217  0.6899 -0.6182 -1.8764
  920MPD2    H313471   4.425   2.757  10.372  0.0911 -0.1993  0.2127
  920MPD2     N13472   4.112   2.553  10.633  0.1137 -0.1391 -0.8625
  920MPD2    H513473   4.016   2.523  10.646  0.9928 -1.5261  2.3989
  920MPD2    N113474   3.983   2.778  10.229 -0.3432  0.1316 -0.1289
  920MPD2    H713475   3.895   2.729  10.245  0.2206 -0.8571 -0.0669
  921MPD2     C13476   0.879   1.332  17.046 -0.0807  0.4721  0.5767
  921MPD2    C113477   0.828   1.442  16.971  0.2506 -0.1490  0.0662
  921MPD2    C213478   0.686   1.442  16.957  0.2498  0.4868 -0.0722
  921MPD2    C313479   0.609   1.338  17.003 -0.4526  0.8872  0.9224
  921MPD2    C413480   0.663   1.229  17.068 -0.3825  0.1297 -0.8094
  921MPD2    C513481   0.799   1.232  17.096 -0.0360  0.4419 -0.1195
  921MPD2     H13482   0.633   1.520  16.903  1.1008  0.8953 -0.3164
  921MPD2    H113483   0.601   1.148  17.105  0.3936  0.7273  1.7935
  921MPD2    H213484   0.986   1.318  17.058  0.0470  1.8930  1.0803
  921MPD2    H313485   0.849   1.142  17.129  2.0560  1.8727  0.6450
  921MPD2     N13486   0.470   1.325  16.976  0.9867 -0.9587  0.1058
  921MPD2    H513487   0.428   1.235  16.995 -0.6644 -0.5378 -1.5915
  921MPD2    N113488   0.910   1.550  16.931  0.6379 -0.5583  0.5504
  921MPD2    H713489   1.004   1.554  16.968  0.6669 -0.1836  0.4349
  922MPD2     C13490   1.421   3.844   0.978  0.0257 -0.1906 -1.0363
  922MPD2    C113491   1.487   3.815   0.862 -0.9994 -0.3516 -0.1937
  922MPD2    C213492   1.418   3.769   0.755  0.1716 -0.2211  0.2525
  922MPD2    C313493   1.276   3.774   0.757 -0.1746 -0.2881 -0.4048
  922MPD2    C413494   1.210   3.811   0.875  0.2688  0.9203 -0.1052
  922MPD2    C513495   1.287   3.838   0.983 -0.2313  0.2998 -0.5323
  922MPD2     H13496   1.470   3.736   0.665 -0.4535 -0.1009 -0.1521
  922MPD2    H113497   1.102   3.820   0.878  0.2078  0.8479 -2.1976
  922MPD2    H213498   1.474   3.872   1.068  0.2636 -0.4690 -1.0905
  922MPD2    H313499   1.232   3.869   1.072 -0.2199 -3.1113  0.6908
  922MPD2     N13500   1.201   3.744   0.641 -0.1737 -0.3687 -0.0555
  922MPD2    H513501   1.255   3.691   0.573  1.7086 -0.1368  1.2672
  922MPD2    N113502   1.628   3.847   0.861 -0.3068 -0.8860  0.3407
  922MPD2    H713503   1.670   3.882   0.946 -1.2433 -0.6948  0.7205
  923MPD2     C13504   2.777   0.661   9.564 -0.0272 -0.2258 -0.6178
  923MPD2    C113505   2.767   0.796   9.607 -0.9449  0.3194 -0.0047
  923MPD2    C213506   2.837   0.836   9.719  0.7054  0.3941 -0.3907
  923MPD2    C313507   2.912   0.744   9.789 -0.0230  0.6952 -0.0522
  923MPD2    C413508   2.917   0.615   9.750 -0.2717  0.0472 -0.0118
  923MPD2    C513509   2.854   0.579   9.635 -0.0048  0.7443  1.5508
  923MPD2     H13510   2.820   0.938   9.753  1.0745 -0.2147  1.5749
  923MPD2    H113511   2.991   0.549   9.794 -0.2550 -0.5896 -0.9895
  923MPD2    H213512   2.743   0.629   9.466 -2.1366 -1.9874  0.6838
  923MPD2    H313513   2.857   0.479   9.594 -0.8332  0.4850  2.0976
  923MPD2     N13514   2.979   0.791   9.905 -0.3774  0.4304 -0.2010
  923MPD2    H513515   3.047   0.726   9.944  1.1419  2.3713  0.3900
  923MPD2    N113516   2.697   0.882   9.522  0.4348 -0.2195 -0.4340
  923MPD2    H713517   2.667   0.846   9.432  0.4456 -0.8338 -0.1865
  924MPD2     C13518   2.909   4.479  16.016 -0.5004  0.1868  0.1488
  924MPD2    C113519   2.842   4.463  16.135  0.2503  0.2945 -0.4711
  924MPD2    C213520   2.835   4.574  16.229 -0.2178 -0.4653  0.4155
  924MPD2    C313521   2.903   4.693  16.204 -0.3493  0.0308 -0.3655
  924MPD2    C413522   2.968   4.697  16.080  0.4701  0.2420  0.0564
  924MPD2    C513523   2.962   4.599  15.988  0.5746 -0.8015  0.2502
  924MPD2     H13524   2.783   4.563  16.322  0.7510  0.5704  1.0869
  924MPD2    H113525   3.026   0.061  16.055 -0.0933  0.9857  1.3306
  924MPD2    H213526   2.929   4.396  15.948 -1.0046 -0.9596  1.3844
  924MPD2    H313527   3.015   4.612  15.895  2.0117  2.5435  1.5352
  924MPD2     N13528   2.905   0.079  16.288 -0.1342  0.0450 -0.4721
  924MPD2    H513529   2.946   0.165  16.254  1.1975  0.4006  2.0552
  924MPD2    N113530   2.787   4.333  16.171 -0.0282 -0.2798 -0.3702
  924MPD2    H713531   2.817   4.257  16.112  0.3880 -1.4969  1.4133
  925MPD2     C13532   1.658   1.980  15.122 -0.3653  0.3484  0.6459
  925MPD2    C113533   1.576   2.092  15.104  0.0998 -0.2514 -0.8814
  925MPD2    C213534   1.480   2.118  15.195 -0.4407 -0.4090  0.4526
  925MPD2    C313535   1.439   2.022  15.285 -0.2187  0.2669  0.2396
  925MPD2    C413536   1.508   1.905  15.285  0.2117  0.1455  0.2787
  925MPD2    C513537   1.623   1.882  15.209 -0.3056 -0.1067 -0.7529
  925MPD2     H13538   1.432   2.215  15.189 -3.2657 -1.8143  0.4825
  925MPD2    H113539   1.475   1.828  15.353  2.7387 -2.5718 -1.5623
  925MPD2    H213540   1.744   1.970  15.057  0.0092  1.8353  0.9036
  925MPD2    H313541   1.681   1.791  15.224 -1.4257 -0.5062  1.0627
  925MPD2     N13542   1.332   2.040  15.381 -0.6317 -0.0033  0.6596
  925MPD2    H513543   1.320   1.957  15.439  0.4892 -1.7090 -1.5396
  925MPD2    N113544   1.608   2.183  15.000 -0.1363 -0.0069  0.6776
  925MPD2    H713545   1.539   2.257  14.997  1.1894  1.1086 -1.5403
  926MPD2     C13546   0.184   0.808  13.328  0.1185 -0.1553  0.7814
  926MPD2    C113547   0.240   0.927  13.386 -0.2634 -0.0780  0.0051
  926MPD2    C213548   0.218   1.038  13.316  0.3243 -0.4299  0.1691
  926MPD2    C313549   0.163   1.035  13.190  0.5193 -0.0917  0.1434
  926MPD2    C413550   0.116   0.914  13.136  0.3847  0.7886 -1.1683
  926MPD2    C513551   0.122   0.795  13.208  0.1377 -0.0245  0.1870
  926MPD2     H13552   0.248   1.133  13.360 -3.0824  0.5150  0.4768
  926MPD2    H113553   0.066   0.917  13.039 -0.6397 -2.4816 -0.7325
  926MPD2    H213554   0.205   0.715  13.378  0.7347 -0.3891  0.0813
  926MPD2    H313555   0.090   0.699  13.169 -0.2906  0.1525  0.1112
  926MPD2     N13556   0.143   1.157  13.120 -0.1505  0.1223  0.2381
  926MPD2    H513557   0.079   1.157  13.041 -1.5703  1.1491  1.3926
  926MPD2    N113558   0.304   0.934  13.510 -0.8726  0.2475 -0.1097
  926MPD2    H713559   0.345   1.025  13.529 -0.7609  0.0675  0.5155
  927MPD2     C13560   4.465   3.402   0.547 -0.3093  0.1777 -0.0193
  927MPD2    C113561   4.477   3.270   0.522  0.6553 -0.2138  0.1009
  927MPD2    C213562   4.536   3.224   0.405 -0.1441  0.3337 -0.6631
  927MPD2    C313563   4.582   3.315   0.311 -1.7904  1.0275 -0.2941
  927MPD2    C413564   4.555   3.451   0.332 -0.1934 -0.4766 -0.1643
  927MPD2    C513565   4.510   3.494   0.449 -0.1370  0.1351 -0.0331
  927MPD2     H13566   4.554   3.117   0.397  1.6810  0.6392 -0.6758
  927MPD2    H113567   4.566   3.525   0.254  0.2820  0.0956  0.4461
  927MPD2    H213568   4.428   3.435   0.643  0.5723  0.9093  0.0688
  927MPD2    H313569   4.500   3.601   0.465 -0.5861 -0.0962  1.1908
  927MPD2     N13570   4.644   3.266   0.194  0.2589 -0.2026  0.4517
  927MPD2    H513571   4.644   3.165   0.178 -0.1568 -0.1516  0.1175
  927MPD2    N113572   4.432   3.179   0.624 -0.3011  0.4648  0.7344
  927MPD2    H713573   4.411   3.219   0.715 -1.5338  0.3933  0.4816
  928MPD2     C13574   2.498   1.783   0.618  0.1511  0.4886 -0.7216
  928MPD2    C113575   2.551   1.825   0.737  0.7304 -0.1646 -0.6316
  928MPD2    C213576   2.690   1.832   0.743 -0.0591  0.0477 -0.0506
  928MPD2    C313577   2.768   1.793   0.633  0.7638 -0.5484  0.5027
  928MPD2    C413578   2.713   1.750   0.519 -0.3228  0.9916  0.1665
  928MPD2    C513579   2.575   1.749   0.512 -1.0177 -0.4357  0.0127
  928MPD2     H13580   2.737   1.876   0.831 -3.7041  1.5532  1.1082
  928MPD2    H113581   2.775   1.719   0.436  0.7885  0.1081  1.3207
  928MPD2    H213582   2.392   1.776   0.597 -0.2157  1.2871  0.8348
  928MPD2    H313583   2.534   1.723   0.415  0.2089  2.0042 -1.1532
  928MPD2     N13584   2.912   1.797   0.643 -0.5174 -0.3739  0.3973
  928MPD2    H513585   2.958   1.761   0.560  0.0200 -0.3345  0.6807
  928MPD2    N113586   2.460   1.858   0.841 -0.2301  0.5972  0.5250
  928MPD2    H713587   2.364   1.834   0.820  0.7482  0.0349 -3.3444
  929MPD2     C13588   2.650   1.409  10.642  0.1604 -0.0728 -0.6754
  929MPD2    C113589   2.602   1.282  10.627  0.3064  0.6851 -0.2135
  929MPD2    C213590   2.501   1.256  10.531  0.2793  0.3058  0.4836
  929MPD2    C313591   2.463   1.356  10.448  0.0239  0.2790  0.6487
  929MPD2    C413592   2.510   1.485  10.464 -0.0233 -0.0823  0.1925
  929MPD2    C513593   2.602   1.514  10.558  0.2523 -0.2395  0.5506
  929MPD2     H13594   2.468   1.156  10.503 -3.1035  2.2058 -2.3523
  929MPD2    H113595   2.473   1.568  10.404 -1.3515 -0.5222  0.4011
  929MPD2    H213596   2.721   1.441  10.717 -0.8568 -0.4470  0.4572
  929MPD2    H313597   2.661   1.604  10.572 -1.2343  0.8302 -0.1119
  929MPD2     N13598   2.379   1.339  10.334  0.3385  0.1380  0.0938
  929MPD2    H513599   2.363   1.425  10.282 -0.1027 -1.3909 -2.3307
  929MPD2    N113600   2.662   1.189  10.714  0.0722  0.3297 -0.1183
  929MPD2    H713601   2.734   1.215  10.781 -0.5154  0.8963  0.2961
  930MPD2     C13602   4.201   3.866  14.374  0.3988  0.2834  0.1647
  930MPD2    C113603   4.236   3.934  14.268 -0.1556 -0.0966 -0.1757
  930MPD2    C213604   4.192   3.896  14.142  0.1603  0.9079  0.1653
  930MPD2    C313605   4.119   3.787  14.128 -0.1131  0.8545 -0.4390
  930MPD2    C413606   4.071   3.713  14.235  0.6750  1.2644  0.3997
  930MPD2    C513607   4.115   3.760  14.359 -0.1673 -0.5343  0.1950
  930MPD2     H13608   4.219   3.942  14.047 -1.0922  0.1057 -0.5708
  930MPD2    H113609   4.003   3.629  14.231  1.8159  0.2936  1.3085
  930MPD2    H213610   4.242   3.896  14.470 -0.7118 -0.4191  0.8677
  930MPD2    H313611   4.088   3.695  14.441 -0.6425  1.0788  1.3183
  930MPD2     N13612   4.092   3.753  13.994  0.0886  0.6951 -0.1005
  930MPD2    H513613   4.142   3.805  13.922  0.8454 -0.5336 -0.4635
  930MPD2    N113614   4.309   4.055  14.291  0.1318  0.0225  0.2836
  930MPD2    H713615   4.331   4.096  14.381 -0.3111 -0.0742  0.4363
  931MPD2     C13616   0.008   2.595   0.993  0.2265  0.3171  0.1340
  931MPD2    C113617   4.673   2.691   1.073  0.5912  0.8214 -0.5938
  931MPD2    C213618   4.717   2.700   1.204  0.1332  0.1253 -0.0007
  931MPD2    C313619   0.087   2.611   1.260  0.1602  0.5353  0.1354
  931MPD2    C413620   0.140   2.524   1.175 -0.5152  0.4729 -0.1819
  931MPD2    C513621   0.110   2.515   1.044  0.0946  0.2348 -0.1351
  931MPD2     H13622   4.692   2.782   1.269 -0.2946  0.4051 -0.5157
  931MPD2    H113623   0.211   2.450   1.211 -2.6016 -1.1339  0.6288
  931MPD2    H213624   4.695   2.576   0.893  0.0113 -2.4986  0.7343
  931MPD2    H313625   0.146   2.433   0.983  2.8387  1.7457 -0.5387
  931MPD2     N13626   0.117   2.606   1.396 -0.5014  0.0500 -0.6735
  931MPD2    H513627   0.198   2.550   1.419  0.7770  0.7566 -3.4899
  931MPD2    N113628   4.580   2.775   1.015 -0.0365 -0.8736  0.1976
  931MPD2    H713629   4.558   2.756   0.917 -1.0865 -2.3947  0.7207
  932MPD2     C13630   1.271   2.333  11.418 -0.8720 -0.4526 -0.2707
  932MPD2    C113631   1.375   2.359  11.341  0.4618 -0.5961  0.8099
  932MPD2    C213632   1.465   2.256  11.313 -0.5131 -0.2439 -0.3478
  932MPD2    C313633   1.463   2.136  11.371  0.3319  0.7907  1.5534
  932MPD2    C413634   1.353   2.106  11.447 -0.8901  0.7167 -0.1659
  932MPD2    C513635   1.255   2.206  11.461  0.6534  0.7136  0.3304
  932MPD2     H13636   1.539   2.291  11.242 -0.0055  2.1861  1.3890
  932MPD2    H113637   1.354   2.014  11.504 -0.6718  1.0927  0.4285
  932MPD2    H213638   1.196   2.410  11.436  0.2868  0.6906 -0.3112
  932MPD2    H313639   1.164   2.182  11.515  0.9675  1.6423  1.2802
  932MPD2     N13640   1.574   2.049  11.375  0.2872  0.2316  0.2490
  932MPD2    H513641   1.567   1.963  11.427 -1.4325  0.5936  0.6040
  932MPD2    N113642   1.392   2.483  11.283  0.3171 -0.2449  0.3575
  932MPD2    H713643   1.451   2.492  11.200  2.8348 -1.6430  2.0176
  933MPD2     C13644   1.808   1.802   0.819  0.2175 -0.5496  0.5169
  933MPD2    C113645   1.842   1.841   0.944  0.1421  0.5634 -0.0580
  933MPD2    C213646   1.742   1.868   1.035  0.8550  0.4643  0.3836
  933MPD2    C313647   1.611   1.875   0.992  0.3341 -0.2764  0.7314
  933MPD2    C413648   1.579   1.839   0.864 -0.4413 -0.0596  0.5437
  933MPD2    C513649   1.679   1.797   0.777  0.1798 -0.4915 -0.1320
  933MPD2     H13650   1.764   1.888   1.139  1.4686 -3.4033  0.9764
  933MPD2    H113651   1.481   1.841   0.818  0.7161 -0.0648 -1.9343
  933MPD2    H213652   1.885   1.763   0.753 -0.1345 -2.1218  1.0255
  933MPD2    H313653   1.651   1.757   0.680 -0.6170  1.0652 -0.5473
  933MPD2     N13654   1.514   1.910   1.086 -0.5647 -0.4895 -0.1138
  933MPD2    H513655   1.555   1.939   1.175  0.6236 -0.3488 -0.6982
  933MPD2    N113656   1.977   1.852   0.973 -0.3424  0.0901 -0.0067
  933MPD2    H713657   2.039   1.814   0.902 -0.2200  0.7453 -0.2529
  934MPD2     C13658   3.416   3.523   2.784  0.7780  0.0833  0.5015
  934MPD2    C113659   3.516   3.476   2.709 -0.3983 -0.6045 -0.1588
  934MPD2    C213660   3.497   3.478   2.568 -0.7847 -0.5292  1.5291
  934MPD2    C313661   3.373   3.531   2.508  0.0017  0.1356  0.3849
  934MPD2    C413662   3.280   3.584   2.595  0.4520 -0.1244  0.9653
  934MPD2    C513663   3.301   3.581   2.728 -0.4024 -0.6536  0.1180
  934MPD2     H13664   3.574   3.442   2.501 -0.8413  0.8171  0.7474
  934MPD2    H113665   3.194   3.636   2.555  0.4968  0.2283  1.3393
  934MPD2    H213666   3.422   3.521   2.892 -0.1288 -2.2683  0.5105
  934MPD2    H313667   3.224   3.633   2.785  0.1527  2.1653 -1.7252
  934MPD2     N13668   3.343   3.520   2.369  0.1129 -0.1037  0.0560
  934MPD2    H513669   3.251   3.553   2.341  0.8811  0.7558 -1.4531
  934MPD2    N113670   3.640   3.436   2.768  0.2925  0.2859 -0.5576
  934MPD2    H713671   3.707   3.396   2.702  2.6576  1.4725  1.1204
  935MPD2     C13672   3.920   3.047   1.749  0.7557  0.1200 -0.3246
  935MPD2    C113673   3.802   3.055   1.671 -0.0640  0.2936 -0.4439
  935MPD2    C213674   3.695   3.132   1.722 -0.0415 -0.2596  0.4447
  935MPD2    C313675   3.697   3.189   1.847 -0.1198 -0.3862  0.2717
  935MPD2    C413676   3.805   3.166   1.926 -0.3121 -0.2214  0.3066
  935MPD2    C513677   3.920   3.112   1.869 -0.4964  0.2197  0.1559
  935MPD2     H13678   3.609   3.143   1.657  0.9692 -1.1629 -1.0469
  935MPD2    H113679   3.807   3.197   2.030 -2.3051 -2.1382  0.9156
  935MPD2    H213680   4.010   3.000   1.712 -0.0822 -0.7814 -1.2081
  935MPD2    H313681   4.009   3.089   1.927 -0.5189  1.8902  0.8431
  935MPD2     N13682   3.585   3.251   1.904 -0.1162  0.1363 -0.0161
  935MPD2    H513683   3.596   3.294   1.995  1.5527  1.1332 -0.6900
  935MPD2    N113684   3.795   3.015   1.533  0.6737 -0.7288 -0.7342
  935MPD2    H713685   3.725   3.056   1.472 -0.5434 -1.1290  0.3941
  936MPD2     C13686   2.544   0.437  12.847  0.1870 -0.2503 -0.1728
  936MPD2    C113687   2.441   0.401  12.763 -0.1831 -0.6804 -0.1522
  936MPD2    C213688   2.471   0.373  12.630 -0.1696  0.4642 -0.0346
  936MPD2    C313689   2.599   0.360  12.588 -0.0172  0.4319  0.1983
  936MPD2    C413690   2.702   0.390  12.682 -0.4725  0.2442  0.0440
  936MPD2    C513691   2.671   0.426  12.807 -0.1426 -0.0035 -0.5472
  936MPD2     H13692   2.386   0.346  12.567 -1.3495  0.9170  1.3754
  936MPD2    H113693   2.808   0.384  12.658 -0.7770  0.3872 -1.3496
  936MPD2    H213694   2.526   0.450  12.953 -0.5385 -0.4995 -0.2670
  936MPD2    H313695   2.755   0.434  12.874 -2.4169  2.0656  2.0645
  936MPD2     N13696   2.637   0.327  12.453  0.3768 -0.3652  0.4314
  936MPD2    H513697   2.736   0.332  12.428  0.2068 -1.1417 -0.3942
  936MPD2    N113698   2.304   0.416  12.784  0.1519  0.3590 -0.7830
  936MPD2    H713699   2.244   0.389  12.707 -0.7727 -0.7512  0.3299
  937MPD2     C13700   4.670   1.595  11.870  0.1073  0.7232 -0.1368
  937MPD2    C113701   0.005   1.718  11.894  0.6435 -0.4197 -0.3656
  937MPD2    C213702   0.132   1.737  11.843  0.4602 -0.7192 -1.5544
  937MPD2    C313703   0.211   1.637  11.786 -0.1742  0.0881 -0.4278
  937MPD2    C413704   0.147   1.518  11.760  0.3716  0.0373  0.3670
  937MPD2    C513705   0.023   1.502  11.804 -0.3334 -0.2634  0.3844
  937MPD2     H13706   0.184   1.825  11.881 -0.1203 -1.0434 -0.0310
  937MPD2    H113707   0.197   1.429  11.724  0.0557 -0.5922  1.4807
  937MPD2    H213708   4.573   1.575  11.915  0.2096 -0.7572 -0.5950
  937MPD2    H313709   4.700   1.404  11.797  1.2397 -1.1523  2.6663
  937MPD2     N13710   0.350   1.658  11.752  0.3880  0.0847  0.4377
  937MPD2    H513711   0.391   1.751  11.761 -0.9747  0.8115 -0.8785
  937MPD2    N113712   4.650   1.835  11.928  0.3215 -0.2349 -0.0562
  937MPD2    H713713   4.703   1.920  11.945 -3.0953  1.8035  0.3771
  938MPD2     C13714   2.554   3.431   0.650  0.1726  0.5556  0.5822
  938MPD2    C113715   2.629   3.425   0.769  0.0008 -0.1182  0.3340
  938MPD2    C213716   2.589   3.336   0.869  0.1569 -0.2138 -0.4615
  938MPD2    C313717   2.477   3.262   0.864  0.2757  0.1410 -0.3010
  938MPD2    C413718   2.402   3.270   0.746 -0.3335 -0.1622  0.2805
  938MPD2    C513719   2.443   3.354   0.644 -0.4816  0.1952 -0.3469
  938MPD2     H13720   2.648   3.341   0.960 -0.4370 -3.1914  0.0613
  938MPD2    H113721   2.316   3.205   0.733 -0.3552 -0.0585 -0.0835
  938MPD2    H213722   2.573   3.504   0.572  2.6450 -1.6739 -0.9065
  938MPD2    H313723   2.372   3.373   0.564 -0.4095  0.1777 -0.4152
  938MPD2     N13724   2.430   3.166   0.961  0.6217 -0.1108 -0.5287
  938MPD2    H513725   2.344   3.116   0.943  0.3462 -0.4772  1.7847
  938MPD2    N113726   2.736   3.519   0.794 -0.5149  0.5651 -0.0217
  938MPD2    H713727   2.781   3.515   0.885  3.5890 -0.3030 -2.0736
  939MPD2     C13728   4.052   4.261   1.702 -0.4072  0.5124 -0.2561
  939MPD2    C113729   3.974   4.335   1.616 -0.7150 -0.2435  0.0771
  939MPD2    C213730   4.014   4.340   1.482 -0.0094 -0.3515 -0.0723
  939MPD2    C313731   4.134   4.288   1.438 -0.8018  0.8997  0.0250
  939MPD2    C413732   4.217   4.221   1.533 -0.1615 -0.0998  0.1891
  939MPD2    C513733   4.175   4.206   1.659 -0.1472 -0.2333 -0.1087
  939MPD2     H13734   3.964   4.398   1.405  0.8179 -1.9042 -1.7660
  939MPD2    H113735   4.313   4.178   1.507  0.3457  1.4764 -0.5763
  939MPD2    H213736   4.033   4.258   1.808  0.7220  0.3565 -0.0579
  939MPD2    H313737   4.231   4.143   1.727  0.0185  0.4191  0.3600
  939MPD2     N13738   4.165   4.322   1.307 -0.4387 -0.7492 -0.0951
  939MPD2    H513739   4.096   4.378   1.258  0.3820  1.4318  1.2237
  939MPD2    N113740   3.852   4.391   1.660  0.3685  0.1330  0.0974
  939MPD2    H713741   3.825   4.388   1.758  1.3237 -0.1431  0.3528
  940MPD2     C13742   3.174   0.442  12.917 -0.5961 -0.1147  0.7297
  940MPD2    C113743   3.071   0.403  12.996  0.2460 -0.3447  0.0036
  940MPD2    C213744   2.987   0.305  12.940  0.3125  0.5078 -0.4731
  940MPD2    C313745   3.010   0.256  12.807 -0.6906 -0.0076  0.0741
  940MPD2    C413746   3.105   0.313  12.728  0.4800  0.2044 -0.4134
  940MPD2    C513747   3.187   0.409  12.785  0.8888 -0.0571  0.3029
  940MPD2     H13748   2.915   0.259  13.006 -0.4615  2.2316 -0.1326
  940MPD2    H113749   3.124   0.272  12.629  1.3755  1.4905 -0.7760
  940MPD2    H213750   3.251   0.511  12.949  0.4204 -1.5699  1.3955
  940MPD2    H313751   3.272   0.449  12.731  0.0066 -0.0655 -1.1050
  940MPD2     N13752   2.934   0.153  12.743  0.7028 -0.2140  1.0731
  940MPD2    H513753   2.953   0.125  12.647  1.1477 -0.1852  1.1539
  940MPD2    N113754   3.056   0.444  13.130  0.9397  0.2864 -0.1005
  940MPD2    H713755   2.981   0.395  13.178  0.4665  0.1522 -0.9802
  941MPD2     C13756   1.834   4.198   9.321 -0.2375 -0.2734  0.3005
  941MPD2    C113757   1.917   4.135   9.416 -0.1876 -0.0751  0.3983
  941MPD2    C213758   1.919   4.000   9.410  0.3653  0.1582 -0.3784
  941MPD2    C313759   1.832   3.924   9.322  0.3959  0.6672 -0.3631
  941MPD2    C413760   1.750   3.989   9.239  0.4607 -0.0470  0.1971
  941MPD2    C513761   1.745   4.129   9.249 -0.5472 -0.8019 -0.5280
  941MPD2     H13762   1.983   3.955   9.485  2.4252 -0.4711 -2.5042
  941MPD2    H113763   1.686   3.935   9.170 -0.5827 -0.6081  1.6111
  941MPD2    H213764   1.829   4.306   9.330  2.7927 -0.3214  2.2815
  941MPD2    H313765   1.672   4.175   9.183  0.3863  1.0321 -0.2975
  941MPD2     N13766   1.814   3.785   9.325 -0.2048 -0.0067  0.3442
  941MPD2    H513767   1.742   3.749   9.263  0.5886  0.2609 -0.7359
  941MPD2    N113768   2.002   4.197   9.505  0.3092  0.2803  0.6756
  941MPD2    H713769   2.021   4.143   9.589  1.4689  0.2170  0.3731
  942MPD2     C13770   1.635   0.550   9.578 -0.0403 -0.0113 -0.2044
  942MPD2    C113771   1.622   0.589   9.446 -1.0232 -0.0628 -0.4567
  942MPD2    C213772   1.654   0.719   9.413  0.6028  0.6188 -0.0349
  942MPD2    C313773   1.705   0.809   9.505  0.1923  0.2152  0.3904
  942MPD2    C413774   1.744   0.756   9.621 -0.6419  0.3664  0.7482
  942MPD2    C513775   1.707   0.631   9.661 -0.5350 -0.7147 -0.9075
  942MPD2     H13776   1.645   0.750   9.309  1.5203  0.3752 -0.1839
  942MPD2    H113777   1.787   0.814   9.702  0.6786 -0.3991  0.6033
  942MPD2    H213778   1.609   0.448   9.603  0.2171 -0.3107 -1.1567
  942MPD2    H313779   1.731   0.599   9.762 -0.1031 -2.9583 -1.7405
  942MPD2     N13780   1.724   0.949   9.487  0.5717 -0.1034  0.2652
  942MPD2    H513781   1.766   0.992   9.569  0.9924  1.6260 -0.8627
  942MPD2    N113782   1.586   0.498   9.340  0.3406  0.5772 -0.1384
  942MPD2    H713783   1.551   0.523   9.248 -0.0151  1.7676  0.3178
  943MPD2     C13784   4.281   2.904   9.817  0.4002 -0.7248 -0.1834
  943MPD2    C113785   4.180   2.816   9.843 -0.4918 -0.1513 -0.1814
  943MPD2    C213786   4.060   2.819   9.775  0.5293  0.6570  0.4983
  943MPD2    C313787   4.043   2.924   9.687 -0.1661 -1.1034 -0.0200
  943MPD2    C413788   4.147   3.010   9.658  0.8153  0.6920  0.3568
  943MPD2    C513789   4.269   2.996   9.719 -0.9987 -0.0073  0.3395
  943MPD2     H13790   3.982   2.745   9.789 -0.8194  1.8255 -0.9975
  943MPD2    H113791   4.146   3.087   9.581 -0.6419  0.1974 -0.1102
  943MPD2    H213792   4.373   2.890   9.872 -0.3822  1.1760  1.5942
  943MPD2    H313793   4.353   3.062   9.697 -1.4393 -0.0441 -1.5049
  943MPD2     N13794   3.932   2.946   9.612 -0.5658 -0.3188  0.1653
  943MPD2    H513795   3.931   3.029   9.553  0.2027 -1.8104 -1.9587
  943MPD2    N113796   4.216   2.706   9.922 -0.1171  0.0381  0.3439
  943MPD2    H713797   4.310   2.711   9.961 -0.5033  3.4527  0.7895
  944MPD2     C13798   0.895   2.507  11.171 -0.7950 -0.3467 -0.0718
  944MPD2    C113799   0.925   2.632  11.214 -0.4979 -0.3344 -0.9844
  944MPD2    C213800   0.867   2.682  11.334 -0.8132  0.3907 -0.1831
  944MPD2    C313801   0.781   2.607  11.408  0.2053  0.9810  0.2777
  944MPD2    C413802   0.745   2.485  11.358 -0.3897 -0.2425  0.1318
  944MPD2    C513803   0.798   2.436  11.242  0.1714  0.4934 -0.6135
  944MPD2     H13804   0.887   2.782  11.371  1.4807 -0.8455  1.8918
  944MPD2    H113805   0.670   2.429  11.414 -2.8485 -0.4734 -3.3982
  944MPD2    H213806   0.935   2.471  11.077 -0.2113 -0.8829  0.3894
  944MPD2    H313807   0.777   2.334  11.209  3.3604 -0.8050  1.3792
  944MPD2     N13808   0.753   2.652  11.542 -0.1507 -0.2263 -0.4561
  944MPD2    H513809   0.793   2.742  11.565 -1.7667  0.9082 -2.0694
  944MPD2    N113810   1.007   2.711  11.128  0.0563 -0.3102  0.1606
  944MPD2    H713811   1.030   2.662  11.041  1.3625 -0.0150  0.3478
    1TCq1    O113812   2.847   4.351  14.740 -0.1480  0.2744  0.4824
    1TCq1    C113813   2.810   4.242  14.812  0.3467 -0.2262  0.5627
    1TCq1    O213814   2.716   4.169  14.788 -0.1433  0.1665  0.7106
    1TCq1    C213815   2.899   4.203  14.928  0.2438 -0.8603 -0.2295
    1TCq1    C313816   2.861   4.091  14.995 -0.2170 -0.1467 -0.2035
    1TCq1    C413817   2.920   4.059  15.114 -0.2972 -0.3792 -0.0844
    1TCq1    C513818   3.027   4.137  15.159 -0.2253 -0.2909 -0.5621
    1TCq1    C613819   3.075   4.233  15.080  0.2518 -0.2653 -0.2300
    1TCq1    C713820   3.012   4.272  14.958  0.0739  0.1081 -0.3551
    1TCq1    C813821   3.196   4.300  15.131 -0.1644  0.2252  0.5442
    1TCq1    O413822   3.248   4.253  15.232 -0.0694  0.1426  0.0623
    1TCq1    C913823   2.893   3.933  15.174  0.8059 -0.2963  0.3682
    1TCq1    O513824   2.953   3.906  15.276  0.1877 -0.0377 -0.2303
    1TCq1    O613825   2.833   3.854  15.099  0.5561  0.0988 -0.2965
    1TCq1    H113826   2.892   4.422  14.790  2.2290  0.2385 -1.6038
    1TCq1    H213827   2.780   4.032  14.955 -0.2672  0.0816 -0.4413
    1TCq1    H313828   3.079   4.093  15.244 -3.5568  0.9964  2.1427
    1TCq1    H413829   3.044   4.357  14.899  0.0364 -0.1139 -0.6941
    2MPD2     C13830   3.584   4.634  15.058 -0.4413  0.1872  0.1095
    2MPD2    C113831   3.481   4.666  14.977 -0.1583 -0.2289 -0.0675
    2MPD2    C213832   3.362   4.595  14.979  0.0378 -0.1924 -0.1693
    2MPD2    C313833   3.349   4.485  15.064 -0.0877 -0.0268 -0.6314
    2MPD2    C413834   3.449   4.450  15.149  0.0325 -0.1670  0.2379
    2MPD2    C513835   3.574   4.524  15.145  0.0882  0.4264  0.1978
    2MPD2     H13836   3.279   4.609  14.910 -0.5885  0.1959  0.6499
    2MPD2    H113837   3.457   4.352  15.195 -2.1872 -0.2725  0.4235
    2MPD2    H213838   3.677   4.689  15.056  0.5275 -1.5998 -3.7794
    2MPD2    H313839   3.661   4.497  15.204  0.4404 -0.6006 -0.7890
    2MPD2     N13840   3.226   4.411  15.060 -0.2434  0.1371  0.4518
    2MPD2    H513841   3.158   4.426  14.986 -1.2870  0.2079  1.4169
    2MPD2    N113842   3.502   0.052  14.890  0.2246 -0.5590  0.4017
    2MPD2    H713843   3.592   0.096  14.898  0.1146 -0.1902 -0.4526
    3TMC2    C113844   3.433   0.227  14.740 -0.0260  1.0956 -0.2743
    3TMC2    C213845   3.494   0.315  14.815  0.2358  0.7541  0.1867
    3TMC2    C313846   3.519   0.435  14.761  0.1281  0.6848 -0.1622
    3TMC2    C413847   3.373   0.256  14.617  0.5201 -0.7389  0.3814
    3TMC2    C513848   3.400   0.381  14.567 -0.0406 -0.3967  1.0095
    3TMC2    C613849   3.467   0.478  14.641 -0.5843  0.1536  0.2964
    3TMC2     C13850   3.418   0.091  14.792 -0.3467 -0.1630  0.6550
    3TMC2     O13851   3.326   0.034  14.742  0.2301  0.0904  0.4406
    3TMC2     H13852   3.509   0.299  14.921  1.3469 -0.9235 -0.2382
    3TMC2    H113853   3.331   0.180  14.553 -0.3586 -1.4065  1.7486
    3TMC2    H213854   3.480   0.582  14.611 -0.2464  0.6406  2.1591
    3TMC2    C713855   3.330   0.415  14.445 -1.1729  0.2446  0.3678
    3TMC2    C813856   3.582   0.538  14.846  0.3184  0.4271 -0.5887
    3TMC2    O113857   3.245   0.338  14.406  0.7651  0.1157  0.5583
    3TMC2    O213858   3.584   0.661  14.830 -0.0426  0.0666 -0.1064
    3TMC2    O513859   3.674   0.460  14.903 -0.4273  0.5075 -0.1561
    3TMC2    H513860   3.671   0.363  14.885 -1.6464  0.2374  1.5249
    4MPD2     C13861   3.012   1.549  13.819  1.1666 -0.0014 -0.0879
    4MPD2    C113862   3.001   1.412  13.827  0.0104 -0.2436 -0.6342
    4MPD2    C213863   3.120   1.340  13.857 -0.0575  0.5548 -0.3471
    4MPD2    C313864   3.236   1.411  13.882  0.6690 -0.4545 -0.5828
    4MPD2    C413865   3.237   1.549  13.874 -0.2074 -0.0453 -0.7071
    4MPD2    C513866   3.126   1.619  13.841  0.7419 -0.4427  0.2631
    4MPD2     H13867   3.125   1.233  13.867  3.2638  0.8719  1.0711
    4MPD2    H113868   3.322   1.613  13.894 -1.1040  0.6511  0.8225
    4MPD2    H213869   2.918   1.598  13.798  0.2041 -1.7668  0.1234
    4MPD2    H313870   3.138   1.723  13.815 -0.0926 -0.5466 -0.5579
    4MPD2     N13871   3.345   1.345  13.934  0.0482 -0.3169  0.3652
    4MPD2    H513872   3.335   1.243  13.934  2.5841 -0.5579 -1.5585
    4MPD2    N113873   2.880   1.348  13.793  0.6852  0.0057 -0.7694
    4MPD2    H713874   2.805   1.413  13.773 -0.5433 -1.4316 -0.8788
    5TCq2    C113875   3.461   1.400  13.985 -0.3780  0.4103 -0.5069
    5TCq2    O213876   3.491   1.516  13.998  0.2668 -0.1179  0.2740
    5TCq2    C213877   3.558   1.294  14.025 -0.6105  0.3199  0.2488
    5TCq2    C313878   3.686   1.331  14.040  0.4362  0.5596 -0.1961
    5TCq2    C413879   3.775   1.241  14.093 -0.2793  0.4008 -0.0267
    5TCq2    C513880   3.730   1.112  14.122  0.0006 -0.5015  0.1622
    5TCq2    C613881   3.599   1.083  14.103 -0.0256  0.0515 -0.0857
    5TCq2    C713882   3.503   1.169  14.055 -0.4446  0.8165  0.3273
    5TCq2    C813883   3.552   0.951  14.147  0.4961 -0.9259  0.4956
    5TCq2    O413884   3.643   0.878  14.202  0.1524 -0.2531  1.1831
    5TCq2    C913885   3.917   1.265  14.096  0.6272  0.5230 -0.1929
    5TCq2    O513886   3.951   1.381  14.062 -0.3302 -0.0771 -0.5244
    5TCq2    O613887   4.001   1.183  14.137 -0.0938  0.0770  0.4256
    5TCq2    H213888   3.722   1.429  14.009 -1.4362  1.7160  1.3260
    5TCq2    H313889   3.807   1.044  14.157  1.9526  2.1991  1.1204
    5TCq2    H413890   3.397   1.151  14.050 -0.2134 -0.4431 -0.0279
    6MPD1     C13891   2.156   1.485  12.586 -0.3899 -0.7734 -0.4773
    6MPD1    C113892   2.052   1.545  12.656  0.3331  0.7566 -0.4008
    6MPD1    C213893   1.986   1.461  12.748 -0.0941  0.4589  0.3544
    6MPD1    C313894   2.036   1.336  12.775  0.1586  0.0678  0.0415
    6MPD1    C413895   2.151   1.292  12.706 -0.1683  0.4172  0.3954
    6MPD1    C513896   2.209   1.367  12.615 -0.3729 -0.6327  0.2358
    6MPD1     H13897   1.885   1.493  12.770  0.5723  3.4361 -0.8383
    6MPD1    H113898   2.196   1.197  12.731 -1.8993 -0.4868  0.0440
    6MPD1    H213899   2.213   1.536  12.510 -0.7862  2.0273  1.0863
    6MPD1    H313900   2.300   1.333  12.567  0.6763  0.7158  1.2850
    6MPD1     N13901   1.970   1.247  12.861  0.4740  0.1651  0.0805
    6MPD1    H513902   2.005   1.152  12.868 -0.4090 -0.1620 -0.0535
    6MPD1    N113903   1.982   1.652  12.606 -0.2184  0.3119  0.6221
    6MPD1    H613904   1.922   1.690  12.680 -1.3453 -0.9851  0.3750
    6MPD1    H713905   2.042   1.724  12.566  1.6146 -1.0531  0.9683
    7MPD2     C13906   1.870   1.270  13.701 -0.3547 -0.1644  0.2724
    7MPD2    C113907   1.965   1.247  13.599  0.4653 -0.3840 -0.4333
    7MPD2    C213908   2.101   1.234  13.637 -0.0183  0.4811 -0.0583
    7MPD2    C313909   2.149   1.250  13.768  0.6523 -0.1514  0.1695
    7MPD2    C413910   2.054   1.288  13.858  0.5980 -0.2797  0.1676
    7MPD2    C513911   1.917   1.296  13.826 -0.8003  0.1484 -0.8800
    7MPD2     H13912   2.166   1.198  13.558  0.3299 -1.6343  1.1576
    7MPD2    H113913   2.083   1.304  13.962 -0.2174 -2.8107  0.7923
    7MPD2    H213914   1.764   1.276  13.677  0.0459  2.2619 -0.8992
    7MPD2    H313915   1.851   1.330  13.905 -1.0763  2.1800 -1.9867
    7MPD2     N13916   2.282   1.231  13.808 -0.3648 -0.4127  0.0415
    7MPD2    H513917   2.296   1.219  13.908 -1.2367 -0.2306  0.1882
    7MPD2    N113918   1.938   1.217  13.462  0.2640  0.2510 -0.0681
    7MPD2    H713919   2.022   1.200  13.408  0.9639 -0.5425  1.2837
    8TMC3    C113920   2.500   1.157  13.765 -0.1668 -0.3542 -0.6103
    8TMC3    C213921   2.621   1.224  13.774 -0.0949  0.0300  0.1994
    8TMC3    C313922   2.737   1.161  13.739  0.3631  0.5806 -0.0902
    8TMC3    C413923   2.506   1.030  13.709 -0.0363 -0.0686 -0.4873
    8TMC3    C513924   2.622   0.974  13.666 -0.5742 -0.0217 -0.1655
    8TMC3    C613925   2.739   1.037  13.679 -0.2964 -0.1879 -0.0510
    8TMC3     C13926   2.383   1.223  13.718 -0.3827  0.4988  0.1141
    8TMC3     O13927   2.395   1.245  13.601  0.2710 -0.3842  0.6985
    8TMC3     H13928   2.614   1.329  13.797 -0.4238 -0.0413  0.4182
    8TMC3    H113929   2.415   0.971  13.707 -1.8888  2.8505 -1.5594
    8TMC3    H213930   2.832   0.992  13.645 -1.2095 -0.8065 -1.7551
    8TMC3    C713931   2.622   0.895  13.543 -0.5995  0.6068 -0.0003
    8TMC3    C813932   2.870   1.212  13.776  0.8229 -0.2956 -0.0498
    8TMC3    O113933   2.716   0.821  13.507 -0.8403 -0.3696 -0.0259
    8TMC3    O213934   2.961   1.128  13.772  0.1423  0.4454 -0.0230
    9TMC3    C113935   1.840   1.181  13.047  0.0056  0.1713 -0.6670
    9TMC3    C213936   1.891   1.057  13.026 -0.0901 -0.1676  0.6354
    9TMC3    C313937   1.913   0.976  13.138 -0.1449 -0.3999  0.2116
    9TMC3    C413938   1.807   1.229  13.174  0.0203 -0.0997 -0.1688
    9TMC3    C513939   1.835   1.140  13.275 -0.1460 -0.2087 -0.3473
    9TMC3    C613940   1.895   1.024  13.259 -0.1476 -0.4135  0.0782
    9TMC3     C13941   1.869   1.282  12.948  0.0582  0.6387  0.2344
    9TMC3     O13942   1.834   1.396  12.971 -0.0455 -0.0576  0.3257
    9TMC3     H13943   1.928   1.021  12.931 -0.1033  1.3193  0.0688
    9TMC3    H113944   1.771   1.328  13.199  0.3160  0.4842 -2.0961
    9TMC3    H213945   1.912   0.962  13.346  3.0287  0.4932  0.1197
    9TMC3    C713946   1.819   1.198  13.404 -0.5314  0.6763  0.1395
    9TMC3    C813947   2.037   0.900  13.121  0.1431  0.0635 -0.1048
    9TMC3    O113948   1.705   1.235  13.430 -0.2774 -0.5859  0.3087
    9TMC3    O213949   2.052   0.842  13.019 -0.0411  0.0634 -0.2568
   10MPD2     C13950   2.519   0.797  13.289 -0.1107  0.0615  0.3667
   10MPD2    C113951   2.451   0.891  13.363  0.3025 -0.8330 -0.9117
   10MPD2    C213952   2.321   0.931  13.338  0.4355  0.5473 -0.2048
   10MPD2    C313953   2.253   0.877  13.234  0.9141  0.6167  0.5037
   10MPD2    C413954   2.315   0.785  13.153 -0.0892 -0.2427 -0.2763
   10MPD2    C513955   2.446   0.750  13.180 -0.3609  0.0094 -0.7290
   10MPD2     H13956   2.281   1.018  13.389  0.3327  0.1885  0.3370
   10MPD2    H113957   2.260   0.745  13.068 -1.7947 -0.1071  0.7458
   10MPD2    H213958   2.620   0.762  13.306  0.0371 -0.4160 -1.3966
   10MPD2    H313959   2.487   0.673  13.116 -0.9406  0.8846 -2.1560
   10MPD2     N13960   2.123   0.933  13.222  0.5581 -0.1160  0.0431
   10MPD2    H513961   2.097   1.009  13.283 -0.5627  0.1283 -0.7288
   10MPD2    N113962   2.508   0.934  13.478  0.2394 -0.3942 -0.2746
   10MPD2    H713963   2.452   0.998  13.533  1.4722  1.3048 -0.9894
   11MPD2     C13964   3.222   0.569  14.204  0.0787  0.3704  0.0271
   11MPD2    C113965   3.338   0.601  14.273  0.3916 -0.0387  0.1572
   11MPD2    C213966   3.416   0.706  14.236  0.1092 -0.4916 -0.3053
   11MPD2    C313967   3.358   0.795  14.135  0.1399  0.8212  0.2638
   11MPD2    C413968   3.245   0.762  14.069 -0.2523  0.2321 -0.2736
   11MPD2    C513969   3.179   0.649  14.109  0.6408 -1.4115 -0.0251
   11MPD2     H13970   3.515   0.723  14.277  1.1897 -1.5506 -2.4665
   11MPD2    H113971   3.200   0.825  13.993  0.3288 -0.3456 -1.1038
   11MPD2    H213972   3.160   0.483  14.224 -0.6891  0.7249 -0.8429
   11MPD2    H313973   3.082   0.624  14.068  0.6741  0.5618 -1.3278
   11MPD2     N13974   3.429   0.914  14.101  0.0605 -0.4244 -0.3882
   11MPD2    H513975   3.382   0.970  14.031 -1.3477 -2.5512 -1.1439
   11MPD2    N113976   3.386   0.525  14.383  0.2993  0.2802  0.7976
   11MPD2    H713977   3.475   0.560  14.415  1.5290 -1.2331 -0.9487
    1MPD1     C13978   1.341   1.223  17.423 -0.1605 -0.4164  0.0690
    1MPD1    C113979   1.211   1.252  17.393  0.3535  0.0324 -0.6817
    1MPD1    C213980   1.178   1.374  17.343 -0.1581  0.1501 -0.6909
    1MPD1    C313981   1.270   1.477  17.349 -0.3049  0.5210 -0.4197
    1MPD1    C413982   1.396   1.454  17.409  0.4229  0.4723  0.0041
    1MPD1    C513983   1.434   1.324  17.438  0.2966 -0.6497  1.1426
    1MPD1     H13984   1.078   1.388  17.304 -0.1015  2.1508 -0.1184
    1MPD1    H113985   1.478   1.522  17.432  0.4784  1.3611 -2.8022
    1MPD1    H213986   1.379   1.127  17.456  1.4602 -0.6327 -2.3932
    1MPD1    H313987   1.537   1.299  17.461  1.0925  0.9657 -0.6735
    1MPD1     N13988   1.246   1.610  17.301 -1.0764  0.4991 -0.3368
    1MPD1    H513989   1.316   1.680  17.324 -1.2028  0.2085  0.8862
    1MPD1    N113990   1.115   1.152  17.377  0.3648  0.3764 -0.1443
    1MPD1    H613991   1.140   1.072  17.436  0.0748  0.8257  0.5909
    1MPD1    H713992   1.020   1.186  17.387  0.4780  0.5369  0.3907
    2MPD1     C13993   1.788   2.350  17.092 -0.2800  0.4770 -0.1367
    2MPD1    C113994   1.728   2.350  16.967  0.2229  0.0664 -0.6746
    2MPD1    C213995   1.615   2.273  16.961 -0.0552 -0.6921 -0.1812
    2MPD1    C313996   1.572   2.192  17.071 -0.2497  0.4106  0.0089
    2MPD1    C413997   1.640   2.200  17.189  0.0386  0.2157  0.1436
    2MPD1    C513998   1.747   2.282  17.204  0.0532 -0.1866 -0.3590
    2MPD1     H13999   1.547   2.270  16.877  0.1506  1.9782 -0.4113
    2MPD1    H114000   1.607   2.147  17.277 -2.0223 -0.9829 -1.3748
    2MPD1    H214001   1.881   2.406  17.095  0.7411 -1.1824 -0.3838
    2MPD1    H314002   1.805   2.289  17.295 -0.4254 -0.0526 -0.0702
    2MPD1     N14003   1.451   2.122  17.052 -0.7677  0.2473  0.1991
    2MPD1    H514004   1.400   2.128  16.964 -0.1041  0.3916 -0.1712
    2MPD1    N114005   1.784   2.409  16.853 -0.1234 -0.2952 -0.7254
    2MPD1    H614006   1.721   2.444  16.782  0.8639  2.3780 -0.2727
    2MPD1    H714007   1.846   2.487  16.871 -1.0372  0.0988  0.7310
    3TMC3    C114008   1.276   1.973  17.114 -0.2948  0.0259 -0.0044
    3TMC3    C214009   1.172   2.048  17.074 -0.7213  0.0882 -0.7938
    3TMC3    C314010   1.049   1.973  17.074  0.8161 -0.6977  0.6669
    3TMC3    C414011   1.268   1.850  17.171  0.0050 -0.3131 -0.3784
    3TMC3    C514012   1.144   1.797  17.179  0.3392  0.0830 -0.0611
    3TMC3    C614013   1.031   1.853  17.127  0.2739 -0.0318  0.3760
    3TMC3     C14014   1.398   2.041  17.148 -0.7861 -0.5367  0.2046
    3TMC3     O14015   1.447   2.015  17.259  0.2051  1.1069 -0.3665
    3TMC3     H14016   1.186   2.155  17.057  2.0860 -0.0781  0.4016
    3TMC3    H114017   1.360   1.795  17.185  0.2272  0.6588  1.8991
    3TMC3    H214018   0.936   1.801  17.131 -0.9366  2.0948 -1.2140
    3TMC3    C714019   1.136   1.662  17.236 -0.5163 -0.8999  0.4812
    3TMC3    C814020   0.944   2.044  17.004  0.4725  0.2504 -0.2603
    3TMC3    O114021   1.033   1.598  17.211 -0.1733  0.1715  0.1175
    3TMC3    O214022   0.835   1.999  17.030  0.0968  0.0381 -0.0651
    4MPD1     C14023   0.780   2.363  16.626 -0.1092  0.3041 -0.0167
    4MPD1    C114024   0.912   2.382  16.644 -0.6008 -0.0144 -0.3070
    4MPD1    C214025   0.975   2.323  16.750 -0.1205  0.6688  0.7547
    4MPD1    C314026   0.910   2.222  16.833  0.4328 -0.1155 -0.3729
    4MPD1    C414027   0.779   2.199  16.810 -0.4355 -0.0249 -0.0825
    4MPD1    C514028   0.714   2.278  16.722 -0.4711 -0.3587 -0.0815
    4MPD1     H14029   1.080   2.346  16.758  0.3551 -1.6472  1.3198
    4MPD1    H114030   0.724   2.131  16.875 -0.0987  0.2860  0.5245
    4MPD1    H214031   0.720   2.413  16.551 -1.0978 -2.3688 -0.9973
    4MPD1    H314032   0.606   2.278  16.715 -0.4412 -0.6118 -0.4766
    4MPD1     N14033   0.991   2.139  16.919 -0.3099  0.7683  0.1597
    4MPD1    H514034   1.088   2.167  16.931 -0.1853 -0.3180  1.6946
    4MPD1    N114035   0.985   2.474  16.559  0.0924  0.6999 -1.0077
    4MPD1    H614036   1.085   2.464  16.544 -0.2348 -1.9001 -1.4920
    4MPD1    H714037   0.938   2.493  16.471 -0.4452  2.2912 -0.3699
    1TCq1    O114038   1.623   2.444  11.034 -0.3784  0.4038  0.0755
    1TCq1    C114039   1.523   2.379  10.976 -0.2716  0.1424 -0.0603
    1TCq1    O214040   1.415   2.356  11.031 -0.0057  0.6369 -0.4681
    1TCq1    C214041   1.593   2.268  10.927 -0.1254  0.4506 -0.0553
    1TCq1    C314042   1.587   2.149  10.993  0.2628 -0.0011  0.2786
    1TCq1    C414043   1.661   2.040  10.946  0.2470  0.1996  0.0305
    1TCq1    C514044   1.732   2.062  10.833  0.6774 -0.0571  0.0420
    1TCq1    C614045   1.745   2.190  10.784 -0.4304  0.1178  0.4310
    1TCq1    C714046   1.676   2.299  10.824 -0.0941 -0.2140 -0.0870
    1TCq1    C814047   1.842   2.200  10.669 -0.0976  0.0442 -0.6115
    1TCq1    O414048   1.874   2.100  10.604 -0.0724 -0.7305 -0.5975
    1TCq1    C914049   1.619   1.911  10.974  0.1397  0.0001  0.2584
    1TCq1    O514050   1.664   1.825  10.895 -0.0204  0.1806  0.3169
    1TCq1    O614051   1.543   1.889  11.074  0.8436 -0.2149 -0.1003
    1TCq1    H114052   1.711   2.430  10.993  0.9309  1.3940  2.5007
    1TCq1    H214053   1.499   2.142  11.055 -0.3566 -2.3329 -0.8702
    1TCq1    H314054   1.783   1.980  10.783  0.1723 -0.1497 -0.3260
    1TCq1    H414055   1.659   2.391  10.769 -2.5906  0.0320  1.0686
    2MPD1     C14056   2.091   2.483  10.334 -0.1860 -0.4411 -0.5946
    2MPD1    C114057   2.042   2.565  10.432 -0.2254  0.2522  0.3279
    2MPD1    C214058   1.990   2.504  10.543  0.0746  0.0389  0.2125
    2MPD1    C314059   1.960   2.368  10.549 -0.6365 -0.6178  0.3187
    2MPD1    C414060   2.009   2.290  10.452  0.1385 -0.8993 -0.1873
    2MPD1    C514061   2.071   2.348  10.347 -0.2823  0.7538 -0.6126
    2MPD1     H14062   1.965   2.566  10.628 -2.3486  1.2058 -1.3584
    2MPD1    H114063   1.999   2.183  10.440 -2.9475 -0.4469 -1.5385
    2MPD1    H214064   2.154   2.527  10.258 -1.6438  0.4251 -1.3076
    2MPD1    H314065   2.105   2.278  10.272 -1.0473  0.3649 -0.5983
    2MPD1     N14066   1.884   2.325  10.654  0.3430 -0.0718 -0.2109
    2MPD1    H514067   1.859   2.394  10.724  1.9267 -1.0758  1.3448
    2MPD1    N114068   2.069   2.702  10.450 -0.0378  0.2927 -0.3445
    2MPD1    H614069   2.076   2.750  10.360 -0.8051  1.9003  0.4520
    2MPD1    H714070   1.990   2.743  10.500 -0.0347  0.0853 -0.1733
    1TCq1    O114071   0.152   0.654   2.565 -0.0333 -0.3026 -0.4195
    1TCq1    C114072   0.119   0.537   2.631 -0.2749 -0.4044 -0.2144
    1TCq1    O214073   0.003   0.512   2.670 -0.4984 -0.8206  0.2193
    1TCq1    C214074   0.229   0.442   2.625 -0.0759  0.2843 -0.3957
    1TCq1    C314075   0.227   0.348   2.723 -0.0553  0.7943 -0.0698
    1TCq1    C414076   0.333   0.265   2.743 -0.6443  0.4221  0.3022
    1TCq1    C514077   0.407   0.241   2.633 -0.3623 -0.2454 -0.0656
    1TCq1    C614078   0.395   0.323   2.526  0.4947  0.3280  0.6508
    1TCq1    C714079   0.313   0.436   2.514 -0.1183  0.0847  0.9206
    1TCq1    C814080   0.492   0.314   2.422  0.4407  0.3989 -0.1160
    1TCq1    O414081   0.492   0.411   2.342  0.1972  0.5152  0.3103
    1TCq1    C914082   0.333   0.162   2.844  0.8276  0.4263 -0.0493
    1TCq1    O514083   0.300   0.202   2.959 -0.3185  0.7360  0.1205
    1TCq1    O614084   0.402   0.059   2.820  0.4055 -0.1317 -0.1139
    1TCq1    H114085   0.250   0.661   2.563 -0.1461  1.5440  0.3818
    1TCq1    H214086   0.155   0.372   2.800 -0.8056 -1.6701  0.0013
    1TCq1    H314087   0.496   0.180   2.645  0.0389  0.0213 -1.7691
    1TCq1    H414088   0.299   0.495   2.424  1.0755  0.0874  0.7430
    2MPD1     C14089   0.794   0.053   2.103  0.0646 -0.8518 -0.5914
    2MPD1    C114090   0.745   4.691   2.194  0.2525  0.0650 -0.0800
    2MPD1    C214091   0.656   0.014   2.283 -0.5635 -0.4217  0.1733
    2MPD1    C314092   0.628   0.151   2.298 -0.2268 -0.5839  0.2001
    2MPD1    C414093   0.670   0.234   2.195 -0.4390 -0.4150 -0.3247
    2MPD1    C514094   0.752   0.184   2.101  0.2362 -0.2111  0.2162
    2MPD1     H14095   0.604   4.666   2.346 -0.8509  1.1380  1.7251
    2MPD1    H114096   0.646   0.339   2.186 -0.9303 -0.5544 -0.6294
    2MPD1    H214097   0.868   0.019   2.032  0.7016  1.1171 -0.8589
    2MPD1    H314098   0.774   0.246   2.015 -0.0995  0.2877  0.4875
    2MPD1     N14099   0.548   0.187   2.408  0.2078 -0.2051 -0.3191
    2MPD1    H514100   0.525   0.120   2.481  0.2604  1.3872  1.1529
    2MPD1    N114101   0.762   4.554   2.169  0.1904 -0.0086 -0.0015
    2MPD1    H614102   0.854   4.535   2.130 -0.4685 -0.1793 -1.4835
    2MPD1    H714103   0.769   4.504   2.258 -2.9597 -1.5650 -0.6159
    1MPD1     C14104   2.402   0.658  12.445 -1.2032  0.1955  0.0195
    1MPD1    C114105   2.410   0.699  12.313 -0.3059 -0.2960  0.8220
    1MPD1    C214106   2.512   0.779  12.276 -0.9640  0.3057  0.3919
    1MPD1    C314107   2.619   0.804  12.362  0.5976 -0.8330 -0.7202
    1MPD1    C414108   2.613   0.759  12.494 -0.1259  0.2643 -0.5257
    1MPD1    C514109   2.502   0.681  12.529  0.0137 -0.2563 -0.0042
    1MPD1     H14110   2.512   0.830  12.180  3.6249 -0.2787  0.0952
    1MPD1    H114111   2.671   0.786  12.581 -0.5698  0.9482 -0.4398
    1MPD1    H214112   2.309   0.616  12.484 -0.7742  0.2440  1.0964
    1MPD1    H314113   2.491   0.663  12.635 -1.3835 -2.2333 -0.4796
    1MPD1     N14114   2.724   0.886  12.317  0.4031 -0.2932  0.2438
    1MPD1    H514115   2.700   0.931  12.229  0.5626 -0.4701  0.1095
    1MPD1    N114116   2.300   0.700  12.235 -0.8868 -0.3933 -0.0956
    1MPD1    H614117   2.324   0.698  12.136  1.7284  1.3783  0.5063
    1MPD1    H714118   2.251   0.613  12.256 -1.0926 -0.0691  0.7573
    2MPD1     C14119   3.479   2.754  11.011 -0.5156 -0.3237 -0.5238
    2MPD1    C114120   3.340   2.751  11.044 -0.2714  0.0618 -0.5465
    2MPD1    C214121   3.292   2.652  11.128 -0.4665  0.3757  0.1816
    2MPD1    C314122   3.374   2.560  11.182  0.4659  0.3531  0.1615
    2MPD1    C414123   3.517   2.580  11.175 -0.0403 -0.3432  0.3993
    2MPD1    C514124   3.560   2.668  11.082 -0.6665  0.3463 -0.4184
    2MPD1     H14125   3.184   2.650  11.137 -0.2667  0.1486  2.4253
    2MPD1    H114126   3.582   2.511  11.227  1.4861  0.9643  0.1789
    2MPD1    H214127   3.523   2.830  10.946  0.4670 -0.2238  0.2516
    2MPD1    H314128   3.666   2.658  11.065 -0.8700 -1.5003 -0.5983
    2MPD1     N14129   3.333   2.451  11.259 -0.3353 -0.4469  0.4217
    2MPD1    H514130   3.401   2.392  11.305  1.0658  0.0063 -1.0353
    2MPD1    N114131   3.255   2.837  10.977  0.4373 -0.3940  0.2301
    2MPD1    H614132   3.311   2.920  10.958  0.0516  0.2681  1.9139
    2MPD1    H714133   3.176   2.856  11.039 -0.5614 -2.0838 -0.5406
    3MPD1     C14134   2.863   1.773  10.865 -0.6172  0.1463 -0.0111
    3MPD1    C114135   2.912   1.898  10.843 -0.2116  0.1642  0.3453
    3MPD1    C214136   2.951   1.967  10.955  0.2227 -0.0098  0.0979
    3MPD1    C314137   2.948   1.920  11.081  0.1673  0.3928 -0.4955
    3MPD1    C414138   2.892   1.792  11.101 -0.2839  0.2164 -0.3984
    3MPD1    C514139   2.876   1.715  10.991 -0.2365 -0.0873  0.2654
    3MPD1     H14140   2.980   2.071  10.943 -0.5314  0.1984  0.0828
    3MPD1    H114141   2.865   1.759  11.201  0.0304 -1.3434 -0.8397
    3MPD1    H214142   2.823   1.716  10.782 -0.6143 -2.1069  1.5094
    3MPD1    H314143   2.837   1.616  11.014  0.3844 -0.7837 -1.7097
    3MPD1     N14144   2.988   2.013  11.183 -0.0559 -0.2037 -0.3963
    3MPD1    H514145   3.046   2.089  11.150 -1.0679  0.5434 -0.4580
    3MPD1    N114146   2.911   1.961  10.716 -0.2766  0.4561  0.5511
    3MPD1    H614147   2.961   1.913  10.642 -0.5710  1.3754 -0.2420
    3MPD1    H714148   2.961   2.049  10.724 -3.2506  2.1604  0.3779
    4MPD2     C14149   2.779   1.688  12.276  0.0261 -0.0648  0.1444
    4MPD2    C114150   2.850   1.625  12.373 -0.3009 -0.4830 -0.5733
    4MPD2    C214151   2.935   1.701  12.448  0.4753 -0.3721 -0.3574
    4MPD2    C314152   2.954   1.833  12.415  0.1427 -0.2264 -0.6806
    4MPD2    C414153   2.871   1.901  12.324  0.5569  0.1102 -0.0452
    4MPD2    C514154   2.788   1.822  12.249  0.0825 -0.2815  0.0733
    4MPD2     H14155   2.997   1.661  12.528  0.7372  2.8169  1.0251
    4MPD2    H114156   2.882   2.004  12.291 -0.9892  0.7645  1.4936
    4MPD2    H214157   2.715   1.633  12.207  0.8461  1.2636 -1.6874
    4MPD2    H314158   2.731   1.858  12.164 -0.0356  0.1230  0.3229
    4MPD2     N14159   3.058   1.911  12.471  0.0122  0.3380  0.5249
    4MPD2    H514160   3.054   2.009  12.443  3.4514  0.1170 -0.7400
    4MPD2    N114161   2.839   1.486  12.405 -0.0296  0.3052  0.0341
    4MPD2    H714162   2.896   1.459  12.484 -0.2723  0.0257  0.1122
    5TMC3    C114163   2.875   1.266  12.340 -0.1980  0.6244 -1.0811
    5TMC3    C214164   2.827   1.142  12.323 -0.7815  0.4297 -0.0253
    5TMC3    C314165   2.909   1.029  12.333  0.4819 -0.1231 -0.3818
    5TMC3    C414166   3.001   1.279  12.381 -0.6201  0.0966 -0.0648
    5TMC3    C514167   3.083   1.165  12.389  0.3212 -0.1081 -0.6724
    5TMC3    C614168   3.039   1.040  12.371  0.0232  0.8673  0.1799
    5TMC3     C14169   2.793   1.390  12.321 -0.2522 -0.5527 -0.1961
    5TMC3     O14170   2.709   1.399  12.231  0.0664 -0.3972  0.0071
    5TMC3     H14171   2.725   1.133  12.289 -0.2652  1.9499 -1.9884
    5TMC3    H114172   3.045   1.377  12.394  0.5453 -0.2484 -1.3358
    5TMC3    H214173   3.111   0.960  12.381 -2.7712 -1.7086 -0.2307
    5TMC3    C714174   3.228   1.182  12.405  0.9365  0.4688 -0.2379
    5TMC3    C814175   2.843   0.914  12.385 -0.3594 -0.3809 -0.3655
    5TMC3    O114176   3.301   1.095  12.365 -0.0603 -0.3875  0.6398
    5TMC3    O214177   2.880   0.871  12.493 -0.4344  0.9216  0.4355
    6TMC3    C114178   3.182   2.289  11.346 -0.0109 -0.5528  0.0282
    6TMC3    C214179   3.074   2.217  11.314 -0.1406 -0.1522  0.7346
    6TMC3    C314180   3.049   2.104  11.391 -0.1290 -1.2291  0.2865
    6TMC3    C414181   3.273   2.260  11.450 -0.3455 -0.4781 -0.6374
    6TMC3    C514182   3.235   2.152  11.526 -0.0280  0.3480  0.2380
    6TMC3    C614183   3.123   2.076  11.498 -0.2640  0.3358  0.1425
    6TMC3     C14184   3.199   2.400  11.265 -0.0598  0.1929  0.3668
    6TMC3     O14185   3.099   2.444  11.209 -0.0117 -0.0124  0.3300
    6TMC3     H14186   3.010   2.247  11.232  0.8692 -0.8915 -0.3246
    6TMC3    H114187   3.336   2.335  11.496  1.1410 -0.9833 -1.8397
    6TMC3    H214188   3.106   1.986  11.554  0.0849  0.1080 -0.1170
    6TMC3    C714189   3.286   2.143  11.661  1.1017 -0.9171  0.5073
    6TMC3    C814190   2.985   1.996  11.320  0.7579 -0.2390 -0.1636
    6TMC3    O114191   3.222   2.070  11.736  0.4802  0.1363  0.3948
    6TMC3    O214192   2.942   1.902  11.386  0.3363 -0.7910 -0.6614
    7MPD2     C14193   3.609   1.502  12.499 -0.0097  0.1811 -0.0599
    7MPD2    C114194   3.490   1.567  12.516  0.4803  0.3646  1.0784
    7MPD2    C214195   3.374   1.490  12.531  0.0377  0.1389  0.3908
    7MPD2    C314196   3.376   1.361  12.489 -0.3940 -0.6259 -1.0720
    7MPD2    C414197   3.492   1.294  12.463  0.9377 -0.3902 -0.1383
    7MPD2    C514198   3.611   1.369  12.466  0.8016 -0.4458  0.2567
    7MPD2     H14199   3.281   1.541  12.556  0.4706  0.3908  1.4766
    7MPD2    H114200   3.496   1.191  12.429 -1.3564 -0.4868 -0.1247
    7MPD2    H214201   3.704   1.553  12.500 -1.0068  2.0452 -0.2951
    7MPD2    H314202   3.704   1.313  12.464 -0.4171 -2.5817  2.1122
    7MPD2     N14203   3.255   1.299  12.470  0.4960 -0.0103  0.1047
    7MPD2    H514204   3.174   1.354  12.497  1.2442  0.4408  1.4166
    7MPD2    N114205   3.473   1.702  12.529  0.4944  0.4025 -0.1427
    7MPD2    H714206   3.380   1.734  12.553  0.6494 -0.5643  1.7451
    8TMC3    C114207   3.495   1.921  12.501 -0.7122  0.0301  0.1211
    8TMC3    C214208   3.487   1.971  12.375  0.4107  0.5855  0.0674
    8TMC3    C314209   3.374   2.041  12.334 -0.6603  0.3639 -0.2980
    8TMC3    C414210   3.382   1.925  12.580 -1.2026 -0.5870  0.7141
    8TMC3    C514211   3.268   1.971  12.526 -0.4618 -0.2338 -0.2547
    8TMC3    C614212   3.256   2.036  12.401  0.2616  0.2855  0.1411
    8TMC3     C14213   3.563   1.796  12.506  0.1109  0.2748  0.6249
    8TMC3     O14214   3.673   1.801  12.449 -0.3979  0.2319 -0.0502
    8TMC3     H14215   3.568   1.948  12.306  0.1633 -0.2350  0.0442
    8TMC3    H114216   3.383   1.902  12.686  0.0318 -2.2057  0.3717
    8TMC3    H214217   3.178   2.099  12.361 -0.0463 -0.1653  0.0256
    8TMC3    C714218   3.167   1.869  12.542  0.1273 -0.1121 -0.1376
    8TMC3    C814219   3.376   2.084  12.197  0.0567  0.1455  0.0046
    8TMC3    O114220   3.187   1.763  12.601 -0.2932  0.6772 -0.6649
    8TMC3    O214221   3.276   2.062  12.133 -0.4973  0.2592  0.4346
    9MPD2     C14222   3.647   2.246  12.016 -0.4083  0.1839 -0.6310
    9MPD2    C114223   3.527   2.184  12.033  0.2822 -0.2047 -0.9811
    9MPD2    C214224   3.448   2.160  11.920 -0.0256 -0.1004  0.6167
    9MPD2    C314225   3.494   2.200  11.792 -0.3552 -0.1172 -0.2290
    9MPD2    C414226   3.620   2.260  11.781 -0.2032 -0.0672 -0.1336
    9MPD2    C514227   3.700   2.275  11.894  0.1094  0.1874 -0.0994
    9MPD2     H14228   3.351   2.110  11.923  0.5000 -1.0338  1.7449
    9MPD2    H114229   3.663   2.286  11.685 -0.3830  0.0246 -0.1882
    9MPD2    H214230   3.719   2.257  12.096  0.4994 -2.2815 -1.1239
    9MPD2    H314231   3.792   2.331  11.887 -0.6752  1.7202  1.7495
    9MPD2     N14232   3.416   2.177  11.672 -0.3771 -0.6069  0.7433
    9MPD2    H514233   3.469   2.211  11.593 -0.0712 -0.7986  0.8626
    9MPD2    N114234   3.503   2.137  12.163 -0.2875 -0.5827 -0.1170
    9MPD2    H714235   3.587   2.142  12.220 -1.3712 -2.9673  1.6877
    1MPD1     C14236   3.510   0.550  16.719  0.8552  0.0069  0.0637
    1MPD1    C114237   3.421   0.570  16.821 -0.1660 -0.1107  0.3673
    1MPD1    C214238   3.304   0.636  16.802 -0.5618 -0.3381  0.0366
    1MPD1    C314239   3.268   0.676  16.674  0.7176 -0.2977 -0.0277
    1MPD1    C414240   3.353   0.641  16.570 -0.1616  0.0402 -0.1068
    1MPD1    C514241   3.477   0.587  16.593 -0.1613 -0.3383 -0.0049
    1MPD1     H14242   3.235   0.655  16.884 -0.8080  1.6780 -0.6415
    1MPD1    H114243   3.317   0.654  16.468  1.2307  1.0990 -0.4523
    1MPD1    H214244   3.605   0.499  16.735  0.1606 -0.7839  1.6501
    1MPD1    H314245   3.538   0.559  16.508  0.7162  0.1149  0.4771
    1MPD1     N14246   3.143   0.737  16.637  0.7259  0.3063 -0.3347
    1MPD1    H514247   3.111   0.746  16.541  0.9616 -1.9016 -0.6183
    1MPD1    N114248   3.466   0.537  16.951 -0.1000  0.0538  0.0690
    1MPD1    H614249   3.528   0.457  16.949 -1.7156 -1.2351  1.1736
    1MPD1    H714250   3.383   0.518  17.008 -0.3059 -1.3084 -0.6832
    2MPD1     C14251   2.104   0.999  16.907  0.2597  0.1113  0.0465
    2MPD1    C114252   2.107   0.973  16.770 -1.1052  0.1226  0.1377
    2MPD1    C214253   2.232   0.946  16.717 -0.2665 -0.4573 -0.7436
    2MPD1    C314254   2.346   0.936  16.795  0.0840  0.6553 -0.1879
    2MPD1    C414255   2.338   0.962  16.927 -0.6537 -0.0353  0.2790
    2MPD1    C514256   2.217   0.987  16.986 -0.4439  0.8038 -0.2179
    2MPD1     H14257   2.237   0.954  16.609  0.3605 -1.1154 -0.7600
    2MPD1    H114258   2.430   0.956  16.985  0.4532  3.1218 -1.0928
    2MPD1    H214259   2.009   1.012  16.958  1.3593  0.1061  2.0947
    2MPD1    H314260   2.202   0.995  17.094 -0.7325 -1.6855 -0.0838
    2MPD1     N14261   2.474   0.914  16.732  0.3352  0.4557  0.6020
    2MPD1    H514262   2.462   0.893  16.634  0.7362 -3.4688  1.3846
    2MPD1    N114263   1.998   1.004  16.692 -0.4229  0.5434  0.4761
    2MPD1    H614264   1.995   0.946  16.608 -1.0566  0.1546  0.7649
    2MPD1    H714265   1.911   0.991  16.744 -1.3125  0.2326 -1.0617
    3TCq2    C114266   2.593   0.883  16.793 -0.0685  0.4930 -0.1074
    3TCq2    O214267   2.624   0.868  16.911 -0.3754 -0.6527  0.0085
    3TCq2    C214268   2.698   0.855  16.696 -0.3136  0.0903  0.5820
    3TCq2    C314269   2.687   0.909  16.570  0.2908  0.2934  0.1517
    3TCq2    C414270   2.799   0.924  16.498 -0.7262 -0.2811 -0.4223
    3TCq2    C514271   2.922   0.871  16.534  0.4846  0.3666 -0.2333
    3TCq2    C614272   2.927   0.797  16.650 -0.1427 -0.0939  0.4360
    3TCq2    C714273   2.811   0.788  16.726  0.2141 -0.6013  0.5826
    3TCq2    C814274   3.043   0.768  16.726 -0.5105 -1.1972  0.5476
    3TCq2    O414275   3.043   0.789  16.847 -0.4017 -0.2475 -0.1557
    3TCq2    C914276   2.784   0.988  16.369  0.1756 -0.2972  0.2765
    3TCq2    O514277   2.884   1.047  16.309  0.2761  0.5923  0.2122
    3TCq2    O614278   2.675   0.978  16.312 -0.2763  0.4233  0.0469
    3TCq2    H214279   2.600   0.963  16.533  1.0226  0.4886 -1.2774
    3TCq2    H314280   3.008   0.887  16.471  0.8350 -2.0020 -0.3191
    3TCq2    H414281   2.817   0.739  16.822  1.5721  1.6449  1.6223
    1TCq1    O114282   1.378   0.307  12.571 -0.0180 -0.4352 -0.3715
    1TCq1    C114283   1.504   0.352  12.592 -0.3405 -0.2709  0.2088
    1TCq1    O214284   1.585   0.380  12.507  0.6029 -0.3224 -0.2744
    1TCq1    C214285   1.545   0.321  12.731  1.2285 -0.0781  0.2595
    1TCq1    C314286   1.450   0.318  12.833  0.4159 -1.0661 -0.5447
    1TCq1    C414287   1.494   0.297  12.958  0.2757  0.3641  0.1190
    1TCq1    C514288   1.622   0.257  12.990 -0.4830 -0.2378 -0.4798
    1TCq1    C614289   1.706   0.245  12.879  0.1426 -0.3608 -0.1821
    1TCq1    C714290   1.677   0.284  12.751  0.6324 -0.3938  0.1512
    1TCq1    C814291   1.849   0.205  12.895  0.3206  1.0112 -0.0794
    1TCq1    O414292   1.930   0.237  12.808  0.1445 -0.1351 -0.1117
    1TCq1    C914293   1.384   0.289  13.053  0.3700  0.3833 -0.2107
    1TCq1    O514294   1.263   0.285  13.018 -0.3298  0.0072  0.6670
    1TCq1    O614295   1.423   0.267  13.171 -0.8944 -0.0726 -0.1105
    1TCq1    H114296   1.342   0.254  12.646  0.1899 -1.2764 -0.8628
    1TCq1    H214297   1.355   0.369  12.828  0.2694 -1.3424 -0.5897
    1TCq1    H314298   1.650   0.232  13.092 -1.6260  0.0503 -0.1064
    1TCq1    H414299   1.748   0.285  12.669 -0.5842  0.4182 -0.9030
    2MPD2     C14300   2.126   0.150  13.025  0.2733  0.0992  1.1402
    2MPD2    C114301   1.999   0.137  13.086 -1.3568 -0.1452 -0.3498
    2MPD2    C214302   1.992   0.089  13.217  0.0727  0.0833 -0.9500
    2MPD2    C314303   2.108   0.069  13.290  0.2417 -0.0306 -0.0297
    2MPD2    C414304   2.229   0.091  13.236 -0.1683  0.0856  0.3692
    2MPD2    C514305   2.233   0.127  13.109 -0.3277  0.6549 -0.0352
    2MPD2     H14306   1.897   0.070  13.265  0.0967 -4.0004 -2.5683
    2MPD2    H114307   2.327   0.089  13.284  0.5997  0.1632 -1.2088
    2MPD2    H214308   2.132   0.184  12.922  1.3065 -1.3307  0.7374
    2MPD2    H314309   2.330   0.141  13.063 -1.3994 -0.1575 -2.5145
    2MPD2     N14310   2.092   0.013  13.416 -1.2053 -0.3461  0.4365
    2MPD2    H514311   1.996   0.000  13.448 -1.2981 -1.1966 -0.1899
    2MPD2    N114312   1.875   0.160  13.023  0.1759  0.5239  0.5327
    2MPD2    H714313   1.792   0.137  13.076 -0.3257  0.7766 -0.1457
    3TCq1    O114314   2.192   4.324  13.926  0.3261 -0.1795 -0.1325
    3TCq1    C114315   2.179   4.310  13.797 -0.1119  0.3251 -0.1574
    3TCq1    O214316   2.200   4.208  13.730  0.2398 -0.1552  0.3077
    3TCq1    C214317   2.128   4.439  13.745  0.4539 -0.2894 -0.3776
    3TCq1    C314318   2.043   4.507  13.823 -0.6232  0.2479  0.1939
    3TCq1    C414319   2.001   4.634  13.785  0.7251  0.8915 -0.7187
    3TCq1    C514320   2.056   4.693  13.682 -0.7465  0.4138  0.7453
    3TCq1    C614321   2.147   4.625  13.609 -0.4411 -0.4584 -0.4059
    3TCq1    C714322   2.179   4.493  13.636 -0.1431  0.3681  0.3218
    3TCq1    C814323   2.196   4.682  13.490  0.3143 -0.5309 -0.2401
    3TCq1    O414324   2.314   4.666  13.467  0.0394 -0.1485  1.0774
    3TCq1    C914325   1.906   4.701  13.864 -0.2847 -0.3521  0.2711
    3TCq1    O514326   1.886   4.656  13.981  0.0711 -0.4930  0.6432
    3TCq1    O614327   1.859   0.089  13.827 -0.0865 -0.1104  0.3174
    3TCq1    H114328   2.203   4.419  13.948  0.8934 -0.6417  1.5783
    3TCq1    H214329   1.985   4.456  13.900 -0.0912  1.4368  1.3849
    3TCq1    H314330   2.042   0.077  13.670  1.3831  0.8031  1.6902
    3TCq1    H414331   2.258   4.442  13.582  0.8371 -0.2610  2.3876
    1MPD2     C14332   1.744   1.169  14.889  0.5589 -0.0742  0.5044
    1MPD2    C114333   1.684   1.051  14.928 -0.5931  0.2554  0.1963
    1MPD2    C214334   1.744   0.971  15.030 -0.0309 -0.1917  0.5222
    1MPD2    C314335   1.873   0.994  15.073 -0.4704  0.6097  0.2383
    1MPD2    C414336   1.940   1.100  15.013  0.4057  0.3215  0.2185
    1MPD2    C514337   1.869   1.183  14.932  0.3870  0.1900  0.2847
    1MPD2     H14338   1.685   0.892  15.076  2.7900 -1.1901  2.4576
    1MPD2    H114339   2.040   1.128  15.043  0.6701  0.5732 -0.9034
    1MPD2    H214340   1.714   1.231  14.805  0.6231  2.2208  2.1945
    1MPD2    H314341   1.920   1.268  14.888  0.3386  2.1339  3.9376
    1MPD2     N14342   1.928   0.896  15.157 -0.7754  0.1654  1.2371
    1MPD2    H514343   1.864   0.820  15.174 -0.8014  0.0740  0.7202
    1MPD2    N114344   1.556   1.023  14.873  0.0165  0.0747  0.0467
    1MPD2    H714345   1.506   1.095  14.821  0.3819  0.4416  0.2017
    2TMC3    C114346   1.343   0.926  14.848  0.9349  0.0872  0.5100
    2TMC3    C214347   1.264   0.855  14.930  0.0207  0.7160  0.0584
    2TMC3    C314348   1.164   0.920  14.995  1.3113 -0.7086 -0.2878
    2TMC3    C414349   1.314   1.052  14.805 -0.1072 -0.7299 -0.0084
    2TMC3    C514350   1.201   1.106  14.859 -0.1340 -0.0028  0.2621
    2TMC3    C614351   1.122   1.047  14.953  0.2012 -0.4243  0.5990
    2TMC3     C14352   1.477   0.909  14.897 -0.3630  0.4314 -0.1806
    2TMC3     O14353   1.500   0.815  14.970  0.2265  0.3702  0.3151
    2TMC3     H14354   1.295   0.753  14.947  0.1976  1.0516  1.6926
    2TMC3    H114355   1.366   1.104  14.726 -0.5691  1.0812  0.8996
    2TMC3    H214356   1.033   1.086  15.001  0.2852 -2.2044  2.1795
    2TMC3    C714357   1.145   1.216  14.778  0.3661 -0.6637  0.8583
    2TMC3    C814358   1.165   0.886  15.137 -0.6390  0.1984  0.2032
    2TMC3    O114359   1.197   1.244  14.670  0.0294  0.1674  0.5705
    2TMC3    O214360   1.060   0.910  15.202 -0.3811  0.5516  0.5698
    3TCq1    O114361   0.753   1.864  15.534 -0.2009  0.1861  0.4266
    3TCq1    C114362   0.820   1.780  15.460 -0.1472  0.2548  0.2160
    3TCq1    O214363   0.820   1.662  15.482 -0.6817 -0.5554 -0.3940
    3TCq1    C214364   0.831   1.843  15.327 -0.9942  0.1676  0.5598
    3TCq1    C314365   0.872   1.974  15.334 -0.4572  0.1877  0.2231
    3TCq1    C414366   0.839   2.052  15.222 -0.2313 -0.7215 -0.6454
    3TCq1    C514367   0.785   1.991  15.110 -1.4884  0.2631  0.5729
    3TCq1    C614368   0.754   1.854  15.107  0.1557  0.0971  0.1906
    3TCq1    C714369   0.771   1.777  15.221  0.1489  0.7596 -0.1202
    3TCq1    C814370   0.773   1.799  14.969 -0.2411 -0.3204  0.0231
    3TCq1    O414371   0.752   1.876  14.875 -0.4773  0.2247  0.2335
    3TCq1    C914372   0.854   2.195  15.230 -0.0454 -0.2719 -0.0941
    3TCq1    O514373   0.873   2.245  15.346 -0.3792  0.8950 -0.1270
    3TCq1    O614374   0.871   2.251  15.119 -0.1443  0.1117  0.1713
    3TCq1    H114375   0.736   1.956  15.505  0.2844  0.7297  1.8585
    3TCq1    H214376   0.915   2.021  15.422  1.1838 -0.9916  0.0484
    3TCq1    H314377   0.768   2.050  15.021 -0.2345 -0.1512  0.0559
    3TCq1    H414378   0.733   1.676  15.233 -0.0226  0.6213 -1.7621
    4MPD2     C14379   0.856   1.636  14.745 -0.8386  0.8694 -0.3053
    4MPD2    C114380   0.859   1.589  14.877 -0.6658  0.1072  0.7952
    4MPD2    C214381   0.921   1.473  14.912 -0.2805 -0.8315  0.6435
    4MPD2    C314382   0.980   1.398  14.813 -0.0567  0.3016 -0.1742
    4MPD2    C414383   0.982   1.442  14.685 -0.6577 -0.3489 -0.7188
    4MPD2    C514384   0.914   1.556  14.648 -0.5576  0.0915 -0.3166
    4MPD2     H14385   0.934   1.446  15.016  0.0815 -2.0186  0.2941
    4MPD2    H114386   1.021   1.382  14.603 -1.8952 -1.8593 -0.2133
    4MPD2    H214387   0.809   1.732  14.728  0.3852  1.4575 -0.3870
    4MPD2    H314388   0.923   1.600  14.549 -0.5906  1.0053  0.0915
    4MPD2     N14389   1.043   1.281  14.848  0.3701  0.3734 -0.0346
    4MPD2    H514390   1.037   1.256  14.946 -1.7519  0.2273 -0.1809
    4MPD2    N114391   0.821   1.674  14.983 -0.2106 -0.0562  0.2956
    4MPD2    H714392   0.837   1.630  15.073 -0.4284 -0.8531 -0.0532
    5TMC2    C114393   1.886   0.684  15.394 -0.2041 -0.1155  0.3938
    5TMC2    C214394   1.906   0.742  15.515  0.6132  0.6372 -0.0442
    5TMC2    C314395   2.022   0.808  15.527  0.0548  0.7201  0.2313
    5TMC2    C414396   1.972   0.701  15.290  0.2861 -0.3610 -0.6539
    5TMC2    C514397   2.078   0.788  15.299  0.3016  0.0719 -0.3551
    5TMC2    C614398   2.105   0.838  15.420 -1.0393  0.0008 -0.1649
    5TMC2     C14399   1.750   0.673  15.348 -0.0512  0.6536  0.4019
    5TMC2     O14400   1.737   0.672  15.223  0.1854 -0.1532  0.5708
    5TMC2     H14401   1.834   0.749  15.596  0.1569  0.5551 -0.4465
    5TMC2    H114402   1.949   0.659  15.193 -0.9008  2.1243 -1.4528
    5TMC2    H214403   2.177   0.919  15.421  1.1789 -1.9203 -1.6659
    5TMC2    C714404   2.052   0.902  15.214 -0.7589 -0.2401 -0.2820
    5TMC2    C814405   2.041   0.893  15.642 -0.5827  0.3229  0.3787
    5TMC2    O114406   2.121   1.003  15.221  0.2569 -0.6108  0.6386
    5TMC2    O214407   1.940   0.925  15.707 -0.8725 -0.9182 -0.2285
    5TMC2    O514408   2.144   0.826  15.700  0.0824  0.5118  0.6724
    5TMC2    H514409   2.217   0.798  15.640  0.2763  0.2942  1.0079
    6MPD2     C14410   1.251   0.793  15.420 -0.9667  0.7151  0.1230
    6MPD2    C114411   1.329   0.809  15.308  0.3393 -0.4481  0.1200
    6MPD2    C214412   1.467   0.769  15.310 -0.6333  0.1339 -0.0656
    6MPD2    C314413   1.525   0.730  15.430 -0.0255 -0.3645  0.5410
    6MPD2    C414414   1.447   0.727  15.543 -0.2870 -0.1300 -0.3925
    6MPD2    C514415   1.310   0.755  15.540  0.3973 -0.0736  0.6944
    6MPD2     H14416   1.529   0.782  15.223  1.9162  1.0639  1.8873
    6MPD2    H114417   1.494   0.697  15.636  0.3753  0.1798 -0.6308
    6MPD2    H214418   1.143   0.803  15.410 -0.9159 -0.2877 -1.3913
    6MPD2    H314419   1.251   0.731  15.628  1.1478 -0.3603  1.1169
    6MPD2     N14420   1.660   0.696  15.447 -0.3777  0.9571  0.2605
    6MPD2    H514421   1.682   0.681  15.546 -0.2142 -0.0374  0.0787
    6MPD2    N114422   1.286   0.845  15.176 -0.1311  0.1525 -0.2769
    6MPD2    H714423   1.348   0.831  15.096  1.2197  1.7146  0.4975
  945NH4     N114424   1.479   3.144  13.389  0.4266 -0.0450  0.2213
  945NH4     H214425   1.389   3.101  13.359  0.4268  1.1510 -1.4905
  945NH4     H314426   1.465   3.247  13.393  3.0526  0.2023  2.8409
  945NH4     H414427   1.557   3.115  13.327 -1.3887 -0.1179 -2.0027
  945NH4     H514428   1.504   3.118  13.487 -0.3566 -0.9357  0.1778
  946SOD     NA14429   0.401   4.390   1.169 -0.3283 -0.0964  0.0585
  947SOD     NA14430   0.473   1.494  16.264 -0.7504  0.3881 -0.4819
  948SOD     NA14431   1.412   0.064  13.242 -0.2785  0.5092  0.1239
  949SOD     NA14432   0.707   1.823   1.121 -0.0013 -0.0447  0.5028
  950SOD     NA14433   0.218   4.676  10.048  0.2364 -0.0781  0.0644
  951SOD     NA14434   2.177   2.222   2.911 -0.0470 -0.1122  0.1341
  952SOD     NA14435   4.343   1.123   4.272 -0.4390 -0.0411 -0.2919
  953SOD     NA14436   1.233   1.793  11.257  0.2464 -0.1090  0.1997
  954SOD     NA14437   3.815   3.390  13.875  0.0784 -0.1476 -0.0245
  955SOD     NA14438   1.055   0.501   5.402  0.4232  0.4815  0.1723
  956SOD     NA14439   3.245   0.416   2.695  0.0043  0.3773 -0.1115
  957SOD     NA14440   3.884   3.550  10.609 -0.0869 -0.6352  0.7294
  958SOD     NA14441   2.747   1.155  16.187  0.1081  0.1891  0.2920
  959SOD     NA14442   2.948   4.153   0.440 -0.1756  0.3499 -0.3323
  960SOD     NA14443   1.691   0.358  12.024  0.2290  0.1879  1.0659
  961SOD     NA14444   4.409   1.654   1.337 -0.4546 -0.5154 -0.4717
  962SOD     NA14445   0.251   2.099   1.493  0.1092  0.6065  0.4987
  963SOD     NA14446   4.487   3.733   0.808 -0.0783 -0.4807  0.5157
  964SOD     NA14447   3.945   1.084  11.721 -0.0751 -0.0229  0.0628
  965SOD     NA14448   1.948   1.884  10.552 -0.2930 -0.8589 -0.0487
  966SOD     NA14449   0.567   2.316  10.317 -0.1302 -0.1978  0.5000
  967SOD     NA14450   3.249   3.157   9.770  0.0793  0.2453 -0.0893
  968SOD     NA14451   1.787   0.268   5.108  0.3318  0.3570 -0.5818
  969SOD     NA14452   2.976   2.018   5.630  0.1421  0.5424  0.0925
  970SOD     NA14453   1.927   4.715  11.720 -0.1241  0.1282 -0.4333
  971SOD     NA14454   3.531   0.826  16.098  0.1856 -0.2439 -0.2547
  972SOD     NA14455   2.375   0.209  14.782  0.0632 -0.2826 -0.4250
  973SOD     NA14456   0.081   1.464  10.298 -0.4747 -0.1128  0.0158
  974SOD     NA14457   1.803   2.893   6.231  0.2771  0.9324 -0.0107
  975SOD     NA14458   1.947   4.532  11.395  0.0726 -0.1742  0.1421
  976SOD     NA14459   2.885   3.254  14.370 -0.2832 -0.4636 -0.2563
  977SOD     NA14460   2.748   0.131  14.635  0.1778  0.1405 -0.7409
  978SOD     NA14461   1.496   0.048  10.038 -0.2604  0.3327  0.1540
  979SOD     NA14462   2.265   3.737  10.021  0.1668 -0.3220  0.3045
  980SOD     NA14463   1.364   1.380  14.555  0.2500  0.2706  0.1792
  981SOD     NA14464   4.014   4.580   1.980 -0.2156  0.1907 -0.1333
  982SOD     NA14465   3.801   2.937  17.651  0.2861 -0.2283  0.4115
  983SOD     NA14466   3.059   3.538   4.887 -0.3890  0.1546  0.0231
  984SOD     NA14467   1.916   0.915  12.504  0.8368 -0.2596  0.5411
  985SOD     NA14468   3.367   3.061   7.495  0.2914  0.2697 -0.1553
  986SOD     NA14469   3.890   0.420  15.012  0.1204  0.3959  0.0802
  987SOD     NA14470   4.197   1.279  14.094 -0.4639 -0.0640  0.0733
  988SOD     NA14471   1.268   3.713   9.408 -0.1112 -0.5866  0.1969
  989SOD     NA14472   1.518   2.599   2.904 -0.0017 -0.1306  0.4689
  990SOD     NA14473   3.971   1.678   9.719  0.1456 -0.1165 -0.1837
  991SOD     NA14474   1.595   1.793  16.103  0.0102 -0.3623 -0.1873
  992SOD     NA14475   0.091   2.912  14.235  0.2904  0.2263 -0.1094
  993SOD     NA14476   3.076   0.081  13.069 -0.1936 -0.0502 -0.4571
  994SOD     NA14477   1.862   2.589  11.954  0.4244 -0.0207  0.1177
  995SOD     NA14478   0.854   4.035  10.733 -0.0874  0.0699  0.4798
  996SOD     NA14479   4.468   4.192  12.861 -0.0432 -0.0110  0.8624
  997SOD     NA14480   3.084   1.554  14.198  0.4409 -0.0969 -0.1599
  998SOD     NA14481   1.986   4.392  11.674 -0.2397  0.1709  0.0818
  999SOD     NA14482   1.936   1.121  11.957  0.0531  0.1413  0.4367
 1000SOD     NA14483   1.373   3.537  11.835 -0.0329  0.3421  0.3116
 1001SOD     NA14484   0.901   0.988  15.333  0.7251  0.0752 -0.1202
 1002SOD     NA14485   2.765   2.437   2.800  0.6159 -0.1108 -0.4527
 1003SOD     NA14486   2.676   4.192   0.609  0.0660  0.3228  0.2398
 1004SOD     NA14487   0.096   3.880  15.093 -0.0662 -0.2411  0.3836
 1005SOD     NA14488   1.916   0.559  16.823 -0.1963 -0.0592  0.2251
 1006SOD     NA14489   0.157   0.548  13.718 -0.6217 -0.2087  0.0209
 1007SOD     NA14490   3.794   3.820   1.483  0.6345 -0.2690  0.2631
 1008SOD     NA14491   3.018   2.364   1.200  0.1456  0.1548 -0.3172
 1009SOD     NA14492   2.122   3.972  11.310  0.2654  0.3964 -0.1364
 1010SOD     NA14493   3.183   4.215   9.515  0.0813  0.1230 -0.6029
 1011SOL     OW14494   2.501   2.118  16.048  0.1125 -0.3878 -0.0749
 1011SOL    HW114495   2.437   2.177  16.008  0.5689  1.9228  2.5441
 1011SOL    HW214496   2.551   2.189  16.089 -1.9166  0.4421  0.9553
 1012SOL     OW14497   4.434   0.200   1.659  0.3152 -0.6143  0.4629
 1012SOL    HW114498   4.352   0.158   1.634  0.0779  0.9648 -1.4096
 1012SOL    HW214499   4.450   0.240   1.574 -0.0125  2.3836  1.8153
 1013SOL     OW14500   2.565   1.675   6.796 -0.2543  0.4686  0.0811
 1013SOL    HW114501   2.652   1.637   6.810 -0.2515  0.0391 -1.0761
 1013SOL    HW214502   2.549   1.646   6.706  0.7066 -2.1010  0.7420
 1014SOL     OW14503   2.760   3.343   8.911 -0.1170  0.0836 -0.7295
 1014SOL    HW114504   2.714   3.259   8.908  1.3992 -0.8277  1.8747
 1014SOL    HW214505   2.839   3.318   8.958 -1.8294 -2.7819  0.5922
 1015SOL     OW14506   1.995   1.545   4.122  0.8497  0.0327 -0.0794
 1015SOL    HW114507   2.049   1.498   4.059  1.0789  0.4333 -0.1839
 1015SOL    HW214508   1.936   1.474   4.147 -0.7247  0.5671 -2.2242
 1016SOL     OW14509   1.890   3.349   6.237  0.5917  0.0817  0.5533
 1016SOL    HW114510   1.951   3.416   6.206  1.7290 -1.0867  0.2760
 1016SOL    HW214511   1.826   3.367   6.167  1.0352  0.4504  0.2413
 1017SOL     OW14512   2.230   3.886   5.725  0.0748  0.4799 -0.4961
 1017SOL    HW114513   2.179   3.931   5.657 -1.3057  0.1284  0.2927
 1017SOL    HW214514   2.320   3.904   5.699  0.0732  2.7243  1.0268
 1018SOL     OW14515   2.030   2.249  16.771  0.2770 -0.7156 -0.0137
 1018SOL    HW114516   1.954   2.297  16.803  0.8167  0.4096 -0.4369
 1018SOL    HW214517   1.999   2.244  16.680  1.0807  0.7434 -0.3570
 1019SOL     OW14518   2.311   2.698  15.799  0.2971 -0.9038 -0.3451
 1019SOL    HW114519   2.375   2.707  15.870  2.3814 -2.1946 -2.0586
 1019SOL    HW214520   2.371   2.727  15.730  1.2180  0.6618  1.1247
 1020SOL     OW14521   2.996   2.242   7.569  0.2507  0.2765 -0.4056
 1020SOL    HW114522   2.948   2.175   7.520 -1.6061  2.2198 -1.2999
 1020SOL    HW214523   3.014   2.298   7.493 -0.8186  0.4689 -0.5184
 1021SOL     OW14524   1.449   3.496  12.061  0.1805 -0.1893  0.1736
 1021SOL    HW114525   1.515   3.433  12.090 -0.5268 -0.9069  0.2290
 1021SOL    HW214526   1.476   3.573  12.110  1.2875 -0.3863 -0.1119
 1022SOL     OW14527   3.701   1.406  11.897  0.4322  0.7028 -0.3487
 1022SOL    HW114528   3.678   1.438  11.984  0.4168  0.2553 -0.1833
 1022SOL    HW214529   3.619   1.395  11.850 -0.3367  1.7076  0.7553
 1023SOL     OW14530   2.387   2.124   2.836  0.2186  0.4077 -0.4936
 1023SOL    HW114531   2.395   2.162   2.749  1.4540 -0.9742 -0.9761
 1023SOL    HW214532   2.412   2.032   2.829 -0.5144  0.1741 -0.1077
 1024SOL     OW14533   4.504   4.197  10.431 -0.3004  0.2203  0.1271
 1024SOL    HW114534   4.568   4.224  10.366 -1.5389  1.0489 -0.7612
 1024SOL    HW214535   4.438   4.267  10.428 -0.3855  0.1681  0.7644
 1025SOL     OW14536   3.334   4.106   0.369 -0.0588  0.1334  0.0253
 1025SOL    HW114537   3.363   4.118   0.459  1.3287  1.6908 -0.6201
 1025SOL    HW214538   3.240   4.110   0.381 -0.2638 -0.5897 -1.3600
 1026SOL     OW14539   0.472   4.024   9.320  0.5252 -0.8731 -0.0324
 1026SOL    HW114540   0.435   4.096   9.370  0.1228 -2.5067  2.0250
 1026SOL    HW214541   0.564   4.050   9.314  0.4748 -0.8250 -0.6319
 1027SOL     OW14542   4.081   4.723  14.067 -0.0012  0.3028 -0.4262
 1027SOL    HW114543   4.110   0.008  13.977 -0.9877  0.3074 -0.7458
 1027SOL    HW214544   4.126   0.071  14.113  1.2757 -1.0085  0.3702
 1028SOL     OW14545   3.721   1.926   2.444  0.3042 -0.9196 -0.4487
 1028SOL    HW114546   3.678   2.009   2.466  0.6454 -1.1736  1.1471
 1028SOL    HW214547   3.792   1.927   2.508 -0.2545 -1.1159  0.1808
 1029SOL     OW14548   3.980   1.124  14.382  0.5011  0.5727 -0.3203
 1029SOL    HW114549   3.990   1.140  14.288  1.0528 -2.2283 -0.7498
 1029SOL    HW214550   4.072   1.105  14.401  0.0512  1.0591  2.3198
 1030SOL     OW14551   0.094   0.684  16.402 -0.3311  0.2070  0.2912
 1030SOL    HW114552   0.093   0.775  16.433 -0.2169 -0.6428  2.7577
 1030SOL    HW214553   0.187   0.672  16.418 -0.6017 -0.3787  1.4449
 1031SOL     OW14554   3.626   0.362   3.326 -0.3328  0.2155 -0.4425
 1031SOL    HW114555   3.563   0.290   3.324 -0.9278  0.6267  2.8433
 1031SOL    HW214556   3.597   0.418   3.398  1.1206  0.8726 -0.3727
 1032SOL     OW14557   1.905   4.013  16.425 -0.4307  0.5422  0.4540
 1032SOL    HW114558   1.862   3.928  16.433 -0.3166  0.3436 -1.0308
 1032SOL    HW214559   1.997   3.995  16.405 -0.0357  3.6045 -0.4547
 1033SOL     OW14560   0.105   0.369   5.650  0.3703 -0.5024 -0.2512
 1033SOL    HW114561   0.181   0.312   5.661  1.6609  1.4795  1.1010
 1033SOL    HW214562   0.138   0.429   5.584 -0.2949  1.6139  1.3476
 1034SOL     OW14563   2.157   0.720   7.506  0.1055  0.2742 -0.4339
 1034SOL    HW114564   2.094   0.648   7.497  0.2880  0.1553 -0.7439
 1034SOL    HW214565   2.196   0.697   7.590  0.2518  2.9793  0.2664
 1035SOL     OW14566   0.761   0.951   9.666  0.5572 -0.0461  0.1994
 1035SOL    HW114567   0.773   0.946   9.571 -0.4536  0.8653  0.0199
 1035SOL    HW214568   0.837   0.999   9.698 -2.2930  3.0766  2.2595
 1036SOL     OW14569   0.651   0.198   5.567  0.0982  0.0553  0.5478
 1036SOL    HW114570   0.612   0.139   5.503  0.3828 -1.0189  1.3681
 1036SOL    HW214571   0.622   0.286   5.541  1.9810 -0.2439 -2.5562
 1037SOL     OW14572   3.416   0.607   8.383  0.1312  0.3886  0.4749
 1037SOL    HW114573   3.408   0.511   8.381 -1.2393  0.4676  1.7566
 1037SOL    HW214574   3.329   0.627   8.420 -0.6151 -0.0100 -1.0649
 1038SOL     OW14575   1.334   2.599  13.033 -0.8755 -0.1314  0.6725
 1038SOL    HW114576   1.423   2.600  13.070 -0.6370  1.5573  0.0201
 1038SOL    HW214577   1.280   2.615  13.110 -1.3305 -0.3636  0.3962
 1039SOL     OW14578   3.599   3.105   2.996  0.7779 -0.2453  0.0863
 1039SOL    HW114579   3.512   3.141   2.982  1.2310  0.3941 -1.1592
 1039SOL    HW214580   3.614   3.069   2.908  1.7132  0.9893 -0.2631
 1040SOL     OW14581   1.439   4.346   5.990 -0.1960 -0.0073 -0.1473
 1040SOL    HW114582   1.455   4.440   5.981  1.1549 -0.1627  0.5160
 1040SOL    HW214583   1.500   4.301   5.930 -1.3175 -1.8022  0.0606
 1041SOL     OW14584   1.169   3.412  15.000 -0.0728 -0.6630  0.3727
 1041SOL    HW114585   1.221   3.439  15.075 -0.5549  0.1311  0.4275
 1041SOL    HW214586   1.235   3.399  14.933  1.0646  0.5900  1.2663
 1042SOL     OW14587   4.435   1.605  13.808 -0.2354 -0.2537 -0.2814
 1042SOL    HW114588   4.411   1.543  13.740  0.8564 -1.3490  0.3417
 1042SOL    HW214589   4.526   1.623  13.785  0.9287 -1.7868  3.0690
 1043SOL     OW14590   3.232   0.720   5.306 -0.4924 -0.4684  0.5583
 1043SOL    HW114591   3.272   0.683   5.227 -2.0161 -1.1563  0.1065
 1043SOL    HW214592   3.295   0.693   5.373 -0.5527 -0.9841  0.4063
 1044SOL     OW14593   3.863   2.394  11.443  0.1130 -0.2086  0.3720
 1044SOL    HW114594   3.940   2.358  11.400  0.3381  0.2099  0.4183
 1044SOL    HW214595   3.901   2.433  11.522  1.6544 -1.0059  0.0174
 1045SOL     OW14596   4.120   3.432   4.411 -0.4892 -0.3659  0.4918
 1045SOL    HW114597   4.184   3.365   4.387 -0.1967  0.7350 -1.7808
 1045SOL    HW214598   4.039   3.388   4.389 -0.5898  0.0594  0.0075
 1046SOL     OW14599   4.192   1.268   5.514 -0.3149  0.2601  0.3327
 1046SOL    HW114600   4.263   1.204   5.512 -2.2786 -1.9647  0.7977
 1046SOL    HW214601   4.199   1.289   5.421 -2.6717  2.0861  0.5745
 1047SOL     OW14602   2.229   4.676   6.579  0.0782  0.3520 -0.0276
 1047SOL    HW114603   2.323   4.658   6.581  0.2053  1.3689  2.0658
 1047SOL    HW214604   2.188   4.590   6.573  2.1115 -0.6408  0.2464
 1048SOL     OW14605   0.828   2.647   2.219  0.0904 -0.0653 -0.2108
 1048SOL    HW114606   0.743   2.624   2.181  0.5932 -0.3115 -1.1978
 1048SOL    HW214607   0.872   2.684   2.143 -0.1807 -0.7950 -0.7218
 1049SOL     OW14608   4.495   3.572  12.568 -0.1159  0.0916  0.7388
 1049SOL    HW114609   4.588   3.551  12.563  0.1338  1.0303  1.4585
 1049SOL    HW214610   4.469   3.553  12.658  0.9171 -0.7710  0.8468
 1050SOL     OW14611   0.682   0.553   6.904 -0.4441  0.0690  0.4361
 1050SOL    HW114612   0.721   0.612   6.969 -0.1418 -1.6885  1.8556
 1050SOL    HW214613   0.618   0.509   6.960 -1.1238 -0.9129 -1.1075
 1051SOL     OW14614   2.088   1.501   4.659  0.0543  0.1572 -0.2309
 1051SOL    HW114615   2.001   1.472   4.688 -1.3822  4.7065 -0.0032
 1051SOL    HW214616   2.081   1.596   4.668 -0.8908 -0.0788  1.5114
 1052SOL     OW14617   0.623   0.240   6.469  0.4375 -0.1967 -1.2275
 1052SOL    HW114618   0.656   0.160   6.430  1.6882 -1.0420  1.5410
 1052SOL    HW214619   0.529   0.238   6.449  0.5304 -2.0527 -1.4727
 1053SOL     OW14620   3.000   1.381   4.968  0.2995 -0.3414  0.0600
 1053SOL    HW114621   3.007   1.326   4.889  0.8501 -2.6792  1.7328
 1053SOL    HW214622   2.929   1.439   4.942  1.9574  0.9203 -1.6139
 1054SOL     OW14623   1.862   1.571   3.710 -0.1534  0.4951  0.1849
 1054SOL    HW114624   1.881   1.602   3.621 -1.2438  2.8256  0.7652
 1054SOL    HW214625   1.910   1.640   3.756  1.1961 -1.2211  1.3183
 1055SOL     OW14626   0.412   0.994   5.640  0.9429 -0.4287  0.2498
 1055SOL    HW114627   0.449   1.008   5.553  0.3225  0.2774  0.1035
 1055SOL    HW214628   0.351   1.067   5.644 -1.0716 -2.2424  2.3185
 1056SOL     OW14629   3.405   1.749   3.191 -0.6099 -0.3994  0.4823
 1056SOL    HW114630   3.361   1.665   3.203 -1.8016  0.5399  2.7888
 1056SOL    HW214631   3.350   1.809   3.242  0.4340 -0.7063  1.9870
 1057SOL     OW14632   0.458   1.041   7.934 -0.2908  0.1999  0.3934
 1057SOL    HW114633   0.412   1.026   8.016 -1.0524  0.0364 -0.0622
 1057SOL    HW214634   0.409   1.113   7.893 -0.6527 -0.3134 -0.0680
 1058SOL     OW14635   3.626   3.970  15.872  0.0815  0.4876  0.0395
 1058SOL    HW114636   3.544   4.005  15.836 -0.8450 -0.3902  1.2829
 1058SOL    HW214637   3.684   3.972  15.795 -0.7801  1.3996 -0.5971
 1059SOL     OW14638   3.828   0.900  15.173 -0.1153 -0.2447 -0.3680
 1059SOL    HW114639   3.865   0.941  15.252  1.8097 -0.0967 -1.3395
 1059SOL    HW214640   3.774   0.966  15.130  0.1164 -0.9064 -1.6752
 1060SOL     OW14641   1.586   0.158   0.595  0.2667 -0.9248 -0.1987
 1060SOL    HW114642   1.535   0.124   0.521  0.7166 -0.2858 -0.8071
 1060SOL    HW214643   1.523   0.224   0.623  0.5522 -0.3178 -0.9630
 1061SOL     OW14644   3.025   0.116   6.110  0.8903  0.1146  0.3149
 1061SOL    HW114645   3.002   0.077   6.026  1.5670 -0.3183  0.3250
 1061SOL    HW214646   3.113   0.093   6.140  1.4842  1.8354 -0.0842
 1062SOL     OW14647   1.697   2.530  14.032 -0.2996 -0.0930  0.1447
 1062SOL    HW114648   1.787   2.510  14.057 -0.2946 -0.0467  0.1635
 1062SOL    HW214649   1.690   2.487  13.947  0.9131  0.9805 -0.4944
 1063SOL     OW14650   3.107   4.598   8.683  0.3383 -0.5458  0.0634
 1063SOL    HW114651   3.060   4.655   8.622  1.1707  0.8199  0.7037
 1063SOL    HW214652   3.112   4.656   8.759 -0.4674  1.0830 -1.1231
 1064SOL     OW14653   3.775   1.558   5.031 -0.7076 -0.4203  0.0294
 1064SOL    HW114654   3.865   1.538   5.057 -0.9169  1.0188  1.8477
 1064SOL    HW214655   3.721   1.520   5.101 -0.4498  1.9407  1.5022
 1065SOL     OW14656   2.671   3.661   4.737 -0.3453 -0.7890  0.0714
 1065SOL    HW114657   2.636   3.593   4.795 -1.4727 -0.4975 -0.2707
 1065SOL    HW214658   2.600   3.725   4.741  1.4567  1.3634 -2.4639
 1066SOL     OW14659   3.648   1.673   4.786  0.1338  0.0649  0.2930
 1066SOL    HW114660   3.557   1.647   4.776  0.6186 -1.9478  1.1285
 1066SOL    HW214661   3.677   1.644   4.872  0.1528  0.9880  0.5999
 1067SOL     OW14662   1.043   0.217  14.083 -0.1139 -0.2250  0.1308
 1067SOL    HW114663   0.960   0.172  14.065 -0.1918 -0.6829  1.5975
 1067SOL    HW214664   1.020   0.307  14.059 -0.3012 -0.7313 -1.6063
 1068SOL     OW14665   2.958   0.068   8.553  1.2335 -0.4052  0.8938
 1068SOL    HW114666   2.893   0.012   8.596  1.0215 -0.7631  0.0889
 1068SOL    HW214667   2.937   0.156   8.586 -1.7525 -0.1434 -1.7748
 1069SOL     OW14668   0.258   2.813  15.803 -0.1615  0.3526  0.1574
 1069SOL    HW114669   0.247   2.818  15.708  0.7378 -0.9357 -0.0030
 1069SOL    HW214670   0.221   2.729  15.828  0.8930 -0.6131 -1.5711
 1070SOL     OW14671   1.348   3.696  16.620 -0.3271  0.3199 -0.8334
 1070SOL    HW114672   1.281   3.670  16.683  0.4175  0.7357  0.1408
 1070SOL    HW214673   1.404   3.619  16.630 -0.8202  0.3724  2.2179
 1071SOL     OW14674   4.357   2.687   6.691  0.1874  0.0684  0.5834
 1071SOL    HW114675   4.446   2.693   6.658 -0.4873 -3.6223 -1.8934
 1071SOL    HW214676   4.342   2.776   6.721 -2.1523  0.2396 -1.0792
 1072SOL     OW14677   2.070   0.907   5.201 -0.4669  0.0729 -0.2379
 1072SOL    HW114678   2.115   0.824   5.184 -0.3945 -0.0113  0.3545
 1072SOL    HW214679   1.980   0.876   5.209 -1.0301  2.0750  1.1716
 1073SOL     OW14680   2.370   4.511   1.366 -0.2275 -0.0650 -0.0481
 1073SOL    HW114681   2.445   4.453   1.349  0.5818 -0.1135  3.8222
 1073SOL    HW214682   2.299   4.474   1.313 -1.7840  2.1736  0.5024
 1074SOL     OW14683   0.663   0.586   1.495 -0.8673 -0.0771  0.4196
 1074SOL    HW114684   0.717   0.665   1.506 -1.3155  0.3908 -0.7642
 1074SOL    HW214685   0.583   0.612   1.541  0.7395  1.4253  2.3606
 1075SOL     OW14686   2.792   3.045   6.039  0.2354  0.3793  0.7059
 1075SOL    HW114687   2.758   3.004   6.119 -1.4509 -0.8337 -0.6429
 1075SOL    HW214688   2.874   3.082   6.071  0.3673  2.1065 -1.6403
 1076SOL     OW14689   1.003   4.424   8.187 -0.3029 -0.6509  0.1437
 1076SOL    HW114690   1.040   4.359   8.127 -0.1026 -0.6598  0.2779
 1076SOL    HW214691   1.077   4.484   8.195 -0.4872 -0.6002  1.4327
 1077SOL     OW14692   2.082   1.811   7.920 -0.0762  0.3376 -0.3631
 1077SOL    HW114693   2.105   1.835   8.009 -0.8440 -0.8650  0.1594
 1077SOL    HW214694   2.030   1.888   7.899 -0.4614 -0.6493 -3.0938
 1078SOL     OW14695   1.341   0.551   6.474 -0.5508 -0.6406  0.4252
 1078SOL    HW114696   1.394   0.623   6.509  1.1394 -1.1932 -1.0221
 1078SOL    HW214697   1.406   0.503   6.423  0.6319 -0.5877  1.8680
 1079SOL     OW14698   4.158   0.751  15.064 -0.2007  0.1866  0.1514
 1079SOL    HW114699   4.140   0.701  15.143 -1.2567 -0.1135 -0.2784
 1079SOL    HW214700   4.154   0.837  15.106 -0.6926 -1.0801  2.6835
 1080SOL     OW14701   3.392   4.408  11.101  0.3740 -0.7769 -0.3127
 1080SOL    HW114702   3.465   4.394  11.040  0.5791 -0.1756 -0.2073
 1080SOL    HW214703   3.420   4.488  11.145 -0.7225  0.0809 -1.1856
 1081SOL     OW14704   0.885   2.164   3.798  0.1992 -0.0376  0.0607
 1081SOL    HW114705   0.940   2.164   3.877  1.0211 -0.7275 -0.5062
 1081SOL    HW214706   0.836   2.244   3.815 -1.0211 -0.6626 -0.4947
 1082SOL     OW14707   1.126   4.023   5.827  0.2231  0.3442 -0.1131
 1082SOL    HW114708   1.086   4.098   5.782  0.0825  0.0651 -0.4611
 1082SOL    HW214709   1.095   4.040   5.916 -0.9007  1.6030 -0.7458
 1083SOL     OW14710   3.576   0.833  13.492  0.1714  0.2664 -0.6458
 1083SOL    HW114711   3.642   0.849  13.424  0.2242 -0.4580 -0.7651
 1083SOL    HW214712   3.530   0.753  13.465 -1.9181  1.2975 -0.1558
 1084SOL     OW14713   3.926   2.513  15.478 -0.3870 -0.0701  0.2315
 1084SOL    HW114714   3.886   2.570  15.544  0.7932  2.3596 -1.1564
 1084SOL    HW214715   3.864   2.440  15.479 -0.1957 -0.2062  1.8863
 1085SOL     OW14716   1.279   3.115   5.895 -0.3075 -0.1369  0.4301
 1085SOL    HW114717   1.275   3.209   5.879 -1.9091 -0.2665  0.0383
 1085SOL    HW214718   1.186   3.095   5.908 -0.0079 -1.2974  0.7930
 1086SOL     OW14719   3.073   1.432   9.029 -0.3992  0.4068 -0.3459
 1086SOL    HW114720   3.147   1.372   9.022 -2.0905 -1.7165  0.2548
 1086SOL    HW214721   3.093   1.479   9.110 -0.2801 -1.0149  0.4333
 1087SOL     OW14722   2.105   0.348   8.909  0.2612 -0.3159 -0.4420
 1087SOL    HW114723   2.019   0.377   8.939  0.0106 -0.7356 -0.7720
 1087SOL    HW214724   2.129   0.286   8.978 -0.4084  0.8525  0.8603
 1088SOL     OW14725   3.911   0.671   7.076 -0.2071 -0.3705 -0.4396
 1088SOL    HW114726   3.874   0.681   6.989  1.3474  3.3728 -0.6791
 1088SOL    HW214727   3.840   0.625   7.121 -0.3777 -0.1831 -0.5136
 1089SOL     OW14728   1.405   3.922   4.823  0.0694  0.2990 -0.1387
 1089SOL    HW114729   1.454   3.886   4.897 -0.3097 -0.8321 -0.4373
 1089SOL    HW214730   1.397   4.011   4.856 -1.7719 -0.2257  0.8709
 1090SOL     OW14731   1.929   4.289   1.342  0.3664 -0.1277  0.3181
 1090SOL    HW114732   1.872   4.365   1.333 -1.2600 -1.1210  2.1097
 1090SOL    HW214733   2.018   4.322   1.326  0.7190 -0.7551  0.9639
 1091SOL     OW14734   1.219   3.471  11.692  0.1930  0.1001  1.0271
 1091SOL    HW114735   1.148   3.419  11.655  1.8642 -2.6398  1.6755
 1091SOL    HW214736   1.221   3.536  11.622  2.2207 -0.1997  0.8199
 1092SOL     OW14737   1.426   1.164   1.164  0.0610 -0.1056  0.0381
 1092SOL    HW114738   1.454   1.077   1.134  0.7235  0.5323 -1.2045
 1092SOL    HW214739   1.510   1.205   1.184  0.5013 -0.2862 -1.3835
 1093SOL     OW14740   1.652   3.010   3.390  0.3409 -0.5058  0.0601
 1093SOL    HW114741   1.589   3.082   3.388  2.4885  1.3935 -0.1198
 1093SOL    HW214742   1.705   3.025   3.468 -3.9058  1.1778  2.5921
 1094SOL     OW14743   2.249   1.215   3.247  0.5713 -0.5121  0.4875
 1094SOL    HW114744   2.165   1.259   3.235  1.0982  0.1080 -0.9319
 1094SOL    HW214745   2.226   1.146   3.310 -0.1187  0.3048  1.1336
 1095SOL     OW14746   4.616   2.667   0.687  0.1902  0.2837  0.2856
 1095SOL    HW114747   4.524   2.647   0.673  0.2484  1.1873 -1.4420
 1095SOL    HW214748   4.654   2.596   0.634 -0.4745 -0.1591  0.4044
 1096SOL     OW14749   4.500   3.762  12.898  0.0521 -0.1888  0.2406
 1096SOL    HW114750   4.557   3.777  12.972 -0.4296 -0.9283  0.7664
 1096SOL    HW214751   4.482   3.668  12.898 -1.0772  0.0390  1.9077
 1097SOL     OW14752   0.810   0.998   5.548 -0.0419  0.1033 -0.4602
 1097SOL    HW114753   0.858   0.949   5.481  1.0733 -0.2245  0.5829
 1097SOL    HW214754   0.804   0.932   5.617 -0.9356 -1.0170 -1.6065
 1098SOL     OW14755   3.311   3.509   9.240 -0.2214  0.7054  0.3820
 1098SOL    HW114756   3.315   3.464   9.156 -1.5872 -0.0093  0.7099
 1098SOL    HW214757   3.378   3.465   9.292 -0.1118  0.0125 -0.3494
 1099SOL     OW14758   3.745   2.967   2.266 -0.3336 -0.0779 -1.1116
 1099SOL    HW114759   3.716   3.058   2.270  1.5580  0.4739  0.0816
 1099SOL    HW214760   3.835   2.973   2.233 -0.7028  0.9286 -1.9488
 1100SOL     OW14761   1.047   1.146   3.051  0.0725  0.4911  0.1178
 1100SOL    HW114762   1.016   1.220   3.103  0.1309 -0.3703  1.3714
 1100SOL    HW214763   1.065   1.193   2.970  2.4912 -0.5837  0.0424
 1101SOL     OW14764   0.523   1.365  15.164  0.4501  0.5136 -0.1015
 1101SOL    HW114765   0.540   1.421  15.240  2.7496  1.1916 -1.1045
 1101SOL    HW214766   0.608   1.326  15.143 -0.6065 -2.4573  1.0527
 1102SOL     OW14767   3.934   2.273  17.689  0.5425 -0.7843 -0.1611
 1102SOL    HW114768   3.914   2.260   0.086  0.7376  0.3903  0.0426
 1102SOL    HW214769   3.929   2.368  17.686 -0.8733 -0.8988 -1.3660
 1103SOL     OW14770   2.927   0.702  15.713 -0.0179  0.5381  0.2789
 1103SOL    HW114771   2.860   0.721  15.778 -0.2859 -1.2740  0.5441
 1103SOL    HW214772   2.907   0.766  15.644 -1.1279 -0.7199 -0.5599
 1104SOL     OW14773   2.224   2.599   6.102  0.6898  0.2517 -0.2929
 1104SOL    HW114774   2.147   2.548   6.127  1.3153  0.0967  1.3075
 1104SOL    HW214775   2.221   2.599   6.007 -1.0703 -3.6636 -0.2563
 1105SOL     OW14776   0.095   2.096   7.525 -0.2100  0.8644 -0.1126
 1105SOL    HW114777   0.161   2.046   7.476  0.2003  0.1395  1.1917
 1105SOL    HW214778   0.061   2.162   7.464  0.0357 -0.7286 -1.9950
 1106SOL     OW14779   0.625   4.512   4.344 -0.0312  0.4538 -0.5346
 1106SOL    HW114780   0.595   4.437   4.396  2.4241  0.4996  0.9515
 1106SOL    HW214781   0.675   4.458   4.283 -1.4074  1.3639 -2.4585
 1107SOL     OW14782   0.572   0.148   4.062 -0.8320 -0.0724 -0.2427
 1107SOL    HW114783   0.589   0.131   4.155 -0.4957  2.0594  0.0730
 1107SOL    HW214784   0.567   0.061   4.022 -0.2141  0.1635 -0.8319
 1108SOL     OW14785   3.587   0.672   8.622 -0.6838 -0.1091 -0.6636
 1108SOL    HW114786   3.682   0.661   8.622 -0.4280  2.1052 -1.8750
 1108SOL    HW214787   3.564   0.643   8.534  0.2162 -1.2646 -0.5107
 1109SOL     OW14788   3.721   3.105   4.285 -0.3397  0.3147  0.3935
 1109SOL    HW114789   3.651   3.108   4.219  2.3840  1.6197 -2.4154
 1109SOL    HW214790   3.673   3.064   4.357 -2.3404  0.7753 -0.6663
 1110SOL     OW14791   4.229   0.409   3.878  0.3995 -0.1668  0.8843
 1110SOL    HW114792   4.204   0.495   3.843 -3.3754 -1.8859 -0.6739
 1110SOL    HW214793   4.145   0.370   3.855  0.2940 -0.2138  1.3594
 1111SOL     OW14794   1.889   1.111   1.781  0.1686 -0.1230 -0.5999
 1111SOL    HW114795   1.966   1.055   1.795  0.6292  0.3592 -1.1945
 1111SOL    HW214796   1.873   1.135   1.872 -2.4427  1.3038 -1.4545
 1112SOL     OW14797   1.783   2.253   2.779  0.5111 -0.4717  0.4494
 1112SOL    HW114798   1.703   2.305   2.767  1.5771  0.8621 -0.8383
 1112SOL    HW214799   1.818   2.240   2.691  0.3596  3.2665 -0.1436
 1113SOL     OW14800   3.370   2.726   4.195 -0.0904  0.3403  0.3238
 1113SOL    HW114801   3.439   2.756   4.136  0.6609  2.0284  2.0230
 1113SOL    HW214802   3.427   2.707   4.270  0.1844  0.1888  0.0772
 1114SOL     OW14803   1.719   3.100   3.007 -0.3627 -0.3711 -0.2249
 1114SOL    HW114804   1.696   3.053   3.086  2.9210  1.2088  1.6671
 1114SOL    HW214805   1.813   3.082   3.002  0.3166  1.8693  4.1055
 1115SOL     OW14806   3.905   3.612   7.417 -0.0506 -0.5207 -0.3423
 1115SOL    HW114807   3.911   3.656   7.332 -1.0414  2.1941  1.0016
 1115SOL    HW214808   3.955   3.663   7.480  1.7727  0.2641 -2.4091
 1116SOL     OW14809   2.015   2.460   5.531  0.4504  0.2398 -0.0804
 1116SOL    HW114810   1.950   2.390   5.522  1.8221 -0.6633 -3.0687
 1116SOL    HW214811   1.983   2.514   5.603 -0.9919 -1.6887  0.7500
 1117SOL     OW14812   0.864   2.177   3.239 -0.3103 -0.0776  0.0366
 1117SOL    HW114813   0.856   2.204   3.330  1.7647  0.3534  0.1059
 1117SOL    HW214814   0.788   2.220   3.201  0.4020  0.7299 -0.4766
 1118SOL     OW14815   4.591   3.162   8.644 -0.5628  0.2547 -0.5014
 1118SOL    HW114816   4.634   3.105   8.581  1.3553 -1.4316  2.3339
 1118SOL    HW214817   4.664   3.220   8.663  1.0943 -1.7133 -0.8873
 1119SOL     OW14818   2.092   1.889   2.258 -0.0975 -0.5637  0.6137
 1119SOL    HW114819   2.032   1.909   2.185 -0.3026  1.6895  1.4059
 1119SOL    HW214820   2.149   1.964   2.239  0.0699 -0.3245  2.0932
 1120SOL     OW14821   3.127   3.779   8.922  0.1705 -0.2691  0.0056
 1120SOL    HW114822   3.050   3.769   8.865  0.1246 -2.1976  0.4045
 1120SOL    HW214823   3.131   3.690   8.957 -2.3315  0.2100  1.5460
 1121SOL     OW14824   0.279   0.622   7.426 -0.0071 -0.2668 -0.4843
 1121SOL    HW114825   0.199   0.624   7.373 -1.3725  1.2764  1.5933
 1121SOL    HW214826   0.263   0.706   7.470  0.0188 -0.5606  0.0837
 1122SOL     OW14827   2.656   1.927   4.814 -0.2183  0.4984  0.3752
 1122SOL    HW114828   2.668   2.000   4.753 -2.1943 -0.1761 -0.8271
 1122SOL    HW214829   2.743   1.887   4.813 -1.1695 -1.5459 -1.6858
 1123SOL     OW14830   4.149   0.838   0.480  0.0950  0.1591 -0.6731
 1123SOL    HW114831   4.189   0.765   0.432 -0.0609 -0.6898  0.4762
 1123SOL    HW214832   4.189   0.815   0.564  0.3600  2.4410 -0.1886
 1124SOL     OW14833   4.293   2.465   7.959  0.1958  0.3594 -0.0727
 1124SOL    HW114834   4.338   2.454   8.043 -0.3045  3.3713  0.6037
 1124SOL    HW214835   4.330   2.399   7.901  2.7290  1.7916 -0.0881
 1125SOL     OW14836   0.451   0.676   9.166 -0.2002  1.3700  0.4120
 1125SOL    HW114837   0.378   0.734   9.188 -2.0842 -1.0904  0.6412
 1125SOL    HW214838   0.522   0.729   9.201  2.1381 -0.6707 -1.2701
 1126SOL     OW14839   0.198   2.497   8.290 -0.0558  0.1973 -0.4463
 1126SOL    HW114840   0.160   2.572   8.336 -1.3619 -1.0188  0.4602
 1126SOL    HW214841   0.257   2.465   8.359  0.3191  0.3504 -0.6985
 1127SOL     OW14842   0.412   2.368   2.374  0.0875 -0.8534  0.2905
 1127SOL    HW114843   0.372   2.288   2.408 -0.6157 -0.4812  0.3528
 1127SOL    HW214844   0.388   2.436   2.437 -1.9220  0.1947 -1.6000
 1128SOL     OW14845   0.514   0.804   4.537 -0.1813 -0.0869  0.2904
 1128SOL    HW114846   0.590   0.772   4.587 -1.4555  2.9338  4.1988
 1128SOL    HW214847   0.462   0.857   4.597 -1.4834  0.9635 -1.8020
 1129SOL     OW14848   3.322   3.956   5.067  0.2519  0.5814  0.3488
 1129SOL    HW114849   3.346   4.035   5.019  0.1542  1.1627  1.2548
 1129SOL    HW214850   3.279   3.992   5.146 -1.0619  2.0510 -1.0350
 1130SOL     OW14851   1.995   0.572   4.606  0.2538  0.7035 -0.2809
 1130SOL    HW114852   1.999   0.586   4.511 -0.8975  0.8967 -0.3021
 1130SOL    HW214853   1.938   0.646   4.626  2.0617  2.6632 -2.3082
 1131SOL     OW14854   2.789   4.243   6.148  0.0857  0.8408 -0.3122
 1131SOL    HW114855   2.813   4.319   6.201  3.0239 -0.4440  0.1638
 1131SOL    HW214856   2.874   4.204   6.127 -0.1098  0.1488  0.2064
 1132SOL     OW14857   2.353   1.655  16.617 -0.5745  0.4953 -0.0456
 1132SOL    HW114858   2.271   1.666  16.665 -0.9419 -0.5545 -0.4327
 1132SOL    HW214859   2.340   1.721  16.549 -0.5147  1.7761  1.1784
 1133SOL     OW14860   4.162   3.838   2.615  0.2492 -0.2583  0.0299
 1133SOL    HW114861   4.251   3.805   2.629  0.3335 -0.7920 -1.7376
 1133SOL    HW214862   4.118   3.835   2.700  0.5326  0.4164  0.1963
 1134SOL     OW14863   2.084   4.438  15.874  0.1813 -0.3406 -0.3191
 1134SOL    HW114864   2.144   4.429  15.948 -0.2143  1.0465  0.1706
 1134SOL    HW214865   2.151   4.439  15.806 -1.8564 -0.5812 -2.3029
 1135SOL     OW14866   1.837   2.461   3.142 -0.0047 -0.5312  0.2883
 1135SOL    HW114867   1.820   2.545   3.101 -0.3930 -1.2328 -1.0022
 1135SOL    HW214868   1.838   2.481   3.236 -2.3930 -3.1917  0.8760
 1136SOL     OW14869   2.031   3.812  11.135  0.0743  0.0025 -0.4160
 1136SOL    HW114870   2.052   3.723  11.166 -0.2794 -0.0420 -0.3048
 1136SOL    HW214871   1.953   3.800  11.081  0.3891  0.7642 -1.0338
 1137SOL     OW14872   1.520   2.206   2.044 -0.6800  0.1010 -0.1042
 1137SOL    HW114873   1.535   2.114   2.023  1.7252  0.5427 -0.3040
 1137SOL    HW214874   1.544   2.250   1.963 -1.0531 -0.2980 -0.4315
 1138SOL     OW14875   3.823   1.367   5.569 -0.1854 -0.5900 -0.3965
 1138SOL    HW114876   3.854   1.362   5.478  1.5567  0.1551  0.1632
 1138SOL    HW214877   3.903   1.405   5.606 -0.4190  0.3262 -0.8396
 1139SOL     OW14878   0.669   3.250  14.046  0.1351 -0.6665  0.6440
 1139SOL    HW114879   0.643   3.258  14.138 -2.7473 -1.4470 -0.1242
 1139SOL    HW214880   0.598   3.295  14.002 -0.3330  0.8395  2.9401
 1140SOL     OW14881   0.077   1.352   5.198  0.4361 -0.3997 -0.2396
 1140SOL    HW114882   0.135   1.306   5.137  0.5397  1.7795 -1.7779
 1140SOL    HW214883   0.122   1.437   5.187 -0.4100 -0.3869 -3.6161
 1141SOL     OW14884   1.009   1.525   1.911 -0.4530 -0.2506  0.5243
 1141SOL    HW114885   1.002   1.435   1.881 -0.2594 -0.1066  0.0414
 1141SOL    HW214886   1.101   1.542   1.888 -0.4242 -0.4631  0.4810
 1142SOL     OW14887   0.266   2.743   8.043  0.3406 -0.2753  0.3216
 1142SOL    HW114888   0.227   2.817   7.996  2.8808  0.6890 -0.2767
 1142SOL    HW214889   0.191   2.685   8.050  1.3153 -1.4618  0.8591
 1143SOL     OW14890   0.839   3.257   5.754 -0.2138  0.4853 -0.6648
 1143SOL    HW114891   0.931   3.279   5.736  0.7624 -1.3072  2.0956
 1143SOL    HW214892   0.840   3.163   5.738 -0.7743  0.7028 -1.9643
 1144SOL     OW14893   2.205   0.384   2.285 -0.1220  1.0469 -0.3048
 1144SOL    HW114894   2.213   0.382   2.190 -0.3758 -1.0056 -0.2847
 1144SOL    HW214895   2.255   0.461   2.314  0.7473  0.0885  0.7660
 1145SOL     OW14896   2.652   3.819  17.533 -0.0782  0.4055  0.3755
 1145SOL    HW114897   2.564   3.837  17.499  1.5939  1.5232 -3.3980
 1145SOL    HW214898   2.625   3.767  17.608 -1.4419  1.4732  0.6201
 1146SOL     OW14899   1.135   4.295   6.309  0.3613  0.6485 -0.4651
 1146SOL    HW114900   1.139   4.381   6.350  0.9256  0.6050 -0.4352
 1146SOL    HW214901   1.086   4.240   6.370  3.7067 -3.2024 -1.2627
 1147SOL     OW14902   0.863   1.811   5.419 -0.0603  0.4298  0.0584
 1147SOL    HW114903   0.912   1.892   5.436 -1.8409  1.2467  1.2030
 1147SOL    HW214904   0.914   1.749   5.471  1.1540  0.4895 -1.0671
 1148SOL     OW14905   0.556   2.728   4.359 -0.2741 -0.1133 -0.6035
 1148SOL    HW114906   0.489   2.783   4.318 -0.5377  0.6681  0.8657
 1148SOL    HW214907   0.566   2.663   4.290 -3.8671 -0.9970 -0.2642
 1149SOL     OW14908   3.884   1.036   8.083 -0.2635  0.0722  0.2842
 1149SOL    HW114909   3.869   1.116   8.032  0.0414  0.3514  0.6292
 1149SOL    HW214910   3.797   0.995   8.083  0.3064 -1.1461  1.7143
 1150SOL     OW14911   3.821   4.214   5.695  0.0345  0.0531  0.0321
 1150SOL    HW114912   3.782   4.273   5.760 -0.7602  0.5868 -0.9315
 1150SOL    HW214913   3.912   4.245   5.693  0.0832 -0.2269 -3.1407
 1151SOL     OW14914   2.875   1.318  10.954  1.0184  0.3661 -0.5579
 1151SOL    HW114915   2.944   1.265  10.992 -0.4030 -1.7410 -0.9090
 1151SOL    HW214916   2.833   1.360  11.029 -0.4690  1.6512 -2.0916
 1152SOL     OW14917   2.336   3.004   6.585 -0.5263 -0.0017 -1.2058
 1152SOL    HW114918   2.403   2.993   6.653 -2.1992 -1.2384  0.2534
 1152SOL    HW214919   2.346   2.918   6.545 -0.1694 -1.9340  2.9499
 1153SOL     OW14920   1.883   1.696   7.008  0.0807  0.0593 -0.2875
 1153SOL    HW114921   1.868   1.629   7.075 -1.0533  0.0441 -0.5674
 1153SOL    HW214922   1.975   1.708   7.034 -0.5053  0.1850  1.7391
 1154SOL     OW14923   2.493   2.458  12.265 -0.3139  0.0550 -0.2835
 1154SOL    HW114924   2.469   2.455  12.358 -2.4823  1.5530 -0.7874
 1154SOL    HW214925   2.491   2.366  12.242  0.4024  0.7053 -2.9253
 1155SOL     OW14926   0.818   0.653   2.864  0.0846 -0.2152  0.1929
 1155SOL    HW114927   0.818   0.592   2.937  3.4091  1.4689  1.5844
 1155SOL    HW214928   0.730   0.635   2.829  0.3162 -2.2397  0.6349
 1156SOL     OW14929   1.060   3.065   2.122  0.3912  0.0913 -0.0848
 1156SOL    HW114930   1.081   3.014   2.201  1.3811  0.0139 -0.3962
 1156SOL    HW214931   0.984   3.010   2.103 -0.8373  2.1462 -1.1798
 1157SOL     OW14932   3.086   3.837   7.030  0.0054  0.2047  0.1589
 1157SOL    HW114933   3.133   3.801   7.105 -0.5144  0.4867  0.6212
 1157SOL    HW214934   3.134   3.784   6.966 -0.6033  1.9390 -1.7327
 1158SOL     OW14935   2.144   2.001   6.960 -0.1639 -0.0387  0.1442
 1158SOL    HW114936   2.128   1.999   6.865  1.6110  0.6408 -0.1700
 1158SOL    HW214937   2.052   2.007   6.985 -0.4695  1.7908 -1.3726
 1159SOL     OW14938   0.446   4.339   6.287 -0.2901 -0.6166  0.5669
 1159SOL    HW114939   0.448   4.259   6.235 -2.4428  0.3907 -1.0729
 1159SOL    HW214940   0.541   4.344   6.295 -0.2469 -0.9179  0.2513
 1160SOL     OW14941   4.514   0.635  12.693 -0.6777  0.2667 -0.5608
 1160SOL    HW114942   4.529   0.559  12.638 -0.3040  0.7288 -1.0972
 1160SOL    HW214943   4.592   0.635  12.749 -1.5597  1.1141  0.6762
 1161SOL     OW14944   1.570   1.378   2.287 -0.3748 -0.0717 -0.0501
 1161SOL    HW114945   1.631   1.432   2.338 -0.8023  1.3068 -0.9859
 1161SOL    HW214946   1.515   1.334   2.352 -2.0368  0.4761 -1.0963
 1162SOL     OW14947   4.214   2.495   5.119  0.9002  0.4746 -0.8614
 1162SOL    HW114948   4.263   2.552   5.177  0.6003  1.1460 -1.2725
 1162SOL    HW214949   4.210   2.412   5.166  1.4260  1.8203  1.5284
 1163SOL     OW14950   1.154   4.030   0.066 -0.3646  0.1085  0.2317
 1163SOL    HW114951   1.067   3.993   0.078 -0.0991 -1.6624 -3.5532
 1163SOL    HW214952   1.198   4.022   0.151  1.7942  1.4114 -0.7428
 1164SOL     OW14953   0.545   4.659   9.502  0.3010  0.8097 -0.4485
 1164SOL    HW114954   0.509   4.627   9.419  2.4106  0.9759 -1.4382
 1164SOL    HW214955   0.571   4.583   9.554 -0.1071  3.2696  3.3120
 1165SOL     OW14956   1.371   2.974   2.275  0.3482 -0.4273  0.1037
 1165SOL    HW114957   1.380   3.027   2.355 -0.7098  0.5676 -0.4344
 1165SOL    HW214958   1.315   2.904   2.306 -0.0280  0.7155  2.0452
 1166SOL     OW14959   4.040   2.872   5.631  0.2897 -0.2206  0.2413
 1166SOL    HW114960   4.021   2.946   5.688 -2.4494  0.8671 -2.0649
 1166SOL    HW214961   4.005   2.903   5.547  1.1364  1.3981  0.5004
 1167SOL     OW14962   2.741   2.601   8.551  0.4230 -0.2193 -0.3780
 1167SOL    HW114963   2.829   2.617   8.517  0.6082 -3.4395 -1.3892
 1167SOL    HW214964   2.723   2.682   8.600 -0.6330 -1.0026  0.5249
 1168SOL     OW14965   0.665   2.149  11.529 -0.1353  0.6157 -0.0605
 1168SOL    HW114966   0.673   2.237  11.494 -1.4169  0.5424 -0.5344
 1168SOL    HW214967   0.576   2.121  11.505  0.0338 -1.0008  1.1395
 1169SOL     OW14968   3.733   0.041   0.729  0.0413  0.1797 -0.2644
 1169SOL    HW114969   3.723   4.699   0.660 -1.9712  0.2178 -0.0035
 1169SOL    HW214970   3.756   0.119   0.679  0.0305  0.9425  0.9049
 1170SOL     OW14971   1.711   0.879   8.747 -0.9990  0.0581 -0.1373
 1170SOL    HW114972   1.752   0.794   8.729  0.8882  0.3415  2.8010
 1170SOL    HW214973   1.730   0.929   8.668 -3.4719 -0.0378 -0.8002
 1171SOL     OW14974   1.305   2.982  16.268  0.0742 -0.2211  0.0002
 1171SOL    HW114975   1.233   2.992  16.205  1.3809  0.3436 -1.4132
 1171SOL    HW214976   1.319   3.073  16.295  0.4944  0.0792 -1.2034
 1172SOL     OW14977   0.515   0.544   6.602  0.3370 -0.0675 -0.4726
 1172SOL    HW114978   0.516   0.450   6.586  1.1972  0.0972 -1.3247
 1172SOL    HW214979   0.476   0.544   6.690 -3.0438 -0.5919 -1.9550
 1173SOL     OW14980   4.194   0.953   9.084 -0.3361  0.1020 -0.5910
 1173SOL    HW114981   4.103   0.963   9.054 -0.3811  0.2945 -0.3867
 1173SOL    HW214982   4.230   0.999   9.008 -1.6894  0.9355 -0.7332
 1174SOL     OW14983   3.088   1.610   3.537 -0.1975  0.2826 -0.4454
 1174SOL    HW114984   3.183   1.602   3.537  0.0584  3.1598  1.3734
 1174SOL    HW214985   3.052   1.589   3.451  0.4429 -0.5354 -0.5104
 1175SOL     OW14986   4.503   2.992   6.778  0.3974  0.0481  0.5524
 1175SOL    HW114987   4.410   2.970   6.780  0.8213 -1.8030 -0.4897
 1175SOL    HW214988   4.517   3.020   6.688  1.0111 -0.3645  0.5169
 1176SOL     OW14989   4.301   1.092  10.761 -0.0312 -0.3686 -0.3146
 1176SOL    HW114990   4.382   1.094  10.710 -0.6167 -0.3911 -1.2401
 1176SOL    HW214991   4.230   1.104  10.698 -0.8440  0.2234  0.7166
 1177SOL     OW14992   2.877   0.988   4.345  0.2427  0.0402  0.6027
 1177SOL    HW114993   2.860   1.038   4.265  2.1712  0.8228  0.6884
 1177SOL    HW214994   2.964   1.021   4.367 -0.0067  0.8039  0.4247
 1178SOL     OW14995   3.774   2.623   3.868  0.3539 -1.2122 -0.0751
 1178SOL    HW114996   3.789   2.598   3.777  0.2559  0.1517 -0.4617
 1178SOL    HW214997   3.831   2.698   3.887 -1.8483  0.6786 -1.0246
 1179SOL     OW14998   1.545   3.410  11.383  0.4804 -0.1479 -0.2450
 1179SOL    HW114999   1.611   3.388  11.449 -0.9819  0.0678  1.2700
 1179SOL    HW215000   1.540   3.505  11.396  1.2706 -0.4047  1.8421
 1180SOL     OW15001   2.082   2.545   7.558 -0.2802 -0.2029  0.5982
 1180SOL    HW115002   2.167   2.579   7.533 -1.4037  0.3442 -2.5099
 1180SOL    HW215003   2.061   2.600   7.634  1.4202  0.1995  0.7553
 1181SOL     OW15004   0.109   1.773  12.526 -0.0281 -0.0134  0.1651
 1181SOL    HW115005   0.159   1.846  12.491 -0.4085  0.4402  0.5558
 1181SOL    HW215006   0.166   1.716  12.577  2.5465  1.7189 -0.7995
 1182SOL     OW15007   3.254   2.816   5.401  0.2321 -0.6513 -0.0847
 1182SOL    HW115008   3.253   2.838   5.307  1.0454 -0.9264 -0.1580
 1182SOL    HW215009   3.205   2.890   5.436  0.5355  0.2859 -1.6213
 1183SOL     OW15010   4.575   3.804  13.703 -0.0180 -0.3542  0.7206
 1183SOL    HW115011   4.584   3.882  13.758  2.4114 -1.1606  1.4622
 1183SOL    HW215012   4.559   3.848  13.619  1.2081 -1.4395 -0.0824
 1184SOL     OW15013   0.806   2.578   4.649 -0.0264 -0.3122 -0.4531
 1184SOL    HW115014   0.851   2.519   4.710  1.5966  1.8559  0.4286
 1184SOL    HW215015   0.830   2.662   4.687 -0.1892 -0.6531  0.3966
 1185SOL     OW15016   1.769   2.333  13.532 -0.9257 -0.0577 -0.1183
 1185SOL    HW115017   1.827   2.382  13.474 -0.5419  0.8754  1.0538
 1185SOL    HW215018   1.784   2.365  13.622 -0.9249  0.7403 -0.3980
 1186SOL     OW15019   0.041   3.035   6.226 -0.3337  0.2246  0.3161
 1186SOL    HW115020   0.076   2.953   6.190 -2.6805 -0.0916 -1.2283
 1186SOL    HW215021   0.117   3.072   6.271 -2.1456  3.0257  1.0844
 1187SOL     OW15022   2.783   1.377   3.157 -0.5872 -0.5869  0.0454
 1187SOL    HW115023   2.732   1.446   3.115 -0.7287 -0.9209 -0.3438
 1187SOL    HW215024   2.745   1.368   3.244  0.2603 -1.3094  0.3494
 1188SOL     OW15025   3.302   0.819   5.748 -0.0131 -0.5783  0.5368
 1188SOL    HW115026   3.237   0.888   5.762 -1.1870 -1.8932  1.6251
 1188SOL    HW215027   3.379   0.875   5.742 -0.9362  0.7531  1.1773
 1189SOL     OW15028   3.984   1.219   7.897 -0.4006 -0.4154 -0.0511
 1189SOL    HW115029   3.953   1.265   7.819  0.7120  0.9431  0.3064
 1189SOL    HW215030   4.071   1.192   7.870 -0.0722  0.1622  0.4261
 1190SOL     OW15031   3.367   4.592   4.479 -0.1125 -0.0826  0.7347
 1190SOL    HW115032   3.321   4.673   4.501 -0.1005  0.4717 -1.2943
 1190SOL    HW215033   3.363   4.606   4.384 -4.0248  1.7459  1.1630
 1191SOL     OW15034   0.528   4.459   8.116  0.8828  1.1258  0.3832
 1191SOL    HW115035   0.583   4.537   8.114  2.4516 -0.0141 -1.4782
 1191SOL    HW215036   0.450   4.490   8.070  0.4217 -1.6346 -0.6853
 1192SOL     OW15037   0.923   1.511  15.259  0.5249 -0.1250 -0.1668
 1192SOL    HW115038   0.984   1.449  15.219  2.3409  1.4374  0.1891
 1192SOL    HW215039   0.892   1.454  15.329  1.5918 -0.6355 -0.1084
 1193SOL     OW15040   3.454   2.930   5.723 -0.6023 -0.4175 -0.5373
 1193SOL    HW115041   3.526   2.933   5.660 -0.8195  2.3832 -0.6489
 1193SOL    HW215042   3.485   2.876   5.796  0.9477  0.9598 -0.1667
 1194SOL     OW15043   1.396   1.923   6.544 -0.4916  0.1598 -0.3061
 1194SOL    HW115044   1.415   1.872   6.465 -0.4811  1.5513 -1.2058
 1194SOL    HW215045   1.361   1.853   6.598 -1.8405  0.9983 -0.0909
 1195SOL     OW15046   0.688   1.795   0.887 -0.0018  0.6723 -0.4306
 1195SOL    HW115047   0.742   1.855   0.835  0.1190  1.2649  0.3727
 1195SOL    HW215048   0.692   1.717   0.833 -0.5395  0.3509 -0.0048
 1196SOL     OW15049   1.507   0.771   6.549 -0.3340  0.0821 -0.6503
 1196SOL    HW115050   1.507   0.848   6.606 -0.0965 -0.3252 -0.1022
 1196SOL    HW215051   1.602   0.760   6.542 -0.3245  0.2432 -0.7813
 1197SOL     OW15052   0.622   0.127  17.687 -0.3837  0.2931 -0.2234
 1197SOL    HW115053   0.621   0.039  17.650  0.4168  0.5774 -0.9204
 1197SOL    HW215054   0.699   0.114   0.046 -1.2555 -0.2885  0.8776
 1198SOL     OW15055   3.671   4.305   5.066 -0.4706 -0.1027  0.1758
 1198SOL    HW115056   3.747   4.269   5.112 -0.5631 -1.2943 -0.6225
 1198SOL    HW215057   3.686   4.245   4.993 -0.1741 -0.0274  0.1746
 1199SOL     OW15058   3.869   1.467   1.892  0.5357  0.3867  0.2854
 1199SOL    HW115059   3.797   1.444   1.834  0.8045 -0.7271  0.3808
 1199SOL    HW215060   3.909   1.539   1.845  1.9923 -1.0073 -0.5807
 1200SOL     OW15061   4.305   4.213  12.146  0.2902  0.0313 -0.4511
 1200SOL    HW115062   4.288   4.126  12.181  0.1528 -0.0473 -0.7110
 1200SOL    HW215063   4.305   4.263  12.228 -0.8584 -0.4395 -0.1555
 1201SOL     OW15064   4.365   1.961   7.220  0.0191  0.3436 -0.5481
 1201SOL    HW115065   4.449   1.926   7.251  0.6997  1.5421 -1.0269
 1201SOL    HW215066   4.391   2.008   7.141  1.1756  0.7746  0.0862
 1202SOL     OW15067   2.153   3.753   3.704  0.1065 -0.7010 -0.3072
 1202SOL    HW115068   2.244   3.782   3.707 -0.4352  0.8590  0.8326
 1202SOL    HW215069   2.126   3.779   3.616  0.1467 -0.4257 -0.2392
 1203SOL     OW15070   3.347   0.488  12.503 -0.4383 -0.0243 -0.2211
 1203SOL    HW115071   3.410   0.535  12.449 -0.9707  1.8437  0.7649
 1203SOL    HW215072   3.265   0.495  12.454 -1.6477 -0.8799  1.6555
 1204SOL     OW15073   2.665   1.252   8.597 -0.3243 -0.9705  0.7067
 1204SOL    HW115074   2.690   1.324   8.654 -0.5588 -0.5773  0.3074
 1204SOL    HW215075   2.627   1.299   8.523  0.3773 -0.5370  0.6218
 1205SOL     OW15076   0.945   0.509  11.207 -0.0245 -0.4407  0.1182
 1205SOL    HW115077   0.889   0.586  11.198 -0.3085 -0.9686 -2.7132
 1205SOL    HW215078   0.873   0.448  11.226  1.0150 -1.8939 -0.6783
 1206SOL     OW15079   0.522   0.504   8.962  0.4481 -0.5938 -0.0400
 1206SOL    HW115080   0.528   0.584   9.014 -1.5117 -1.1757  1.0801
 1206SOL    HW215081   0.561   0.443   9.025 -0.1197 -1.2813 -0.3586
 1207SOL     OW15082   4.661   1.640  10.709 -0.1987  0.5202  0.0792
 1207SOL    HW115083   4.697   1.639  10.621 -3.6847 -0.7211 -1.3258
 1207SOL    HW215084   4.687   1.727  10.740 -3.7768  1.9889 -1.0709
 1208SOL     OW15085   4.372   0.476   4.098 -0.1726 -0.1676 -0.6822
 1208SOL    HW115086   4.334   0.416   4.162  1.4069 -0.2405  0.1786
 1208SOL    HW215087   4.327   0.452   4.017  0.6725  0.2360 -1.2669
 1209SOL     OW15088   3.004   0.360  14.483  0.5479  0.1377  0.0048
 1209SOL    HW115089   3.099   0.358  14.485  0.5277 -1.1487 -0.3486
 1209SOL    HW215090   2.989   0.266  14.480 -0.7986  0.3098  1.0263
 1210SOL     OW15091   1.500   3.814   4.451  0.3855  0.9271 -0.3403
 1210SOL    HW115092   1.579   3.765   4.428  0.3625  1.1459 -0.8880
 1210SOL    HW215093   1.435   3.767   4.399  1.5316 -0.6109 -0.3948
 1211SOL     OW15094   4.209   4.095   4.828  0.3626 -0.3165  0.1775
 1211SOL    HW115095   4.239   4.037   4.897 -1.4051  0.3037  1.4732
 1211SOL    HW215096   4.282   4.157   4.825 -0.5093  0.7264  0.4849
 1212SOL     OW15097   3.822   4.241   6.358  0.0512 -0.2671  0.1244
 1212SOL    HW115098   3.818   4.170   6.421  1.3327  0.2537  0.7956
 1212SOL    HW215099   3.749   4.211   6.304  1.1563 -2.0007 -0.3975
 1213SOL     OW15100   2.905   0.594  17.086 -0.1666  0.4441 -0.3624
 1213SOL    HW115101   2.853   0.514  17.093 -1.2222  1.1773  0.1676
 1213SOL    HW215102   2.989   0.560  17.118 -1.1450 -1.0342  0.6190
 1214SOL     OW15103   2.208   4.274   1.290 -0.4069 -0.0881  0.2973
 1214SOL    HW115104   2.202   4.244   1.200 -0.5797  2.3951 -0.5301
 1214SOL    HW215105   2.276   4.218   1.327  0.6864  1.1672  0.1886
 1215SOL     OW15106   4.601   0.517  17.156 -0.0700 -0.3971 -0.2658
 1215SOL    HW115107   4.655   0.463  17.099 -0.6867  0.0352 -1.2613
 1215SOL    HW215108   4.607   0.473  17.241 -0.3544  1.8950  0.9355
 1216SOL     OW15109   1.925   3.483  14.881  0.0223 -0.4046 -0.4258
 1216SOL    HW115110   2.017   3.506  14.894  0.1514 -0.1021 -1.7923
 1216SOL    HW215111   1.924   3.387  14.879 -1.2458 -0.3928 -0.0734
 1217SOL     OW15112   1.311   3.863   6.197 -0.0176  0.2871  0.5813
 1217SOL    HW115113   1.346   3.812   6.123 -0.1120  1.6749 -0.4172
 1217SOL    HW215114   1.319   3.950   6.159  1.8236  0.5990  1.6666
 1218SOL     OW15115   3.553   1.705  12.185 -0.4477 -0.1329  0.1368
 1218SOL    HW115116   3.545   1.757  12.264  1.2555 -2.3369  1.7377
 1218SOL    HW215117   3.466   1.670  12.163  0.1025 -1.8030  0.5678
 1219SOL     OW15118   0.788   3.232   7.147  0.0211  0.3828 -0.1932
 1219SOL    HW115119   0.818   3.322   7.158 -1.1281  0.7708 -0.2360
 1219SOL    HW215120   0.731   3.213   7.221 -3.2079 -0.7713 -3.0062
 1220SOL     OW15121   0.871   4.023   9.226 -0.2922  0.0461  0.1094
 1220SOL    HW115122   0.941   4.081   9.255 -1.1217  1.5617 -0.9798
 1220SOL    HW215123   0.816   4.010   9.303 -0.5617  0.2309 -0.0537
 1221SOL     OW15124   3.605   4.499   6.231  0.2840 -1.1529  0.5188
 1221SOL    HW115125   3.603   4.545   6.315  0.6113 -0.9895  0.4385
 1221SOL    HW215126   3.643   4.564   6.172 -0.8153 -2.1731 -1.3267
 1222SOL     OW15127   2.841   3.216   8.472 -0.2869  0.2746 -0.0016
 1222SOL    HW115128   2.791   3.228   8.553  0.6363  0.3815  0.5507
 1222SOL    HW215129   2.886   3.139   8.507 -1.1740 -0.6416 -0.8526
 1223SOL     OW15130   3.856   0.368   6.741  0.6499 -0.3899  0.3366
 1223SOL    HW115131   3.876   0.278   6.717  0.6382 -0.7834  1.8102
 1223SOL    HW215132   3.916   0.421   6.688 -1.4342  0.0871 -1.5402
 1224SOL     OW15133   0.713   1.551   5.618  0.6898 -0.6743 -0.2575
 1224SOL    HW115134   0.659   1.621   5.580 -2.1904 -1.3313  2.6395
 1224SOL    HW215135   0.648   1.491   5.655 -2.6616  1.8392 -2.0314
 1225SOL     OW15136   3.910   0.256   7.771 -0.0354 -0.3269  0.0316
 1225SOL    HW115137   3.867   0.277   7.688 -1.6655  0.3284  1.0592
 1225SOL    HW215138   3.865   0.307   7.838 -1.1478 -0.7662 -0.3818
 1226SOL     OW15139   1.021   4.415   0.231  0.1237 -0.0727  0.3517
 1226SOL    HW115140   1.016   4.508   0.211  0.1699 -0.0823  0.2953
 1226SOL    HW215141   0.951   4.386   0.173  0.4682 -0.3951  0.0972
 1227SOL     OW15142   2.706   3.219  14.763  0.9199 -0.6413 -0.2159
 1227SOL    HW115143   2.717   3.124  14.760 -0.3747 -0.8028 -0.2293
 1227SOL    HW215144   2.747   3.237  14.847 -2.1908  0.4084  1.1108
 1228SOL     OW15145   2.485   0.128  13.571  0.0274  0.0445  0.2080
 1228SOL    HW115146   2.502   0.077  13.650  1.0003  1.0419  0.6302
 1228SOL    HW215147   2.414   0.080  13.529  1.1639 -0.9046 -0.6419
 1229SOL     OW15148   1.008   0.479   3.587 -0.3221  0.8990 -0.6763
 1229SOL    HW115149   0.970   0.428   3.659 -0.1722 -0.3295 -1.4724
 1229SOL    HW215150   1.098   0.449   3.602  1.2354  6.0849  0.4423
 1230SOL     OW15151   4.515   3.746  11.628  0.3167 -0.4640 -0.2715
 1230SOL    HW115152   4.506   3.835  11.595  0.9305  0.0849  1.0892
 1230SOL    HW215153   4.586   3.748  11.692 -1.4828 -1.7427  1.7575
 1231SOL     OW15154   3.659   3.033   5.545 -0.1612 -0.0095 -0.4035
 1231SOL    HW115155   3.705   3.096   5.489  1.6517 -0.7134  0.3004
 1231SOL    HW215156   3.571   3.036   5.509 -0.1712 -0.7720 -0.4364
 1232SOL     OW15157   0.491   2.868   7.445  0.1616  0.0391 -0.3667
 1232SOL    HW115158   0.528   2.856   7.358  0.1101 -1.2230 -0.2138
 1232SOL    HW215159   0.426   2.799   7.448  0.8373 -0.5850 -0.0821
 1233SOL     OW15160   3.752   4.086  14.820 -0.7040  0.3435 -0.2921
 1233SOL    HW115161   3.793   4.026  14.757  1.5612 -1.6575  3.0573
 1233SOL    HW215162   3.749   4.163  14.763 -0.4921  0.9398  0.5022
 1234SOL     OW15163   1.086   0.717  16.675 -0.2820  0.3215 -0.2574
 1234SOL    HW115164   1.166   0.667  16.658 -0.9131 -0.0937 -2.0158
 1234SOL    HW215165   1.075   0.716  16.770 -1.0544 -3.6656 -0.3916
 1235SOL     OW15166   3.105   2.262   6.389  0.1758 -0.2083 -0.0471
 1235SOL    HW115167   3.158   2.224   6.459 -0.6795 -0.8161  0.2748
 1235SOL    HW215168   3.019   2.268   6.432  0.4038 -1.5859  0.5806
 1236SOL     OW15169   4.624   3.543   3.752 -0.3992  0.3791  0.3336
 1236SOL    HW115170   4.642   3.637   3.756  3.1835 -0.1559 -3.0551
 1236SOL    HW215171   4.647   3.513   3.839 -1.2310 -0.8827  0.1177
 1237SOL     OW15172   3.787   0.720  17.111  0.5815 -0.1081  0.3062
 1237SOL    HW115173   3.703   0.746  17.073  0.5288 -0.1517  0.3941
 1237SOL    HW215174   3.837   0.685  17.037  1.1603 -2.3766  1.7717
 1238SOL     OW15175   1.593   3.150   8.389 -0.1467  0.5454  0.1373
 1238SOL    HW115176   1.604   3.110   8.475 -0.0190  0.5864  0.1388
 1238SOL    HW215177   1.578   3.077   8.329  0.5287  0.1649  0.4417
 1239SOL     OW15178   0.970   1.218   1.392  0.1141  0.5455  0.0976
 1239SOL    HW115179   1.037   1.206   1.324 -1.3044 -1.8411 -0.9059
 1239SOL    HW215180   1.021   1.202   1.471 -0.4669 -1.1982  0.1128
 1240SOL     OW15181   3.521   3.396  13.189 -0.2684  0.3082 -0.0099
 1240SOL    HW115182   3.566   3.480  13.203 -1.5695  1.0826 -0.4736
 1240SOL    HW215183   3.438   3.428  13.155  0.1891  2.3214  0.7519
 1241SOL     OW15184   0.037   0.296   7.792 -0.2133  0.0820  0.7299
 1241SOL    HW115185   0.083   0.379   7.779 -0.0136 -0.3297 -1.1741
 1241SOL    HW215186   4.702   0.338   7.854 -1.2709 -0.8258  0.3497
 1242SOL     OW15187   1.983   2.969   7.096 -0.3653 -0.1674 -0.3255
 1242SOL    HW115188   2.053   2.908   7.071 -0.9900 -1.1840  0.4271
 1242SOL    HW215189   1.934   2.924   7.164  0.8785 -2.4457 -0.9509
 1243SOL     OW15190   1.814   0.003   3.256 -0.1894  0.1093  0.4940
 1243SOL    HW115191   1.840   4.645   3.299 -0.1117  0.5828  1.3463
 1243SOL    HW215192   1.766   4.695   3.179 -0.7104 -3.8858  2.4153
 1244SOL     OW15193   3.916   3.412  13.434  0.2249 -0.0274  0.9344
 1244SOL    HW115194   4.000   3.435  13.393  0.1835 -0.1924  0.7587
 1244SOL    HW215195   3.873   3.497  13.434 -2.4244 -1.3794 -0.6228
 1245SOL     OW15196   3.741   4.152   4.163  0.1438  0.7521  0.1929
 1245SOL    HW115197   3.786   4.182   4.242 -1.3091  2.7734  0.2408
 1245SOL    HW215198   3.792   4.072   4.149 -0.1206  0.5224  0.5431
 1246SOL     OW15199   3.889   4.511   7.094 -0.0932  0.0403 -0.3473
 1246SOL    HW115200   3.917   4.478   7.179  0.8581  0.4686 -0.4933
 1246SOL    HW215201   3.799   4.482   7.078  0.3296 -0.7708 -1.2893
 1247SOL     OW15202   2.141   4.221  10.265  0.2467 -0.2856 -0.5185
 1247SOL    HW115203   2.070   4.158  10.253  0.0547 -0.4993  1.7479
 1247SOL    HW215204   2.213   4.159  10.264  0.6165  0.1342  0.5849
 1248SOL     OW15205   3.925   1.117   6.445  0.6929 -0.4319 -0.0703
 1248SOL    HW115206   3.833   1.091   6.452  0.8365 -0.6301  1.0543
 1248SOL    HW215207   3.967   1.090   6.526 -0.6581 -0.2253  0.6912
 1249SOL     OW15208   0.518   2.781   6.475 -0.4823 -0.2912  0.5242
 1249SOL    HW115209   0.574   2.833   6.532 -0.2564 -1.2718  1.1958
 1249SOL    HW215210   0.578   2.707   6.464  0.3657  0.4886 -0.1193
 1250SOL     OW15211   1.192   4.521   7.681 -0.7578  1.1150 -0.0333
 1250SOL    HW115212   1.140   4.456   7.634  0.8404  1.2593 -2.0338
 1250SOL    HW215213   1.278   4.480   7.672 -0.6802  1.2924 -0.1108
 1251SOL     OW15214   0.282   0.517   4.290  0.1042 -0.1249  0.4899
 1251SOL    HW115215   0.358   0.574   4.278  0.6733 -0.9229  0.2620
 1251SOL    HW215216   0.242   0.488   4.208  2.3318 -0.0850 -0.6066
 1252SOL     OW15217   3.002   0.969  17.273 -0.0499 -0.0082 -0.2009
 1252SOL    HW115218   2.920   0.940  17.232 -0.7882  0.5894  0.8530
 1252SOL    HW215219   3.059   1.000  17.203 -2.1240  0.5057 -1.6430
 1253SOL     OW15220   4.436   0.071   4.221  0.2128 -0.1075  0.1586
 1253SOL    HW115221   4.430   4.712   4.269 -1.9421 -0.7222 -1.2026
 1253SOL    HW215222   4.430   0.131   4.296 -0.3496  1.9084 -1.4923
 1254SOL     OW15223   3.053   0.970   1.056 -0.9412 -0.1449  0.8478
 1254SOL    HW115224   3.042   0.952   0.963 -0.6696  2.6357  0.2820
 1254SOL    HW215225   3.115   1.042   1.051  0.2326 -1.0409  2.3087
 1255SOL     OW15226   1.241   1.579   7.702 -0.0819  1.1785  0.3208
 1255SOL    HW115227   1.297   1.555   7.628 -2.3440 -0.8185 -0.7363
 1255SOL    HW215228   1.271   1.665   7.731  2.7106  0.7235 -1.1385
 1256SOL     OW15229   3.697   3.000  15.898  0.8269  0.7332 -0.1951
 1256SOL    HW115230   3.635   2.942  15.942  0.0769  0.1913 -1.9980
 1256SOL    HW215231   3.755   3.026  15.970 -1.2365  2.1142  0.9492
 1257SOL     OW15232   2.454   0.478   1.708 -0.5371  0.1726  0.3301
 1257SOL    HW115233   2.431   0.539   1.638  0.9999  1.2615  0.7690
 1257SOL    HW215234   2.365   0.444   1.711 -1.7382  3.2744 -0.5914
 1258SOL     OW15235   3.120   2.594   4.917 -0.6663  0.3889  0.2021
 1258SOL    HW115236   3.068   2.559   4.844 -0.9275 -0.1463  0.6458
 1258SOL    HW215237   3.182   2.655   4.878 -0.7318 -1.4228 -2.7634
 1259SOL     OW15238   1.901   1.166   1.363  0.4114  0.1944  0.0563
 1259SOL    HW115239   1.903   1.076   1.331 -1.4133  0.7103 -1.4667
 1259SOL    HW215240   1.981   1.168   1.415  0.5575  2.4297 -0.2380
 1260SOL     OW15241   0.033   3.689   6.799 -0.2859 -0.1252 -0.3543
 1260SOL    HW115242   0.020   3.677   6.893 -2.2109 -1.7601 -0.8403
 1260SOL    HW215243   0.120   3.730   6.800  0.2550 -1.2721  0.3344
 1261SOL     OW15244   1.460   0.853   7.950 -0.4754 -0.2909  0.5037
 1261SOL    HW115245   1.490   0.932   7.994  1.0473 -0.4797 -0.2030
 1261SOL    HW215246   1.546   0.812   7.947 -0.8290 -0.9446 -0.7819
 1262SOL     OW15247   1.995   2.725  16.800  0.1338  0.0623  0.0229
 1262SOL    HW115248   2.053   2.800  16.808  1.0963 -0.6841  0.0906
 1262SOL    HW215249   2.012   2.680  16.883  3.2069 -0.0093 -0.6572
 1263SOL     OW15250   2.782   0.629   4.516 -0.1541  0.3424  0.4703
 1263SOL    HW115251   2.730   0.571   4.572  1.3684  0.1773  1.7390
 1263SOL    HW215252   2.771   0.580   4.435  0.0335 -0.0539  0.6841
 1264SOL     OW15253   3.892   3.929   4.176  0.2374  0.2371  0.1775
 1264SOL    HW115254   3.863   3.886   4.256 -0.3135 -1.8977 -1.1544
 1264SOL    HW215255   3.926   3.856   4.124 -2.5196 -0.8252 -0.1527
 1265SOL     OW15256   3.279   2.541   8.275 -0.6670  0.2685  0.2520
 1265SOL    HW115257   3.240   2.608   8.219 -3.4517 -0.9986  0.6581
 1265SOL    HW215258   3.371   2.562   8.260 -0.7164  1.4123  1.6358
 1266SOL     OW15259   2.644   4.161  13.303  0.6690 -0.5594  0.5743
 1266SOL    HW115260   2.627   4.203  13.218 -0.5151 -0.2803  0.9550
 1266SOL    HW215261   2.555   4.173  13.334  0.4297  0.3992 -0.4882
 1267SOL     OW15262   1.006   0.569  13.185  0.1162 -0.5493  0.6091
 1267SOL    HW115263   0.986   0.578  13.278  0.1712  1.2893  0.4450
 1267SOL    HW215264   1.100   0.551  13.196  0.6866  0.7701 -1.9691
 1268SOL     OW15265   4.076   3.851   8.329  0.2130  0.3370  0.3233
 1268SOL    HW115266   4.093   3.886   8.417  1.8701  0.2264  0.0442
 1268SOL    HW215267   4.022   3.922   8.294  0.7763  0.6740  0.1371
 1269SOL     OW15268   2.150   2.582   8.209  0.2286 -0.0952  0.1366
 1269SOL    HW115269   2.231   2.549   8.248  0.4627 -0.4741 -0.6712
 1269SOL    HW215270   2.106   2.502   8.180 -0.5251 -0.1595  1.4475
 1270SOL     OW15271   4.250   4.158   3.772 -0.3123 -0.0581 -0.8708
 1270SOL    HW115272   4.341   4.159   3.741  0.1775 -2.8645  0.5127
 1270SOL    HW215273   4.220   4.228   3.713  0.7038  0.4300 -0.8174
 1271SOL     OW15274   1.526   4.602   5.961 -0.0951 -0.3837  0.1012
 1271SOL    HW115275   1.609   4.569   5.928  0.2804  0.2313  0.4104
 1271SOL    HW215276   1.531   4.607   6.057  0.0315  1.8436 -0.0062
 1272SOL     OW15277   4.304   0.871   7.863 -0.5948  0.0541 -0.1694
 1272SOL    HW115278   4.242   0.888   7.933  2.1517 -1.9457  2.7615
 1272SOL    HW215279   4.283   0.946   7.807 -4.5109 -2.7864 -2.5426
 1273SOL     OW15280   1.681   1.931   3.947 -0.9622  0.1878 -0.2065
 1273SOL    HW115281   1.687   1.910   3.854 -0.1447  2.4555 -0.6377
 1273SOL    HW215282   1.660   1.846   3.987 -0.3708  0.4520  0.6839
 1274SOL     OW15283   3.615   0.707   5.381  0.0073 -0.0233 -0.7120
 1274SOL    HW115284   3.707   0.731   5.373  0.4023 -1.0343  0.8579
 1274SOL    HW215285   3.607   0.636   5.317 -2.6828 -1.0717  0.7795
 1275SOL     OW15286   2.089   0.657   7.219  0.2920  0.4104  0.3557
 1275SOL    HW115287   2.142   0.645   7.298 -0.0189  0.4361  0.5664
 1275SOL    HW215288   2.094   0.752   7.223 -1.4951  0.5142  0.0710
 1276SOL     OW15289   0.104   4.474  13.109 -0.1381  0.0192  0.5458
 1276SOL    HW115290   0.042   4.522  13.164 -1.1544  0.0788 -0.6317
 1276SOL    HW215291   0.182   4.471  13.164  0.1648  0.1975  0.1243
 1277SOL     OW15292   2.675   1.458  14.254  0.2466 -0.0659 -0.0444
 1277SOL    HW115293   2.665   1.393  14.184 -3.4830  0.1745  0.2604
 1277SOL    HW215294   2.586   1.451  14.287 -0.2145  1.3951 -0.9604
 1278SOL     OW15295   3.693   3.754   7.273  0.0596  0.0832 -0.2329
 1278SOL    HW115296   3.760   3.813   7.238 -0.1083 -0.7140 -1.9366
 1278SOL    HW215297   3.740   3.693   7.330  0.1361  1.0484  0.7332
 1279SOL     OW15298   0.541   0.678   8.180  0.5111  0.2619  0.1096
 1279SOL    HW115299   0.601   0.737   8.225 -0.5258  2.8028 -1.8128
 1279SOL    HW215300   0.471   0.664   8.245  0.3904 -0.7541 -0.2517
 1280SOL     OW15301   1.481   1.090  13.542  0.7639 -0.0948  0.0367
 1280SOL    HW115302   1.548   1.158  13.552  0.9603 -0.5570  1.8745
 1280SOL    HW215303   1.445   1.094  13.631 -0.1172  0.9180 -0.3666
 1281SOL     OW15304   2.980   3.675   5.782 -0.0233 -0.2316  0.7266
 1281SOL    HW115305   3.017   3.590   5.757 -2.0674 -0.8990 -0.0126
 1281SOL    HW215306   2.957   3.654   5.873  0.4764  2.1183  1.4017
 1282SOL     OW15307   2.463   0.213   5.921 -0.3065 -0.3275 -0.3254
 1282SOL    HW115308   2.428   0.124   5.929 -1.4136  0.0615 -0.7092
 1282SOL    HW215309   2.492   0.210   5.830  0.4676 -0.0751 -0.0843
 1283SOL     OW15310   4.690   2.664   6.063 -0.3224  0.6043  0.0270
 1283SOL    HW115311   4.656   2.736   6.009 -1.1385  0.7250  0.7071
 1283SOL    HW215312   0.056   2.695   6.073 -0.3781  1.5574 -2.2218
 1284SOL     OW15313   2.891   2.701   9.018 -0.1563 -0.2504  0.2599
 1284SOL    HW115314   2.968   2.707   9.075 -0.1070  0.1193  0.1548
 1284SOL    HW215315   2.915   2.614   8.985  0.4703 -0.4704  1.2902
 1285SOL     OW15316   4.649   4.371  15.273 -0.0449  0.3546 -0.1195
 1285SOL    HW115317   4.721   4.431  15.292  0.1198  1.2607 -3.5116
 1285SOL    HW215318   4.685   4.283  15.281  0.8010  0.8022  1.0398
 1286SOL     OW15319   2.057   2.098  13.384  0.0138  0.2093  0.0553
 1286SOL    HW115320   2.015   2.180  13.355 -1.9399 -0.3011  1.4826
 1286SOL    HW215321   2.001   2.068  13.455 -1.1585  0.1803 -0.8771
 1287SOL     OW15322   3.619   0.475   0.778  0.1104  0.3547  0.0950
 1287SOL    HW115323   3.561   0.453   0.705  1.6610 -1.6517 -0.5255
 1287SOL    HW215324   3.571   0.549   0.815 -0.0798  1.3576 -2.1883
 1288SOL     OW15325   2.892   1.980   7.532  0.1901  0.3575 -0.2218
 1288SOL    HW115326   2.947   1.902   7.521 -0.1121 -0.0533  1.2237
 1288SOL    HW215327   2.822   1.959   7.469 -1.8492 -0.8312  2.4463
 1289SOL     OW15328   3.737   0.565  17.495 -0.6843  0.1212 -0.3278
 1289SOL    HW115329   3.644   0.586  17.510 -0.5582  0.0053  0.5880
 1289SOL    HW215330   3.778   0.647  17.521  0.1766  0.4031 -2.5889
 1290SOL     OW15331   2.059   2.468  14.838 -0.5566  0.9648  0.7119
 1290SOL    HW115332   2.070   2.377  14.812 -2.7802  0.8568  0.2259
 1290SOL    HW215333   2.078   2.516  14.757  0.5629 -0.8159 -0.0738
 1291SOL     OW15334   3.631   0.577   5.152 -0.2280 -0.0670  0.1626
 1291SOL    HW115335   3.719   0.540   5.147  0.1614  0.9420 -0.4880
 1291SOL    HW215336   3.636   0.633   5.074  0.4359 -0.2692  0.0560
 1292SOL     OW15337   1.409   0.997   2.281  0.9897 -0.1548  0.0668
 1292SOL    HW115338   1.438   0.928   2.222 -1.2679 -0.1989 -0.9783
 1292SOL    HW215339   1.368   1.056   2.218 -0.2910 -0.7266  0.3701
 1293SOL     OW15340   2.204   3.912   2.798  0.5971  0.2652 -0.1995
 1293SOL    HW115341   2.210   3.875   2.710  1.1124  2.1997 -0.9678
 1293SOL    HW215342   2.147   3.988   2.790  1.9831  1.3178 -0.2461
 1294SOL     OW15343   3.169   1.918  13.277 -0.0884  0.3470 -0.4667
 1294SOL    HW115344   3.264   1.912  13.277 -0.1821 -1.1391  0.2065
 1294SOL    HW215345   3.146   1.856  13.208 -1.9448  0.0176  0.4280
 1295SOL     OW15346   0.107   1.842  13.070 -0.3993 -0.0654  0.0828
 1295SOL    HW115347   0.169   1.775  13.101 -0.7200 -0.3039  0.2072
 1295SOL    HW215348   0.126   1.844  12.976 -0.7297 -0.2308  0.0149
 1296SOL     OW15349   2.589   0.691   0.244 -0.8132  0.5817  0.6977
 1296SOL    HW115350   2.681   0.701   0.269  0.1535 -1.2611 -2.0778
 1296SOL    HW215351   2.602   0.699   0.150  2.1590 -1.7839  0.8697
 1297SOL     OW15352   2.398   4.223   5.780 -0.0800  0.2227  0.1436
 1297SOL    HW115353   2.416   4.148   5.836 -1.3067 -1.7099 -2.0534
 1297SOL    HW215354   2.306   4.248   5.786  0.0281  0.8903 -0.8966
 1298SOL     OW15355   2.124   2.992   5.198 -0.3506 -0.5368  0.0306
 1298SOL    HW115356   2.083   2.907   5.216 -1.3617 -0.4294 -1.7563
 1298SOL    HW215357   2.202   2.972   5.146 -1.0482 -2.6483 -0.2160
 1299SOL     OW15358   0.022   3.968   6.353 -0.3997 -0.1280 -0.0535
 1299SOL    HW115359   4.714   4.001   6.438  1.4610  0.9550  0.2136
 1299SOL    HW215360   4.706   3.881   6.349 -1.6610  0.4146  0.4857
 1300SOL     OW15361   3.553   0.926   4.488 -0.1747 -0.2709 -0.4649
 1300SOL    HW115362   3.543   0.949   4.581  0.3681 -0.1030 -0.4512
 1300SOL    HW215363   3.465   0.898   4.463 -0.7320  0.8539  0.2393
 1301SOL     OW15364   3.088   3.200   1.646  0.1931  0.5328 -0.4913
 1301SOL    HW115365   3.096   3.148   1.725  1.2117 -0.2067 -1.0863
 1301SOL    HW215366   3.093   3.139   1.573 -1.4313 -1.0500  0.7353
 1302SOL     OW15367   4.697   1.266   2.772  0.4975  0.6951  0.3506
 1302SOL    HW115368   4.717   1.346   2.724 -0.5611 -0.1691 -1.5330
 1302SOL    HW215369   0.049   1.216   2.740 -0.7049  0.1851 -1.6648
 1303SOL     OW15370   3.812   1.976   0.659 -0.1110  0.2164 -0.1623
 1303SOL    HW115371   3.885   1.931   0.701 -0.9272 -0.6003  0.3705
 1303SOL    HW215372   3.733   1.943   0.701  1.3372 -3.1112 -0.0742
 1304SOL     OW15373   0.441   1.287   3.163  0.0548 -0.2180 -0.4698
 1304SOL    HW115374   0.361   1.290   3.110 -0.5265  2.0979  0.5621
 1304SOL    HW215375   0.467   1.377   3.182 -2.1066  0.4381 -0.5787
 1305SOL     OW15376   1.939   2.528  15.593  0.4258  0.1602 -0.6615
 1305SOL    HW115377   1.972   2.552  15.679 -0.1473 -1.1580 -0.0687
 1305SOL    HW215378   2.017   2.560  15.547  0.4125  0.7204 -0.2909
 1306SOL     OW15379   3.819   0.413   2.828  0.3324 -0.2879 -1.2412
 1306SOL    HW115380   3.813   0.339   2.888 -4.1483  0.2729 -0.9984
 1306SOL    HW215381   3.830   0.491   2.882 -0.7355  0.3523 -1.9416
 1307SOL     OW15382   1.747   1.893   1.788 -0.2102  0.0370 -0.6530
 1307SOL    HW115383   1.777   1.804   1.811  0.0347  0.4398  0.6108
 1307SOL    HW215384   1.832   1.933   1.770  0.6590 -2.1787 -1.5468
 1308SOL     OW15385   2.857   4.182   4.585 -0.0101  0.3479  0.2332
 1308SOL    HW115386   2.784   4.234   4.621  0.7206  0.8100  1.0463
 1308SOL    HW215387   2.827   4.095   4.612 -0.2999  0.8695  1.6387
 1309SOL     OW15388   1.286   1.006   7.127  0.1904 -0.2458  0.0609
 1309SOL    HW115389   1.226   1.076   7.101  0.7158  0.1692 -0.0351
 1309SOL    HW215390   1.243   0.933   7.083  0.9282 -0.5964 -0.0761
 1310SOL     OW15391   1.920   4.492  14.190  0.5387 -0.6058  0.2844
 1310SOL    HW115392   1.829   4.496  14.219  0.3084  2.0413 -0.8270
 1310SOL    HW215393   1.914   4.547  14.112  1.4063 -2.5971 -1.1863
 1311SOL     OW15394   1.836   1.518  11.940  0.4363  0.1818  0.7441
 1311SOL    HW115395   1.838   1.425  11.914 -1.8419  0.0511  1.0323
 1311SOL    HW215396   1.903   1.545  11.877  0.2297 -1.4383 -0.1941
 1312SOL     OW15397   2.903   0.424   1.887 -0.6607  0.3582  0.2828
 1312SOL    HW115398   2.889   0.509   1.929  0.8634  2.1352 -2.7905
 1312SOL    HW215399   2.890   0.445   1.795  1.3815 -0.1699 -0.1177
 1313SOL     OW15400   1.441   1.316   9.475 -0.1327 -0.4914 -0.1423
 1313SOL    HW115401   1.468   1.407   9.489 -2.7859  0.3976 -0.8254
 1313SOL    HW215402   1.474   1.279   9.556  0.5567  1.0000  0.2556
 1314SOL     OW15403   3.276   1.198   5.693  0.3076  0.3367  0.4454
 1314SOL    HW115404   3.218   1.270   5.667 -0.3899 -0.6165 -0.6254
 1314SOL    HW215405   3.345   1.247   5.737  2.2094 -0.4398 -1.7235
 1315SOL     OW15406   1.329   0.184  10.777  0.2175 -0.1662 -0.1791
 1315SOL    HW115407   1.351   0.214  10.865  0.4182  1.4145 -0.7777
 1315SOL    HW215408   1.362   0.094  10.780 -1.3490 -0.6721  1.9076
 1316SOL     OW15409   0.649   1.388  16.373  0.0098  0.4618  0.6171
 1316SOL    HW115410   0.688   1.356  16.455  0.0247 -0.4320  0.2621
 1316SOL    HW215411   0.719   1.366  16.312 -0.6580  1.8046 -0.6104
 1317SOL     OW15412   0.652   2.158   2.539  0.1732  0.4963 -0.3194
 1317SOL    HW115413   0.611   2.077   2.567  0.6119  0.5965  0.5842
 1317SOL    HW215414   0.673   2.136   2.448 -3.1101  1.4292 -1.3145
 1318SOL     OW15415   2.342   2.970   7.054 -0.3385 -0.2372  0.0463
 1318SOL    HW115416   2.329   3.039   7.119 -0.9852 -2.0241  1.7922
 1318SOL    HW215417   2.296   2.895   7.091 -1.8770  1.3977  1.4576
 1319SOL     OW15418   1.783   4.469  11.557  0.3111 -0.2367  0.5540
 1319SOL    HW115419   1.713   4.531  11.579  2.4120  3.0247 -2.0208
 1319SOL    HW215420   1.746   4.389  11.596  0.2970 -1.3466 -1.7303
 1320SOL     OW15421   2.444   4.359  17.151  0.1526 -0.1177 -0.8522
 1320SOL    HW115422   2.381   4.404  17.095  1.3281  0.2844 -1.8444
 1320SOL    HW215423   2.467   4.280  17.101 -1.0813 -0.7535 -0.4263
 1321SOL     OW15424   0.004   1.939  16.456 -0.5297 -0.5386  0.1039
 1321SOL    HW115425   4.633   1.948  16.468 -0.2613 -0.8650  2.3723
 1321SOL    HW215426   0.031   1.888  16.533 -1.4734 -0.3371  0.5705
 1322SOL     OW15427   2.227   3.697   8.094 -0.1482 -0.2756 -0.3828
 1322SOL    HW115428   2.242   3.751   8.172  1.3821 -2.7867  1.0602
 1322SOL    HW215429   2.135   3.673   8.106 -0.2194  1.6222  2.7683
 1323SOL     OW15430   2.224   1.638   0.070  0.6738 -0.4233 -0.3457
 1323SOL    HW115431   2.282   1.660  17.693 -2.3269  0.9334 -2.3426
 1323SOL    HW215432   2.262   1.553   0.092  1.2655  0.5167  2.2336
 1324SOL     OW15433   0.263   1.668   0.105 -0.4343  0.0514  0.2830
 1324SOL    HW115434   0.291   1.647   0.015  1.0307 -1.6633  1.1267
 1324SOL    HW215435   0.182   1.719   0.101  0.5615  1.5106 -1.4120
 1325SOL     OW15436   3.613   0.874   7.496  0.7400 -0.0262 -0.0879
 1325SOL    HW115437   3.675   0.845   7.430  1.0467  2.3821 -0.8364
 1325SOL    HW215438   3.567   0.791   7.512 -0.1963 -0.1204 -3.3702
 1326SOL     OW15439   1.539   0.346   4.041  0.0291  0.3156  0.3166
 1326SOL    HW115440   1.453   0.376   4.011  0.1602  0.9032  0.5289
 1326SOL    HW215441   1.598   0.387   3.978 -0.5055  0.3588 -0.1606
 1327SOL     OW15442   2.929   0.709   7.218  0.1671 -0.1312  0.3487
 1327SOL    HW115443   2.930   0.660   7.136  2.6284  3.1905 -1.5977
 1327SOL    HW215444   2.942   0.634   7.276  1.1571 -1.1636 -1.2310
 1328SOL     OW15445   4.676   3.424   3.509 -0.3295  0.0028  0.5715
 1328SOL    HW115446   4.693   3.498   3.451  1.1380 -1.1373 -0.4711
 1328SOL    HW215447   4.649   3.461   3.593 -3.1116 -2.0933  0.5970
 1329SOL     OW15448   2.464   3.436   9.557  1.2362  0.6891  0.1352
 1329SOL    HW115449   2.527   3.419   9.627  0.4350  1.0195  0.9478
 1329SOL    HW215450   2.489   3.518   9.515  1.1698  0.5503 -0.1733
 1330SOL     OW15451   4.220   2.837   5.124 -0.9356  0.3297 -1.1799
 1330SOL    HW115452   4.311   2.836   5.095 -0.1267  0.1594  1.3946
 1330SOL    HW215453   4.226   2.900   5.196  3.4201 -0.2624 -1.0338
 1331SOL     OW15454   2.073   2.098   2.514 -0.1989 -0.7977 -0.5001
 1331SOL    HW115455   2.112   2.109   2.427  0.4644  1.2391  0.0632
 1331SOL    HW215456   1.987   2.140   2.509 -0.2665 -0.9380 -0.5088
 1332SOL     OW15457   4.147   3.465   6.189  0.3433  0.4902  0.2380
 1332SOL    HW115458   4.131   3.392   6.249 -1.4524  0.5452 -0.1736
 1332SOL    HW215459   4.054   3.471   6.170  0.5323  1.4086 -0.3986
 1333SOL     OW15460   2.302   1.999  11.416 -0.0003  0.1905  0.4749
 1333SOL    HW115461   2.325   1.909  11.441 -1.1480 -0.3703 -0.4648
 1333SOL    HW215462   2.233   2.032  11.473 -0.5598  0.0474 -0.1249
 1334SOL     OW15463   4.344   1.136  16.999 -0.5694  0.2946  0.4583
 1334SOL    HW115464   4.255   1.122  17.033 -1.7171 -0.4059 -2.9183
 1334SOL    HW215465   4.332   1.211  16.942 -1.3781  0.8680  1.3901
 1335SOL     OW15466   1.338   3.493  14.120 -0.1904 -0.4802  0.1868
 1335SOL    HW115467   1.431   3.470  14.124 -0.1704 -0.6788 -1.9125
 1335SOL    HW215468   1.290   3.413  14.100  0.9704 -1.5176  1.5619
 1336SOL     OW15469   2.214   2.266   3.147  0.0486  0.5810 -0.1124
 1336SOL    HW115470   2.292   2.244   3.197 -0.0697 -0.9353 -0.6088
 1336SOL    HW215471   2.191   2.349   3.190 -0.4362 -0.6028  1.9066
 1337SOL     OW15472   3.880   3.314   2.554  0.4095 -0.4035 -0.2423
 1337SOL    HW115473   3.801   3.284   2.509  0.7704 -1.6366 -0.0308
 1337SOL    HW215474   3.934   3.243   2.519  0.1388 -0.3194 -0.8314
 1338SOL     OW15475   2.242   3.941   9.834 -0.6501 -0.0245  0.4981
 1338SOL    HW115476   2.316   3.992   9.802  1.5020 -0.8993  4.0800
 1338SOL    HW215477   2.164   3.990   9.808  1.3515  1.7817 -2.0888
 1339SOL     OW15478   4.478   2.524   5.922  0.9509 -0.1508  0.1856
 1339SOL    HW115479   4.562   2.554   5.959  1.0257  1.1355 -1.0134
 1339SOL    HW215480   4.488   2.508   5.828  0.1420 -2.6626  0.5328
 1340SOL     OW15481   3.197   4.538   0.347  0.8110  0.6352  0.1443
 1340SOL    HW115482   3.204   4.536   0.443 -1.7009 -2.3160  0.2458
 1340SOL    HW215483   3.245   4.460   0.320 -0.7285  0.2255 -1.3705
 1341SOL     OW15484   3.263   1.501   3.854 -0.0107 -0.4218 -0.1400
 1341SOL    HW115485   3.259   1.430   3.919 -1.3071 -1.7219 -1.6446
 1341SOL    HW215486   3.187   1.476   3.802  1.2963  2.3066 -3.3106
 1342SOL     OW15487   2.373   1.771  11.526 -0.4299  0.2381  0.0778
 1342SOL    HW115488   2.443   1.783  11.462  0.3210  0.3631  0.9351
 1342SOL    HW215489   2.432   1.790  11.599 -1.4502 -1.3950  1.3402
 1343SOL     OW15490   1.312   0.102   3.962 -0.1114  1.0212 -0.0924
 1343SOL    HW115491   1.385   0.127   4.020  0.8255 -2.6479  0.3570
 1343SOL    HW215492   1.251   0.063   4.024  0.0463  1.1415  0.1384
 1344SOL     OW15493   0.795   4.225   3.388  0.6535 -0.8422 -0.4860
 1344SOL    HW115494   0.822   4.243   3.298  0.6241  0.2784 -0.2774
 1344SOL    HW215495   0.871   4.226   3.447 -0.5401  1.3846  1.0509
 1345SOL     OW15496   2.736   0.123   7.465 -0.3822 -0.5067 -0.0149
 1345SOL    HW115497   2.659   0.161   7.423 -0.6168 -1.2953 -0.3054
 1345SOL    HW215498   2.696   0.111   7.552 -0.2616  0.4312  0.1682
 1346SOL     OW15499   3.934   4.378   8.133  0.3971  0.2542  0.3511
 1346SOL    HW115500   3.961   4.390   8.224  0.4513  1.2330  0.1993
 1346SOL    HW215501   3.963   4.466   8.110 -1.5085  1.4034  2.3346
 1347SOL     OW15502   3.728   0.958  17.283  0.3113  0.3387 -0.7554
 1347SOL    HW115503   3.792   0.888  17.298  0.8796  1.0599  0.2426
 1347SOL    HW215504   3.653   0.905  17.310  2.2614 -1.3704  1.3615
 1348SOL     OW15505   4.583   3.760   6.407 -0.1907 -0.0193  0.4056
 1348SOL    HW115506   4.541   3.714   6.480 -0.3882 -4.1854 -2.3251
 1348SOL    HW215507   4.549   3.712   6.331 -1.5758  3.9226 -1.4387
 1349SOL     OW15508   3.608   3.465   4.205 -0.2624 -0.5390 -0.3947
 1349SOL    HW115509   3.563   3.548   4.192 -0.2160 -0.3837  0.4697
 1349SOL    HW215510   3.612   3.465   4.301  1.7449 -2.7289 -0.4621
 1350SOL     OW15511   0.441   0.110   7.279  0.2788  0.4591  0.0354
 1350SOL    HW115512   0.467   0.174   7.345  1.7273  0.4288 -0.5073
 1350SOL    HW215513   0.517   0.053   7.273 -0.5032 -0.5164 -0.7173
 1351SOL     OW15514   3.274   0.021   1.156  0.5379 -0.1319  0.3169
 1351SOL    HW115515   3.357   0.059   1.184  1.3001 -1.3181 -0.3211
 1351SOL    HW215516   3.207   0.052   1.216 -0.1358  1.5067 -1.2697
 1352SOL     OW15517   1.947   2.812  11.612  0.1757  0.1378 -0.1912
 1352SOL    HW115518   1.871   2.796  11.557  0.1405 -0.8090  0.1494
 1352SOL    HW215519   1.931   2.743  11.675  0.8138 -0.5297 -0.7544
 1353SOL     OW15520   3.017   4.353  12.125 -0.2050 -0.0463 -0.4393
 1353SOL    HW115521   3.003   4.322  12.035  1.2530 -0.5812 -0.4830
 1353SOL    HW215522   2.938   4.401  12.150  1.3712  1.5424  1.4791
 1354SOL     OW15523   1.509   2.861  13.239  0.7227  0.1048  1.0557
 1354SOL    HW115524   1.448   2.921  13.195  1.4931 -1.3476 -2.0501
 1354SOL    HW215525   1.580   2.864  13.175  1.0551 -0.6570  1.3905
 1355SOL     OW15526   1.825   0.220  13.604 -0.6424 -0.3244  0.3475
 1355SOL    HW115527   1.831   0.153  13.672  2.3145  0.1124  0.5452
 1355SOL    HW215528   1.797   0.294  13.658 -1.1176 -1.1117  1.1847
 1356SOL     OW15529   3.434   2.156   6.278 -0.5855 -0.3741  0.0438
 1356SOL    HW115530   3.374   2.229   6.291  0.9546  0.5655  1.8447
 1356SOL    HW215531   3.385   2.080   6.308 -1.6548  0.1443 -0.3880
 1357SOL     OW15532   1.356   2.435   4.461 -0.0907  0.0735 -0.0176
 1357SOL    HW115533   1.451   2.424   4.471  0.0135  1.7698  0.8521
 1357SOL    HW215534   1.350   2.424   4.367  0.8733  1.8435 -0.2803
 1358SOL     OW15535   1.130   4.581   4.904  0.6063 -0.0622 -0.8271
 1358SOL    HW115536   1.145   4.502   4.955 -3.8559  0.7566  1.7330
 1358SOL    HW215537   1.040   4.602   4.930 -0.1959 -0.6563 -3.1221
 1359SOL     OW15538   3.661   4.708   7.150  0.0030  0.5444  0.3359
 1359SOL    HW115539   3.607   4.636   7.118  0.1229  0.3966  0.4668
 1359SOL    HW215540   3.723   4.718   7.078 -2.2124  0.2754 -1.6093
 1360SOL     OW15541   0.624   0.719   4.787  0.2313  0.0265 -0.0318
 1360SOL    HW115542   0.665   0.643   4.746  1.3228  0.9334 -0.6464
 1360SOL    HW215543   0.701   0.776   4.791  0.3018  0.0531 -1.5751
 1361SOL     OW15544   2.267   3.477   3.454 -0.3504 -0.1287 -0.0799
 1361SOL    HW115545   2.351   3.493   3.497 -0.7545 -2.2187  1.4883
 1361SOL    HW215546   2.244   3.568   3.436 -0.0793  0.1278  0.8432
 1362SOL     OW15547   2.337   1.990   9.121 -0.0321  0.0530 -0.0841
 1362SOL    HW115548   2.426   2.020   9.100  0.0502  1.3794  2.0682
 1362SOL    HW215549   2.288   2.053   9.069 -1.6675 -0.3507  0.9650
 1363SOL     OW15550   1.396   0.965   2.946 -0.4980  0.1747 -0.3664
 1363SOL    HW115551   1.412   0.944   2.854  4.1209  0.1714  0.4410
 1363SOL    HW215552   1.451   0.901   2.993 -0.2842  0.1638 -0.6353
 1364SOL     OW15553   3.056   0.765   3.860  0.1094  0.1967 -0.0900
 1364SOL    HW115554   3.082   0.683   3.817 -2.8874 -1.1496  0.6832
 1364SOL    HW215555   3.079   0.737   3.948 -0.7669 -1.9877 -0.5585
 1365SOL     OW15556   3.822   0.378   5.397  0.2828  0.2364 -0.1512
 1365SOL    HW115557   3.741   0.391   5.447  0.0401  0.9001 -0.7177
 1365SOL    HW215558   3.874   0.321   5.454  2.2904  0.5800 -1.6508
 1366SOL     OW15559   3.679   2.279   8.686 -0.1775  0.2627  0.4779
 1366SOL    HW115560   3.622   2.221   8.637  0.7928 -1.4094  1.3234
 1366SOL    HW215561   3.613   2.312   8.747 -1.4593  0.8784 -1.2555
 1367SOL     OW15562   0.479   0.374   7.025  0.1032 -0.7682 -0.0173
 1367SOL    HW115563   0.392   0.410   7.041 -0.0095 -0.8254 -0.4877
 1367SOL    HW215564   0.519   0.373   7.112  0.3439  1.3411 -0.0979
 1368SOL     OW15565   3.084   0.489  17.246 -0.2316 -0.0053  0.1728
 1368SOL    HW115566   3.180   0.492  17.239 -0.1872 -1.6085 -0.0177
 1368SOL    HW215567   3.078   0.452  17.334 -1.4750 -1.7762 -0.6467
 1369SOL     OW15568   3.259   4.107   6.843 -0.6588  0.6012 -0.7944
 1369SOL    HW115569   3.191   4.055   6.801 -0.8301 -0.0745  0.3052
 1369SOL    HW215570   3.206   4.161   6.902 -0.4554  0.4804 -0.4982
 1370SOL     OW15571   4.147   3.353   7.417 -0.8721 -0.0372  0.3621
 1370SOL    HW115572   4.146   3.448   7.401  0.9708  0.1157  1.1694
 1370SOL    HW215573   4.238   3.337   7.394 -0.8110 -0.4794  0.9156
 1371SOL     OW15574   4.375   1.854  10.574 -0.2001  0.0053  0.5746
 1371SOL    HW115575   4.321   1.925  10.539  2.2985  1.0616 -1.1286
 1371SOL    HW215576   4.433   1.842  10.498 -0.9867 -1.5076  0.2007
 1372SOL     OW15577   1.354   2.627   5.816  0.1003  0.3078 -0.5562
 1372SOL    HW115578   1.361   2.709   5.866  0.1109 -0.1556  0.2015
 1372SOL    HW215579   1.442   2.609   5.781 -0.1645 -1.9740 -0.0195
 1373SOL     OW15580   1.718   3.025  11.831  0.2953 -0.2746  0.4532
 1373SOL    HW115581   1.718   3.098  11.893 -0.9373  0.3267 -0.2503
 1373SOL    HW215582   1.632   3.018  11.790  0.7886  1.1333 -0.8350
 1374SOL     OW15583   1.691   0.353  12.255 -0.1250 -0.0034  0.0747
 1374SOL    HW115584   1.770   0.391  12.293 -0.6164 -0.2998  1.4031
 1374SOL    HW215585   1.633   0.359  12.332 -0.4175 -0.2351 -0.1292
 1375SOL     OW15586   1.833   2.191   4.669  0.3589  0.4999 -0.2661
 1375SOL    HW115587   1.917   2.224   4.703  0.5651 -0.2940 -0.0057
 1375SOL    HW215588   1.770   2.197   4.741  0.3227 -0.9968 -0.1681
 1376SOL     OW15589   4.579   0.708   9.169  0.0237  0.7004  0.5950
 1376SOL    HW115590   4.609   0.732   9.082  2.7079  0.6821  1.5312
 1376SOL    HW215591   4.649   0.736   9.228  1.1355  1.8739 -1.2991
 1377SOL     OW15592   4.154   2.228   6.415  0.2168 -0.0906  0.0852
 1377SOL    HW115593   4.192   2.309   6.382  2.3263 -2.4155 -3.1303
 1377SOL    HW215594   4.088   2.211   6.348  1.9111  3.5146 -2.5081
 1378SOL     OW15595   0.065   0.077  15.676 -0.6469  0.2624  0.7238
 1378SOL    HW115596   0.064   0.166  15.641 -1.4452  1.1731  3.0691
 1378SOL    HW215597   4.697   0.052  15.671 -1.0955  1.9674  0.3775
 1379SOL     OW15598   4.241   1.528   6.753  0.1221  0.3401  0.0249
 1379SOL    HW115599   4.154   1.503   6.783  1.2287 -2.0910  1.2629
 1379SOL    HW215600   4.291   1.448   6.770 -1.0727 -0.0648  1.6444
 1380SOL     OW15601   1.119   2.713   9.175 -0.9492  0.5920 -0.1061
 1380SOL    HW115602   1.153   2.775   9.240 -0.0005 -0.6547  0.5986
 1380SOL    HW215603   1.093   2.641   9.234 -1.7100  0.7679 -0.2229
 1381SOL     OW15604   2.749   1.760   6.554 -0.1535 -0.1286 -0.1919
 1381SOL    HW115605   2.718   1.670   6.542 -4.1561  1.3277 -0.8287
 1381SOL    HW215606   2.844   1.748   6.550  0.0187  1.0190  0.3208
 1382SOL     OW15607   2.380   4.636   1.824 -0.1001  0.2000 -0.0522
 1382SOL    HW115608   2.455   4.671   1.775  0.2963 -1.8014 -0.8496
 1382SOL    HW215609   2.362   4.557   1.775  0.1906  0.4110 -0.4991
 1383SOL     OW15610   4.652   1.356   9.425  0.1950  0.2599  0.3354
 1383SOL    HW115611   4.633   1.445   9.454  1.0071  0.4285  0.3501
 1383SOL    HW215612   0.022   1.351   9.445  0.4245 -1.4727 -1.2343
 1384SOL     OW15613   2.641   0.859   6.128 -0.0243  0.3868 -0.3560
 1384SOL    HW115614   2.580   0.786   6.115 -0.8947  1.1465 -0.5226
 1384SOL    HW215615   2.633   0.898   6.041  1.2452  3.4722  0.9171
 1385SOL     OW15616   4.262   2.669   3.198 -0.0243 -0.4282  0.5594
 1385SOL    HW115617   4.321   2.599   3.171  0.4589  0.5394 -0.9025
 1385SOL    HW215618   4.273   2.693   3.290 -3.0230 -1.8347  1.3107
 1386SOL     OW15619   2.411   2.967   5.259 -0.3429 -0.3832 -0.1899
 1386SOL    HW115620   2.493   2.920   5.241  0.2013 -0.7060  3.1428
 1386SOL    HW215621   2.408   3.026   5.183 -3.4708  0.8605  0.8902
 1387SOL     OW15622   1.209   3.135   2.511 -0.3965 -0.3102 -0.7918
 1387SOL    HW115623   1.211   3.051   2.558  1.9323  0.1005 -0.1897
 1387SOL    HW215624   1.163   3.107   2.432 -0.4262  0.1322 -0.9279
 1388SOL     OW15625   3.242   3.761   4.897 -0.3378 -0.4960 -0.8485
 1388SOL    HW115626   3.329   3.721   4.901 -0.1808 -0.1115 -0.3929
 1388SOL    HW215627   3.257   3.826   4.966 -1.0705 -2.2316  0.9463
 1389SOL     OW15628   4.281   4.586   8.116 -0.4284  0.4278  0.1291
 1389SOL    HW115629   4.364   4.624   8.146 -0.0964  0.8963 -1.3361
 1389SOL    HW215630   4.233   4.563   8.195 -2.3520  0.6428 -0.9862
 1390SOL     OW15631   3.975   3.513   3.405 -0.0269 -0.1137  0.2598
 1390SOL    HW115632   3.896   3.562   3.383 -1.3760 -2.0095  0.8508
 1390SOL    HW215633   4.037   3.563   3.353  1.5893 -2.0005  0.3687
 1391SOL     OW15634   1.233   1.999   2.480  0.5754  0.0887 -0.6740
 1391SOL    HW115635   1.181   2.055   2.423  0.5128  1.4012  0.6707
 1391SOL    HW215636   1.291   2.060   2.526  0.0918 -2.1068  2.8038
 1392SOL     OW15637   3.015   2.192  12.544 -0.0336 -0.1653  0.5444
 1392SOL    HW115638   3.075   2.215  12.616  0.9515 -1.1179  0.0234
 1392SOL    HW215639   2.950   2.142  12.594  0.2773 -0.9767  0.1410
 1393SOL     OW15640   1.308   2.538   2.905 -0.1762 -0.1395  0.4489
 1393SOL    HW115641   1.227   2.505   2.942  1.3581 -3.5957  0.7520
 1393SOL    HW215642   1.281   2.537   2.813 -1.5053 -0.4149  0.8455
 1394SOL     OW15643   0.506   2.993   1.964  0.2453  0.2803 -1.0884
 1394SOL    HW115644   0.489   2.905   1.932 -2.3518  0.6201 -0.6833
 1394SOL    HW215645   0.521   2.974   2.057 -0.9323 -3.2546 -1.6453
 1395SOL     OW15646   2.768   2.055   5.550  0.0649 -0.3374 -0.4081
 1395SOL    HW115647   2.715   2.068   5.629  0.5346  1.1750 -0.3385
 1395SOL    HW215648   2.702   2.068   5.483  0.3977  1.8907 -0.3312
 1396SOL     OW15649   1.282   4.329  12.506  0.1928 -0.0066  0.2160
 1396SOL    HW115650   1.373   4.328  12.478  0.0153  1.7143 -0.4875
 1396SOL    HW215651   1.247   4.241  12.493  0.9707 -0.5216  1.6067
 1397SOL     OW15652   3.368   1.890   8.031 -0.1900 -0.0131 -0.5269
 1397SOL    HW115653   3.457   1.924   8.028 -0.6262  1.3375  1.5500
 1397SOL    HW215654   3.382   1.801   8.065 -0.3733  0.6770  1.3323
 1398SOL     OW15655   0.552   2.171   6.502  0.4405  0.2909  0.0649
 1398SOL    HW115656   0.584   2.231   6.570  1.5886 -0.7871  0.4880
 1398SOL    HW215657   0.523   2.103   6.562  0.9666  0.1139  0.1223
 1399SOL     OW15658   0.544   2.024  11.078 -0.0940 -0.3674 -0.0416
 1399SOL    HW115659   0.574   1.940  11.042 -0.8369  0.3500 -2.3345
 1399SOL    HW215660   0.623   2.075  11.060  0.4866  0.0755  3.7035
 1400SOL     OW15661   0.553   0.101   5.334  0.2925 -0.4805 -0.6181
 1400SOL    HW115662   0.644   0.085   5.308 -0.0958  0.5235 -2.6049
 1400SOL    HW215663   0.508   0.094   5.250 -1.5842  3.8907  0.0017
 1401SOL     OW15664   0.482   2.765   4.871 -0.1106  0.0035 -0.3890
 1401SOL    HW115665   0.505   2.831   4.806  2.1577  0.8861  1.3489
 1401SOL    HW215666   0.445   2.816   4.942  2.3653 -0.5647  1.3055
 1402SOL     OW15667   4.326   1.024  17.570  0.1221 -0.4838  0.2709
 1402SOL    HW115668   4.278   0.963  17.626 -1.0615  2.0306  1.9990
 1402SOL    HW215669   4.415   1.013  17.603  0.9116 -0.6317 -1.8679
 1403SOL     OW15670   4.453   1.936   5.188  0.2680 -0.3126 -0.3710
 1403SOL    HW115671   4.397   1.909   5.261  0.1682 -0.3282 -0.4535
 1403SOL    HW215672   4.387   1.910   5.125  0.4398  0.3146 -0.8038
 1404SOL     OW15673   4.175   2.053  14.757  0.0853  0.0216  0.4342
 1404SOL    HW115674   4.121   2.043  14.678  2.0240 -1.7746 -0.6690
 1404SOL    HW215675   4.115   2.040  14.830  0.4786 -0.4278  0.6728
 1405SOL     OW15676   3.205   3.077   9.142  0.3619  0.1394  0.0945
 1405SOL    HW115677   3.260   3.014   9.188 -2.5505 -4.2170 -2.3782
 1405SOL    HW215678   3.273   3.129   9.101 -0.2850  2.3306  1.8152
 1406SOL     OW15679   1.874   4.061   0.071 -0.2297  0.3679  0.0122
 1406SOL    HW115680   1.926   4.042   0.149  1.8047 -0.3329 -1.5023
 1406SOL    HW215681   1.844   4.150   0.088 -0.7157  0.4854 -1.4659
 1407SOL     OW15682   1.248   0.994  11.248 -0.1415  0.2822  0.3045
 1407SOL    HW115683   1.292   1.026  11.169 -0.5279 -0.7652 -0.3357
 1407SOL    HW215684   1.222   0.906  11.221  0.1996 -0.5369  2.6584
 1408SOL     OW15685   4.723   0.077   6.620  0.0687  0.5194  0.2795
 1408SOL    HW115686   4.709   0.124   6.703  0.7855 -2.5013  2.1227
 1408SOL    HW215687   0.095   0.073   6.621  0.0788  0.8091  0.8191
 1409SOL     OW15688   2.015   4.375   4.374 -0.2155 -0.1138  0.0766
 1409SOL    HW115689   2.104   4.400   4.350  0.5294 -2.3325  0.4944
 1409SOL    HW215690   2.026   4.280   4.369 -1.0781  0.0037 -3.6958
 1410SOL     OW15691   1.207   4.049   3.834  0.1286  0.1484 -0.7544
 1410SOL    HW115692   1.255   4.123   3.796  1.6700 -1.3612 -1.7317
 1410SOL    HW215693   1.255   3.971   3.808 -2.2737 -1.3224 -0.7801
 1411SOL     OW15694   1.349   3.403  12.324 -0.2580  0.3110  0.0739
 1411SOL    HW115695   1.384   3.409  12.236 -2.4520 -0.3506 -0.8419
 1411SOL    HW215696   1.278   3.340  12.310 -1.6632  2.0057 -0.4383
 1412SOL     OW15697   3.141   2.861   8.484 -0.7005 -0.1807  0.2691
 1412SOL    HW115698   3.225   2.815   8.488 -0.9285 -0.7748 -1.5726
 1412SOL    HW215699   3.129   2.866   8.578  0.0901 -0.1284  0.3652
 1413SOL     OW15700   4.338   4.295   7.802  0.2507  0.1836 -0.0715
 1413SOL    HW115701   4.371   4.218   7.848  0.6061 -0.5480 -1.5732
 1413SOL    HW215702   4.258   4.298   7.856 -0.0708  1.6034 -0.6418
 1414SOL     OW15703   1.196   3.319   8.689 -0.2518 -0.2112 -0.6826
 1414SOL    HW115704   1.126   3.368   8.644  0.2621 -0.2199 -1.4995
 1414SOL    HW215705   1.235   3.394   8.734  2.4222 -0.9431 -1.7482
 1415SOL     OW15706   1.943   1.239  12.137  0.3884 -0.5279 -0.1553
 1415SOL    HW115707   1.871   1.199  12.186  0.4528  1.0951  1.2487
 1415SOL    HW215708   1.957   1.306  12.204  0.6782  0.0577 -0.8011
 1416SOL     OW15709   0.240   0.037   8.131  0.2090 -0.6484 -0.3313
 1416SOL    HW115710   0.289   4.705   8.071  2.8218 -1.5117  2.6545
 1416SOL    HW215711   0.306   0.100   8.160  1.5458 -2.6994  1.1028
 1417SOL     OW15712   4.654   2.318   4.891  0.1602  0.2651 -0.1769
 1417SOL    HW115713   0.018   2.289   4.865 -0.0273  0.7538 -1.3433
 1417SOL    HW215714   4.633   2.250   4.955 -2.3062  1.2300  0.0316
 1418SOL     OW15715   1.108   1.775   8.785 -0.4155  0.1934  0.1418
 1418SOL    HW115716   1.144   1.854   8.746  0.8294 -1.3054 -1.7602
 1418SOL    HW215717   1.103   1.797   8.878 -4.1178  1.6784 -0.3970
 1419SOL     OW15718   1.145   0.886   4.625  0.5270  0.5314 -0.4829
 1419SOL    HW115719   1.097   0.887   4.542  0.4586 -3.0280 -0.5125
 1419SOL    HW215720   1.145   0.791   4.642  1.1254  0.5199 -0.5458
 1420SOL     OW15721   1.189   4.526   8.841  0.7053 -0.1411  0.0201
 1420SOL    HW115722   1.099   4.530   8.876  1.3708 -0.6008  1.8028
 1420SOL    HW215723   1.244   4.550   8.916 -3.1236  1.3793  2.3683
 1421SOL     OW15724   3.633   2.927  12.890 -0.2413 -0.2198 -0.3814
 1421SOL    HW115725   3.559   2.879  12.928  0.5265 -1.9259 -1.0544
 1421SOL    HW215726   3.619   3.014  12.929  5.1472 -0.5061  2.2602
 1422SOL     OW15727   2.856   3.963   7.326  0.1123  0.7703  0.1884
 1422SOL    HW115728   2.887   3.884   7.370  0.7634  0.9615  0.0691
 1422SOL    HW215729   2.777   3.976   7.379 -2.2030 -0.9343 -2.8465
 1423SOL     OW15730   1.468   3.097   4.473 -0.6795  0.7353  0.1625
 1423SOL    HW115731   1.483   3.148   4.394  3.9325 -1.2922 -0.2404
 1423SOL    HW215732   1.558   3.081   4.501 -0.3996  2.3863  0.2400
 1424SOL     OW15733   3.749   3.939  15.213  0.0016 -0.0562  0.0147
 1424SOL    HW115734   3.786   3.924  15.300 -0.5013  1.2677  0.4491
 1424SOL    HW215735   3.794   4.017  15.179 -0.0815  0.9756  2.3085
 1425SOL     OW15736   3.512   2.501   9.236  0.5389 -0.4106  0.2301
 1425SOL    HW115737   3.487   2.582   9.279 -0.2128  0.2465 -1.4575
 1425SOL    HW215738   3.600   2.538   9.230  0.3067  0.2627  1.0652
 1426SOL     OW15739   4.096   1.657   2.654  0.8594  0.1245 -0.0864
 1426SOL    HW115740   4.140   1.742   2.657  0.5275  0.3521 -1.7597
 1426SOL    HW215741   4.117   1.610   2.735 -2.5797  0.4022  0.9639
 1427SOL     OW15742   0.576   1.721   9.095  0.2352  0.5444  0.1492
 1427SOL    HW115743   0.497   1.673   9.071  0.1588  1.8574 -2.1788
 1427SOL    HW215744   0.550   1.807   9.061 -0.7115  0.1531 -0.1088
 1428SOL     OW15745   2.140   3.698   3.421 -0.1045 -0.3610  1.1135
 1428SOL    HW115746   2.094   3.675   3.340  0.4197  1.3739  0.3161
 1428SOL    HW215747   2.192   3.776   3.399 -0.4684 -0.4554 -0.1042
 1429SOL     OW15748   2.478   3.968   2.890 -0.2379  0.1462  0.1655
 1429SOL    HW115749   2.388   3.937   2.897 -0.8846  1.8092 -0.6082
 1429SOL    HW215750   2.526   3.900   2.842 -0.4729  0.8797 -1.1083
 1430SOL     OW15751   3.938   0.616   6.271  1.1852 -0.3022  0.0269
 1430SOL    HW115752   3.844   0.617   6.291  0.9854 -0.6427 -0.9156
 1430SOL    HW215753   3.933   0.672   6.193  0.1535 -0.2383  0.1331
 1431SOL     OW15754   2.674   1.456   4.632 -0.4292  1.0328  0.3143
 1431SOL    HW115755   2.740   1.445   4.701  0.7704  1.9846 -0.6817
 1431SOL    HW215756   2.680   1.370   4.591  2.8933  1.0554  0.7140
 1432SOL     OW15757   0.518   0.929   9.792  0.4183 -0.0381 -0.0747
 1432SOL    HW115758   0.487   0.864   9.730 -2.3549  0.6953  0.5371
 1432SOL    HW215759   0.604   0.950   9.754  1.0332 -0.9878  0.8093
 1433SOL     OW15760   3.923   4.387   4.354 -0.0470  0.2682  0.1444
 1433SOL    HW115761   4.003   4.395   4.407 -0.6572 -0.6242  1.1817
 1433SOL    HW215762   3.918   4.476   4.319  0.5807  0.3511  0.2594
 1434SOL     OW15763   1.807   0.001   0.405 -0.1841  0.5768 -0.4847
 1434SOL    HW115764   1.739   4.707   0.470 -0.9156  1.7017 -0.9471
 1434SOL    HW215765   1.801   0.095   0.389  1.2305  0.9937  1.5199
 1435SOL     OW15766   2.380   0.901   7.433 -0.4322  0.0021  0.0144
 1435SOL    HW115767   2.359   0.953   7.510  0.4097 -0.0905  0.3031
 1435SOL    HW215768   2.290   0.872   7.416  0.0438  0.2665 -3.0163
 1436SOL     OW15769   3.337   0.831   2.948 -0.2887  0.5998  0.0751
 1436SOL    HW115770   3.402   0.889   2.910 -0.4551  0.2005 -0.8249
 1436SOL    HW215771   3.385   0.771   3.005  0.6335  0.1246 -1.2139
 1437SOL     OW15772   2.157   1.557   1.047  0.0758 -0.0437  0.1521
 1437SOL    HW115773   2.232   1.573   0.989  0.3004  2.5679  1.1767
 1437SOL    HW215774   2.116   1.481   1.005 -2.0455  1.6892 -0.8896
 1438SOL     OW15775   3.549   1.617  15.472 -0.0495 -0.1959  0.4013
 1438SOL    HW115776   3.641   1.601  15.454 -0.2818 -1.1694  0.1068
 1438SOL    HW215777   3.538   1.643  15.563  2.0514  1.0935  0.2763
 1439SOL     OW15778   3.756   1.204   8.340  0.1445  0.3850 -0.1434
 1439SOL    HW115779   3.672   1.192   8.296 -1.0078  1.1552  1.8592
 1439SOL    HW215780   3.801   1.130   8.299 -0.2472  0.5488 -0.8569
 1440SOL     OW15781   3.821   2.758  10.923 -0.0730 -0.1143  0.0647
 1440SOL    HW115782   3.904   2.775  10.879  1.2636  1.6332  3.2464
 1440SOL    HW215783   3.855   2.749  11.012 -2.3606 -0.2797  0.9194
 1441SOL     OW15784   4.213   2.216   3.064  0.1071 -0.0436  0.5918
 1441SOL    HW115785   4.230   2.202   3.157  1.1952 -1.7078  0.1518
 1441SOL    HW215786   4.155   2.292   3.064  0.0808 -0.0488 -0.8611
 1442SOL     OW15787   1.801   1.482   4.686 -0.5327  0.5116 -0.1488
 1442SOL    HW115788   1.778   1.574   4.672 -1.8396  0.3795  1.0936
 1442SOL    HW215789   1.715   1.440   4.679 -0.8258  0.8342  1.5057
 1443SOL     OW15790   3.629   2.490   4.431 -0.2464 -0.5001  0.1112
 1443SOL    HW115791   3.636   2.412   4.375  1.5600  1.0509 -1.8068
 1443SOL    HW215792   3.715   2.530   4.436 -0.1131 -0.5201 -2.1483
 1444SOL     OW15793   1.249   3.243   3.038  0.2526 -0.2174 -0.2532
 1444SOL    HW115794   1.326   3.300   3.044 -0.0359  0.2234 -0.7138
 1444SOL    HW215795   1.213   3.262   3.124 -1.1974 -0.2107 -0.8604
 1445SOL     OW15796   0.347   2.530   4.137  0.4649  0.1617 -0.8415
 1445SOL    HW115797   0.438   2.525   4.165  0.0077  1.1841  0.8864
 1445SOL    HW215798   0.334   2.625   4.141  0.5210  0.1856 -1.2957
 1446SOL     OW15799   0.998   4.701   3.832 -0.0907  0.1732  0.1676
 1446SOL    HW115800   1.026   0.063   3.866  0.7201 -0.2535  0.5727
 1446SOL    HW215801   0.946   0.006   3.757 -1.5439 -0.9487  0.7517
 1447SOL     OW15802   4.467   2.399   7.220  0.0168  0.1779 -0.1021
 1447SOL    HW115803   4.526   2.384   7.146  0.6029  0.7138  0.2575
 1447SOL    HW215804   4.523   2.395   7.297  1.9002  0.2017 -1.4637
 1448SOL     OW15805   2.860   3.585   6.503 -0.6088  0.0568 -0.3178
 1448SOL    HW115806   2.853   3.633   6.586 -2.0774 -2.4737  1.0203
 1448SOL    HW215807   2.954   3.568   6.510 -0.8805 -1.3306  0.0455
 1449SOL     OW15808   2.835   3.373   3.294  0.4265 -0.8964  0.5733
 1449SOL    HW115809   2.828   3.305   3.360  1.5996 -1.1114  0.4830
 1449SOL    HW215810   2.895   3.316   3.246  0.5354  0.8653 -1.4001
 1450SOL     OW15811   1.637   2.568   3.886 -0.3409  0.2107  0.3283
 1450SOL    HW115812   1.636   2.610   3.799  2.8679 -1.9972 -0.7623
 1450SOL    HW215813   1.630   2.474   3.869  0.6271  0.3714 -1.0012
 1451SOL     OW15814   3.320   1.327  15.180  0.0242  0.3159 -0.0860
 1451SOL    HW115815   3.253   1.378  15.224  0.9435  1.2625  0.2099
 1451SOL    HW215816   3.395   1.385  15.167 -0.7628  1.5184  0.6965
 1452SOL     OW15817   2.982   1.338  15.057 -0.4560 -0.0441  0.0507
 1452SOL    HW115818   2.900   1.386  15.050 -0.6346 -0.4451 -0.6461
 1452SOL    HW215819   3.035   1.398  15.109  3.8315 -0.5712 -3.6829
 1453SOL     OW15820   3.927   4.389   6.566  0.5640  0.1423  0.0918
 1453SOL    HW115821   3.885   4.340   6.495 -1.1665  0.6147  0.8007
 1453SOL    HW215822   3.909   4.326   6.635 -2.0956  1.5060  0.6498
 1454SOL     OW15823   1.633   0.380   8.144  0.0130 -0.0735  0.3726
 1454SOL    HW115824   1.645   0.286   8.139  1.3434  0.2134 -1.8549
 1454SOL    HW215825   1.718   0.393   8.186  0.0620 -0.3951  0.3679
 1455SOL     OW15826   3.963   0.166  16.890  0.1840 -0.2675 -0.3873
 1455SOL    HW115827   3.961   0.195  16.981 -1.0163 -1.0126 -0.1670
 1455SOL    HW215828   3.908   0.088  16.890  1.5304 -1.2205 -0.5233
 1456SOL     OW15829   0.371   2.715   9.528  0.0725 -0.1491  0.0717
 1456SOL    HW115830   0.460   2.715   9.493  0.5443 -1.7034  1.2469
 1456SOL    HW215831   0.398   2.764   9.606  1.5028  0.6946 -0.9638
 1457SOL     OW15832   4.447   1.152   3.085  0.2390  0.2866 -0.4570
 1457SOL    HW115833   4.456   1.123   3.176  1.4752 -0.5064 -0.8420
 1457SOL    HW215834   4.357   1.122   3.074 -0.0997  0.7157  1.0637
 1458SOL     OW15835   3.776   1.731   2.238 -0.1278 -0.1746 -0.3107
 1458SOL    HW115836   3.758   1.819   2.271  0.1063 -0.4164  0.4749
 1458SOL    HW215837   3.854   1.712   2.290 -0.5956  0.1619  0.5153
 1459SOL     OW15838   3.180   4.177   2.643  0.5398  0.5242  0.3003
 1459SOL    HW115839   3.219   4.247   2.590 -0.0453  0.2144 -0.5468
 1459SOL    HW215840   3.165   4.213   2.730  0.7171  0.0009  0.5526
 1460SOL     OW15841   3.334   3.436  14.990 -0.5889 -0.2054  0.2914
 1460SOL    HW115842   3.264   3.481  14.943  1.1464 -1.0564 -3.1372
 1460SOL    HW215843   3.310   3.344  14.979 -2.5998  0.3921 -0.3417
 1461SOL     OW15844   1.377   1.705   8.051  0.9327  0.0132 -0.5724
 1461SOL    HW115845   1.360   1.615   8.079  0.4356 -0.6386 -2.9959
 1461SOL    HW215846   1.320   1.705   7.974  0.2647 -1.9556 -0.0878
 1462SOL     OW15847   4.620   4.440   8.414  0.4476 -0.0732 -0.3436
 1462SOL    HW115848   4.579   4.526   8.424  0.4030 -0.0776 -0.4886
 1462SOL    HW215849   4.678   4.461   8.341  1.1376 -0.2849  0.1439
 1463SOL     OW15850   0.609   3.787  16.847  0.5389  0.1149 -0.3056
 1463SOL    HW115851   0.555   3.723  16.893  0.7816  0.8813  1.0199
 1463SOL    HW215852   0.629   3.735  16.769  0.3281  1.4503 -1.2689
 1464SOL     OW15853   2.189   3.057   3.352 -0.0157  0.5801  0.2637
 1464SOL    HW115854   2.106   3.016   3.326  0.1926 -0.3802  1.1279
 1464SOL    HW215855   2.156   3.137   3.393  0.2795  0.7353  0.1952
 1465SOL     OW15856   1.018   1.083   6.082 -0.3536  0.2514 -0.4497
 1465SOL    HW115857   0.972   1.058   6.162  0.3226  2.1595  0.5473
 1465SOL    HW215858   1.106   1.048   6.096  0.0349  0.4308 -2.4361
 1466SOL     OW15859   0.504   4.175   5.234  0.4700  0.8078 -0.1773
 1466SOL    HW115860   0.415   4.211   5.229 -0.9658 -2.5747  0.9154
 1466SOL    HW215861   0.489   4.102   5.174 -0.2270  0.2353  0.6886
 1467SOL     OW15862   0.975   2.420   9.174  0.7200 -0.0450  0.6652
 1467SOL    HW115863   0.883   2.403   9.156  0.3562 -0.7676  3.1643
 1467SOL    HW215864   0.969   2.486   9.244  2.3044  0.1785  0.5840
 1468SOL     OW15865   1.429   1.840  13.147 -0.6944  0.1849  0.1378
 1468SOL    HW115866   1.485   1.864  13.073  0.7737  0.4942  1.3505
 1468SOL    HW215867   1.385   1.758  13.123 -1.1934 -0.5832  3.7456
 1469SOL     OW15868   2.089   2.627   0.684  0.4974  0.4372 -0.0363
 1469SOL    HW115869   2.038   2.705   0.706 -1.2231 -0.7790  0.2574
 1469SOL    HW215870   2.032   2.575   0.627 -1.6970  0.0426  2.5046
 1470SOL     OW15871   4.126   0.655   7.578  1.2245  0.1102  0.0317
 1470SOL    HW115872   4.109   0.660   7.484 -0.7964 -0.7737  0.3400
 1470SOL    HW215873   4.138   0.563   7.600 -0.4668 -0.6540 -2.2398
 1471SOL     OW15874   3.523   1.750  14.609  0.0596  0.4441 -0.0204
 1471SOL    HW115875   3.596   1.714  14.559  2.3751  0.5666  3.2725
 1471SOL    HW215876   3.505   1.678  14.670 -0.2253 -0.0058 -0.6351
 1472SOL     OW15877   3.605   1.766   3.617  0.0774  0.0592  0.3300
 1472SOL    HW115878   3.586   1.705   3.546  0.8969  0.6140 -0.3635
 1472SOL    HW215879   3.526   1.760   3.670  0.5542 -1.3247  0.8715
 1473SOL     OW15880   3.859   0.776   7.415  0.3013  0.3596  0.3274
 1473SOL    HW115881   3.918   0.831   7.467  1.4471 -2.4584  1.9936
 1473SOL    HW215882   3.900   0.690   7.413  0.7867  0.5927  0.3735
 1474SOL     OW15883   3.807   1.009  12.326 -0.4422  0.0589 -0.0454
 1474SOL    HW115884   3.794   1.062  12.247  1.3752  1.1728  0.4150
 1474SOL    HW215885   3.890   1.032  12.368  0.0083  0.6536 -1.2609
 1475SOL     OW15886   0.783   2.931   7.516 -0.1456 -0.0071  0.1652
 1475SOL    HW115887   0.695   2.918   7.480  0.6297  0.4127 -1.8920
 1475SOL    HW215888   0.822   2.953   7.431  1.7667  0.4613  1.1624
 1476SOL     OW15889   4.639   2.029  11.585  0.2773  0.1692  0.2721
 1476SOL    HW115890   4.667   1.941  11.560 -2.2015 -0.6609  0.3322
 1476SOL    HW215891   4.568   2.047  11.524  1.1220  1.5964 -0.2763
 1477SOL     OW15892   3.479   0.889  13.748 -0.1196  0.4441 -0.3405
 1477SOL    HW115893   3.479   0.859  13.657  1.8777 -0.7345  0.0403
 1477SOL    HW215894   3.512   0.817  13.802  1.0812 -0.7981 -2.7060
 1478SOL     OW15895   4.239   0.312   8.657 -0.6065 -0.2127 -0.1481
 1478SOL    HW115896   4.334   0.302   8.663 -0.6843 -0.4801  0.7149
 1478SOL    HW215897   4.239   0.370   8.734 -1.0330 -0.7023  0.2220
 1479SOL     OW15898   1.557   3.560   4.080  0.3139 -0.3495  0.2833
 1479SOL    HW115899   1.495   3.531   4.147  0.8787  1.7743  1.7171
 1479SOL    HW215900   1.539   3.519   3.996 -1.2899 -0.4364  0.6756
 1480SOL     OW15901   1.476   2.629  14.185  0.3499 -0.7568  0.6365
 1480SOL    HW115902   1.547   2.607  14.125 -0.0305 -1.7082  0.5368
 1480SOL    HW215903   1.497   2.716  14.218 -0.2638 -0.1100 -0.7002
 1481SOL     OW15904   2.399   1.012   5.901  0.3621  0.5199  0.4586
 1481SOL    HW115905   2.327   0.949   5.901 -0.7713  1.8124 -1.5919
 1481SOL    HW215906   2.473   0.959   5.872 -1.0068 -1.8713  1.3380
 1482SOL     OW15907   4.613   2.510  15.117 -0.0190  0.0314  0.4439
 1482SOL    HW115908   4.686   2.545  15.168 -0.6158  0.0742  1.2700
 1482SOL    HW215909   4.613   2.581  15.052 -0.4827  0.1450  0.5640
 1483SOL     OW15910   1.459   4.043  10.395 -0.2814 -0.1906 -0.1445
 1483SOL    HW115911   1.521   3.970  10.397  1.2593  1.0862 -1.0539
 1483SOL    HW215912   1.460   4.067  10.488  0.6760  1.8725 -0.6836
 1484SOL     OW15913   3.187   2.206   6.910 -0.7390 -0.3008 -0.4061
 1484SOL    HW115914   3.096   2.177   6.905 -1.1098  1.1919 -2.5248
 1484SOL    HW215915   3.201   2.208   7.005  0.3034  1.6397 -0.5956
 1485SOL     OW15916   0.893   4.110   2.062 -0.0819 -0.1463  0.2631
 1485SOL    HW115917   0.871   4.043   1.996 -0.5496 -0.2522  0.5312
 1485SOL    HW215918   0.830   4.179   2.043 -0.0937 -0.2957 -0.2630
 1486SOL     OW15919   0.853   2.753  15.446 -0.4322  0.5350 -0.2429
 1486SOL    HW115920   0.855   2.739  15.352 -0.2093  1.2009 -0.3335
 1486SOL    HW215921   0.921   2.689  15.467 -0.7132 -0.0934 -1.2911
 1487SOL     OW15922   3.623   2.829   0.010 -0.2092  0.6606 -0.3749
 1487SOL    HW115923   3.620   2.737  17.679 -0.0754  0.2865  0.8582
 1487SOL    HW215924   3.556   2.832   0.078  1.3337 -2.2760  1.3245
 1488SOL     OW15925   0.334   0.880   3.270 -0.1791 -0.0790  0.3130
 1488SOL    HW115926   0.410   0.890   3.327  0.1916 -0.6905 -0.0689
 1488SOL    HW215927   0.377   0.867   3.185  0.8088 -1.0760  0.9677
 1489SOL     OW15928   0.765   3.906  15.314  0.1574 -0.2719 -0.0328
 1489SOL    HW115929   0.732   3.851  15.385  1.8172 -3.1947 -1.5243
 1489SOL    HW215930   0.682   3.908  15.265  1.2804 -2.3715 -2.0053
 1490SOL     OW15931   1.670   4.714  13.172 -0.2556 -0.2600 -0.1169
 1490SOL    HW115932   1.718   4.658  13.111  1.3181  1.0740 -0.1033
 1490SOL    HW215933   1.686   4.672  13.256  1.2825 -0.2192 -0.3988
 1491SOL     OW15934   2.297   3.535  17.133 -0.4451 -0.0118 -0.4600
 1491SOL    HW115935   2.286   3.515  17.040 -2.4703 -1.1083  0.0270
 1491SOL    HW215936   2.333   3.452  17.167  1.0347  0.3080 -1.2321
 1492SOL     OW15937   3.401   1.957   6.850  0.1348 -0.4003 -0.1182
 1492SOL    HW115938   3.380   1.960   6.943 -0.8985  0.2430 -0.3674
 1492SOL    HW215939   3.340   2.026   6.821 -0.5047 -0.0541  2.0532
 1493SOL     OW15940   3.867   0.632  15.177  0.9596  0.1065 -0.0044
 1493SOL    HW115941   3.857   0.725  15.193  0.2754 -0.1762  1.2064
 1493SOL    HW215942   3.953   0.620  15.217  0.9210 -0.4462 -0.0855
 1494SOL     OW15943   3.704   3.269   7.940  0.1711  0.1584  0.4571
 1494SOL    HW115944   3.789   3.306   7.916 -0.6826  0.2584 -2.4265
 1494SOL    HW215945   3.647   3.344   7.923 -0.4079 -0.3540  0.1085
 1495SOL     OW15946   1.366   3.162   9.630  0.9611 -0.2037  0.1863
 1495SOL    HW115947   1.418   3.097   9.583  3.2058  2.4432 -0.9722
 1495SOL    HW215948   1.429   3.178   9.700  0.2352  1.8892  0.3785
 1496SOL     OW15949   1.933   3.883   7.037 -0.5804  0.8532 -0.3293
 1496SOL    HW115950   1.986   3.868   6.958 -2.0640 -3.7046 -0.4754
 1496SOL    HW215951   1.910   3.976   7.037  1.9539  1.4758 -0.1553
 1497SOL     OW15952   1.793   3.604   9.911 -0.1588  0.4008  0.4652
 1497SOL    HW115953   1.761   3.534   9.855  1.2455  0.1338 -0.0117
 1497SOL    HW215954   1.713   3.655   9.927 -0.9808 -0.2183 -1.6440
 1498SOL     OW15955   0.400   3.255   3.291 -0.2618 -0.0619 -0.5351
 1498SOL    HW115956   0.369   3.234   3.202  1.0400  0.0184 -1.0024
 1498SOL    HW215957   0.466   3.188   3.307 -0.6158 -0.4459 -0.6806
 1499SOL     OW15958   2.534   1.856  11.915  0.3807  0.0505 -0.1014
 1499SOL    HW115959   2.621   1.890  11.895 -0.1770  1.7040  0.3168
 1499SOL    HW215960   2.476   1.922  11.877 -2.2490 -0.6320  2.7581
 1500SOL     OW15961   3.155   4.193   4.598  0.0411 -0.4698 -0.3115
 1500SOL    HW115962   3.190   4.167   4.513 -0.1266 -3.3579  0.4767
 1500SOL    HW215963   3.061   4.191   4.578 -0.8162 -0.0567  3.6907
 1501SOL     OW15964   3.588   2.608   7.751  0.1588 -0.4369  0.9419
 1501SOL    HW115965   3.678   2.581   7.769 -0.0840 -0.3467  2.2576
 1501SOL    HW215966   3.601   2.700   7.774 -3.3528  0.7325 -1.9030
 1502SOL     OW15967   3.129   4.684  13.658  0.0070  0.2619  0.3221
 1502SOL    HW115968   3.141   4.591  13.638  0.2683  0.3121  0.2433
 1502SOL    HW215969   3.220   4.709  13.677 -0.1985  2.1035 -1.1179
 1503SOL     OW15970   0.436   2.443  17.144  0.4722 -0.1845  0.1015
 1503SOL    HW115971   0.367   2.378  17.132 -0.5282  0.6184  1.3780
 1503SOL    HW215972   0.408   2.495  17.069 -0.9867  1.3122  1.6759
 1504SOL     OW15973   3.872   2.607   4.486  0.1772  0.6518  0.1956
 1504SOL    HW115974   3.841   2.694   4.513  0.4462  0.4585  1.1466
 1504SOL    HW215975   3.883   2.571   4.574 -0.3750 -0.2076 -0.0965
 1505SOL     OW15976   3.177   2.607   6.044 -0.3864 -0.5835  0.3397
 1505SOL    HW115977   3.149   2.618   5.953 -0.6203  1.0842  0.6088
 1505SOL    HW215978   3.273   2.610   6.033 -0.4823  1.1051 -0.0238
 1506SOL     OW15979   4.607   1.564   8.235  0.1229 -0.0893 -0.3958
 1506SOL    HW115980   4.547   1.581   8.308 -0.2634  0.3993 -0.8182
 1506SOL    HW215981   4.576   1.627   8.169  1.5684  0.1388 -0.8380
 1507SOL     OW15982   1.691   2.448  15.555  0.1319  0.3454  0.1026
 1507SOL    HW115983   1.781   2.481  15.555 -0.4454  1.8777 -1.2266
 1507SOL    HW215984   1.653   2.498  15.627 -0.1744  0.1132  0.0998
 1508SOL     OW15985   3.906   3.808   7.952  0.5350 -0.2796 -0.3579
 1508SOL    HW115986   3.851   3.743   7.995  1.5464 -0.5211  0.5664
 1508SOL    HW215987   3.866   3.887   7.989  0.7468 -0.4158  0.1632
 1509SOL     OW15988   1.570   4.413  17.378 -0.4852  0.2526  0.3173
 1509SOL    HW115989   1.527   4.406  17.463  1.5364  0.0331  1.3275
 1509SOL    HW215990   1.570   4.324  17.343  1.1600 -0.5585  2.3395
 1510SOL     OW15991   2.432   4.579   7.414  0.4214 -0.4011  0.1409
 1510SOL    HW115992   2.392   4.514   7.355 -1.0496  0.6370 -0.0222
 1510SOL    HW215993   2.458   4.514   7.479 -0.8593  1.5312  2.5484
 1511SOL     OW15994   0.473   1.702  14.984  0.0516  0.4880 -0.2266
 1511SOL    HW115995   0.446   1.793  14.995  1.2521  0.3652  4.0032
 1511SOL    HW215996   0.532   1.700  14.909  1.3198  0.3182  0.7860
 1512SOL     OW15997   4.047   2.640   2.447  0.5363 -0.2521 -0.0617
 1512SOL    HW115998   3.986   2.678   2.510 -0.4122  0.3913 -1.3663
 1512SOL    HW215999   4.016   2.688   2.369 -0.2773 -1.8584 -0.7276
 1513SOL     OW16000   4.426   3.851   8.346  0.2107 -0.2332  0.8373
 1513SOL    HW116001   4.444   3.765   8.385 -0.1015 -0.8582 -0.3742
 1513SOL    HW216002   4.366   3.812   8.282  1.7901 -1.9404  0.3892
 1514SOL     OW16003   4.259   2.282   1.116 -0.0689 -0.2115 -0.0707
 1514SOL    HW116004   4.301   2.203   1.149  0.9841  0.7885  0.9996
 1514SOL    HW216005   4.342   2.330   1.122 -0.3656  0.3763 -0.7391
 1515SOL     OW16006   1.844   2.394   4.078  0.3397 -0.0578  0.2607
 1515SOL    HW116007   1.883   2.471   4.037  2.0955 -0.2968  1.4934
 1515SOL    HW216008   1.838   2.324   4.012 -2.4650 -0.1283  0.5860
 1516SOL     OW16009   0.829   0.090  11.522 -0.2964  0.1675  0.2109
 1516SOL    HW116010   0.866   0.122  11.604  0.0920  2.2014 -0.7710
 1516SOL    HW216011   0.824   4.721  11.549 -1.5996  0.5119  1.1578
 1517SOL     OW16012   0.543   0.240   7.529  0.9072  0.0373  0.0400
 1517SOL    HW116013   0.628   0.263   7.492  1.2616  0.2313  0.9923
 1517SOL    HW216014   0.553   0.259   7.622  1.5147  2.4664 -0.5249
 1518SOL     OW16015   4.418   2.422  12.321 -0.6004 -0.1586  0.5266
 1518SOL    HW116016   4.424   2.459  12.233 -1.1366  1.5931  1.2167
 1518SOL    HW216017   4.494   2.464  12.362  0.1544 -0.2295 -0.7908
 1519SOL     OW16018   0.523   0.256   7.853  0.0466  0.6835  0.0333
 1519SOL    HW116019   0.504   0.341   7.814  0.8247  1.4288  1.2792
 1519SOL    HW216020   0.579   0.280   7.927 -0.0820  1.0914 -0.0040
 1520SOL     OW16021   1.436   0.646   3.834 -0.6401 -0.4953  0.7610
 1520SOL    HW116022   1.501   0.589   3.794 -1.2193 -0.5588 -0.0763
 1520SOL    HW216023   1.498   0.719   3.841 -0.2777 -0.8316  1.0477
 1521SOL     OW16024   0.165   1.954   2.644 -0.1141  0.2096  0.1559
 1521SOL    HW116025   0.226   1.888   2.676  1.4041  1.6481  0.2512
 1521SOL    HW216026   0.196   2.035   2.686 -0.9858  1.1112 -0.9376
 1522SOL     OW16027   2.677   0.768   7.783  0.0215 -0.3196  0.3352
 1522SOL    HW116028   2.771   0.758   7.771 -0.2587 -0.1268 -1.8757
 1522SOL    HW216029   2.666   0.859   7.755 -1.2168  0.0667  2.0430
 1523SOL     OW16030   3.869   4.645   8.636  0.1322 -0.0451  0.3508
 1523SOL    HW116031   3.945   4.699   8.613 -0.7491  0.1748 -2.1066
 1523SOL    HW216032   3.875   4.641   8.731  0.8071 -1.8964  0.2204
 1524SOL     OW16033   3.791   2.271   6.852  0.1859 -0.9029 -0.4652
 1524SOL    HW116034   3.747   2.186   6.851 -1.1907 -0.2104  0.6999
 1524SOL    HW216035   3.881   2.256   6.881 -0.6550 -1.2508  2.0018
 1525SOL     OW16036   3.309   0.607   4.665 -0.0756 -0.4907 -0.3689
 1525SOL    HW116037   3.313   0.665   4.588  0.6222 -1.2822 -0.9220
 1525SOL    HW216038   3.347   0.662   4.733 -1.1394 -1.7314  1.2250
 1526SOL     OW16039   1.771   0.621   4.045  0.0889  0.3898  0.2686
 1526SOL    HW116040   1.755   0.560   3.972  1.6233  2.1129 -1.5057
 1526SOL    HW216041   1.767   0.567   4.124  1.2796  1.3090  0.9606
 1527SOL     OW16042   1.675   2.495   9.748 -0.1690  0.4339 -0.0560
 1527SOL    HW116043   1.660   2.409   9.709  1.6414  0.1323 -0.0587
 1527SOL    HW216044   1.608   2.549   9.706 -0.3160  2.1546  2.3887
 1528SOL     OW16045   3.931   2.780   3.164  0.0236  0.3728 -0.1059
 1528SOL    HW116046   3.854   2.834   3.143 -0.2577  0.2129  0.5196
 1528SOL    HW216047   3.989   2.845   3.205  0.9415  0.0589 -0.9269
 1529SOL     OW16048   3.125   4.508  12.370 -0.2607 -0.0454  0.3783
 1529SOL    HW116049   3.189   4.457  12.321  0.4969  2.3481 -1.1349
 1529SOL    HW216050   3.092   4.438  12.426 -0.5541  0.4928  0.8847
 1530SOL     OW16051   2.353   2.272   8.120 -0.0554 -0.0723  0.4377
 1530SOL    HW116052   2.386   2.306   8.204 -1.1854  0.9790  0.4429
 1530SOL    HW216053   2.399   2.188   8.119 -0.0812 -0.0732 -0.5474
 1531SOL     OW16054   0.300   1.972   3.011  0.7162 -0.6007  0.6526
 1531SOL    HW116055   0.258   2.047   2.970  0.3097  0.3251  2.7206
 1531SOL    HW216056   0.266   1.979   3.101 -0.8894 -0.8293  0.0606
 1532SOL     OW16057   2.782   4.129   4.330 -0.0171  0.4288  0.0897
 1532SOL    HW116058   2.804   4.138   4.422  0.2509  2.3953 -0.1603
 1532SOL    HW216059   2.687   4.119   4.341 -0.2004  0.8253 -1.0810
 1533SOL     OW16060   4.541   0.282   4.370 -0.2535 -0.4615  0.0811
 1533SOL    HW116061   4.574   0.365   4.404  0.9424 -0.9534  0.1291
 1533SOL    HW216062   4.615   0.223   4.383  1.3017  1.5839  0.5619
 1534SOL     OW16063   3.177   2.912   4.293  0.8797  0.3770  0.3967
 1534SOL    HW116064   3.182   3.006   4.278 -0.1145  0.2262 -0.9035
 1534SOL    HW216065   3.253   2.885   4.241 -0.6118 -3.1337 -0.0086
 1535SOL     OW16066   2.366   1.075   4.504  0.7425 -0.6520 -0.2124
 1535SOL    HW116067   2.320   1.029   4.434 -0.6812  2.1552 -1.1308
 1535SOL    HW216068   2.310   1.152   4.511 -1.0985 -2.0273 -0.0229
 1536SOL     OW16069   0.481   0.684   1.718  0.2758  0.2718  0.3645
 1536SOL    HW116070   0.419   0.707   1.787 -0.9530 -1.7292 -0.0740
 1536SOL    HW216071   0.458   0.746   1.648 -1.0058  1.1205  1.5512
 1537SOL     OW16072   1.406   1.011   1.998  0.5022 -1.0327 -0.0777
 1537SOL    HW116073   1.385   1.023   1.905 -0.3378 -0.8513  0.1325
 1537SOL    HW216074   1.426   1.103   2.018  0.0350 -0.5792 -1.6387
 1538SOL     OW16075   1.726   1.888  16.375 -0.1557 -0.2536  0.2177
 1538SOL    HW116076   1.649   1.831  16.369  0.5540 -1.2634  0.7227
 1538SOL    HW216077   1.680   1.968  16.348 -2.1688 -0.7334  2.2022
 1539SOL     OW16078   1.409   4.543   3.490 -0.7643  0.9191 -0.2492
 1539SOL    HW116079   1.445   4.589   3.414  0.1005  1.4724  0.4840
 1539SOL    HW216080   1.394   4.617   3.550 -0.2306 -0.0290  1.0635
 1540SOL     OW16081   1.629   3.276  12.244  0.1632 -0.1322 -0.2827
 1540SOL    HW116082   1.598   3.186  12.252 -1.2384  0.3916  0.1090
 1540SOL    HW216083   1.624   3.309  12.334  0.4502  1.9339 -1.0303
 1541SOL     OW16084   3.258   0.108  15.806  0.0226  0.2782  0.3070
 1541SOL    HW116085   3.267   0.110  15.711  1.9128 -0.2656  0.4820
 1541SOL    HW216086   3.164   0.126  15.804  0.2036  1.1916  0.1248
 1542SOL     OW16087   2.435   0.593   9.120  0.0644  0.5078  1.0476
 1542SOL    HW116088   2.354   0.640   9.137 -0.7313 -1.7432  3.4732
 1542SOL    HW216089   2.416   0.558   9.034  0.4954  0.0511  1.1389
 1543SOL     OW16090   0.137   3.363   2.067 -0.0195  0.0368 -0.0714
 1543SOL    HW116091   0.136   3.285   2.122  1.7380  2.6175  3.6193
 1543SOL    HW216092   0.091   3.409   2.138 -1.6046  2.9295 -2.9842
 1544SOL     OW16093   1.281   1.135   3.233  0.3940  0.3031  0.2419
 1544SOL    HW116094   1.270   1.136   3.138  0.6920 -1.1730  0.1834
 1544SOL    HW216095   1.215   1.072   3.262  0.1506  2.1293  3.5587
 1545SOL     OW16096   3.581   0.347   2.567 -0.2411 -0.5490 -0.0214
 1545SOL    HW116097   3.561   0.440   2.565 -0.5047 -0.6071 -0.0934
 1545SOL    HW216098   3.508   0.315   2.619  0.3654  0.2060  1.3047
 1546SOL     OW16099   2.138   1.745   0.729 -0.1121  0.2365  0.2129
 1546SOL    HW116100   2.140   1.816   0.664 -0.0286  0.2461  0.2261
 1546SOL    HW216101   2.162   1.665   0.682  2.9797  1.2975 -0.0610
 1547SOL     OW16102   3.581   4.195  10.570 -0.0034 -0.0366  0.0905
 1547SOL    HW116103   3.541   4.202  10.657  0.3819 -0.8136  0.3278
 1547SOL    HW216104   3.632   4.275  10.567  0.7624 -0.5546 -0.5852
 1548SOL     OW16105   0.800   2.538  15.012  0.2508 -0.1111 -0.0040
 1548SOL    HW116106   0.819   2.449  15.042 -0.6581 -0.6496 -1.0464
 1548SOL    HW216107   0.724   2.516  14.959  0.2361 -0.5078  0.1863
 1549SOL     OW16108   4.179   0.285   5.754 -0.9391  0.1547 -0.1556
 1549SOL    HW116109   4.260   0.330   5.729 -0.5710 -0.2638  0.2935
 1549SOL    HW216110   4.227   0.218   5.802 -0.4912  0.6059  0.0334
 1550SOL     OW16111   4.127   1.577   9.859 -0.2612  0.0794 -0.2169
 1550SOL    HW116112   4.077   1.510   9.906  0.7054 -0.3798  0.1790
 1550SOL    HW216113   4.213   1.561   9.898 -0.2246 -0.9770 -0.7320
 1551SOL     OW16114   0.959   0.599   8.402  0.1392 -0.0012  0.1034
 1551SOL    HW116115   0.943   0.613   8.495  0.6065  1.8842 -0.0998
 1551SOL    HW216116   0.897   0.530   8.377 -0.9370  0.8362  0.4885
 1552SOL     OW16117   1.136   2.353   7.105 -0.4435 -0.6112 -0.5096
 1552SOL    HW116118   1.118   2.293   7.178 -1.6528  1.7662  1.1274
 1552SOL    HW216119   1.225   2.324   7.083 -0.6106  0.0931 -2.0924
 1553SOL     OW16120   2.870   4.550   2.824 -0.6948  0.1216 -0.4198
 1553SOL    HW116121   2.933   4.585   2.761  0.0295 -0.4021  0.0128
 1553SOL    HW216122   2.787   4.570   2.780 -0.5864 -0.2609 -0.8005
 1554SOL     OW16123   3.330   3.376   6.354 -0.0812 -0.1015 -0.0254
 1554SOL    HW116124   3.274   3.373   6.276 -0.7174  0.0618  0.4234
 1554SOL    HW216125   3.407   3.426   6.327 -1.7276  1.8374 -1.1844
 1555SOL     OW16126   3.335   1.492   4.967  0.3359 -0.0420 -0.1774
 1555SOL    HW116127   3.261   1.525   4.915  0.2913 -1.5341 -1.0402
 1555SOL    HW216128   3.410   1.546   4.942  1.0818 -0.6878  0.6564
 1556SOL     OW16129   4.220   0.759   4.192  0.1320  0.2134 -0.0396
 1556SOL    HW116130   4.155   0.702   4.151 -0.1307 -1.2736  2.4215
 1556SOL    HW216131   4.298   0.720   4.152 -0.5120 -0.8145 -0.2888
 1557SOL     OW16132   3.860   0.080   1.549 -0.1943 -0.6603  0.2958
 1557SOL    HW116133   3.850   4.708   1.549  1.9420 -0.8947  1.3899
 1557SOL    HW216134   3.825   0.089   1.461  1.1690 -0.2294 -0.1967
 1558SOL     OW16135   0.853   3.255  10.113  0.5194  0.0311  0.6967
 1558SOL    HW116136   0.888   3.229  10.028 -0.1256  0.6118  0.2634
 1558SOL    HW216137   0.764   3.225  10.097  0.5642 -0.2987  1.0473
 1559SOL     OW16138   2.739   0.530  13.495 -0.0011  0.0618  0.6870
 1559SOL    HW116139   2.745   0.619  13.530  0.4612  1.7658 -3.7514
 1559SOL    HW216140   2.666   0.485  13.537 -0.8141 -0.5298 -1.4118
 1560SOL     OW16141   3.115   2.230   8.667 -0.1844 -0.0249 -0.3244
 1560SOL    HW116142   3.069   2.245   8.584  1.2327 -2.1476 -1.5149
 1560SOL    HW216143   3.041   2.189   8.712  0.5302 -1.4941 -0.4881
 1561SOL     OW16144   1.204   3.727  10.431 -0.5941 -0.4746  0.3913
 1561SOL    HW116145   1.144   3.800  10.420  1.2394  1.1165  0.8510
 1561SOL    HW216146   1.146   3.667  10.477 -2.6751  0.6618 -0.7496
 1562SOL     OW16147   3.845   4.647   2.122  0.4975  0.1525  0.2677
 1562SOL    HW116148   3.750   4.630   2.121  0.5480 -0.1652  0.5718
 1562SOL    HW216149   3.860   4.692   2.205  0.3355 -1.0992  0.9799
 1563SOL     OW16150   1.012   3.774  17.508 -0.3023  0.0986 -0.4006
 1563SOL    HW116151   1.045   3.694  17.466  2.8750  1.6703 -0.8383
 1563SOL    HW216152   1.028   3.767  17.602 -1.8847 -2.7388 -0.3504
 1564SOL     OW16153   1.215   2.835   7.854  0.6212 -0.5284 -0.1010
 1564SOL    HW116154   1.241   2.804   7.767  0.3669  0.9778 -0.7110
 1564SOL    HW216155   1.129   2.875   7.838  2.0891  3.3658  1.8958
 1565SOL     OW16156   4.037   0.948   7.494 -0.1587 -0.3842 -0.4634
 1565SOL    HW116157   4.038   1.042   7.478 -0.2230 -0.3153 -0.0416
 1565SOL    HW216158   4.131   0.929   7.496 -0.1657 -0.3857 -0.2157
 1566SOL     OW16159   3.327   1.977   7.115 -0.0034  0.3443 -0.5292
 1566SOL    HW116160   3.255   1.958   7.176  0.4037  0.0784 -0.1280
 1566SOL    HW216161   3.384   2.026   7.175 -0.1132 -0.1120 -0.0562
 1567SOL     OW16162   2.247   1.012   0.960 -0.1465  0.3264  0.2288
 1567SOL    HW116163   2.319   0.994   0.900 -1.9665  1.5175 -2.3059
 1567SOL    HW216164   2.181   1.030   0.893 -0.7660  1.2123  1.0738
 1568SOL     OW16165   2.310   2.842  10.917  0.1171 -0.3300 -0.1538
 1568SOL    HW116166   2.403   2.857  10.936  0.1813 -0.5444 -0.2959
 1568SOL    HW216167   2.284   2.824  11.007 -0.9836 -0.9756 -0.6098
 1569SOL     OW16168   0.825   1.322   8.406  0.2869 -0.9663 -0.1860
 1569SOL    HW116169   0.748   1.333   8.350  1.1696  0.3770 -1.1176
 1569SOL    HW216170   0.856   1.412   8.415  3.5324 -2.0472 -0.6592
 1570SOL     OW16171   1.974   0.220   4.992  0.6592 -0.5468 -0.3347
 1570SOL    HW116172   2.069   0.220   4.986  0.7344  0.9744  0.9832
 1570SOL    HW216173   1.941   0.278   4.924 -1.7080 -3.3419 -1.5690
 1571SOL     OW16174   3.030   3.481  12.295  0.3576  0.0665  0.1880
 1571SOL    HW116175   2.941   3.509  12.271 -0.3761 -1.7878  0.7139
 1571SOL    HW216176   3.012   3.392  12.324  1.4449 -1.0279 -2.4384
 1572SOL     OW16177   4.188   4.487  10.298  0.4117 -0.2760 -0.4574
 1572SOL    HW116178   4.117   4.515  10.240 -1.0439 -1.4547  0.7626
 1572SOL    HW216179   4.141   4.420  10.348  0.6242  0.7558  1.1374
 1573SOL     OW16180   2.990   0.243  15.857 -0.4563  0.4541  0.2184
 1573SOL    HW116181   3.032   0.320  15.819  1.1223 -0.2144  0.5847
 1573SOL    HW216182   2.942   0.203  15.785 -4.4133  1.9912  2.0378
 1574SOL     OW16183   3.010   0.660   5.452  0.2562 -0.5517  0.1578
 1574SOL    HW116184   2.970   0.588   5.403 -2.1066  2.0814 -1.7586
 1574SOL    HW216185   3.082   0.681   5.392  1.5618 -1.2137  1.4869
 1575SOL     OW16186   0.657   0.073   4.314  0.3000 -0.6653  0.0835
 1575SOL    HW116187   0.607   4.715   4.322 -1.8890  0.5313 -1.2737
 1575SOL    HW216188   0.744   0.040   4.291  0.4440 -2.1945  2.7677
 1576SOL     OW16189   2.062   0.775   2.757 -0.1535 -0.7424 -0.2138
 1576SOL    HW116190   2.124   0.745   2.824 -0.2200  0.7654  0.5172
 1576SOL    HW216191   2.001   0.703   2.773 -1.0612 -0.0715 -0.6765
 1577SOL     OW16192   1.704   3.119  13.198 -0.1876  0.2759  0.3944
 1577SOL    HW116193   1.703   3.062  13.121 -2.0014 -1.3903  1.6527
 1577SOL    HW216194   1.768   3.185  13.170 -0.3968  0.2795 -0.0755
 1578SOL     OW16195   0.251   3.561   3.800  0.3741  0.0199  0.3999
 1578SOL    HW116196   0.215   3.596   3.881  1.2042 -0.6729  1.0829
 1578SOL    HW216197   0.202   3.479   3.793  0.6520 -0.1427  0.3287
 1579SOL     OW16198   2.367   4.676   4.910  0.2097 -0.2866 -0.7140
 1579SOL    HW116199   2.316   4.596   4.898 -0.7575  0.2347 -0.1044
 1579SOL    HW216200   2.418   4.691   4.830 -0.9274  0.9994 -1.2044
 1580SOL     OW16201   0.292   3.822   9.319  0.2115  0.3205 -0.2445
 1580SOL    HW116202   0.214   3.872   9.297  0.1726  1.3939  2.2475
 1580SOL    HW216203   0.359   3.890   9.317 -0.1056  0.6102 -0.8931
 1581SOL     OW16204   2.203   1.320  14.298  0.4373  0.3934 -0.3339
 1581SOL    HW116205   2.154   1.401  14.311 -1.6826 -0.8931 -0.4228
 1581SOL    HW216206   2.176   1.266  14.372  1.3603 -0.2416 -0.4597
 1582SOL     OW16207   4.395   2.217   5.557  0.0061 -0.0643 -0.2853
 1582SOL    HW116208   4.441   2.193   5.638  0.8277  0.2533 -0.6571
 1582SOL    HW216209   4.441   2.299   5.538  1.0267 -0.3241  1.0353
 1583SOL     OW16210   1.985   3.046   2.926 -0.2427 -0.6856  0.2591
 1583SOL    HW116211   2.067   3.095   2.924  0.8750 -2.4597  2.2274
 1583SOL    HW216212   1.993   3.005   2.840 -1.4541  1.1363 -0.7294
 1584SOL     OW16213   4.609   2.142   9.814  0.0633  0.4278  0.9358
 1584SOL    HW116214   4.548   2.069   9.826 -1.0006  1.1738  0.0056
 1584SOL    HW216215   4.553   2.200   9.763  0.2647 -0.8752 -0.7788
 1585SOL     OW16216   1.932   2.090   8.627  0.0466 -0.0416 -0.4514
 1585SOL    HW116217   2.021   2.120   8.607  0.1845  1.0303  1.6900
 1585SOL    HW216218   1.932   2.118   8.719  1.7714  0.2779 -0.5500
 1586SOL     OW16219   0.383   0.019   4.574  0.0273  0.2319  0.0148
 1586SOL    HW116220   0.429   4.659   4.575  0.4394  0.4532 -0.9927
 1586SOL    HW216221   0.335   0.006   4.492 -0.3829  0.5895  0.2010
 1587SOL     OW16222   2.598   0.758   2.279  0.0111 -0.0884  0.5396
 1587SOL    HW116223   2.615   0.664   2.278 -2.4014 -0.5010 -2.1945
 1587SOL    HW216224   2.682   0.797   2.303 -0.5523  0.7364  1.1577
 1588SOL     OW16225   3.617   3.774  10.082 -0.0370  0.2486 -0.1452
 1588SOL    HW116226   3.595   3.810  10.168  0.9378  0.6480 -0.0606
 1588SOL    HW216227   3.645   3.851  10.033  0.8343  1.3295  2.0354
 1589SOL     OW16228   0.508   1.475   3.408  0.1819 -0.0420 -0.6333
 1589SOL    HW116229   0.435   1.494   3.466  0.6188  0.5057 -0.2565
 1589SOL    HW216230   0.527   1.559   3.365  1.7121  0.0139  0.1683
 1590SOL     OW16231   3.385   0.995   2.500 -0.2272 -0.3677  0.6583
 1590SOL    HW116232   3.365   1.035   2.416  0.8725  0.3959  0.7658
 1590SOL    HW216233   3.480   1.007   2.501 -0.4080  1.0198  0.3377
 1591SOL     OW16234   1.907   3.445   8.138 -0.2404 -0.1749  0.0644
 1591SOL    HW116235   1.861   3.444   8.055 -3.0941 -3.3655  1.6648
 1591SOL    HW216236   1.889   3.359   8.177  0.9582 -0.6492 -0.4163
 1592SOL     OW16237   4.000   2.963   8.737  0.0163 -0.4538  0.4402
 1592SOL    HW116238   4.069   3.010   8.689 -0.6909 -1.2331 -1.3646
 1592SOL    HW216239   4.057   2.921   8.801  1.5109 -0.7316 -1.0444
 1593SOL     OW16240   2.612   4.622   4.491 -0.0273  0.3286  0.2015
 1593SOL    HW116241   2.704   4.645   4.504  0.6688 -1.1599 -2.1661
 1593SOL    HW216242   2.578   4.644   4.578  0.0696  1.5537 -0.0682
 1594SOL     OW16243   0.755   1.340  13.599 -0.3105 -0.5293  0.0849
 1594SOL    HW116244   0.819   1.368  13.665  0.7841  1.5362 -1.8768
 1594SOL    HW216245   0.690   1.313  13.663  1.3265  1.5706  2.6370
 1595SOL     OW16246   2.213   4.217   6.319  0.1048  0.4336 -0.1043
 1595SOL    HW116247   2.161   4.137   6.321 -0.3285  0.7264  0.5377
 1595SOL    HW216248   2.299   4.174   6.319 -0.9316 -1.6373 -0.6165
 1596SOL     OW16249   0.245   0.656   3.466  0.0696 -0.4748 -0.6672
 1596SOL    HW116250   0.204   0.637   3.382  2.2343  0.1248 -1.8558
 1596SOL    HW216251   0.179   0.720   3.492 -0.9534 -1.9916  0.5350
 1597SOL     OW16252   1.914   4.512   0.254  0.4762 -0.4156 -0.0627
 1597SOL    HW116253   1.958   4.465   0.325  0.6932 -0.8440 -0.4837
 1597SOL    HW216254   1.873   4.578   0.310 -1.9529 -2.7096  0.8441
 1598SOL     OW16255   2.212   0.718   4.736 -0.4742  0.1236 -0.4794
 1598SOL    HW116256   2.119   0.699   4.724 -0.8631  2.1784 -0.7060
 1598SOL    HW216257   2.206   0.812   4.753  1.9901 -0.1260  1.7581
 1599SOL     OW16258   3.390   3.718   3.618 -0.0787 -0.0954  0.7761
 1599SOL    HW116259   3.385   3.639   3.564 -0.1686  0.2382  0.2943
 1599SOL    HW216260   3.479   3.749   3.604 -0.4573  0.4355 -0.4868
 1600SOL     OW16261   2.618   3.386   7.181  0.2473  0.2160 -0.0419
 1600SOL    HW116262   2.653   3.407   7.095  0.1027 -1.6193 -0.5440
 1600SOL    HW216263   2.695   3.377   7.237 -0.8034 -0.8515  1.2390
 1601SOL     OW16264   2.468   1.563   4.299  0.3509 -0.0806  0.0195
 1601SOL    HW116265   2.413   1.570   4.377 -0.9687 -2.1526 -0.7273
 1601SOL    HW216266   2.556   1.594   4.320 -0.5890  2.3048  0.4419
 1602SOL     OW16267   1.868   0.075   5.251 -0.3316  0.3331  0.3029
 1602SOL    HW116268   1.929   0.086   5.324 -1.4309  0.4596  1.2123
 1602SOL    HW216269   1.922   0.036   5.182  0.7414 -0.1447  1.4136
 1603SOL     OW16270   0.787   3.616   3.900 -0.2658  0.0413  0.3225
 1603SOL    HW116271   0.830   3.670   3.834 -1.7809 -0.1762 -0.8513
 1603SOL    HW216272   0.695   3.634   3.881 -0.1956 -0.9465 -0.9836
 1604SOL     OW16273   4.119   4.216  12.579  0.2426 -0.2117  0.5043
 1604SOL    HW116274   4.172   4.262  12.514 -2.9950  0.5545 -1.6337
 1604SOL    HW216275   4.098   4.134  12.535  0.4448 -0.7234  1.3718
 1605SOL     OW16276   2.438   2.062   5.037 -0.2054 -0.3755  0.6363
 1605SOL    HW116277   2.462   2.115   4.961 -1.7784  1.3199  1.3200
 1605SOL    HW216278   2.524   2.049   5.078  0.2451  0.5464 -0.0198
 1606SOL     OW16279   1.311   0.301   7.394  0.4529 -0.4940  0.0290
 1606SOL    HW116280   1.278   0.279   7.307 -0.5062  0.2868  0.1990
 1606SOL    HW216281   1.384   0.239   7.397 -0.2260 -1.1574  2.2525
 1607SOL     OW16282   1.138   3.645   4.079  0.2848 -0.0401 -0.3787
 1607SOL    HW116283   1.099   3.707   4.018 -1.5507 -0.0775  0.7812
 1607SOL    HW216284   1.175   3.588   4.012  0.1514  0.4791 -0.8907
 1608SOL     OW16285   1.609   0.735   6.154  0.3011 -0.7461  0.4692
 1608SOL    HW116286   1.678   0.732   6.088  0.0327  0.3186  0.1474
 1608SOL    HW216287   1.566   0.655   6.126  2.0896 -1.6094  0.1973
 1609SOL     OW16288   3.996   0.923   8.562 -0.0411 -0.0734 -0.4205
 1609SOL    HW116289   3.958   0.899   8.646 -0.2450 -2.6950 -1.2737
 1609SOL    HW216290   3.931   0.884   8.503 -2.7198  0.0264  2.4921
 1610SOL     OW16291   3.496   3.087   8.690  0.2337 -0.0311 -0.2344
 1610SOL    HW116292   3.503   3.155   8.623  0.8244 -0.3523 -0.4932
 1610SOL    HW216293   3.569   3.115   8.747  0.4225 -2.1402  0.5462
 1611SOL     OW16294   2.436   1.951   7.525  0.2541 -0.1399  0.1781
 1611SOL    HW116295   2.384   1.872   7.510  0.2688 -0.0609 -0.2806
 1611SOL    HW216296   2.516   1.912   7.558  0.4513 -1.9245 -2.4840
 1612SOL     OW16297   3.535   3.702  15.879  0.0694 -0.2511 -0.2348
 1612SOL    HW116298   3.628   3.683  15.870  0.0744  0.3021 -1.3828
 1612SOL    HW216299   3.543   3.796  15.860 -0.2225  0.2874  2.3124
 1613SOL     OW16300   2.237   0.017   4.261 -0.6196  0.1625  0.3237
 1613SOL    HW116301   2.322   4.700   4.275 -1.5219 -2.9314 -3.1967
 1613SOL    HW216302   2.265   0.100   4.222  0.7664 -1.1903 -1.4907
 1614SOL     OW16303   3.475   4.658   2.729 -0.4683 -0.2008  0.4951
 1614SOL    HW116304   3.413   4.671   2.657 -0.4167 -0.8254  0.3372
 1614SOL    HW216305   3.503   4.569   2.706  1.5433  0.8941 -1.2695
 1615SOL     OW16306   1.560   0.252  11.339  0.3025  0.0434 -0.4229
 1615SOL    HW116307   1.495   0.322  11.350  1.1532  0.8040 -0.3040
 1615SOL    HW216308   1.628   0.270  11.403 -0.6257  1.5167  0.1452
 1616SOL     OW16309   3.067   4.662   3.943 -0.7561 -0.1410  0.2744
 1616SOL    HW116310   3.062   4.570   3.919  1.5955 -0.0585 -0.5161
 1616SOL    HW216311   3.021   4.651   4.026 -1.8488 -1.5333 -0.5210
 1617SOL     OW16312   0.950   3.558   6.952 -0.0983  0.2093  0.1804
 1617SOL    HW116313   0.935   3.502   6.876  2.2124  0.1007 -0.2151
 1617SOL    HW216314   0.980   3.639   6.910 -1.6023  1.0808  0.7726
 1618SOL     OW16315   3.778   1.753   4.327 -0.0520  0.0817  0.6457
 1618SOL    HW116316   3.760   1.667   4.289 -1.9056  0.8305 -0.1449
 1618SOL    HW216317   3.766   1.812   4.252  0.5911 -0.1896  0.3196
 1619SOL     OW16318   3.193   3.104   4.892  0.1622 -0.2111  0.0585
 1619SOL    HW116319   3.250   3.168   4.936  0.5069 -0.7790  0.4413
 1619SOL    HW216320   3.181   3.153   4.811 -1.3069  0.3146  0.6012
 1620SOL     OW16321   0.325   4.090   2.949 -0.6806 -0.4714  0.2518
 1620SOL    HW116322   0.370   4.173   2.965 -0.8371 -0.0275 -1.5883
 1620SOL    HW216323   0.401   4.044   2.913 -0.3658  0.7014 -0.5671
 1621SOL     OW16324   0.985   3.545   3.600  0.2438 -0.4357 -0.1752
 1621SOL    HW116325   0.894   3.572   3.597  0.3412 -0.3889 -2.2200
 1621SOL    HW216326   0.974   3.452   3.619  0.5199 -0.7957 -1.7667
 1622SOL     OW16327   0.114   4.219   8.280 -0.0072  0.9563 -0.2881
 1622SOL    HW116328   0.032   4.258   8.308 -0.7769 -0.4058 -0.6471
 1622SOL    HW216329   0.182   4.259   8.334  1.8199  0.6323 -2.3061
 1623SOL     OW16330   3.606   1.920   3.279  0.0753 -0.0339 -0.5786
 1623SOL    HW116331   3.564   1.841   3.245  1.5738  0.2658 -3.0693
 1623SOL    HW216332   3.532   1.979   3.280  1.2365  1.4233 -0.7404
 1624SOL     OW16333   4.351   3.209   8.521 -0.6227  0.0411  0.0566
 1624SOL    HW116334   4.432   3.204   8.571  0.1115  0.5810 -1.0640
 1624SOL    HW216335   4.303   3.130   8.547  0.1428 -0.4127  0.0856
 1625SOL     OW16336   1.214   2.495  16.145 -0.1908  0.2908  0.4486
 1625SOL    HW116337   1.127   2.530  16.162 -1.3423 -1.9515 -0.7658
 1625SOL    HW216338   1.236   2.430  16.211 -0.8946  0.1960  0.5886
 1626SOL     OW16339   0.643   1.487   8.268 -0.0139  0.8085 -0.5017
 1626SOL    HW116340   0.564   1.504   8.318 -0.2358  1.5320 -1.1045
 1626SOL    HW216341   0.685   1.573   8.271 -1.2420  1.5186 -3.3595
 1627SOL     OW16342   3.094   0.633   8.002  0.5939 -0.3812  0.1591
 1627SOL    HW116343   3.006   0.596   8.000 -0.7434  2.9050 -0.8891
 1627SOL    HW216344   3.136   0.562   7.953  0.2679  0.4541 -1.3150
 1628SOL     OW16345   0.836   1.727   3.277 -0.2761 -0.0659 -0.1159
 1628SOL    HW116346   0.866   1.658   3.218  0.0842  0.0731 -0.0936
 1628SOL    HW216347   0.854   1.807   3.228  0.8188 -0.8645 -0.9862
 1629SOL     OW16348   0.360   3.963   4.197 -0.6449 -0.4632 -0.0873
 1629SOL    HW116349   0.300   4.004   4.135 -1.7698  1.0525  1.9768
 1629SOL    HW216350   0.421   3.913   4.143 -0.6765 -0.9437  0.3275
 1630SOL     OW16351   3.813   0.554   1.237 -0.0685  0.5516  0.3215
 1630SOL    HW116352   3.745   0.491   1.216  1.9612 -0.9685 -1.7591
 1630SOL    HW216353   3.841   0.522   1.323  1.7210  2.3480  0.4142
 1631SOL     OW16354   3.896   3.836  15.442  0.1451  0.0013 -0.4985
 1631SOL    HW116355   3.962   3.772  15.413 -0.3079 -0.3927 -0.6721
 1631SOL    HW216356   3.820   3.778  15.431  0.6891 -0.5748 -1.2514
 1632SOL     OW16357   0.606   4.092   2.847 -0.6627 -0.3554  0.0664
 1632SOL    HW116358   0.606   4.146   2.768  0.0064 -1.4833 -0.7016
 1632SOL    HW216359   0.693   4.053   2.844 -0.4172  0.2045 -0.1712
 1633SOL     OW16360   2.535   0.040   4.710 -0.1073 -0.2477 -0.2087
 1633SOL    HW116361   2.499   0.098   4.643  0.0660  1.1342  0.8835
 1633SOL    HW216362   2.595   0.096   4.759 -0.7248  0.8869 -0.7482
 1634SOL     OW16363   4.110   2.638   3.935  0.2784 -0.7699 -0.4543
 1634SOL    HW116364   4.090   2.679   4.019  1.0727  0.4606 -0.8642
 1634SOL    HW216365   4.079   2.713   3.884 -1.6028 -0.0173  1.8371
 1635SOL     OW16366   2.552   1.772   6.079 -0.5076  0.3480 -0.4088
 1635SOL    HW116367   2.458   1.764   6.089 -0.2860  0.2084  1.6889
 1635SOL    HW216368   2.577   1.801   6.167 -0.0786  0.3304 -0.5216
 1636SOL     OW16369   4.341   4.640   3.811  0.1515  0.1381  0.6481
 1636SOL    HW116370   4.376   4.564   3.857  0.6495  1.4150  2.3975
 1636SOL    HW216371   4.415   4.670   3.759 -1.3658  0.1951 -1.5079
 1637SOL     OW16372   3.759   1.149  12.095 -0.4662 -0.5511 -0.1650
 1637SOL    HW116373   3.760   1.241  12.121 -1.8894 -0.5018 -0.3174
 1637SOL    HW216374   3.667   1.124  12.086 -0.8133  1.1398 -1.3512
 1638SOL     OW16375   0.296   1.144  10.041  0.5607  0.4087 -0.3920
 1638SOL    HW116376   0.293   1.156   9.946 -0.2828  1.1790 -0.2689
 1638SOL    HW216377   0.386   1.112  10.049  0.0452 -1.1303 -0.7254
 1639SOL     OW16378   3.017   2.041  12.978  0.2173 -0.0670  0.1017
 1639SOL    HW116379   3.081   2.062  13.046 -0.4644 -0.2538  0.8088
 1639SOL    HW216380   2.981   1.957  13.008 -0.6025 -0.6229 -2.4209
 1640SOL     OW16381   2.736   1.676   3.552 -0.9512  0.1588 -0.0027
 1640SOL    HW116382   2.730   1.743   3.485 -3.2023  0.3644  0.4029
 1640SOL    HW216383   2.830   1.658   3.551 -0.9975 -0.1754  1.4387
 1641SOL     OW16384   0.355   2.152   4.978  1.1364  0.1260  0.1966
 1641SOL    HW116385   0.380   2.199   4.898 -1.6114  0.7116 -0.3304
 1641SOL    HW216386   0.287   2.212   5.010  1.6459  0.0763  1.3785
 1642SOL     OW16387   1.491   0.346  14.085 -0.3494  0.4351 -0.1505
 1642SOL    HW116388   1.550   0.311  14.019 -1.2075  0.4304 -0.9199
 1642SOL    HW216389   1.558   0.367  14.150  0.8052  0.2912 -1.3125
 1643SOL     OW16390   4.555   1.083   7.530 -0.0911 -0.4282 -0.2298
 1643SOL    HW116391   4.612   1.028   7.476  1.4689 -1.6722  2.6726
 1643SOL    HW216392   4.575   1.037   7.612 -0.3067 -0.0196  0.0486
 1644SOL     OW16393   4.033   0.966   2.046 -0.0676 -0.3520  0.6121
 1644SOL    HW116394   4.026   1.049   1.998  0.7524  0.6877  2.2833
 1644SOL    HW216395   3.968   0.991   2.112  0.9592  1.8665  0.7850
 1645SOL     OW16396   4.235   1.180   9.928 -0.0323  0.2056  0.0334
 1645SOL    HW116397   4.260   1.222  10.011  0.5328  0.0985 -0.0811
 1645SOL    HW216398   4.299   1.109   9.922 -0.9456 -0.3939 -2.6016
 1646SOL     OW16399   0.528   2.617   2.832 -0.1051  0.3653 -0.0803
 1646SOL    HW116400   0.528   2.521   2.827  1.1985  0.2542  1.8762
 1646SOL    HW216401   0.553   2.634   2.923 -0.9613 -0.5929  0.3287
 1647SOL     OW16402   3.617   4.426  10.942 -0.5642  0.3789 -0.0778
 1647SOL    HW116403   3.633   4.516  10.971 -2.0266  0.0580  1.7443
 1647SOL    HW216404   3.704   4.387  10.935 -0.1463  1.1756  0.5456
 1648SOL     OW16405   2.783   3.085   5.229 -0.4925  0.6215 -0.1143
 1648SOL    HW116406   2.710   3.074   5.289  1.0865  0.1619  1.7200
 1648SOL    HW216407   2.793   2.997   5.191 -1.2295  0.0983  0.9107
 1649SOL     OW16408   4.586   0.282   7.445 -0.0425 -0.0822  0.3537
 1649SOL    HW116409   4.556   0.263   7.534  0.6333  3.3112  1.2717
 1649SOL    HW216410   4.586   0.377   7.438 -3.1566  0.0505  1.9856
 1650SOL     OW16411   1.383   3.608  10.879  0.7061 -0.4592 -0.2495
 1650SOL    HW116412   1.351   3.692  10.846  1.0223 -0.3847 -0.3677
 1650SOL    HW216413   1.435   3.634  10.956 -0.7522  0.1089  0.5473
 1651SOL     OW16414   4.199   0.996   2.720 -0.2072 -0.8551  0.4535
 1651SOL    HW116415   4.219   1.000   2.627  1.0663 -1.9951  0.6590
 1651SOL    HW216416   4.261   0.929   2.751 -0.2295 -0.9683  0.2510
 1652SOL     OW16417   3.673   3.236  13.354 -0.2440 -1.1063  0.0765
 1652SOL    HW116418   3.733   3.293  13.402  1.0922 -1.6526 -0.9552
 1652SOL    HW216419   3.624   3.288  13.290  2.4153  0.6088 -0.5482
 1653SOL     OW16420   3.213   3.066   4.547  0.1128  0.0670  0.0997
 1653SOL    HW116421   3.172   3.002   4.489  2.2026  0.0506 -1.3912
 1653SOL    HW216422   3.174   3.148   4.516 -0.0431  0.0146  0.1569
 1654SOL     OW16423   3.786   4.081  16.815 -0.0167  0.2032  0.1035
 1654SOL    HW116424   3.739   4.129  16.883 -0.1874  1.8754 -1.1976
 1654SOL    HW216425   3.739   4.117  16.740 -0.6124  1.9560  1.3262
 1655SOL     OW16426   1.690   2.691   3.643  0.1565 -0.1491 -0.1288
 1655SOL    HW116427   1.619   2.755   3.646  1.6572  1.5601 -1.4325
 1655SOL    HW216428   1.713   2.705   3.551  4.0990 -0.1162  0.8608
 1656SOL     OW16429   0.749   2.434   1.954 -0.3728 -0.1554 -0.1683
 1656SOL    HW116430   0.838   2.459   1.929  0.6449 -0.4857  3.1321
 1656SOL    HW216431   0.710   2.518   1.977  1.0592  0.0491  1.4915
 1657SOL     OW16432   4.196   3.164   6.753 -0.4715  0.3080  0.2615
 1657SOL    HW116433   4.219   3.206   6.837  0.6354  0.0303  0.0988
 1657SOL    HW216434   4.138   3.229   6.713 -2.5436  0.1315  2.9901
 1658SOL     OW16435   2.216   0.721   1.812 -0.1085 -0.2972 -0.2287
 1658SOL    HW116436   2.287   0.740   1.874  0.0060  1.4916 -0.9213
 1658SOL    HW216437   2.161   0.664   1.865  0.6601 -1.3878 -0.5864
 1659SOL     OW16438   1.998   0.936   7.535  0.2996 -0.5936  0.4957
 1659SOL    HW116439   2.038   1.000   7.476 -0.6575 -0.8500 -0.4134
 1659SOL    HW216440   2.060   0.864   7.523  1.1091  0.1592  0.1463
 1660SOL     OW16441   4.143   1.141  16.466 -0.6245  0.0641  0.6490
 1660SOL    HW116442   4.108   1.148  16.377  2.3946  0.5643 -0.4902
 1660SOL    HW216443   4.214   1.078  16.454  1.0995  2.1650 -0.2957
 1661SOL     OW16444   3.224   3.865   5.492 -0.7935  0.4526  0.2476
 1661SOL    HW116445   3.154   3.804   5.470 -1.4697  1.1879  0.3317
 1661SOL    HW216446   3.192   3.887   5.580 -1.5319  1.9381 -0.3847
 1662SOL     OW16447   2.140   2.403   6.849  0.2421 -0.7444  0.4924
 1662SOL    HW116448   2.152   2.338   6.919  3.2585 -1.5483 -0.7849
 1662SOL    HW216449   2.073   2.453   6.896  0.1363  0.0599 -0.5125
 1663SOL     OW16450   3.395   3.407  15.383 -0.3277 -0.3382  0.3383
 1663SOL    HW116451   3.307   3.446  15.380 -0.1962 -0.0877 -0.2955
 1663SOL    HW216452   3.392   3.313  15.398 -2.2224 -0.6552 -2.0323
 1664SOL     OW16453   0.795   2.921  17.245 -0.4076 -0.5412 -0.6570
 1664SOL    HW116454   0.815   2.851  17.307 -1.3630  0.7699  1.1500
 1664SOL    HW216455   0.870   2.904  17.189  0.9270  0.1116  0.9454
 1665SOL     OW16456   3.718   3.259   4.963  0.8938 -0.7265 -0.2794
 1665SOL    HW116457   3.738   3.346   5.000 -1.5088 -0.0597 -0.5579
 1665SOL    HW216458   3.736   3.270   4.870 -0.7752  0.6369 -0.4508
 1666SOL     OW16459   0.099   2.244  11.616 -0.3371  0.0796  0.1861
 1666SOL    HW116460   0.081   2.208  11.529 -1.0429 -0.1275  0.4234
 1666SOL    HW216461   0.032   2.203  11.670  0.1132  1.3177  1.6700
 1667SOL     OW16462   2.206   3.584  13.459 -0.1576  0.2947 -0.1264
 1667SOL    HW116463   2.228   3.496  13.490  0.7899  0.4989 -0.2244
 1667SOL    HW216464   2.283   3.635  13.483  1.1427 -1.3905 -0.7380
 1668SOL     OW16465   2.255   4.703   7.997 -0.0745  0.0716  0.1301
 1668SOL    HW116466   2.170   4.680   7.958 -0.5802  0.9947  0.6941
 1668SOL    HW216467   2.241   0.073   7.985  1.0181  0.0483 -1.2701
 1669SOL     OW16468   3.597   1.828   4.521  0.9731 -0.6027  0.4571
 1669SOL    HW116469   3.624   1.808   4.610  1.2507  0.0705  0.5241
 1669SOL    HW216470   3.665   1.787   4.467  1.4728  2.0049 -0.8854
 1670SOL     OW16471   1.725   4.578   5.708 -0.2190  0.2292 -0.6888
 1670SOL    HW116472   1.778   4.560   5.631  0.3662 -1.0268  0.0057
 1670SOL    HW216473   1.699   4.668   5.689 -2.8211  0.0169  1.7199
 1671SOL     OW16474   0.769   0.856  10.116 -0.6362 -0.1989  0.0336
 1671SOL    HW116475   0.861   0.829  10.116 -0.5335  0.1404 -0.4653
 1671SOL    HW216476   0.742   0.823  10.201 -3.2083  0.0662 -0.6983
 1672SOL     OW16477   3.345   3.329   3.215  0.4686  0.6764  0.1808
 1672SOL    HW116478   3.303   3.328   3.128 -0.4018 -1.2334  0.6106
 1672SOL    HW216479   3.426   3.290   3.182  0.1036 -1.5806  1.9912
 1673SOL     OW16480   3.767   1.447   9.219 -0.2121  0.3060  0.3692
 1673SOL    HW116481   3.712   1.379   9.181 -0.1327 -0.1692  1.0771
 1673SOL    HW216482   3.843   1.390   9.238 -0.3288 -0.7018 -2.1683
 1674SOL     OW16483   4.389   1.323   4.708 -1.0174 -0.0593  0.2001
 1674SOL    HW116484   4.341   1.279   4.778 -1.1203  0.9057  0.7380
 1674SOL    HW216485   4.368   1.413   4.733 -1.9008 -0.2014 -0.0387
 1675SOL     OW16486   1.237   0.793   2.005  0.4403 -0.2484 -0.7492
 1675SOL    HW116487   1.302   0.861   1.988 -1.7234  1.5953 -1.6153
 1675SOL    HW216488   1.176   0.843   2.059 -0.7469 -1.8307 -0.6084
 1676SOL     OW16489   2.192   2.931   6.074 -0.2682  0.1039 -0.3423
 1676SOL    HW116490   2.253   2.893   6.137  1.2442  2.1400 -0.5550
 1676SOL    HW216491   2.248   2.997   6.033  0.2741 -0.6645 -0.8400
 1677SOL     OW16492   1.053   3.699   5.992  0.3562  0.1068  0.6069
 1677SOL    HW116493   1.006   3.668   5.914 -1.2069  2.1966  0.7303
 1677SOL    HW216494   1.099   3.772   5.950  1.6042 -1.1437 -0.2115
 1678SOL     OW16495   0.312   1.892   4.558  0.1476  0.0334 -0.3346
 1678SOL    HW116496   0.338   1.811   4.515  0.6097  0.9796 -1.8310
 1678SOL    HW216497   0.399   1.927   4.579  0.4485 -0.5201 -0.6784
 1679SOL     OW16498   1.064   1.059   1.689 -0.8418  0.1453 -0.5021
 1679SOL    HW116499   1.149   1.043   1.649 -0.3041 -0.2698  0.7857
 1679SOL    HW216500   1.046   0.967   1.708 -1.4381  0.1434 -1.0932
 1680SOL     OW16501   0.751   0.375   1.671  0.5952  0.4694  0.1723
 1680SOL    HW116502   0.714   0.441   1.611 -0.3105 -1.0008 -0.8877
 1680SOL    HW216503   0.714   0.416   1.749 -1.2061 -1.0075  0.1061
 1681SOL     OW16504   2.221   3.509  16.456  0.1180 -0.2799  0.1843
 1681SOL    HW116505   2.153   3.565  16.417  0.4782  1.5300  2.1250
 1681SOL    HW216506   2.198   3.511  16.549  0.2165 -1.3173  0.2304
 1682SOL     OW16507   2.900   3.016  17.181 -0.5249 -0.2410  0.1200
 1682SOL    HW116508   2.989   3.052  17.187 -0.9077  0.8195 -0.5994
 1682SOL    HW216509   2.850   3.081  17.231 -1.1248  0.8299 -1.8440
 1683SOL     OW16510   1.698   4.360   3.633  0.0025 -0.0375  0.2252
 1683SOL    HW116511   1.623   4.392   3.684 -0.6664  1.6004 -1.7728
 1683SOL    HW216512   1.768   4.425   3.638 -0.9355  1.1732 -1.9475
 1684SOL     OW16513   0.478   3.957  12.795 -0.8172  0.4917  0.0934
 1684SOL    HW116514   0.454   3.945  12.703  1.8604 -2.4308 -0.2121
 1684SOL    HW216515   0.394   3.949  12.838 -1.4955  0.7000 -1.1896
 1685SOL     OW16516   2.833   0.856  17.101  0.1859 -0.4866  0.7870
 1685SOL    HW116517   2.828   0.862  17.005  2.8812  0.1321  0.6979
 1685SOL    HW216518   2.859   0.764  17.104  0.3441 -0.4977 -0.7504
 1686SOL     OW16519   4.130   2.394  12.805  0.0121 -0.3219  0.4864
 1686SOL    HW116520   4.140   2.361  12.894 -0.5723 -1.0875  0.2658
 1686SOL    HW216521   4.220   2.381  12.773  0.9140  3.8601  1.3848
 1687SOL     OW16522   2.013   4.023   3.592 -0.2313 -0.0981  0.0533
 1687SOL    HW116523   1.977   4.054   3.675 -0.7178 -0.7946  0.1018
 1687SOL    HW216524   2.042   3.937   3.626 -0.0068  0.8576  2.3165
 1688SOL     OW16525   4.148   0.019   8.886 -0.0305  0.2948  0.1578
 1688SOL    HW116526   4.217   4.691   8.927 -1.2764 -0.6652  1.0323
 1688SOL    HW216527   4.083   0.027   8.955 -1.1088  1.6154 -1.0035
 1689SOL     OW16528   0.798   0.999   9.374 -0.1724  0.1505 -0.1866
 1689SOL    HW116529   0.876   0.982   9.321  0.0590  1.5339 -0.3077
 1689SOL    HW216530   0.730   0.957   9.322 -0.2114 -2.4918  2.0451
 1690SOL     OW16531   2.415   0.208   4.531  0.4789 -0.8065 -0.0901
 1690SOL    HW116532   2.333   0.199   4.483 -0.4390  1.2708  1.1022
 1690SOL    HW216533   2.439   0.299   4.511 -0.3553 -1.3397 -3.5507
 1691SOL     OW16534   3.192   4.432  13.599  1.0234 -0.4103 -0.1534
 1691SOL    HW116535   3.248   4.398  13.670  0.6636 -2.4417 -0.8351
 1691SOL    HW216536   3.191   4.361  13.535 -0.5032 -0.1793 -0.3819
 1692SOL     OW16537   3.058   0.733  17.383 -0.6198  0.1500 -0.2258
 1692SOL    HW116538   3.053   0.662  17.319  1.7219  0.1077 -0.3513
 1692SOL    HW216539   3.027   0.808  17.334  0.4534 -0.0745 -1.2447
 1693SOL     OW16540   3.497   1.920  15.273  0.2831  0.4069 -0.0750
 1693SOL    HW116541   3.426   1.969  15.314 -0.8613  2.5207 -4.6823
 1693SOL    HW216542   3.474   1.929  15.181  1.9273  0.6550 -0.4650
 1694SOL     OW16543   3.615   4.405   9.353  0.4325 -0.0082 -0.0436
 1694SOL    HW116544   3.585   4.478   9.298  0.8395 -0.0893 -0.3719
 1694SOL    HW216545   3.696   4.431   9.397 -0.4823  1.1602  0.9293
 1695SOL     OW16546   3.115   2.570   1.924  0.0937 -0.4150 -0.2698
 1695SOL    HW116547   3.210   2.558   1.925  0.4693  2.1452 -3.2532
 1695SOL    HW216548   3.098   2.538   2.012 -0.8268 -1.5003 -0.8441
 1696SOL     OW16549   0.540   1.020  10.037  0.1485 -0.1526  0.3625
 1696SOL    HW116550   0.518   1.005   9.946 -1.0387 -0.5852  0.7178
 1696SOL    HW216551   0.629   0.986  10.040  0.9901  1.8564 -1.8058
 1697SOL     OW16552   0.039   1.590  14.002 -1.0771 -0.5761 -0.2628
 1697SOL    HW116553   4.691   1.575  13.940 -0.7184 -3.9382  0.1465
 1697SOL    HW216554   4.716   1.597  14.085 -2.4992 -0.1411 -1.0976
 1698SOL     OW16555   1.732   3.733   8.813 -0.2900 -0.0570 -0.1265
 1698SOL    HW116556   1.703   3.794   8.745  1.5384  0.1721 -0.7115
 1698SOL    HW216557   1.821   3.709   8.788 -0.4071  1.3954 -1.9385
 1699SOL     OW16558   1.757   0.524  14.135 -0.2768 -0.6032 -0.0174
 1699SOL    HW116559   1.800   0.489  14.057  0.2821  0.7918 -0.3246
 1699SOL    HW216560   1.794   0.475  14.208 -1.0936  0.8424  1.3703
 1700SOL     OW16561   3.118   3.536  14.839  0.4456 -0.1294 -0.2917
 1700SOL    HW116562   3.068   3.456  14.825 -1.2011  0.6941  0.8537
 1700SOL    HW216563   3.051   3.604  14.836  3.6170  2.9745 -0.5869
 1701SOL     OW16564   2.636   2.983   4.807 -0.5375  0.6417  0.1563
 1701SOL    HW116565   2.542   2.986   4.827 -0.1153  0.3376  2.2665
 1701SOL    HW216566   2.634   2.978   4.712 -3.2986  2.3898  0.1265
 1702SOL     OW16567   1.209   1.384  14.394  0.2180  0.0414 -0.0579
 1702SOL    HW116568   1.127   1.359  14.351 -0.5817  1.1139  0.8080
 1702SOL    HW216569   1.212   1.475  14.363 -1.3714  0.0505 -0.1921
 1703SOL     OW16570   2.222   2.494   8.604  0.7822  0.3254  0.1267
 1703SOL    HW116571   2.254   2.487   8.694 -1.0375 -0.1065  0.7528
 1703SOL    HW216572   2.178   2.579   8.603  2.3098  1.1176  0.6119
 1704SOL     OW16573   2.828   4.658   3.109 -0.3983 -0.3967 -0.5425
 1704SOL    HW116574   2.800   4.643   3.019 -1.2645  1.8488 -0.6344
 1704SOL    HW216575   2.748   4.679   3.158 -0.5455  0.0535 -0.9817
 1705SOL     OW16576   0.958   4.254   4.651 -0.6557  0.8226 -0.0088
 1705SOL    HW116577   1.048   4.271   4.624 -0.5941  0.4292 -0.0603
 1705SOL    HW216578   0.916   4.339   4.637  0.6861  1.5356  0.3051
 1706SOL     OW16579   2.017   4.421   5.313 -0.1667  0.2119  0.5607
 1706SOL    HW116580   2.108   4.399   5.293 -0.2875  1.3252 -1.2763
 1706SOL    HW216581   1.975   4.382   5.236 -1.5514  0.7223  1.0596
 1707SOL     OW16582   1.231   2.528  11.857  0.9664  0.2465  0.6225
 1707SOL    HW116583   1.204   2.491  11.942  2.0614  0.7304  1.1811
 1707SOL    HW216584   1.267   2.446  11.823 -3.0487 -0.8677 -0.9810
 1708SOL     OW16585   1.930   0.989   6.543 -0.0074  1.2100 -0.5816
 1708SOL    HW116586   2.007   1.043   6.524  1.4105 -0.3529  0.6233
 1708SOL    HW216587   1.865   1.047   6.504 -0.4123  1.5158  0.5573
 1709SOL     OW16588   0.145   2.300   2.558 -0.8795 -0.6093  0.1809
 1709SOL    HW116589   0.199   2.379   2.557 -2.3483  0.4061  0.1375
 1709SOL    HW216590   0.057   2.334   2.574 -0.1390  1.1377  0.4988
 1710SOL     OW16591   2.064   1.455   8.279  0.2632  0.2262  0.0845
 1710SOL    HW116592   1.971   1.472   8.264 -0.3647 -1.9945  1.4073
 1710SOL    HW216593   2.061   1.382   8.341 -0.3798  0.6525  0.5659
 1711SOL     OW16594   4.652   2.877   5.825 -0.2799 -1.1981  0.4537
 1711SOL    HW116595   4.672   2.960   5.867 -0.2625 -0.9089 -0.1267
 1711SOL    HW216596   0.013   2.838   5.802  0.3769  0.8551 -0.5533
 1712SOL     OW16597   4.372   4.002  11.656  0.0348  0.1877 -0.2793
 1712SOL    HW116598   4.318   3.927  11.631 -0.2135 -0.1516  1.2821
 1712SOL    HW216599   4.307   4.073  11.657  0.4913  0.6249 -1.4417
 1713SOL     OW16600   0.254   0.094   8.859 -0.1661  0.1991  0.5286
 1713SOL    HW116601   0.233   0.058   8.945 -1.3828 -1.0862 -0.3030
 1713SOL    HW216602   0.167   0.087   8.818 -0.1616 -0.1549  0.5840
 1714SOL     OW16603   1.911   0.386   2.305 -0.1041  0.2560  0.3909
 1714SOL    HW116604   1.901   0.296   2.276  0.1434  1.0127 -2.0814
 1714SOL    HW216605   2.002   0.409   2.284 -0.0746  1.2354  1.6392
 1715SOL     OW16606   1.965   4.483   4.744 -0.1427 -0.3880 -0.2869
 1715SOL    HW116607   1.915   4.504   4.666 -0.3946  0.1011  0.0050
 1715SOL    HW216608   1.927   4.544   4.807 -2.2804 -1.4575 -0.5461
 1716SOL     OW16609   0.806   1.706  16.500  0.6337  0.4399  0.3805
 1716SOL    HW116610   0.724   1.668  16.532  0.8431  0.7483  1.2945
 1716SOL    HW216611   0.882   1.662  16.537  1.3453  1.1206 -0.2766
 1717SOL     OW16612   3.144   0.209   8.411 -0.3546  0.2781 -0.0243
 1717SOL    HW116613   3.076   0.169   8.465 -2.0635  0.7984 -1.7866
 1717SOL    HW216614   3.097   0.283   8.371  0.2525  1.4690  1.4780
 1718SOL     OW16615   2.839   3.455   8.668  0.2126 -0.7558  0.1838
 1718SOL    HW116616   2.756   3.485   8.629  1.1924  0.6680 -0.8212
 1718SOL    HW216617   2.804   3.424   8.752 -1.8723  0.0441 -0.3814
 1719SOL     OW16618   2.497   3.402  10.148 -0.6998  0.4842 -0.4523
 1719SOL    HW116619   2.558   3.355  10.204  1.5645 -0.4191 -3.6167
 1719SOL    HW216620   2.492   3.347  10.069 -0.3210 -0.4976  0.2148
 1720SOL     OW16621   1.486   0.747   8.832 -0.0917  0.0222  0.8983
 1720SOL    HW116622   1.561   0.800   8.807 -1.2842  1.2751 -0.0151
 1720SOL    HW216623   1.409   0.805   8.833 -1.9127 -2.4030  1.8128
 1721SOL     OW16624   3.927   2.270   6.275 -0.0869  0.4714  0.8111
 1721SOL    HW116625   3.880   2.187   6.270  0.3728  0.1764  1.3379
 1721SOL    HW216626   3.877   2.326   6.215  1.4898 -0.6881 -1.5994
 1722SOL     OW16627   3.041   0.946   2.047 -0.6439 -0.1305 -0.4016
 1722SOL    HW116628   2.982   1.006   2.002 -1.3413 -0.2136  0.3952
 1722SOL    HW216629   3.055   0.871   1.988 -0.4427 -0.6248  0.2691
 1723SOL     OW16630   1.205   4.135   2.774  0.1276  0.5883 -0.1113
 1723SOL    HW116631   1.187   4.068   2.709  3.2471  2.2026 -2.6293
 1723SOL    HW216632   1.202   4.212   2.717 -1.3562  0.6117 -0.0000
 1724SOL     OW16633   1.543   0.854   2.699 -0.2146 -0.4457  0.0273
 1724SOL    HW116634   1.489   0.775   2.699 -0.5004 -0.2401 -4.7683
 1724SOL    HW216635   1.623   0.824   2.656  1.4336  0.2361  2.5674
 1725SOL     OW16636   4.231   1.322  13.455  0.2661 -0.1842  0.1202
 1725SOL    HW116637   4.252   1.296  13.365  4.0309  0.1516  0.8847
 1725SOL    HW216638   4.141   1.352  13.442  0.4032  0.3857  0.4608
 1726SOL     OW16639   3.730   0.238   6.177 -0.6033 -0.6101  0.3274
 1726SOL    HW116640   3.724   0.327   6.142 -2.6417 -0.2334  1.6383
 1726SOL    HW216641   3.680   0.192   6.109 -1.2866 -1.4311  1.3918
 1727SOL     OW16642   0.485   1.980   6.210  0.0315  0.1693 -0.1602
 1727SOL    HW116643   0.478   1.904   6.267  0.9645  0.7656  0.7367
 1727SOL    HW216644   0.450   1.953   6.125  0.5736 -1.0766  0.0169
 1728SOL     OW16645   1.900   1.337   2.888 -0.2027 -0.7239 -0.1616
 1728SOL    HW116646   1.835   1.394   2.929  0.1011 -0.4555 -0.0552
 1728SOL    HW216647   1.880   1.316   2.797 -0.7176  2.8951 -0.8596
 1729SOL     OW16648   0.559   2.413   6.210 -0.0126 -0.3636  0.1033
 1729SOL    HW116649   0.638   2.360   6.198  0.3836  0.4193 -0.6681
 1729SOL    HW216650   0.496   2.347   6.239  0.4784 -1.1419 -0.5767
 1730SOL     OW16651   4.642   4.672   0.552 -1.2337 -0.7772 -0.2964
 1730SOL    HW116652   4.698   4.596   0.572  0.9405  1.6784  2.8967
 1730SOL    HW216653   4.697   4.722   0.493  1.1353 -0.7002  1.9612
 1731SOL     OW16654   4.453   2.130   7.831 -0.5926  0.5689  0.0852
 1731SOL    HW116655   4.417   2.126   7.920 -0.2764 -1.6174  0.1299
 1731SOL    HW216656   4.547   2.130   7.850 -0.4320  0.2753 -0.7173
 1732SOL     OW16657   4.092   2.708   2.932  0.1054 -0.2445 -0.1175
 1732SOL    HW116658   4.079   2.772   3.002  2.0173 -0.7419  0.6961
 1732SOL    HW216659   4.186   2.715   2.917  0.3180  1.2944  1.9380
 1733SOL     OW16660   2.341   1.142   0.160  0.3565 -0.1283 -0.1932
 1733SOL    HW116661   2.257   1.098   0.169  0.8755 -0.8277  1.1623
 1733SOL    HW216662   2.368   1.153   0.251  0.7176 -0.4252 -0.2650
 1734SOL     OW16663   2.938   2.925   7.667 -0.3244  0.9212 -0.0490
 1734SOL    HW116664   2.998   2.973   7.609  2.2350 -1.9502  0.1965
 1734SOL    HW216665   2.860   2.939   7.613 -0.2240  1.3669 -0.0836
 1735SOL     OW16666   1.250   0.334   2.135 -0.9011  0.0111  0.3965
 1735SOL    HW116667   1.218   0.245   2.144  0.5338 -0.5425 -0.0987
 1735SOL    HW216668   1.184   0.384   2.183 -1.5971 -0.0539 -0.4962
 1736SOL     OW16669   3.967   4.517  10.114  0.1794 -0.3261 -0.0744
 1736SOL    HW116670   3.893   4.464  10.142  0.0705 -1.2826 -2.2037
 1736SOL    HW216671   3.937   4.606  10.092  0.6101  0.0892  1.0327
 1737SOL     OW16672   0.287   0.283  15.993  0.5637 -0.3435 -0.1968
 1737SOL    HW116673   0.277   0.218  16.063 -2.6166  0.2887 -0.0687
 1737SOL    HW216674   0.383   0.286  15.988  0.2739  2.5541 -3.4394
 1738SOL     OW16675   3.869   1.480   8.474  0.1315 -0.3604  0.8031
 1738SOL    HW116676   3.890   1.415   8.407 -1.6249  1.3951 -1.4273
 1738SOL    HW216677   3.775   1.487   8.457  0.1474 -2.8261 -0.3184
 1739SOL     OW16678   4.215   3.514  10.602 -0.1489 -0.0237 -0.0572
 1739SOL    HW116679   4.167   3.595  10.619  2.2846  1.2512  0.8407
 1739SOL    HW216680   4.214   3.471  10.687  0.7273  0.3973  0.1633
 1740SOL     OW16681   2.855   3.563  11.554 -0.4440  0.2559 -0.3049
 1740SOL    HW116682   2.812   3.629  11.609  1.8298  1.4656  0.0101
 1740SOL    HW216683   2.943   3.594  11.573 -1.2201  0.7303  2.4791
 1741SOL     OW16684   2.632   4.647   5.727 -0.0153  0.6187  0.4865
 1741SOL    HW116685   2.605   4.600   5.648 -2.3932 -1.0856  2.3016
 1741SOL    HW216686   2.602   4.589   5.797  1.0571 -2.0169 -1.2493
 1742SOL     OW16687   4.305   0.262   5.383 -0.1096  0.1071  0.5035
 1742SOL    HW116688   4.289   0.190   5.323 -1.5399  1.5722 -0.8819
 1742SOL    HW216689   4.397   0.277   5.360  0.6406 -1.3023  2.6015
 1743SOL     OW16690   1.987   0.418   2.993  0.2005 -0.3475 -0.0279
 1743SOL    HW116691   1.964   0.481   2.925  0.4897 -2.2037 -1.8369
 1743SOL    HW216692   2.072   0.385   2.963  0.2213 -0.4088  0.0963
 1744SOL     OW16693   1.757   4.304  16.840 -0.3499 -0.1250 -0.0623
 1744SOL    HW116694   1.755   4.395  16.812 -0.5099 -1.0972 -3.2016
 1744SOL    HW216695   1.758   4.264  16.753  1.5015  1.4205 -0.7400
 1745SOL     OW16696   1.744   1.880   4.262 -0.0213 -0.0362 -0.1893
 1745SOL    HW116697   1.801   1.896   4.338 -0.8242 -2.0773  0.8385
 1745SOL    HW216698   1.726   1.787   4.275 -2.3475  0.1245 -2.3190
 1746SOL     OW16699   0.402   0.127  12.568  0.5087 -0.6179  0.1840
 1746SOL    HW116700   0.389   0.059  12.634 -0.4020 -1.5505 -0.9470
 1746SOL    HW216701   0.474   0.083  12.522  1.6237  1.0180  0.3706
 1747SOL     OW16702   2.062   2.048   2.826  0.3178 -0.8825 -0.5389
 1747SOL    HW116703   2.001   2.067   2.755 -0.8547 -1.0797  0.4190
 1747SOL    HW216704   2.054   1.954   2.839  0.2723 -0.5177  1.9832
 1748SOL     OW16705   4.110   0.822   2.318  0.0268 -0.1386  0.0733
 1748SOL    HW116706   4.157   0.754   2.270  2.5144  0.7368  1.2975
 1748SOL    HW216707   4.052   0.857   2.251  0.2318  3.1798  1.6300
 1749SOL     OW16708   0.132   1.337   6.604 -0.1430 -0.0796 -0.1914
 1749SOL    HW116709   0.176   1.341   6.519  0.2582 -0.5247 -0.0067
 1749SOL    HW216710   0.158   1.248   6.628  2.3159  0.5329 -0.5248
 1750SOL     OW16711   4.566   3.021   2.732  0.5293 -0.1362  0.3804
 1750SOL    HW116712   4.502   3.071   2.681  1.5333  1.0859  0.2867
 1750SOL    HW216713   4.519   2.939   2.743  0.6012 -0.2236  0.0335
 1751SOL     OW16714   2.170   1.447   6.726 -0.1505  0.4698 -0.1931
 1751SOL    HW116715   2.246   1.420   6.675  0.1705 -0.5912  0.8323
 1751SOL    HW216716   2.138   1.364   6.762  1.2106  0.6904  1.5272
 1752SOL     OW16717   0.754   4.373  13.492 -0.4128  0.0861  0.2980
 1752SOL    HW116718   0.811   4.377  13.568  0.8040 -0.8676 -0.5695
 1752SOL    HW216719   0.729   4.463  13.471  1.1655  0.4038 -0.1768
 1753SOL     OW16720   1.217   0.432   5.577 -0.3177  0.5913 -0.2265
 1753SOL    HW116721   1.177   0.393   5.655 -0.1957 -1.2975 -1.1055
 1753SOL    HW216722   1.307   0.451   5.604 -0.2956 -1.2580  1.0241
 1754SOL     OW16723   0.060   1.270  10.978  0.5647  0.4015 -0.0824
 1754SOL    HW116724   0.117   1.219  10.920 -3.0137 -2.2228 -1.2336
 1754SOL    HW216725   4.713   1.218  11.015  0.2350  0.1665 -1.0379
 1755SOL     OW16726   2.892   2.801  16.995 -0.1840  0.5976  0.0680
 1755SOL    HW116727   2.900   2.850  17.077 -0.8104  1.2636 -0.2675
 1755SOL    HW216728   2.798   2.804  16.977  0.0696  0.9272 -1.1698
 1756SOL     OW16729   4.370   1.088   8.420  0.0284 -0.2030  0.6245
 1756SOL    HW116730   4.434   1.075   8.351  0.5234 -1.8900  1.3966
 1756SOL    HW216731   4.395   1.007   8.465 -0.7032 -1.5245 -1.3973
 1757SOL     OW16732   3.968   4.430   6.212  0.7176 -0.6630 -0.2844
 1757SOL    HW116733   3.934   4.514   6.244  1.6959 -0.7930  1.0901
 1757SOL    HW216734   3.914   4.367   6.258 -0.9937  0.8059 -0.2823
 1758SOL     OW16735   2.879   3.150   5.537  0.3053  0.3445  0.4871
 1758SOL    HW116736   2.877   3.165   5.631 -1.3600 -1.7420  0.7932
 1758SOL    HW216737   2.785   3.139   5.519  0.6687 -1.3008 -0.3861
 1759SOL     OW16738   0.309   2.802  13.320  0.4917 -0.1736 -0.3780
 1759SOL    HW116739   0.282   2.737  13.385 -0.5341 -0.0649 -0.6982
 1759SOL    HW216740   0.403   2.808  13.341  0.5639  0.2323 -0.8205
 1760SOL     OW16741   4.066   1.007   0.745  0.5431  0.4435  0.5156
 1760SOL    HW116742   4.066   1.058   0.664  1.4895  0.8717  0.7829
 1760SOL    HW216743   4.162   1.007   0.744  0.5245  0.1391 -1.0050
 1761SOL     OW16744   0.656   3.356   0.955  0.2724  0.2580  0.1173
 1761SOL    HW116745   0.717   3.328   0.887 -0.0669 -1.9494  0.7304
 1761SOL    HW216746   0.563   3.340   0.934  0.8462 -1.1198 -1.4121
 1762SOL     OW16747   1.868   4.449  11.205  0.0501 -0.3209 -0.2726
 1762SOL    HW116748   1.861   4.357  11.227 -1.7997  0.0130  0.5057
 1762SOL    HW216749   1.877   4.438  11.110 -3.0074 -2.0802 -0.3348
 1763SOL     OW16750   4.166   3.723   3.289 -0.0794  0.2269  0.8499
 1763SOL    HW116751   4.224   3.751   3.359  1.8810 -2.8866  0.4651
 1763SOL    HW216752   4.223   3.655   3.254  1.4927  1.7607  0.4422
 1764SOL     OW16753   3.856   1.017   4.190  0.2646  0.4418 -0.3187
 1764SOL    HW116754   3.938   1.041   4.148 -0.1530  1.4099 -0.5928
 1764SOL    HW216755   3.822   0.947   4.133 -0.1810 -0.1179  0.6295
 1765SOL     OW16756   2.343   0.507   1.994 -0.3094 -0.6687 -0.6994
 1765SOL    HW116757   2.394   0.454   1.932  0.7625 -1.7564  1.1252
 1765SOL    HW216758   2.408   0.573   2.017 -0.1388 -0.3310 -2.1294
 1766SOL     OW16759   4.230   3.843   6.739 -0.3337 -0.3455  0.2148
 1766SOL    HW116760   4.299   3.778   6.732  1.1942  1.6408 -3.3078
 1766SOL    HW216761   4.255   3.903   6.668 -0.6808  2.3669  2.3696
 1767SOL     OW16762   3.668   0.920  12.519  0.1010  0.8063 -0.3001
 1767SOL    HW116763   3.686   0.987  12.585  1.3092  0.5948 -0.4248
 1767SOL    HW216764   3.726   0.941  12.447 -1.5445  2.5970 -1.0895
 1768SOL     OW16765   1.237   1.781  10.034  0.3006 -0.5381  0.0768
 1768SOL    HW116766   1.245   1.844   9.962 -1.8032 -1.3144 -0.8368
 1768SOL    HW216767   1.252   1.835  10.112  1.6805  1.0291 -1.2758
 1769SOL     OW16768   4.532   2.939  16.655 -0.2722  0.2316 -0.4445
 1769SOL    HW116769   4.607   2.923  16.597  2.2396  0.4553  2.6977
 1769SOL    HW216770   4.542   3.033  16.673 -1.2801  0.8050 -2.9347
 1770SOL     OW16771   1.024   0.089   6.695 -0.6744 -0.1366 -0.2097
 1770SOL    HW116772   1.032   4.723   6.663  2.3039  0.3441 -0.8764
 1770SOL    HW216773   0.929   0.090   6.702 -0.6849 -1.8975 -0.2312
 1771SOL     OW16774   0.187   2.802   5.830  0.4060 -0.0401  0.0066
 1771SOL    HW116775   0.207   2.728   5.773  1.5428  1.1917 -1.2111
 1771SOL    HW216776   0.264   2.823   5.883  1.6512 -1.3342 -1.3009
 1772SOL     OW16777   2.996   3.088  11.351 -0.3040 -0.4026  0.3040
 1772SOL    HW116778   3.046   3.014  11.387  0.2852 -1.7024 -3.1293
 1772SOL    HW216779   3.072   3.139  11.325 -1.9844  2.0292  0.1575
 1773SOL     OW16780   3.774   3.470  15.052  0.5938  0.1741 -0.2428
 1773SOL    HW116781   3.778   3.509  15.140  0.5015  0.6419 -0.4453
 1773SOL    HW216782   3.680   3.457  15.044  0.6569 -1.0094  0.8208
 1774SOL     OW16783   0.424   4.134   6.830 -0.6423 -0.2050 -0.1217
 1774SOL    HW116784   0.342   4.140   6.879  0.1726  0.6819  1.1220
 1774SOL    HW216785   0.469   4.064   6.878  0.2021  0.6406  0.3238
 1775SOL     OW16786   0.492   3.825   4.886  0.1603 -0.5121  0.3999
 1775SOL    HW116787   0.469   3.817   4.793  1.0845  0.8924  0.0549
 1775SOL    HW216788   0.552   3.899   4.877  0.3757 -0.4907  2.0516
 1776SOL     OW16789   1.644   1.116   8.945  0.3154  0.2363 -0.5913
 1776SOL    HW116790   1.609   1.204   8.958  1.7959  0.5856  1.1102
 1776SOL    HW216791   1.606   1.098   8.859 -1.3842  1.0576 -0.0091
 1777SOL     OW16792   0.663   3.794   7.566 -0.7655  0.4332 -0.6732
 1777SOL    HW116793   0.634   3.820   7.653 -0.0118 -2.6052  0.4758
 1777SOL    HW216794   0.652   3.871   7.509 -2.0731  0.3761 -0.4793
 1778SOL     OW16795   1.678   3.570  12.508 -0.1972 -0.4008 -0.1264
 1778SOL    HW116796   1.645   3.643  12.561  4.0207  1.4807 -0.0794
 1778SOL    HW216797   1.768   3.574  12.540 -0.2013 -0.6478 -0.0869
 1779SOL     OW16798   0.003   0.074   4.507  0.5216  0.5555  0.5168
 1779SOL    HW116799   0.033   0.019   4.579 -1.4368  0.8975  1.6075
 1779SOL    HW216800   0.080   0.075   4.450 -0.5500  0.1641 -0.9391
 1780SOL     OW16801   4.652   1.407   5.930 -0.0984 -0.0099 -0.5358
 1780SOL    HW116802   4.583   1.474   5.932 -0.1124 -0.0063 -1.4446
 1780SOL    HW216803   4.694   1.424   6.015  1.7425  1.8985 -1.8413
 1781SOL     OW16804   0.176   4.048   8.062 -0.1786 -0.1325 -0.5057
 1781SOL    HW116805   0.170   4.121   8.000  1.6256  2.0662  1.9125
 1781SOL    HW216806   0.164   4.098   8.143  1.8060  1.3599 -1.1296
 1782SOL     OW16807   3.929   0.624   3.900  0.3770  0.3019 -0.0322
 1782SOL    HW116808   3.949   0.689   3.833  0.1685 -0.1728 -0.5541
 1782SOL    HW216809   3.941   0.544   3.850 -1.9951  1.0045 -1.6919
 1783SOL     OW16810   3.434   2.609  17.445 -0.5291 -0.4998  0.3692
 1783SOL    HW116811   3.516   2.594  17.492  0.6136  2.3768 -0.7315
 1783SOL    HW216812   3.381   2.536  17.477 -0.0002 -1.2146 -0.3929
 1784SOL     OW16813   1.184   4.225   9.039 -0.4057 -0.0665  0.6340
 1784SOL    HW116814   1.108   4.169   9.051 -1.2772  0.9978  0.0726
 1784SOL    HW216815   1.185   4.289   9.111 -2.5928  1.4293 -0.6627
 1785SOL     OW16816   4.342   2.618   5.355  0.2786  1.1219 -0.1284
 1785SOL    HW116817   4.434   2.637   5.370  0.4656  2.0703 -2.5130
 1785SOL    HW216818   4.309   2.609   5.445 -0.7374 -0.7099 -0.6920
 1786SOL     OW16819   4.211   2.409   7.091 -0.2503 -0.2836  0.5045
 1786SOL    HW116820   4.180   2.405   7.182  0.2245  3.3353  0.8221
 1786SOL    HW216821   4.305   2.409   7.110 -0.3555 -0.3399  1.0344
 1787SOL     OW16822   1.276   0.238  14.975 -0.1814 -0.0917 -0.4491
 1787SOL    HW116823   1.250   0.147  14.984 -1.1922  0.2992  0.5552
 1787SOL    HW216824   1.345   0.241  15.042 -1.7700  3.9089  0.9915
 1788SOL     OW16825   3.585   4.424   2.676 -0.1463  0.4478  0.0702
 1788SOL    HW116826   3.548   4.335   2.674  1.1770 -0.1445  1.4035
 1788SOL    HW216827   3.677   4.400   2.665 -0.8320 -2.0215 -0.3436
 1789SOL     OW16828   2.672   2.731  17.586 -0.1556 -0.1085 -0.2174
 1789SOL    HW116829   2.663   2.730  17.681 -1.9431 -1.0394 -0.4049
 1789SOL    HW216830   2.733   2.805  17.574  0.5557 -0.5685  0.5592
 1790SOL     OW16831   2.429   0.190  16.274 -0.3319  0.4683 -0.0343
 1790SOL    HW116832   2.505   0.167  16.220  0.2928  3.4067 -0.3596
 1790SOL    HW216833   2.450   0.158  16.362  0.9288  0.5884 -0.2930
 1791SOL     OW16834   4.187   3.852  11.515 -0.3734  0.5618 -0.1559
 1791SOL    HW116835   4.096   3.868  11.541 -0.3949  0.5062 -0.1988
 1791SOL    HW216836   4.185   3.763  11.479  2.2127  0.2782  0.3825
 1792SOL     OW16837   0.846   0.761  11.174 -0.6343 -0.2639 -0.9495
 1792SOL    HW116838   0.938   0.779  11.194 -0.3128 -2.6625 -0.2723
 1792SOL    HW216839   0.810   0.828  11.116  1.9611  1.9845  0.0349
 1793SOL     OW16840   1.081   0.795   8.699 -0.5277  0.0350 -0.3847
 1793SOL    HW116841   1.061   0.814   8.790  2.9407  1.2098  0.1150
 1793SOL    HW216842   1.120   0.878   8.673 -0.0713 -0.1653 -0.3413
 1794SOL     OW16843   3.137   1.108   2.269 -0.1790 -0.6649  0.2414
 1794SOL    HW116844   3.202   1.161   2.222 -1.5358  0.5300 -0.2835
 1794SOL    HW216845   3.100   1.070   2.190 -1.6532  2.2888 -0.4738
 1795SOL     OW16846   2.635   3.237   6.867 -0.0093  0.4131 -0.4124
 1795SOL    HW116847   2.674   3.319   6.897 -0.6842 -0.3830  2.7043
 1795SOL    HW216848   2.568   3.265   6.806 -2.1074 -0.0674  1.6863
 1796SOL     OW16849   1.858   0.038  15.975  0.0623  0.1916  0.3345
 1796SOL    HW116850   1.831   4.703  15.904 -0.9078  0.5124  0.4389
 1796SOL    HW216851   1.952   0.024  15.982  0.0947  0.5141  0.5361
 1797SOL     OW16852   1.127   1.168   5.550  0.2071  0.1868  0.4963
 1797SOL    HW116853   1.070   1.128   5.484 -0.1170  3.0814 -1.0077
 1797SOL    HW216854   1.096   1.117   5.624 -0.2412  0.1254  0.2672
 1798SOL     OW16855   0.234   2.402   6.159 -0.2446  0.2150 -0.4951
 1798SOL    HW116856   0.289   2.336   6.201  0.5697  0.7558 -0.7153
 1798SOL    HW216857   0.202   2.443   6.239  0.9249  0.3246 -0.0771
 1799SOL     OW16858   2.328   0.588   6.296 -0.0085  0.3881  0.0159
 1799SOL    HW116859   2.305   0.496   6.280 -1.2271  0.9064 -1.2267
 1799SOL    HW216860   2.249   0.632   6.325  0.1657 -0.2271  1.4239
 1800SOL     OW16861   3.439   4.054   5.506  0.0884 -0.0040 -0.1343
 1800SOL    HW116862   3.371   4.118   5.529  0.6676  0.6635 -0.2982
 1800SOL    HW216863   3.385   3.975   5.499 -1.3322  1.1191 -1.9585
 1801SOL     OW16864   2.459   0.548  14.224  0.8915  0.5045  0.0564
 1801SOL    HW116865   2.497   0.461  14.209  1.9129  0.9948 -0.2256
 1801SOL    HW216866   2.400   0.538  14.298  1.1629 -1.8471 -0.0351
 1802SOL     OW16867   0.767   0.527   5.024  0.1028  0.7354 -0.4741
 1802SOL    HW116868   0.764   0.440   4.984  0.7709  0.3464  0.3099
 1802SOL    HW216869   0.679   0.553   4.999 -0.0169  0.2534 -0.5400
 1803SOL     OW16870   0.893   2.237   2.105  0.5201 -0.4011 -0.0206
 1803SOL    HW116871   0.819   2.294   2.086  0.1159  0.3127  3.7956
 1803SOL    HW216872   0.948   2.246   2.027  0.0325 -1.7301 -0.5040
 1804SOL     OW16873   0.435   1.159   9.602  0.9192  0.1568  0.2091
 1804SOL    HW116874   0.482   1.129   9.680  0.2518 -0.6545  0.2965
 1804SOL    HW216875   0.358   1.179   9.655 -0.4966 -0.3121 -1.6911
 1805SOL     OW16876   3.244   0.590   8.997 -0.2535 -0.6543 -0.1475
 1805SOL    HW116877   3.312   0.527   9.021  0.0273 -0.2619  0.0894
 1805SOL    HW216878   3.191   0.587   9.077 -1.9963 -0.3964 -1.2925
 1806SOL     OW16879   1.277   0.498   3.601  0.0394  0.0701  0.3885
 1806SOL    HW116880   1.347   0.468   3.543 -0.2873 -0.7338  0.4029
 1806SOL    HW216881   1.320   0.572   3.644 -2.3694  1.5277  0.2754
 1807SOL     OW16882   0.236   1.626   9.812 -0.4590  0.0278 -0.6467
 1807SOL    HW116883   0.277   1.685   9.748  1.4885 -0.4290  0.2104
 1807SOL    HW216884   0.210   1.694   9.874 -0.8678 -0.6937 -0.0291
 1808SOL     OW16885   0.011   3.055  14.078  0.5945 -0.2880  0.0450
 1808SOL    HW116886   0.048   3.120  14.019  0.3731  0.0947  0.3304
 1808SOL    HW216887   4.644   3.059  14.049  0.9296 -0.2447 -0.9843
 1809SOL     OW16888   0.396   0.330   3.331 -0.6398 -0.3842  0.2103
 1809SOL    HW116889   0.405   0.310   3.238  0.9461 -1.3525  0.5811
 1809SOL    HW216890   0.308   0.366   3.317 -0.4628  0.0131  0.1019
 1810SOL     OW16891   4.142   2.528   0.796 -0.3186  0.2939  0.6770
 1810SOL    HW116892   4.205   2.532   0.868  0.8006 -1.9524 -0.1774
 1810SOL    HW216893   4.083   2.596   0.829 -0.7980  1.2163 -2.0615
 1811SOL     OW16894   3.250   0.927   8.910  0.1091  0.6425 -0.0528
 1811SOL    HW116895   3.297   0.865   8.855  0.1173  0.0304  0.6352
 1811SOL    HW216896   3.232   1.000   8.851 -0.8690  0.3123 -0.1566
 1812SOL     OW16897   0.653   0.521   1.854  0.1395  0.1457  0.0995
 1812SOL    HW116898   0.638   0.561   1.940  2.0568  1.8419 -0.3649
 1812SOL    HW216899   0.595   0.576   1.802 -1.5763 -0.8458  0.9833
 1813SOL     OW16900   2.069   4.704   9.258 -0.5924 -0.6912 -0.2493
 1813SOL    HW116901   1.985   0.025   9.265  1.3161  2.8400  0.2519
 1813SOL    HW216902   2.048   4.632   9.198 -0.2160 -0.6997 -0.3724
 1814SOL     OW16903   3.364   2.403   0.928  0.0026 -0.3423  0.0429
 1814SOL    HW116904   3.438   2.346   0.909 -0.5502 -0.9691 -0.2176
 1814SOL    HW216905   3.410   2.474   0.972 -0.7119  0.0402  0.1687
 1815SOL     OW16906   2.861   0.320   2.353 -0.2085  0.9296 -0.1294
 1815SOL    HW116907   2.817   0.395   2.312 -1.9192  0.4909  0.8846
 1815SOL    HW216908   2.909   0.291   2.275 -0.1432 -1.2695  0.7503
 1816SOL     OW16909   0.042   0.143  14.507 -0.1693 -0.6623  0.0979
 1816SOL    HW116910   0.049   0.195  14.587 -2.7739 -0.8454  0.4504
 1816SOL    HW216911   4.681   0.161  14.465 -0.3559  0.1062  0.8042
 1817SOL     OW16912   3.031   0.025   1.821 -0.3323 -0.7795  0.5772
 1817SOL    HW116913   3.071   0.102   1.862  0.2455  0.8136 -3.0507
 1817SOL    HW216914   3.010   0.067   1.738 -0.2539  0.6103  1.2587
 1818SOL     OW16915   1.549   0.945   0.474  0.1480 -0.2071 -0.0137
 1818SOL    HW116916   1.553   0.959   0.379  2.6475  0.3525  0.1892
 1818SOL    HW216917   1.457   0.960   0.498 -0.3914 -0.3159 -1.9495
 1819SOL     OW16918   3.504   1.304   5.801 -0.2312 -0.2058 -0.2267
 1819SOL    HW116919   3.543   1.311   5.888 -1.7618 -1.3075  0.5516
 1819SOL    HW216920   3.577   1.272   5.748  0.2975 -0.0508  0.4094
 1820SOL     OW16921   0.192   2.157   2.853  0.2007  0.7830 -0.1259
 1820SOL    HW116922   0.200   2.251   2.835  0.3932  0.6831 -0.5896
 1820SOL    HW216923   0.102   2.137   2.830  0.1010  2.3299 -1.0759
 1821SOL     OW16924   1.755   3.863  10.273  0.2477  0.0857  0.0068
 1821SOL    HW116925   1.699   3.828  10.203  0.6166  0.1195 -0.3019
 1821SOL    HW216926   1.731   3.802  10.343 -3.1680  1.4924  0.1022
 1822SOL     OW16927   0.588   0.168  16.858 -0.1327 -0.2372 -0.3514
 1822SOL    HW116928   0.534   0.194  16.783 -0.7951  0.1907  0.2657
 1822SOL    HW216929   0.667   0.217  16.836  1.2967 -2.0971  0.7102
 1823SOL     OW16930   2.830   3.164   3.497 -0.0615 -0.3166  0.1916
 1823SOL    HW116931   2.764   3.182   3.564  0.2407 -0.1572  0.4479
 1823SOL    HW216932   2.908   3.140   3.547  1.7052  3.7225 -0.6459
 1824SOL     OW16933   2.928   4.094   2.951  0.3538  0.1088  0.0980
 1824SOL    HW116934   2.938   4.189   2.959 -1.0837  0.2734 -0.0776
 1824SOL    HW216935   2.874   4.092   2.872 -1.9597 -1.5860  1.7251
 1825SOL     OW16936   3.421   4.510   3.949 -0.2038 -0.6061 -0.1771
 1825SOL    HW116937   3.493   4.470   3.998  0.9956 -0.5431 -1.8798
 1825SOL    HW216938   3.427   4.458   3.869  0.5434  0.8615 -1.0877
 1826SOL     OW16939   3.844   2.600   7.881 -0.2259  0.0702 -0.1436
 1826SOL    HW116940   3.813   2.668   7.940 -1.7312  0.9130 -1.9029
 1826SOL    HW216941   3.935   2.626   7.868  0.3593 -1.5344  0.7029
 1827SOL     OW16942   2.673   4.167   8.822 -0.1353 -0.3036  0.0207
 1827SOL    HW116943   2.763   4.137   8.835 -1.0282 -2.9256  0.0818
 1827SOL    HW216944   2.649   4.160   8.914 -1.4853  1.2564 -0.2221
 1828SOL     OW16945   2.569   1.591  17.516  0.0437 -0.2217  0.2214
 1828SOL    HW116946   2.485   1.633  17.495  0.4701  0.7728  0.4726
 1828SOL    HW216947   2.548   1.536  17.591 -0.8311 -1.7108 -1.1064
 1829SOL     OW16948   1.440   3.806   2.525  0.1334  0.4480  0.7959
 1829SOL    HW116949   1.500   3.747   2.478 -2.4898 -0.9362 -0.8072
 1829SOL    HW216950   1.443   3.888   2.475 -1.5878 -0.8350 -1.4343
 1830SOL     OW16951   0.574   3.588  16.655  0.1029 -0.5392 -0.1005
 1830SOL    HW116952   0.641   3.523  16.678  0.1925 -0.6294 -0.6138
 1830SOL    HW216953   0.518   3.580  16.732 -1.8122 -0.3045 -1.4484
 1831SOL     OW16954   1.273   1.006   7.835  0.2908  0.0134 -0.1574
 1831SOL    HW116955   1.337   0.941   7.865 -0.0366 -1.0740 -1.8476
 1831SOL    HW216956   1.256   1.039   7.923  1.9626 -0.8976  0.4997
 1832SOL     OW16957   3.160   0.928   1.727 -0.4532 -0.1784 -0.4673
 1832SOL    HW116958   3.220   0.996   1.698 -0.7118  0.2216 -0.0558
 1832SOL    HW216959   3.210   0.895   1.801 -1.6886 -0.7185  0.1231
 1833SOL     OW16960   2.604   2.212   4.023 -0.3845  0.0287  0.4540
 1833SOL    HW116961   2.588   2.118   4.023 -1.6609  0.2407 -0.0533
 1833SOL    HW216962   2.600   2.236   3.930 -0.1790  1.3717  0.7923
 1834SOL     OW16963   2.994   0.388   5.066 -0.0700  0.8803  0.2491
 1834SOL    HW116964   3.045   0.401   5.146  1.8326 -0.8633 -0.6500
 1834SOL    HW216965   3.062   0.358   5.005  0.8748  0.6767  1.3835
 1835SOL     OW16966   3.395   2.234   8.624  0.5077  0.0072  0.0103
 1835SOL    HW116967   3.424   2.284   8.548  0.8913  0.7983  0.6735
 1835SOL    HW216968   3.301   2.248   8.627  0.6182  0.4279  1.5036
 1836SOL     OW16969   2.707   0.611  11.423  0.4206  0.0114 -0.5068
 1836SOL    HW116970   2.702   0.605  11.328 -0.0022 -0.0569 -0.4776
 1836SOL    HW216971   2.641   0.545  11.443  3.0631 -1.7678  2.3471
 1837SOL     OW16972   0.037   1.948   4.669 -0.4106 -0.0503 -0.7817
 1837SOL    HW116973   0.133   1.951   4.673 -0.3163  0.2799 -3.0899
 1837SOL    HW216974   0.034   1.962   4.575  0.8007 -0.9062 -0.9585
 1838SOL     OW16975   0.860   4.256   3.128 -0.4046  0.5816 -0.8192
 1838SOL    HW116976   0.842   4.191   3.060 -1.1711 -1.4045  1.3128
 1838SOL    HW216977   0.820   4.334   3.087 -0.9424  0.8316  0.1817
 1839SOL     OW16978   2.424   2.669   4.230 -1.0439  0.5046 -0.6225
 1839SOL    HW116979   2.369   2.696   4.303 -2.1997 -1.7590 -0.6409
 1839SOL    HW216980   2.360   2.606   4.195  0.6188 -1.5002 -0.0525
 1840SOL     OW16981   2.767   4.372   6.389 -0.0893  0.7130 -0.2568
 1840SOL    HW116982   2.826   4.357   6.463 -0.8842 -0.7031  0.0965
 1840SOL    HW216983   2.764   4.466   6.371  1.4026  0.2502 -2.9181
 1841SOL     OW16984   1.806   3.860   9.693 -0.2088 -0.0763 -0.3064
 1841SOL    HW116985   1.854   3.792   9.646  0.8389  0.6275 -0.2324
 1841SOL    HW216986   1.714   3.863   9.665  0.4413  1.9634 -2.2227
 1842SOL     OW16987   1.162   1.772   8.232 -0.2196  0.0532 -0.2271
 1842SOL    HW116988   1.095   1.825   8.190 -0.1609  2.0723  2.1788
 1842SOL    HW216989   1.243   1.778   8.182 -1.3567 -0.1233 -2.0935
 1843SOL     OW16990   4.154   1.919   4.299 -0.0188 -0.3656 -0.6809
 1843SOL    HW116991   4.191   1.975   4.231 -0.1661 -0.1891 -0.6168
 1843SOL    HW216992   4.083   1.981   4.317  0.3202  0.8437 -3.5767
 1844SOL     OW16993   0.583   0.767   6.473  0.3797  0.2084  0.1321
 1844SOL    HW116994   0.566   0.681   6.513 -2.6282 -0.1977 -2.0098
 1844SOL    HW216995   0.519   0.824   6.515 -0.1634  0.0492 -0.4711
 1845SOL     OW16996   2.397   0.706   6.746 -0.9619 -0.7513  0.2395
 1845SOL    HW116997   2.451   0.709   6.824 -0.5815 -1.8402  0.0261
 1845SOL    HW216998   2.459   0.679   6.678  0.4456  0.0977  1.1963
 1846SOL     OW16999   3.931   3.574   3.670  0.3399 -0.3405  0.5203
 1846SOL    HW117000   3.916   3.568   3.576 -1.4479 -2.5520  0.9394
 1846SOL    HW217001   4.027   3.582   3.671  0.3510 -0.4507  0.3392
 1847SOL     OW17002   4.510   2.725   5.652  0.3385 -0.3802 -0.1853
 1847SOL    HW117003   4.574   2.762   5.714  0.4444 -0.0173 -0.5062
 1847SOL    HW217004   4.496   2.803   5.597  1.2187  0.9605  1.4689
 1848SOL     OW17005   3.798   1.415   2.969 -0.1145 -0.2018  0.2820
 1848SOL    HW117006   3.815   1.411   2.875  1.0225  0.7852  0.4538
 1848SOL    HW217007   3.705   1.392   2.963 -0.0498 -0.0888 -1.1376
 1849SOL     OW17008   4.473   0.573  14.082  0.1853  0.2406 -0.3562
 1849SOL    HW117009   4.414   0.648  14.089  1.3460  0.9904  1.3576
 1849SOL    HW217010   4.523   0.580  14.163 -0.3142 -1.0271  0.0590
 1850SOL     OW17011   0.522   2.189   0.353  0.7051 -0.3343  0.1966
 1850SOL    HW117012   0.501   2.281   0.336  0.2581 -0.1206  1.8925
 1850SOL    HW217013   0.514   2.144   0.269  0.3108 -0.6915  0.4289
 1851SOL     OW17014   4.603   0.550   4.039  0.0037 -0.2656 -0.2706
 1851SOL    HW117015   4.613   0.494   3.962 -0.6808 -0.4710 -0.2098
 1851SOL    HW217016   4.519   0.528   4.080  0.8118  1.1678  2.1636
 1852SOL     OW17017   3.993   1.718   7.034 -0.4725 -0.4420  0.4466
 1852SOL    HW117018   4.037   1.782   7.091  0.7436 -2.3564  1.6285
 1852SOL    HW217019   4.012   1.757   6.948 -1.8254 -0.6066  0.0712
 1853SOL     OW17020   3.984   1.691  16.683  0.4575 -0.7359 -0.4051
 1853SOL    HW117021   3.997   1.768  16.627  0.1677 -0.4432 -0.0662
 1853SOL    HW217022   4.073   1.678  16.718  0.4314 -1.1753 -0.4985
 1854SOL     OW17023   3.664   0.751   6.295 -0.4420  0.0446  0.6197
 1854SOL    HW117024   3.573   0.739   6.319 -0.4105 -0.1725  0.6299
 1854SOL    HW217025   3.660   0.808   6.218 -0.0301 -0.2148  0.4092
 1855SOL     OW17026   2.610   4.521   2.269 -0.0923 -0.2794 -0.2547
 1855SOL    HW117027   2.520   4.489   2.277  0.0273 -0.4541  0.3756
 1855SOL    HW217028   2.605   4.611   2.299  0.0820 -0.2709 -0.2479
 1856SOL     OW17029   3.327   0.491  15.297 -0.1733 -0.2136  0.1774
 1856SOL    HW117030   3.366   0.510  15.382 -0.3818 -0.8048  0.4080
 1856SOL    HW217031   3.266   0.418  15.309 -1.0564  0.8711  2.3408
 1857SOL     OW17032   4.083   1.272  11.407  0.1512 -0.3454  0.5128
 1857SOL    HW117033   4.051   1.357  11.377  2.4533  1.0712  2.1255
 1857SOL    HW217034   4.098   1.280  11.502 -0.4146  1.1415  0.4641
 1858SOL     OW17035   2.872   4.692   3.576  0.0219 -0.2309 -0.0761
 1858SOL    HW117036   2.909   4.693   3.488  0.9937 -1.1102  0.3199
 1858SOL    HW217037   2.957   4.692   3.621 -1.2421 -1.4857  2.2790
 1859SOL     OW17038   1.424   4.346   0.449 -0.0883 -0.0056 -0.0672
 1859SOL    HW117039   1.362   4.276   0.430  1.0341 -0.6045 -1.5528
 1859SOL    HW217040   1.419   4.362   0.543  0.6686 -1.4108  0.2255
 1860SOL     OW17041   3.819   1.673  17.446  0.3233  0.2836 -0.1282
 1860SOL    HW117042   3.730   1.651  17.419 -0.1856 -0.8677  2.4491
 1860SOL    HW217043   3.846   1.585  17.473 -1.7772  0.1563  1.6499
 1861SOL     OW17044   1.419   3.198   7.548 -0.0089  0.1649 -0.3718
 1861SOL    HW117045   1.359   3.270   7.528 -0.3362  0.7382  2.6571
 1861SOL    HW217046   1.501   3.240   7.522 -0.1724  0.1414 -0.9212
 1862SOL     OW17047   0.242   4.100   3.967  0.2308  0.0265  0.2043
 1862SOL    HW117048   0.267   4.053   3.887 -3.1036 -0.1032 -0.7462
 1862SOL    HW217049   0.276   4.187   3.945  1.1627  0.1301  2.0248
 1863SOL     OW17050   4.298   3.891   7.166  0.9775 -0.3887  0.1500
 1863SOL    HW117051   4.369   3.838   7.129  1.7852 -0.6203  2.0070
 1863SOL    HW217052   4.338   3.978   7.179  2.4377 -0.5010 -3.6127
 1864SOL     OW17053   3.010   3.191   5.778  0.4264  0.1904  0.3891
 1864SOL    HW117054   3.061   3.123   5.733  0.5270 -0.6442  1.7550
 1864SOL    HW217055   3.031   3.168   5.869 -1.8414  1.0141  1.1195
 1865SOL     OW17056   2.233   1.839   4.060  0.0938  0.4735  0.1152
 1865SOL    HW117057   2.196   1.783   4.128 -0.9536 -0.7844 -1.4854
 1865SOL    HW217058   2.220   1.926   4.098  0.6319  0.3961  0.4603
 1866SOL     OW17059   0.628   0.378   3.910  0.3017 -0.0872 -0.9886
 1866SOL    HW117060   0.542   0.419   3.909 -0.5386 -1.8484 -0.4555
 1866SOL    HW217061   0.609   0.284   3.918  0.4104 -0.1447 -1.3932
 1867SOL     OW17062   3.645   4.094  11.976 -1.0763  0.2609 -0.1839
 1867SOL    HW117063   3.655   4.012  12.024 -1.0745 -0.4063 -1.3229
 1867SOL    HW217064   3.588   4.143  12.035  0.8096  1.2133  0.8425
 1868SOL     OW17065   4.586   0.637  10.733  0.8422 -0.0847  0.1421
 1868SOL    HW117066   4.640   0.560  10.750 -1.0040 -1.7061 -1.3987
 1868SOL    HW217067   4.604   0.657  10.641 -1.2124  3.4112  0.4703
 1869SOL     OW17068   1.550   1.375   4.684  0.2606  0.0823  0.4091
 1869SOL    HW117069   1.525   1.442   4.748 -1.4797 -1.5851  1.4431
 1869SOL    HW217070   1.464   1.334   4.678  0.6649 -0.6064 -0.7613
 1870SOL     OW17071   3.089   0.035   2.715  0.2311  0.1176  0.2010
 1870SOL    HW117072   3.083   0.048   2.810 -1.6748  1.5931 -0.1202
 1870SOL    HW217073   3.081   0.124   2.682  1.4474 -0.3855 -1.4379
 1871SOL     OW17074   1.569   0.497   2.140 -0.0115  0.1073  0.0557
 1871SOL    HW117075   1.563   0.473   2.232  0.3221 -2.7254 -0.6548
 1871SOL    HW217076   1.493   0.445   2.113 -0.6403  1.5951 -1.0939
 1872SOL     OW17077   2.715   3.256   5.849  0.7455 -0.2371  0.4945
 1872SOL    HW117078   2.727   3.175   5.899 -2.0021 -0.0062  1.5309
 1872SOL    HW217079   2.627   3.278   5.879  0.6830 -1.3200  1.1373
 1873SOL     OW17080   0.290   2.680   3.258 -0.1890 -0.0806 -0.2917
 1873SOL    HW117081   0.241   2.603   3.229  0.4219 -1.2456  1.6992
 1873SOL    HW217082   0.275   2.755   3.201  0.4219  1.6013  1.7804
 1874SOL     OW17083   1.707   0.488   3.811 -0.2373  0.0230 -0.0273
 1874SOL    HW117084   1.745   0.401   3.804  3.1325  1.4198  0.7605
 1874SOL    HW217085   1.735   0.523   3.726 -0.1773 -1.2346 -0.5182
 1875SOL     OW17086   4.216   4.623   0.643  0.1590  0.0397 -0.1254
 1875SOL    HW117087   4.140   4.576   0.679  0.6566 -0.8504 -0.2401
 1875SOL    HW217088   4.284   4.592   0.703 -1.0923  0.2654  1.4319
 1876SOL     OW17089   3.435   0.307  11.897  0.3560  0.3160  0.5740
 1876SOL    HW117090   3.485   0.380  11.934 -1.1564  1.1860  0.8902
 1876SOL    HW217091   3.372   0.357  11.844  0.4555 -0.9206 -0.7098
 1877SOL     OW17092   4.383   0.607   8.695  0.3220  0.2888  0.1678
 1877SOL    HW117093   4.444   0.549   8.741 -0.1581 -0.6439 -0.3685
 1877SOL    HW217094   4.304   0.595   8.747 -1.0165 -0.1529 -1.9578
 1878SOL     OW17095   3.331   4.265   8.805  0.4248  0.3883 -0.2893
 1878SOL    HW117096   3.310   4.279   8.712 -1.2669  0.6057  0.1279
 1878SOL    HW217097   3.314   4.171   8.811 -0.4721  0.4076 -2.4170
 1879SOL     OW17098   1.682   3.423  13.279 -0.1506  0.4643  0.0147
 1879SOL    HW117099   1.658   3.512  13.253 -2.4727 -0.1919 -0.0531
 1879SOL    HW217100   1.714   3.386  13.197  0.4253 -1.2772  1.0443
 1880SOL     OW17101   4.035   1.770   1.480  0.3073 -0.7362 -0.4518
 1880SOL    HW117102   4.017   1.676   1.479 -1.3001 -0.4284 -0.6847
 1880SOL    HW217103   3.953   1.794   1.524 -0.8129  2.6918 -4.4121
 1881SOL     OW17104   0.024   0.488   8.831 -0.4655  0.4357 -0.2088
 1881SOL    HW117105   0.044   0.561   8.773 -0.3606  0.4576 -0.1462
 1881SOL    HW217106   0.064   0.521   8.912  1.2865 -0.0727 -0.8565
 1882SOL     OW17107   1.681   1.526   2.917  0.7285 -0.4998  0.4925
 1882SOL    HW117108   1.715   1.614   2.934 -1.9651  0.5409  0.3861
 1882SOL    HW217109   1.596   1.539   2.959  0.7342  4.2286 -0.9226
 1883SOL     OW17110   0.705   1.342   6.603 -0.0477 -0.0703 -0.2766
 1883SOL    HW117111   0.730   1.380   6.688  1.3099  0.6092 -0.9741
 1883SOL    HW217112   0.655   1.264   6.629  1.1995 -0.9107 -0.3955
 1884SOL     OW17113   0.956   4.274  15.988  0.6306 -0.3438 -0.1963
 1884SOL    HW117114   0.873   4.227  15.996  0.4499  0.1098  0.6261
 1884SOL    HW217115   1.029   4.227  16.027 -0.6669  0.5443  3.2823
 1885SOL     OW17116   4.612   0.404   7.988  0.1771 -0.0014  0.2027
 1885SOL    HW117117   4.518   0.389   7.993  0.2427 -1.0762 -1.4504
 1885SOL    HW217118   4.620   0.481   8.043  0.2330 -0.6766  1.1409
 1886SOL     OW17119   2.579   0.147   2.732 -0.0568  0.7506  0.1406
 1886SOL    HW117120   2.577   0.142   2.637 -0.4961 -1.4665  0.2684
 1886SOL    HW217121   2.504   0.204   2.751  1.0786  2.2554  0.1149
 1887SOL     OW17122   0.023   3.148   5.629  0.1640 -0.4015  0.2811
 1887SOL    HW117123   0.117   3.158   5.616 -0.3378  0.0535 -2.9087
 1887SOL    HW217124   0.008   3.054   5.644 -0.6385 -0.6613 -2.0687
 1888SOL     OW17125   2.613   0.214  13.152 -0.0472  0.1474 -0.0773
 1888SOL    HW117126   2.532   0.265  13.154 -0.5138 -0.4250 -3.5252
 1888SOL    HW217127   2.643   0.218  13.243 -2.0056  1.1945  0.5178
 1889SOL     OW17128   4.538   4.680   3.644 -0.2206 -0.6497  0.2340
 1889SOL    HW117129   4.625   4.715   3.624 -0.4605 -1.0271 -1.4433
 1889SOL    HW217130   4.550   4.589   3.618 -0.8910 -0.7555  0.2851
 1890SOL     OW17131   1.377   0.805   3.462 -0.5198  0.4653 -0.1000
 1890SOL    HW117132   1.329   0.873   3.510 -2.1427 -0.5766 -0.2389
 1890SOL    HW217133   1.444   0.850   3.412 -1.1148  2.5186  0.9690
 1891SOL     OW17134   2.706   2.017  17.495 -0.1264  0.5381  0.4198
 1891SOL    HW117135   2.678   1.994  17.406  0.6965 -0.7371  0.4919
 1891SOL    HW217136   2.689   2.111  17.491  0.2586  0.5541 -0.8043
 1892SOL     OW17137   2.926   3.732   4.891  0.1474 -0.2644  0.0505
 1892SOL    HW117138   2.911   3.826   4.887  0.8833 -0.0610  2.1200
 1892SOL    HW217139   2.833   3.714   4.905  0.4649 -1.0326  1.1415
 1893SOL     OW17140   4.411   4.490  11.531  0.4499  0.0701  0.0059
 1893SOL    HW117141   4.321   4.513  11.554  1.1910  4.4718 -1.3919
 1893SOL    HW217142   4.423   4.552  11.458  0.0244 -0.2112 -0.3036
 1894SOL     OW17143   1.660   1.256   1.321 -0.3854  0.4876  0.2230
 1894SOL    HW117144   1.744   1.212   1.331 -0.3242  0.2455 -1.4726
 1894SOL    HW217145   1.610   1.224   1.397  0.4215  1.7598  1.2897
 1895SOL     OW17146   0.927   2.530   8.540  0.6172  0.1856 -0.1990
 1895SOL    HW117147   0.891   2.614   8.570  1.8529  0.9100 -0.7455
 1895SOL    HW217148   1.014   2.522   8.579  1.1448 -1.6182 -1.7663
 1896SOL     OW17149   1.167   2.483   2.408  0.4071  0.1385 -0.2769
 1896SOL    HW117150   1.229   2.442   2.347  0.4738  0.8873 -0.7158
 1896SOL    HW217151   1.081   2.454   2.377  1.1773 -0.2018 -2.1045
 1897SOL     OW17152   0.188   1.948   1.348  0.0726  0.6294 -0.6224
 1897SOL    HW117153   0.098   1.937   1.318 -0.5452  2.2705  0.6582
 1897SOL    HW217154   0.206   1.855   1.364 -1.4912  0.0629 -2.3072
 1898SOL     OW17155   2.848   4.165   3.236 -0.5683  0.2102  0.4435
 1898SOL    HW117156   2.929   4.145   3.188  0.5380  0.4494  2.2310
 1898SOL    HW217157   2.784   4.142   3.168 -1.3704  1.4101  0.7816
 1899SOL     OW17158   2.561   1.889   6.349 -0.0245 -0.5147 -0.1147
 1899SOL    HW117159   2.609   1.839   6.415  0.5568 -1.5517 -1.3121
 1899SOL    HW217160   2.471   1.891   6.383 -1.6236 -3.4301 -4.1401
 1900SOL     OW17161   0.237   4.011   0.034  0.4429 -0.6275  0.2331
 1900SOL    HW117162   0.217   4.094  17.687 -0.3260 -1.2547 -0.6369
 1900SOL    HW217163   0.148   3.977   0.027  0.5813 -0.6461 -1.3859
 1901SOL     OW17164   4.038   0.124   8.659 -0.5517  0.4139 -0.3447
 1901SOL    HW117165   4.108   0.182   8.629  0.0552 -0.4304 -0.5592
 1901SOL    HW217166   4.077   0.081   8.735 -1.8128 -1.6921 -0.8856
 1902SOL     OW17167   1.726   2.714  15.350 -0.2444 -0.3175 -0.1391
 1902SOL    HW117168   1.646   2.670  15.323 -0.9085  1.1144 -0.5156
 1902SOL    HW217169   1.696   2.783  15.409 -0.9952 -1.6929  1.1018
 1903SOL     OW17170   0.310   2.506  13.456 -0.1494  0.6877 -0.9382
 1903SOL    HW117171   0.302   2.486  13.363 -1.5708 -0.7991 -0.4842
 1903SOL    HW217172   0.224   2.484  13.490  0.6808 -0.8639  0.1678
 1904SOL     OW17173   4.019   2.971   7.480  0.0824  0.2607 -0.5802
 1904SOL    HW117174   4.004   2.880   7.506 -0.1751 -0.1635 -2.2278
 1904SOL    HW217175   4.013   2.973   7.384 -1.6382  2.2687 -0.4316
 1905SOL     OW17176   1.695   3.538  10.862  0.4115 -0.0501  0.1236
 1905SOL    HW117177   1.690   3.470  10.929 -0.0317 -1.1227 -1.0009
 1905SOL    HW217178   1.675   3.481  10.788  1.4048  0.2734 -0.3969
 1906SOL     OW17179   3.373   3.998   1.348 -0.3047  0.4328  0.4306
 1906SOL    HW117180   3.372   4.079   1.296 -2.1735 -0.1589 -0.4511
 1906SOL    HW217181   3.464   3.984   1.375  0.5074 -0.0681 -2.5450
 1907SOL     OW17182   1.438   1.435  17.053  0.0026  0.6222 -0.5354
 1907SOL    HW117183   1.366   1.403  17.108 -0.0253 -0.1726 -1.0279
 1907SOL    HW217184   1.399   1.510  17.009  2.0636  1.2065 -1.3546
 1908SOL     OW17185   0.518   3.669   2.405  0.0279 -0.2834 -0.6375
 1908SOL    HW117186   0.482   3.629   2.484 -1.6808  1.3328 -0.5705
 1908SOL    HW217187   0.576   3.601   2.372  0.6787  0.9620 -2.1001
 1909SOL     OW17188   4.544   1.987   2.993 -0.0317 -0.6650  0.0074
 1909SOL    HW117189   4.566   2.060   3.051  1.6229  2.0490 -3.9985
 1909SOL    HW217190   4.578   2.027   2.913  0.4489 -0.0102  0.5360
 1910SOL     OW17191   3.403   2.109   4.908  0.2003  0.0862  0.0703
 1910SOL    HW117192   3.320   2.149   4.883  1.0897  0.2431 -2.6075
 1910SOL    HW217193   3.446   2.104   4.823 -1.5133 -0.4729 -0.7688
 1911SOL     OW17194   0.252   0.075   7.573 -0.1133 -0.0943 -0.0051
 1911SOL    HW117195   0.184   0.083   7.639 -0.1126 -0.6770  0.0672
 1911SOL    HW217196   0.253   0.161   7.530 -0.0215  1.2529  2.7229
 1912SOL     OW17197   0.193   0.213   7.101  0.2667  0.0071 -0.2974
 1912SOL    HW117198   0.274   0.212   7.152  0.3796  0.1703 -0.4750
 1912SOL    HW217199   0.118   0.228   7.160 -0.4830  1.0979 -1.5250
 1913SOL     OW17200   3.874   4.388   1.970 -0.1668  0.2402  0.4369
 1913SOL    HW117201   3.787   4.406   2.007  0.0714  1.2898  0.5013
 1913SOL    HW217202   3.898   4.302   2.003  1.1340 -0.0338 -1.2447
 1914SOL     OW17203   1.194   4.150  16.104 -0.1117 -0.3130 -0.2251
 1914SOL    HW117204   1.169   4.150  16.196 -1.0126 -1.1875 -0.4622
 1914SOL    HW217205   1.237   4.065  16.088  0.3350 -0.0739 -0.2951
 1915SOL     OW17206   1.172   3.324   4.865  0.4883 -0.2745 -0.3358
 1915SOL    HW117207   1.234   3.301   4.935 -1.3280  0.1339  1.4036
 1915SOL    HW217208   1.191   3.413   4.836  0.1382 -0.0381  0.1670
 1916SOL     OW17209   0.370   1.173  14.520 -0.0105  0.7198 -0.1117
 1916SOL    HW117210   0.438   1.105  14.527  0.3595  0.8597 -2.4167
 1916SOL    HW217211   0.381   1.204  14.430  0.0309 -0.4815 -0.5325
 1917SOL     OW17212   0.033   4.580  12.421 -0.3873  1.1656  0.5151
 1917SOL    HW117213   0.061   4.667  12.447  2.9024  0.4489 -0.6386
 1917SOL    HW217214   0.119   4.548  12.394 -0.9902 -0.8547  0.9434
 1918SOL     OW17215   2.310   1.680  13.211  0.2391 -0.3223  0.0794
 1918SOL    HW117216   2.257   1.757  13.232 -1.1737 -1.6807  1.4554
 1918SOL    HW217217   2.387   1.722  13.172 -0.5060  0.7972 -0.1781
 1919SOL     OW17218   0.201   3.114   6.744 -0.9015 -0.0593  0.6155
 1919SOL    HW117219   0.114   3.130   6.781 -1.4586  0.9995 -1.1387
 1919SOL    HW217220   0.254   3.090   6.820  0.9956 -1.0676 -1.0054
 1920SOL     OW17221   0.098   4.552  10.751  0.1549  0.0865  0.6371
 1920SOL    HW117222   0.049   4.501  10.815  0.5722 -2.5909 -1.2044
 1920SOL    HW217223   0.183   4.535  10.791  0.1163 -0.6795  0.3919
 1921SOL     OW17224   2.387   0.216   3.112 -0.6104  0.2419 -0.1129
 1921SOL    HW117225   2.403   0.310   3.113 -0.6365  0.2591 -1.1041
 1921SOL    HW217226   2.339   0.225   3.030 -0.9750 -0.6351 -0.0003
 1922SOL     OW17227   0.585   4.254   1.952  0.1541 -0.3286  0.1925
 1922SOL    HW117228   0.564   4.220   2.039  0.6074  3.6738  1.8676
 1922SOL    HW217229   0.578   4.172   1.902 -0.1644  0.0703 -0.4087
 1923SOL     OW17230   3.715   2.125   7.745  0.3592 -0.2774  0.1545
 1923SOL    HW117231   3.632   2.106   7.789  1.2267 -0.8818  1.5517
 1923SOL    HW217232   3.761   2.186   7.803  0.4356  1.2922 -1.5629
 1924SOL     OW17233   3.052   1.849   9.336 -0.2975 -0.0480  0.7265
 1924SOL    HW117234   3.017   1.841   9.247  0.4614  0.5113  0.3719
 1924SOL    HW217235   3.050   1.757   9.362  3.2827 -0.2310  0.4653
 1925SOL     OW17236   4.311   1.701   1.121  0.1610  0.4936 -0.6608
 1925SOL    HW117237   4.241   1.758   1.091 -0.4245  1.3641  2.2885
 1925SOL    HW217238   4.360   1.690   1.040  2.1431  1.4689  0.3795
 1926SOL     OW17239   0.049   0.756  10.922  0.2503 -0.7549  0.2460
 1926SOL    HW117240   0.083   0.678  10.966 -1.1840 -0.6541  1.5538
 1926SOL    HW217241   4.689   0.729  10.883  0.3500 -0.4144 -0.2017
 1927SOL     OW17242   1.111   3.787   3.527 -0.1584  0.5746 -0.1832
 1927SOL    HW117243   1.179   3.803   3.592  0.8024 -1.3524 -0.7023
 1927SOL    HW217244   1.104   3.692   3.534  2.8865  0.2916 -1.1908
 1928SOL     OW17245   1.689   0.436   3.514  0.0474 -0.4736  0.6475
 1928SOL    HW117246   1.625   0.487   3.464 -0.9519 -0.1156  2.2933
 1928SOL    HW217247   1.641   0.353   3.511 -1.7819  0.6405 -0.6055
 1929SOL     OW17248   4.544   2.876   8.460  0.3997 -0.3553  0.1528
 1929SOL    HW117249   4.517   2.804   8.517  2.0505 -1.1563 -0.0939
 1929SOL    HW217250   4.639   2.873   8.469  0.4986  0.0998 -0.7419
 1930SOL     OW17251   0.886   0.671   7.913  0.7550  0.0889 -0.4805
 1930SOL    HW117252   0.816   0.612   7.941  1.3099  0.2168  1.1736
 1930SOL    HW217253   0.911   0.718   7.993 -1.7930 -0.2816  0.5551
 1931SOL     OW17254   3.431   3.757   8.660 -0.3284  0.4292 -0.2258
 1931SOL    HW117255   3.366   3.687   8.653  3.1065 -2.7106 -0.2250
 1931SOL    HW217256   3.508   3.709   8.630  0.2573  1.8325 -0.9352
 1932SOL     OW17257   1.598   1.672   5.303 -0.5383 -0.3904 -0.3767
 1932SOL    HW117258   1.596   1.580   5.274  2.9397 -0.3801 -0.6135
 1932SOL    HW217259   1.664   1.702   5.240  0.3545  1.9417  1.6730
 1933SOL     OW17260   2.149   0.995   1.739  0.1591 -0.4410  0.3405
 1933SOL    HW117261   2.232   1.040   1.723 -0.1832  0.1519  0.2448
 1933SOL    HW217262   2.184   0.919   1.785  0.3400 -0.0020  0.9237
 1934SOL     OW17263   3.264   0.033   5.703 -0.5178 -0.9186 -0.7145
 1934SOL    HW117264   3.338   0.093   5.704  1.1933 -3.0701  0.4259
 1934SOL    HW217265   3.313   4.678   5.676  1.5722  0.3486 -0.5412
 1935SOL     OW17266   0.709   3.887   8.641  0.1084  0.0645 -0.4948
 1935SOL    HW117267   0.618   3.911   8.659 -0.1697 -0.4854 -1.2026
 1935SOL    HW217268   0.752   3.969   8.667  2.2199 -1.0117 -0.6025
 1936SOL     OW17269   2.800   1.528   0.831  0.3484 -0.1982 -0.3054
 1936SOL    HW117270   2.752   1.536   0.749 -1.0552 -1.5389  0.3865
 1936SOL    HW217271   2.866   1.460   0.814 -0.6836 -0.9692 -1.1579
 1937SOL     OW17272   3.124   3.437   9.436 -0.5284 -0.7760 -0.1647
 1937SOL    HW117273   3.180   3.443   9.359 -0.0927 -0.1016  0.2140
 1937SOL    HW217274   3.070   3.510   9.408 -1.0260 -0.7497  0.8664
 1938SOL     OW17275   3.107   1.515   2.898 -0.2629 -0.6261 -0.5234
 1938SOL    HW117276   3.198   1.545   2.898 -0.8615  1.2197 -0.1967
 1938SOL    HW217277   3.068   1.601   2.881  0.8204 -0.3737 -1.7526
 1939SOL     OW17278   2.562   2.055   8.432 -0.4272  0.4556 -0.0574
 1939SOL    HW117279   2.614   1.984   8.469  1.6579  2.0079  0.0179
 1939SOL    HW217280   2.560   2.028   8.340 -1.2082  1.1300 -0.2323
 1940SOL     OW17281   0.441   2.667  12.181 -0.0230  0.0768  0.1893
 1940SOL    HW117282   0.372   2.679  12.115  0.0147 -1.2419 -0.0906
 1940SOL    HW217283   0.425   2.752  12.222  0.7314  1.3713 -2.1974
 1941SOL     OW17284   0.254   4.141   4.380  0.0539  0.4549  0.4551
 1941SOL    HW117285   0.181   4.079   4.381 -1.2445  1.9473 -1.5601
 1941SOL    HW217286   0.308   4.079   4.330 -2.0879 -1.7345  0.8699
 1942SOL     OW17287   1.128   3.234   4.600 -0.0554  0.1172  0.4115
 1942SOL    HW117288   1.125   3.267   4.690 -0.8277 -0.2056  0.5057
 1942SOL    HW217289   1.122   3.139   4.614 -1.3739  0.3132  1.2336
 1943SOL     OW17290   2.382   2.124   3.696  0.0231  0.2390 -0.2862
 1943SOL    HW117291   2.398   2.061   3.626  0.1380  1.4442 -1.3461
 1943SOL    HW217292   2.300   2.093   3.735  0.1983  0.1603  0.0224
 1944SOL     OW17293   3.648   0.349   8.581  0.1536 -0.1027  0.0657
 1944SOL    HW117294   3.725   0.406   8.581 -0.0785  0.2354 -3.4366
 1944SOL    HW217295   3.668   0.268   8.535 -0.0050  0.7492 -1.5023
 1945SOL     OW17296   2.717   4.485   5.495 -0.1710 -0.3625  0.8958
 1945SOL    HW117297   2.719   4.393   5.469  3.0488  0.1801 -0.6943
 1945SOL    HW217298   2.755   4.483   5.583  0.1994  0.5628  0.7586
 1946SOL     OW17299   0.562   1.190  14.906 -0.1029  0.4127  0.1944
 1946SOL    HW117300   0.589   1.257  14.968  0.2411  0.1789  0.2966
 1946SOL    HW217301   0.518   1.247  14.844  1.5925 -0.4286 -1.7697
 1947SOL     OW17302   4.231   1.623   6.021 -0.0786  0.4687 -0.2017
 1947SOL    HW117303   4.231   1.533   6.055 -1.2810  0.0708 -1.2403
 1947SOL    HW217304   4.325   1.640   6.019 -0.1129  0.7406  1.1744
 1948SOL     OW17305   2.027   4.089   8.957  0.0876  0.2997 -0.4777
 1948SOL    HW117306   1.934   4.070   8.966  0.2595  0.8127  2.4514
 1948SOL    HW217307   2.069   4.016   9.003 -1.5569  0.1836  0.8529
 1949SOL     OW17308   3.667   1.541  10.923  0.4690 -0.1357  0.3266
 1949SOL    HW117309   3.759   1.560  10.907 -0.0078 -0.0578 -2.3585
 1949SOL    HW217310   3.648   1.621  10.972  0.5300 -0.5061  0.9529
 1950SOL     OW17311   3.921   0.993  10.065 -0.4783 -0.6763  0.1560
 1950SOL    HW117312   3.918   1.081  10.103  0.1394 -0.4413 -0.3382
 1950SOL    HW217313   3.834   0.972  10.032 -0.5129 -0.1002 -0.1121
 1951SOL     OW17314   2.949   0.461  15.265 -0.3256  0.4062 -0.2791
 1951SOL    HW117315   3.029   0.455  15.317  0.0069  0.7564 -0.7399
 1951SOL    HW217316   2.891   0.515  15.319 -0.8546  0.1531 -0.6010
 1952SOL     OW17317   3.638   2.683   7.044  0.0223 -0.3945 -0.2694
 1952SOL    HW117318   3.692   2.626   6.988 -0.6970  0.5552 -1.9378
 1952SOL    HW217319   3.567   2.707   6.985  1.7341 -1.1125 -2.6442
 1953SOL     OW17320   0.706   0.843   6.228 -0.2019  0.1882  0.8895
 1953SOL    HW117321   0.655   0.799   6.294 -1.7260 -1.0260 -1.1014
 1953SOL    HW217322   0.773   0.884   6.283  0.1690 -0.5601  0.9974
 1954SOL     OW17323   0.835   0.798   2.123 -0.1156  1.1700  0.5116
 1954SOL    HW117324   0.754   0.776   2.169  0.9778 -1.2656  1.3037
 1954SOL    HW217325   0.894   0.815   2.197 -0.2205 -0.2064  0.9258
 1955SOL     OW17326   1.548   0.120   5.373 -0.4907  0.1932 -0.3620
 1955SOL    HW117327   1.570   0.028   5.357 -1.7225 -0.3509  1.0646
 1955SOL    HW217328   1.463   0.120   5.416 -0.2002 -2.4276  0.2435
 1956SOL     OW17329   0.807   0.690   8.649  0.5720  0.3100  0.3843
 1956SOL    HW117330   0.891   0.726   8.676  1.0762  0.1319 -0.9213
 1956SOL    HW217331   0.809   0.596   8.666  0.3252  0.7556  2.8542
 1957SOL     OW17332   2.800   2.418   8.972  0.5146  0.1547 -0.1490
 1957SOL    HW117333   2.760   2.398   8.888  0.6046 -0.9319  0.0759
 1957SOL    HW217334   2.859   2.348   9.000  2.2039  0.9667 -1.6626
 1958SOL     OW17335   0.787   3.770   5.006  0.1867  0.1203 -0.3052
 1958SOL    HW117336   0.808   3.761   5.099  1.2199  2.0720 -0.3382
 1958SOL    HW217337   0.743   3.855   5.009 -1.4374 -0.6581 -2.4935
 1959SOL     OW17338   2.405   1.497  13.403  0.2382 -0.3132 -0.0906
 1959SOL    HW117339   2.393   1.538  13.318 -0.2364 -0.0449  0.1057
 1959SOL    HW217340   2.489   1.452  13.398  0.7166  0.6193 -0.4603
 1960SOL     OW17341   3.345   4.042   7.687  0.1743 -0.7998  0.1106
 1960SOL    HW117342   3.411   4.021   7.621  3.1749 -0.4798  3.0017
 1960SOL    HW217343   3.396   4.073   7.762  1.2637  0.2453 -1.0609
 1961SOL     OW17344   0.797   2.512  16.338  0.5142 -0.0739  0.0510
 1961SOL    HW117345   0.718   2.462  16.317 -0.1002  0.7341  0.4293
 1961SOL    HW217346   0.845   2.520  16.256  0.0885 -0.3015 -0.2232
 1962SOL     OW17347   3.292   4.251   3.463  0.1785  0.0847  0.4327
 1962SOL    HW117348   3.307   4.162   3.496  1.9868  0.1211 -0.3213
 1962SOL    HW217349   3.348   4.246   3.386  0.5002 -2.8416  0.8399
 1963SOL     OW17350   0.818   0.770   2.596  0.0875 -0.0924  0.4558
 1963SOL    HW117351   0.732   0.765   2.554 -0.6269  1.9805  1.6902
 1963SOL    HW217352   0.793   0.783   2.688  1.2930 -0.5898  0.8557
 1964SOL     OW17353   2.524   4.085   4.376  0.3706 -0.4024 -0.7092
 1964SOL    HW117354   2.446   4.120   4.332  0.9029  2.3940  0.5471
 1964SOL    HW217355   2.488   4.006   4.415  0.2307  1.3071  2.6451
 1965SOL     OW17356   3.210   0.952   4.097  0.1292  0.1296  0.0570
 1965SOL    HW117357   3.171   0.999   4.170  0.2993  0.2363  0.0799
 1965SOL    HW217358   3.133   0.941   4.041  0.8297 -2.7292 -0.3479
 1966SOL     OW17359   0.084   0.254   6.090 -0.3054 -0.1327  0.2519
 1966SOL    HW117360   0.156   0.201   6.054 -1.4631 -0.9467 -0.8599
 1966SOL    HW217361   0.061   0.221   6.177  0.3382 -2.4226 -0.4576
 1967SOL     OW17362   2.272   0.128  14.974  0.6843 -0.0083  0.1297
 1967SOL    HW117363   2.306   0.071  15.042 -0.2832 -1.0964 -0.2971
 1967SOL    HW217364   2.178   0.130  14.995  0.1560 -3.5924 -1.9324
 1968SOL     OW17365   3.142   0.546   4.397  0.6640 -0.5854 -0.6399
 1968SOL    HW117366   3.103   0.540   4.310  0.2213 -1.2147 -0.4006
 1968SOL    HW217367   3.131   0.638   4.421  0.4703 -0.1366 -2.5274
 1969SOL     OW17368   3.740   0.266  13.978  0.6632 -0.0855  0.0151
 1969SOL    HW117369   3.788   0.183  13.986  1.8526  0.5835 -0.2140
 1969SOL    HW217370   3.787   0.313  13.909 -0.5110  0.6667 -0.2644
 1970SOL     OW17371   1.000   3.958   5.101  0.7414  0.4105 -0.4732
 1970SOL    HW117372   0.995   4.054   5.094 -0.8731  0.3283 -0.5583
 1970SOL    HW217373   0.947   3.932   5.026 -0.4903  0.3771  0.3940
 1971SOL     OW17374   1.645   4.704   1.054 -0.3913  0.1324 -0.6600
 1971SOL    HW117375   1.634   4.666   1.142  0.1584  0.7746 -0.3145
 1971SOL    HW217376   1.739   4.706   1.040 -0.5297 -0.6930 -1.7144
 1972SOL     OW17377   0.021   4.381   0.867 -0.2563  0.6566  0.5654
 1972SOL    HW117378   4.677   4.433   0.909 -0.0523  0.6137  0.9482
 1972SOL    HW217379   4.707   4.294   0.882 -0.9589  0.8254 -0.2166
 1973SOL     OW17380   1.562   3.462   5.746  0.0819  0.0024 -0.0698
 1973SOL    HW117381   1.563   3.375   5.706  0.0803  0.6339 -1.4370
 1973SOL    HW217382   1.506   3.452   5.823  0.2388 -1.3068 -0.1247
 1974SOL     OW17383   4.501   3.335   9.603 -0.2080  0.4645 -0.7534
 1974SOL    HW117384   4.553   3.406   9.566  1.0452  0.1728  0.4183
 1974SOL    HW217385   4.549   3.332   9.686  0.9515 -0.4726 -1.4606
 1975SOL     OW17386   1.703   3.964   4.997 -0.1902  0.0621 -0.6021
 1975SOL    HW117387   1.645   3.897   5.035 -0.4060 -0.7136 -2.2828
 1975SOL    HW217388   1.768   3.912   4.951  0.1332  0.5955 -0.7439
 1976SOL     OW17389   2.973   2.786   4.183 -0.5112  0.6745 -0.5694
 1976SOL    HW117390   3.042   2.836   4.227  1.1863 -1.8508 -0.4055
 1976SOL    HW217391   3.026   2.722   4.136  0.5566  1.5317 -0.5415
 1977SOL     OW17392   3.229   0.085   9.697  0.0718 -0.6949 -0.2667
 1977SOL    HW117393   3.143   0.054   9.725 -1.0236  1.6977 -0.9540
 1977SOL    HW217394   3.214   0.135   9.617 -0.3900 -0.5587 -0.0983
 1978SOL     OW17395   1.316   1.443   1.222  0.3610  0.3365  0.3613
 1978SOL    HW117396   1.390   1.475   1.273  1.1355 -2.4560  0.9645
 1978SOL    HW217397   1.314   1.349   1.237  0.8578  0.0599 -1.3633
 1979SOL     OW17398   1.733   4.167   7.941 -0.9352  0.3898 -0.1538
 1979SOL    HW117399   1.789   4.092   7.918 -0.7981  0.7441 -0.9490
 1979SOL    HW217400   1.679   4.132   8.013 -1.8021  0.4446 -0.7760
 1980SOL     OW17401   1.088   1.967   6.610 -0.2955 -0.0169 -0.2906
 1980SOL    HW117402   1.047   2.042   6.654  0.1772  0.5776 -0.8652
 1980SOL    HW217403   1.013   1.920   6.574  0.1880 -2.6624  2.1374
 1981SOL     OW17404   1.475   1.416   4.180  0.0426  0.0397 -0.0110
 1981SOL    HW117405   1.450   1.324   4.177 -0.0982  0.1606 -3.0095
 1981SOL    HW217406   1.407   1.473   4.144  0.7453  0.8526 -0.0480
 1982SOL     OW17407   3.247   4.544   5.298  0.1843  0.1357  0.3259
 1982SOL    HW117408   3.324   4.496   5.269  0.1120 -1.1498  2.2764
 1982SOL    HW217409   3.214   4.490   5.369  0.3314 -0.0464  0.2565
 1983SOL     OW17410   1.142   0.067  12.928  0.0476 -0.1116  0.2632
 1983SOL    HW117411   1.169   0.005  12.997 -0.2869  1.8812  2.1970
 1983SOL    HW217412   1.178   0.150  12.962 -0.8971 -0.3745  1.9325
 1984SOL     OW17413   0.387   0.083   6.797  0.0521 -0.0492 -0.2089
 1984SOL    HW117414   0.348   0.026   6.863  1.1496 -1.5296 -0.8483
 1984SOL    HW217415   0.476   0.094   6.832  0.8109 -0.5161 -1.9736
 1985SOL     OW17416   3.151   3.216  12.960 -0.2235  0.0060  0.5667
 1985SOL    HW117417   3.122   3.146  13.018 -2.5240  0.3741 -0.1482
 1985SOL    HW217418   3.074   3.244  12.910 -1.1706  0.4247  2.2739
 1986SOL     OW17419   4.303   0.797   4.825 -0.2417  0.1287 -0.0459
 1986SOL    HW117420   4.356   0.875   4.812 -0.8247  0.4355 -0.5863
 1986SOL    HW217421   4.255   0.803   4.742  1.5116  0.5491 -1.0085
 1987SOL     OW17422   0.841   2.994   5.716 -0.1826 -0.6988  0.0410
 1987SOL    HW117423   0.777   2.922   5.723 -0.2460 -0.7414 -1.0653
 1987SOL    HW217424   0.889   2.968   5.638 -2.4212  0.4702 -1.7345
 1988SOL     OW17425   2.996   2.881  13.905 -0.0413  0.0384 -0.3936
 1988SOL    HW117426   2.992   2.977  13.909  2.6463  0.0653  1.5901
 1988SOL    HW217427   2.992   2.855  13.996 -0.5911 -1.7520 -0.9394
 1989SOL     OW17428   0.555   0.411   1.227  0.3246  0.5073 -0.0258
 1989SOL    HW117429   0.532   0.329   1.271  1.2119 -0.2196 -0.9170
 1989SOL    HW217430   0.603   0.448   1.300  0.1697 -0.4693  0.5666
 1990SOL     OW17431   1.285   0.413  14.263  0.1988  0.1337  0.0221
 1990SOL    HW117432   1.349   0.424  14.333  1.2376  1.4899 -1.1430
 1990SOL    HW217433   1.339   0.376  14.193  0.5008 -0.2039  0.4390
 1991SOL     OW17434   1.751   0.661  13.867 -0.1726  0.4615  0.4283
 1991SOL    HW117435   1.799   0.625  13.942  0.6374 -0.4279 -0.5200
 1991SOL    HW217436   1.787   0.750  13.858  1.0796  0.0726  1.4559
 1992SOL     OW17437   2.117   1.721   4.299 -0.1695  0.2013 -0.0473
 1992SOL    HW117438   2.099   1.644   4.244  1.7861 -1.5386  1.7322
 1992SOL    HW217439   2.178   1.677   4.359 -1.1127  1.5541  1.8873
 1993SOL     OW17440   1.664   0.654   5.683  0.5981 -0.2804 -0.3199
 1993SOL    HW117441   1.668   0.613   5.769  1.3552 -1.0468 -0.7190
 1993SOL    HW217442   1.627   0.582   5.633 -2.9748  1.9750 -0.9324
 1994SOL     OW17443   0.175   0.406   3.045  0.5997 -0.3161  0.0318
 1994SOL    HW117444   0.196   0.316   3.022  1.8359  0.2216 -0.9582
 1994SOL    HW217445   0.173   0.407   3.141  0.6420  0.0457  0.0294
 1995SOL     OW17446   2.658   0.509   2.602 -0.3502 -0.5178 -0.1182
 1995SOL    HW117447   2.705   0.559   2.669 -0.2984 -0.6930 -0.0227
 1995SOL    HW217448   2.726   0.502   2.535  0.3383 -0.9428  0.6299
 1996SOL     OW17449   3.417   4.040   3.791  0.5090 -0.1586 -0.0552
 1996SOL    HW117450   3.426   4.036   3.886 -0.9008 -1.5805  0.0304
 1996SOL    HW217451   3.502   4.068   3.758  0.0353 -1.2429 -2.2172
 1997SOL     OW17452   3.203   4.028   9.365  0.2385  0.1018  0.1226
 1997SOL    HW117453   3.176   4.047   9.275  0.1494 -1.6441 -0.2249
 1997SOL    HW217454   3.234   3.939   9.348  0.4777  0.0880  0.6555
 1998SOL     OW17455   3.222   1.382   2.213  0.4892 -0.7381  0.3404
 1998SOL    HW117456   3.135   1.408   2.242  1.7363  1.5070  2.0673
 1998SOL    HW217457   3.269   1.379   2.296  0.3221 -1.8143  0.3979
 1999SOL     OW17458   1.100   0.295  11.841 -0.3272  0.4238 -0.6903
 1999SOL    HW117459   1.143   0.354  11.780 -0.9831  0.4540 -1.1185
 1999SOL    HW217460   1.121   0.341  11.922  2.7871  1.2009 -1.9662
 2000SOL     OW17461   3.073   2.348   0.330  0.5174  0.6702 -0.0559
 2000SOL    HW117462   3.167   2.350   0.349  0.2301 -0.4146  1.4507
 2000SOL    HW217463   3.029   2.395   0.401  2.0262  2.6224 -0.4246
 2001SOL     OW17464   3.462   3.372   6.906 -0.3242 -0.0194  0.5238
 2001SOL    HW117465   3.370   3.364   6.931 -0.8321  3.9798  0.0081
 2001SOL    HW217466   3.460   3.318   6.827  0.0322 -0.0013  0.5029
 2002SOL     OW17467   4.282   2.312   9.429 -1.0443  0.2019  0.6080
 2002SOL    HW117468   4.297   2.327   9.336  0.2597  1.6614  1.0663
 2002SOL    HW217469   4.245   2.226   9.410  2.0248 -0.7577 -1.0395
 2003SOL     OW17470   1.790   1.052   0.525  0.4182  0.1022  0.0710
 2003SOL    HW117471   1.777   1.075   0.617  0.8159 -1.0030  0.4066
 2003SOL    HW217472   1.703   1.020   0.499 -0.2900  0.6476  1.7704
 2004SOL     OW17473   1.304   4.158   5.341 -0.3256  0.5034 -0.1270
 2004SOL    HW117474   1.269   4.243   5.369  1.6610  1.0179  0.8137
 2004SOL    HW217475   1.292   4.166   5.246 -0.8413  0.5210 -0.0597
 2005SOL     OW17476   4.667   3.997  16.844 -0.1080  0.0774 -0.2309
 2005SOL    HW117477   4.679   4.013  16.937 -0.6118 -1.6098  0.1346
 2005SOL    HW217478   4.575   3.968  16.846 -0.0583 -0.1141 -0.6821
 2006SOL     OW17479   3.056   0.795   1.536 -0.0137 -0.4856  0.0122
 2006SOL    HW117480   3.087   0.850   1.608 -0.8577  0.8122 -0.6045
 2006SOL    HW217481   3.080   0.846   1.458 -1.2051 -3.2534 -2.1276
 2007SOL     OW17482   1.203   1.626  11.403  0.9642 -0.6896 -0.4109
 2007SOL    HW117483   1.112   1.615  11.429  0.6831  3.0598  0.1562
 2007SOL    HW217484   1.236   1.542  11.436  0.4020  0.3798  2.8733
 2008SOL     OW17485   1.572   2.441   8.450  0.3349  0.3703 -0.0696
 2008SOL    HW117486   1.576   2.472   8.540  2.2027  0.5421 -0.2168
 2008SOL    HW217487   1.665   2.420   8.438  0.1820 -1.4172  1.8114
 2009SOL     OW17488   3.144   1.256   2.820 -1.3801  0.5915 -0.1297
 2009SOL    HW117489   3.119   1.346   2.842 -2.7377  0.0893  0.3540
 2009SOL    HW217490   3.111   1.209   2.896  0.2743  0.5648  0.5773
 2010SOL     OW17491   3.629   4.555   5.283 -0.0330  0.5647 -0.0181
 2010SOL    HW117492   3.708   4.523   5.241 -0.7211  0.5900 -1.3415
 2010SOL    HW217493   3.582   4.589   5.206 -0.8939  0.9319  0.6602
 2011SOL     OW17494   1.843   0.376   5.559  0.1643 -0.5625 -0.0487
 2011SOL    HW117495   1.934   0.353   5.578 -0.5294 -0.6776  3.1669
 2011SOL    HW217496   1.862   0.469   5.553 -1.0743 -0.3812 -0.9552
 2012SOL     OW17497   0.407   2.617   1.606 -0.2275 -0.1955  0.7180
 2012SOL    HW117498   0.462   2.548   1.643  0.5158  0.1184  0.1818
 2012SOL    HW217499   0.402   2.589   1.515 -2.2751  0.9543  0.4559
 2013SOL     OW17500   0.394   2.239   6.867 -0.6893  0.6134  0.4469
 2013SOL    HW117501   0.329   2.295   6.909 -0.5975  0.1086  1.2522
 2013SOL    HW217502   0.470   2.271   6.915 -0.8118  1.9271 -0.2159
 2014SOL     OW17503   0.134   0.073   3.522  0.3758  0.1916 -0.4989
 2014SOL    HW117504   0.215   0.030   3.550  1.6633  1.0521 -2.9294
 2014SOL    HW217505   0.135   0.141   3.590 -1.9571  1.2112 -1.4822
 2015SOL     OW17506   1.879   0.622   0.819  0.0523 -0.2663 -0.0041
 2015SOL    HW117507   1.908   0.689   0.880 -0.2967  1.8772 -2.1821
 2015SOL    HW217508   1.868   0.680   0.744 -2.1688  2.7533  2.6510
 2016SOL     OW17509   2.731   4.609   4.927  0.2632 -0.3312  0.0987
 2016SOL    HW117510   2.654   4.590   4.874  1.5484  0.3214 -1.9705
 2016SOL    HW217511   2.723   4.544   4.997 -2.6706  0.0687  0.1542
 2017SOL     OW17512   4.501   3.949   7.660 -0.1276  0.5773  0.2834
 2017SOL    HW117513   4.446   3.876   7.690 -0.8073  0.2440 -1.7851
 2017SOL    HW217514   4.505   3.987   7.748  0.8656 -0.5185  0.7078
 2018SOL     OW17515   0.608   1.444   9.290 -0.2488 -0.1318 -0.9678
 2018SOL    HW117516   0.622   1.385   9.363 -0.3135 -0.4991 -1.2534
 2018SOL    HW217517   0.576   1.523   9.333 -0.5829 -0.7334 -0.1189
 2019SOL     OW17518   0.364   0.145  10.037 -0.5030 -0.3496  0.2990
 2019SOL    HW117519   0.447   0.192  10.045 -1.3042  1.3003 -1.0214
 2019SOL    HW217520   0.354   0.142   9.942  1.3420  0.7186  0.0622
 2020SOL     OW17521   3.000   1.939   3.106  0.4017 -0.3138 -0.4309
 2020SOL    HW117522   2.964   1.987   3.032  2.2843  1.9233  0.0946
 2020SOL    HW217523   2.929   1.877   3.122 -1.6681  1.3449 -3.2621
 2021SOL     OW17524   2.195   0.601   1.122  0.1814 -0.4185  0.0649
 2021SOL    HW117525   2.279   0.641   1.101 -1.0346  2.2172  0.1442
 2021SOL    HW217526   2.129   0.663   1.091  0.4716 -0.4869 -0.6965
 2022SOL     OW17527   3.646   4.312   3.875 -0.1006 -0.0012  0.7335
 2022SOL    HW117528   3.678   4.235   3.828 -2.2997  0.1113 -0.9339
 2022SOL    HW217529   3.607   4.278   3.956 -0.2618 -2.5731 -0.4034
 2023SOL     OW17530   3.964   0.036  15.180 -0.2633  0.5088 -0.4427
 2023SOL    HW117531   3.889   0.094  15.168 -1.1621 -0.7620 -1.0227
 2023SOL    HW217532   3.959   0.018  15.274 -0.6202  1.2703 -0.3218
 2024SOL     OW17533   4.464   0.207  16.189  0.0166  0.1911 -0.2642
 2024SOL    HW117534   4.495   0.289  16.152 -0.8908  1.3696  1.5787
 2024SOL    HW217535   4.437   0.235  16.277  1.6090 -1.5825  0.8056
 2025SOL     OW17536   1.071   2.998   3.075 -0.3326 -0.3075 -0.0573
 2025SOL    HW117537   1.043   3.089   3.084 -0.1275 -0.2602  0.1030
 2025SOL    HW217538   1.162   3.008   3.046 -1.2701  1.8507 -2.2569
 2026SOL     OW17539   3.401   4.245  10.290  0.2867 -0.7263  0.2588
 2026SOL    HW117540   3.472   4.269  10.350  1.7994 -0.1778 -1.7356
 2026SOL    HW217541   3.327   4.219  10.345 -1.9784  1.2905 -1.8536
 2027SOL     OW17542   3.039   3.355   7.491 -0.1004  0.2362 -0.3665
 2027SOL    HW117543   3.091   3.422   7.534 -0.9642  1.0498 -0.6002
 2027SOL    HW217544   3.043   3.302   7.570 -3.7390  0.7009  0.1450
 2028SOL     OW17545   0.506   3.906   2.620 -0.2422  0.6612  0.8950
 2028SOL    HW117546   0.492   3.816   2.591  1.0462  0.3959  1.0780
 2028SOL    HW217547   0.599   3.904   2.641  0.7142  1.0648 -3.3185
 2029SOL     OW17548   1.928   1.336   8.020 -0.1532  0.1334 -0.1707
 2029SOL    HW117549   1.888   1.421   8.003  1.1646  0.7449 -0.2183
 2029SOL    HW217550   1.854   1.303   8.071 -0.7911  0.9689 -0.5625
 2030SOL     OW17551   4.647   2.365   8.991  0.0204  0.1477 -0.2484
 2030SOL    HW117552   4.670   2.368   9.084 -0.1221  0.2972 -0.2171
 2030SOL    HW217553   4.578   2.432   8.992 -0.2119 -0.0481 -2.7476
 2031SOL     OW17554   3.318   3.510   7.520 -0.2878 -0.1638  0.4098
 2031SOL    HW117555   3.379   3.456   7.469 -1.3517 -1.4325  0.4748
 2031SOL    HW217556   3.377   3.585   7.530 -1.8414  1.2203 -0.6942
 2032SOL     OW17557   3.250   3.965   6.533 -0.3010 -0.0481  0.7353
 2032SOL    HW117558   3.277   4.055   6.514  0.5078 -0.7378 -1.4326
 2032SOL    HW217559   3.334   3.934   6.566 -1.2652 -2.0751  1.3246
 2033SOL     OW17560   4.001   4.405   7.345  0.1209 -0.2479  0.3670
 2033SOL    HW117561   4.031   4.381   7.432  0.3108 -0.4659  0.2391
 2033SOL    HW217562   4.042   4.492   7.337  1.2553 -0.8794 -0.7016
 2034SOL     OW17563   1.827   4.328   2.718  0.2886 -0.6417  0.3870
 2034SOL    HW117564   1.853   4.394   2.653  0.7439  0.9245  2.1746
 2034SOL    HW217565   1.856   4.356   2.804  2.0896  1.4796 -0.9044
 2035SOL     OW17566   3.385   3.065  16.801  0.1896  0.4287 -0.0996
 2035SOL    HW117567   3.354   3.101  16.718 -3.3262 -0.5058  0.7989
 2035SOL    HW217568   3.307   3.042  16.853  0.4366  1.3357  0.6727
 2036SOL     OW17569   3.693   2.106  16.774  0.0515 -0.1820 -0.1256
 2036SOL    HW117570   3.753   2.141  16.840  0.8631 -0.5778 -0.6574
 2036SOL    HW217571   3.614   2.089  16.826 -1.1000  1.6037 -1.2514
 2037SOL     OW17572   4.661   1.117   5.975 -0.2190 -0.6157  0.3201
 2037SOL    HW117573   4.570   1.129   5.947 -0.0911  0.8682  0.5338
 2037SOL    HW217574   4.695   1.203   5.951  1.3378 -1.7259 -1.3958
 2038SOL     OW17575   2.509   1.959  15.254  0.3384  0.2605  0.5918
 2038SOL    HW117576   2.443   1.969  15.323 -1.3919 -3.2289 -0.5621
 2038SOL    HW217577   2.444   1.938  15.187 -0.1202 -0.7305  1.3332
 2039SOL     OW17578   4.385   1.845   0.489 -0.8364  0.4460 -0.2407
 2039SOL    HW117579   4.447   1.917   0.504  0.1270  0.2582 -3.1788
 2039SOL    HW217580   4.305   1.872   0.535 -1.0914 -1.0047  0.1668
 2040SOL     OW17581   2.481   0.618   4.809  0.7227  0.3746 -0.0118
 2040SOL    HW117582   2.491   0.710   4.833  0.7190 -0.1046  1.8588
 2040SOL    HW217583   2.385   0.623   4.807  0.6365  0.0293  2.4322
 2041SOL     OW17584   0.379   3.231   3.810  0.0620 -0.0303  0.0889
 2041SOL    HW117585   0.285   3.249   3.814  0.2313  1.2667 -1.7823
 2041SOL    HW217586   0.380   3.136   3.818  2.5094  0.1997  2.5452
 2042SOL     OW17587   3.539   0.794   9.596  0.1119 -0.5460  0.5573
 2042SOL    HW117588   3.526   0.699   9.597  0.7093 -0.6462 -0.7222
 2042SOL    HW217589   3.449   0.825   9.602 -0.2850 -1.5295 -0.3570
 2043SOL     OW17590   2.149   3.949  13.915 -0.1705  0.4429  0.6369
 2043SOL    HW117591   2.142   4.041  13.888  0.4536  0.0281 -0.9588
 2043SOL    HW217592   2.198   3.956  13.996  0.6141  0.9840  0.1214
 2044SOL     OW17593   1.845   3.318  17.297  0.1654  0.2453  0.4250
 2044SOL    HW117594   1.891   3.244  17.338 -0.7202 -0.0625  0.8743
 2044SOL    HW217595   1.916   3.377  17.270  0.4817 -0.1695  0.3461
 2045SOL     OW17596   3.724   0.312   1.006  0.5960 -0.5295  0.3241
 2045SOL    HW117597   3.675   0.354   0.934 -0.0114  0.4775  1.3241
 2045SOL    HW217598   3.661   0.244   1.029 -2.6029  1.2176 -3.1726
 2046SOL     OW17599   0.693   2.939   6.594 -0.3124 -0.1665 -0.0291
 2046SOL    HW117600   0.775   2.965   6.636 -1.7951  0.6316  2.4144
 2046SOL    HW217601   0.674   3.012   6.536 -4.5451 -1.2660 -0.0601
 2047SOL     OW17602   0.500   0.459   4.989 -0.1032 -0.0459  0.7853
 2047SOL    HW117603   0.428   0.467   4.926  0.4022  1.2095  0.3759
 2047SOL    HW217604   0.500   0.553   5.008  0.3468  0.1412 -0.1782
 2048SOL     OW17605   2.341   0.232   1.407  0.1616 -0.5330 -0.1423
 2048SOL    HW117606   2.358   0.326   1.400  2.2801 -1.0033 -1.5663
 2048SOL    HW217607   2.265   0.223   1.350  0.2440  2.0825 -0.6664
 2049SOL     OW17608   3.459   1.249   6.340  0.0658 -0.4051  0.6537
 2049SOL    HW117609   3.425   1.243   6.429  1.6886 -0.5487  1.2591
 2049SOL    HW217610   3.420   1.175   6.292  0.1932 -0.1782  0.1965
 2050SOL     OW17611   0.293   2.772   2.198  0.6457  0.2469  0.4392
 2050SOL    HW117612   0.250   2.772   2.112  0.4773  2.6049  0.5338
 2050SOL    HW217613   0.308   2.866   2.202  1.5753  0.1101  0.0817
 2051SOL     OW17614   0.325   3.219  11.444 -0.1964 -0.1767  0.0782
 2051SOL    HW117615   0.405   3.234  11.395 -0.8231  0.0785 -0.8598
 2051SOL    HW217616   0.272   3.295  11.420  0.1277 -0.1532 -0.5511
 2052SOL     OW17617   4.600   0.552  15.040 -0.4033 -0.3809 -0.2604
 2052SOL    HW117618   4.547   0.627  15.015 -1.2398 -0.9521 -0.1768
 2052SOL    HW217619   4.535   0.528  15.106 -2.1068  1.0553 -1.4658
 2053SOL     OW17620   3.083   1.092   2.534 -0.2939  0.6412  0.1290
 2053SOL    HW117621   3.139   1.015   2.544  0.4487  1.1422 -0.2206
 2053SOL    HW217622   3.098   1.122   2.445  1.8613 -0.3451  0.1566
 2054SOL     OW17623   3.526   3.839   7.015 -0.5537 -0.1079 -0.3820
 2054SOL    HW117624   3.528   3.788   7.095 -0.3972  0.2549 -0.1545
 2054SOL    HW217625   3.469   3.789   6.957 -1.5012 -0.5906  0.9847
 2055SOL     OW17626   4.223   1.786   7.362 -0.5452 -0.0826  0.1857
 2055SOL    HW117627   4.171   1.825   7.432 -1.8994  0.4638 -1.1188
 2055SOL    HW217628   4.272   1.860   7.325 -2.0971  1.1331  0.5746
 2056SOL     OW17629   0.855   1.116   4.964 -0.6825  0.5696 -0.3170
 2056SOL    HW117630   0.934   1.083   4.920 -2.9123 -0.7357 -3.3896
 2056SOL    HW217631   0.855   1.206   4.931  3.1075  0.5321 -0.3937
 2057SOL     OW17632   3.002   4.627   3.341 -0.6030  0.1280 -0.3067
 2057SOL    HW117633   2.973   4.543   3.306 -1.4102  0.4472 -0.4271
 2057SOL    HW217634   3.081   4.613   3.290 -1.3115 -0.5906 -1.1842
 2058SOL     OW17635   3.031   4.147   6.128 -0.2231  0.0168  0.0129
 2058SOL    HW117636   3.054   4.054   6.128 -2.6211 -0.5789 -0.1803
 2058SOL    HW217637   3.059   4.177   6.041  0.3194  0.8937  0.5002
 2059SOL     OW17638   3.009   1.159   0.027  0.3178  0.5429  0.0457
 2059SOL    HW117639   3.070   1.095  17.686  0.0003 -1.3620  2.8477
 2059SOL    HW217640   2.966   1.102   0.091  2.7743 -0.0430  1.1958
 2060SOL     OW17641   3.339   3.928   2.410  0.0030  0.0390 -0.3821
 2060SOL    HW117642   3.293   4.010   2.390  0.7019  1.1178  2.3193
 2060SOL    HW217643   3.365   3.906   2.321 -4.0149  0.6634 -1.7119
 2061SOL     OW17644   0.346   3.055   2.245 -0.1550 -0.2260  0.1314
 2061SOL    HW117645   0.258   3.082   2.220  0.3365  1.6036  0.4325
 2061SOL    HW217646   0.362   3.111   2.321  0.0977 -1.9188  1.3400
 2062SOL     OW17647   2.354   3.442   1.994 -0.2815  0.3953  0.0162
 2062SOL    HW117648   2.314   3.361   2.027  3.0630 -1.2402  0.0229
 2062SOL    HW217649   2.277   3.474   1.947 -0.5535  0.7049  0.6703
 2063SOL     OW17650   0.780   4.222  11.091  0.9020  0.1168 -0.6249
 2063SOL    HW117651   0.694   4.215  11.049 -0.2918  1.2427  1.6647
 2063SOL    HW217652   0.812   4.132  11.096 -2.5338 -1.0954 -0.7707
 2064SOL     OW17653   0.265   3.428   9.000  0.1157  0.0722  0.1608
 2064SOL    HW117654   0.298   3.343   8.970  1.2213  0.1126  1.2476
 2064SOL    HW217655   0.280   3.412   9.094  1.6186  2.5285  0.3250
 2065SOL     OW17656   1.216   3.140   5.451 -0.0121  0.0620 -0.5600
 2065SOL    HW117657   1.183   3.222   5.489  1.1369 -0.3612  1.3118
 2065SOL    HW217658   1.261   3.180   5.376 -0.7473  1.5099 -0.2337
 2066SOL     OW17659   1.000   3.547   3.210 -0.2912  0.2734  0.4059
 2066SOL    HW117660   0.916   3.511   3.181  0.4919  0.5569 -2.2505
 2066SOL    HW217661   0.973   3.639   3.212  0.6366  0.5449  0.5375
 2067SOL     OW17662   2.626   2.474   4.430  0.4641  0.4840 -0.3491
 2067SOL    HW117663   2.631   2.469   4.335  0.0779  0.9487 -0.3948
 2067SOL    HW217664   2.575   2.554   4.442 -1.8728 -1.4966  2.9272
 2068SOL     OW17665   4.302   3.489   4.658 -0.1812  0.2261 -0.0337
 2068SOL    HW117666   4.252   3.450   4.729 -1.1178 -0.4934 -1.1114
 2068SOL    HW217667   4.237   3.475   4.589 -0.4018  0.8390  0.0477
 2069SOL     OW17668   3.802   0.826   1.264 -0.2026 -0.1019  0.6873
 2069SOL    HW117669   3.817   0.733   1.249  0.6223  0.0649  0.4820
 2069SOL    HW217670   3.797   0.866   1.177 -2.6682  1.1047  1.3695
 2070SOL     OW17671   1.457   0.050   5.114  0.4361 -0.5228 -0.4768
 2070SOL    HW117672   1.528   0.038   5.051  1.6870  2.5379  0.3471
 2070SOL    HW217673   1.507   0.070   5.194  1.9992 -1.2209 -1.2850
 2071SOL     OW17674   2.204   1.519   5.494  0.5937 -0.3555 -0.5421
 2071SOL    HW117675   2.131   1.466   5.526 -0.3631  1.2929  0.0409
 2071SOL    HW217676   2.142   1.578   5.450  0.1262  0.7271  1.6052
 2072SOL     OW17677   3.710   3.918  11.755  0.1741 -0.4812  0.4297
 2072SOL    HW117678   3.699   3.993  11.814 -2.7393 -1.1386  0.7205
 2072SOL    HW217679   3.753   3.854  11.811  2.1462  1.3903  1.0739
 2073SOL     OW17680   4.063   3.937   5.216 -0.2964  0.1025  0.4576
 2073SOL    HW117681   4.007   3.935   5.139  1.9475  2.9514 -1.2258
 2073SOL    HW217682   4.045   3.851   5.255  0.8652 -0.1596  0.4241
 2074SOL     OW17683   2.098   0.560   3.905  0.3279 -0.3890  0.0220
 2074SOL    HW117684   2.141   0.582   3.823 -3.4034 -2.3477 -2.4686
 2074SOL    HW217685   2.023   0.619   3.900 -0.2695 -1.0517  1.0688
 2075SOL     OW17686   3.888   3.116   8.473 -0.4683 -0.1327  0.2687
 2075SOL    HW117687   3.980   3.090   8.472 -0.8235 -1.3810 -1.9149
 2075SOL    HW217688   3.849   3.029   8.473  1.4619 -1.0140 -1.4610
 2076SOL     OW17689   1.757   0.509  16.962  0.5453  0.3844 -0.3203
 2076SOL    HW117690   1.791   0.506  17.052  1.6504 -0.2506 -0.7662
 2076SOL    HW217691   1.712   0.424  16.957  1.0176  0.1399 -0.4037
 2077SOL     OW17692   3.104   3.797   2.262 -0.0276  0.2511  0.0991
 2077SOL    HW117693   3.012   3.823   2.261 -0.3724 -1.0034  0.6803
 2077SOL    HW217694   3.140   3.856   2.328  0.6412 -0.2763  0.2025
 2078SOL     OW17695   0.208   0.719   8.090  0.3739 -0.2195  0.6284
 2078SOL    HW117696   0.286   0.730   8.036 -0.8186  1.5524 -0.7251
 2078SOL    HW217697   0.242   0.738   8.178 -0.4603 -0.3030  0.9738
 2079SOL     OW17698   1.449   1.985  16.124  0.3059 -0.0112  0.5981
 2079SOL    HW117699   1.379   2.013  16.066  1.0160  0.1126 -0.1966
 2079SOL    HW217700   1.416   2.023  16.206  0.7654 -2.6491  2.0127
 2080SOL     OW17701   4.485   4.433  10.773  0.8678 -0.0114 -0.1400
 2080SOL    HW117702   4.563   4.419  10.827  0.2832 -0.7959  0.5060
 2080SOL    HW217703   4.524   4.454  10.689  1.6932  0.3036  0.3176
 2081SOL     OW17704   1.260   3.462   9.056 -0.2431  0.5040 -0.0016
 2081SOL    HW117705   1.353   3.466   9.033 -0.3381  1.3706 -0.2370
 2081SOL    HW217706   1.243   3.553   9.081  0.3393  0.6083  0.0322
 2082SOL     OW17707   2.788   1.022   3.426 -0.4655  0.3474 -0.2197
 2082SOL    HW117708   2.723   1.083   3.390  0.6245  2.0693  0.7539
 2082SOL    HW217709   2.817   0.973   3.349  1.7949  1.0578  0.1751
 2083SOL     OW17710   2.499   1.122   1.326 -0.1942  0.1599  0.6220
 2083SOL    HW117711   2.467   1.213   1.328  1.6367  0.7508  3.0096
 2083SOL    HW217712   2.425   1.086   1.276  2.9219 -2.3661 -2.1467
 2084SOL     OW17713   1.342   2.801   7.316 -0.3913  0.5201 -0.2474
 2084SOL    HW117714   1.430   2.828   7.293 -1.0783  1.0308 -2.2442
 2084SOL    HW217715   1.354   2.770   7.406  2.1694 -1.0290 -1.1201
 2085SOL     OW17716   3.536   0.764  11.874 -0.0390  0.4063 -0.0960
 2085SOL    HW117717   3.487   0.845  11.890  2.0055  1.3688  1.2919
 2085SOL    HW217718   3.482   0.732  11.802 -1.1209 -0.1434  0.9509
 2086SOL     OW17719   3.087   0.942   0.659  0.8588 -0.3929  0.1410
 2086SOL    HW117720   3.024   0.978   0.721 -0.2897  0.5290 -1.5830
 2086SOL    HW217721   3.171   0.959   0.701  0.8362  0.6061 -0.2306
 2087SOL     OW17722   2.971   1.478   2.277  0.5810  0.0510 -0.5857
 2087SOL    HW117723   2.914   1.471   2.200 -0.1196  0.7221 -0.1251
 2087SOL    HW217724   2.978   1.573   2.282  1.1483 -0.0934  1.1563
 2088SOL     OW17725   2.042   0.010  14.237 -0.6809 -0.2529  0.2645
 2088SOL    HW117726   2.006   4.645  14.226 -0.3011 -0.5455  1.3302
 2088SOL    HW217727   2.060   0.052  14.153 -1.8376  1.2870  0.7842
 2089SOL     OW17728   0.132   4.307  10.060 -0.0454  0.3568 -0.1546
 2089SOL    HW117729   0.182   4.257   9.995  0.8465  2.6872 -1.2719
 2089SOL    HW217730   0.201   4.327  10.123 -0.2168 -0.0171  0.1500
 2090SOL     OW17731   0.393   0.930   6.689  0.2889  0.1096  0.3908
 2090SOL    HW117732   0.315   0.888   6.653  1.7223 -0.3560 -2.1805
 2090SOL    HW217733   0.433   0.873   6.755  1.0037  1.4620  1.1370
 2091SOL     OW17734   2.442   0.278   7.600  0.3382 -0.8882 -0.1803
 2091SOL    HW117735   2.511   0.338   7.571  0.4618 -0.9588 -0.0363
 2091SOL    HW217736   2.422   0.222   7.525  1.5268  0.4198 -1.4594
 2092SOL     OW17737   0.775   0.009   7.479  0.2466  0.4246  0.1259
 2092SOL    HW117738   0.791   0.098   7.449  0.3859 -0.5598 -2.7177
 2092SOL    HW217739   0.685   4.721   7.449 -0.2657  1.8208  1.1252
 2093SOL     OW17740   2.360   4.312  11.554 -0.1149  0.2818 -0.3026
 2093SOL    HW117741   2.301   4.366  11.607  0.3344  1.5929 -1.1399
 2093SOL    HW217742   2.422   4.378  11.524  3.1629 -1.1591  3.3073
 2094SOL     OW17743   2.354   1.562   1.586 -0.1202 -0.1818  0.6454
 2094SOL    HW117744   2.285   1.506   1.620 -0.6567  0.9626  1.4079
 2094SOL    HW217745   2.303   1.643   1.587  0.5097  0.2370 -0.4495
 2095SOL     OW17746   2.834   3.498   5.963 -0.3704 -0.0566  0.4981
 2095SOL    HW117747   2.797   3.519   6.049 -1.8181  1.5209 -0.5155
 2095SOL    HW217748   2.801   3.409   5.952 -1.6205  0.1014  2.9230
 2096SOL     OW17749   2.703   2.346  13.736 -0.1011  0.6319 -0.2638
 2096SOL    HW117750   2.763   2.352  13.661  0.1376 -2.9192 -0.3826
 2096SOL    HW217751   2.618   2.328  13.695  0.1048 -0.4477 -0.2413
 2097SOL     OW17752   1.117   1.911   4.517 -0.0793 -0.0632  0.4385
 2097SOL    HW117753   1.154   1.999   4.521 -2.1174  0.8227 -0.4029
 2097SOL    HW217754   1.200   1.864   4.510  0.0801  0.4285 -0.9118
 2098SOL     OW17755   1.421   0.121  11.074  0.1245  0.0470 -0.0081
 2098SOL    HW117756   1.326   0.123  11.085  0.0072 -2.7418 -0.5666
 2098SOL    HW217757   1.457   0.135  11.162  0.1977  1.4107 -0.2518
 2099SOL     OW17758   0.136   1.942   0.943 -0.2191 -0.0383  0.5980
 2099SOL    HW117759   0.188   2.021   0.932 -1.3322  0.6988  0.5990
 2099SOL    HW217760   0.186   1.869   0.906  0.4397  0.4830  0.4648
 2100SOL     OW17761   3.141   3.221  13.851  0.3523  0.0706 -0.5473
 2100SOL    HW117762   3.161   3.239  13.943  4.1549  2.4625 -1.8241
 2100SOL    HW217763   3.046   3.218  13.860  0.3356  0.3337 -0.6371
 2101SOL     OW17764   2.518   3.103   7.456  0.8760 -0.5755 -0.1563
 2101SOL    HW117765   2.429   3.072   7.470  0.9002  0.1213  1.6247
 2101SOL    HW217766   2.535   3.153   7.536 -3.0198  0.1929  0.1723
 2102SOL     OW17767   4.162   3.867  10.998 -0.2549 -0.0296 -0.2177
 2102SOL    HW117768   4.192   3.900  10.913 -2.3608  1.7149 -0.2829
 2102SOL    HW217769   4.241   3.837  11.043  0.0896 -0.2478 -0.9786
 2103SOL     OW17770   1.181   4.351   0.929  0.4360  0.1457  0.5631
 2103SOL    HW117771   1.275   4.349   0.947  0.5543  0.6338 -0.0252
 2103SOL    HW217772   1.176   4.316   0.841  1.6459 -1.1416  1.0124
 2104SOL     OW17773   3.543   1.461   3.775  0.4686  0.0226  0.4207
 2104SOL    HW117774   3.524   1.411   3.695 -0.4919 -1.3706  1.5299
 2104SOL    HW217775   3.458   1.480   3.814  0.1142 -0.2220 -0.2419
 2105SOL     OW17776   2.040   4.320   7.983  0.6286  0.3948  0.4609
 2105SOL    HW117777   1.971   4.380   7.955  1.0208  0.8491  0.4838
 2105SOL    HW217778   2.038   4.254   7.914 -0.0825  0.2355  0.6263
 2106SOL     OW17779   2.079   2.522   4.509 -0.3364 -0.8833 -0.4314
 2106SOL    HW117780   2.005   2.462   4.502 -1.5747  0.5602  0.2256
 2106SOL    HW217781   2.082   2.560   4.421 -0.3552  0.3699  0.1068
 2107SOL     OW17782   1.974   1.438  12.358 -0.4147  0.2694 -0.4073
 2107SOL    HW117783   2.020   1.505  12.308 -1.5888 -0.6294 -2.6975
 2107SOL    HW217784   1.946   1.496  12.430 -0.4247 -0.8766  0.5125
 2108SOL     OW17785   3.921   2.794   0.675 -0.4571 -0.3734  0.5351
 2108SOL    HW117786   3.950   2.772   0.764  0.4217  0.4485  0.4596
 2108SOL    HW217787   3.989   2.855   0.646 -2.1406  1.3042  0.0477
 2109SOL     OW17788   1.196   2.144   2.963 -0.4352  0.5887 -0.3811
 2109SOL    HW117789   1.117   2.137   2.909 -0.3507  2.6220 -0.7691
 2109SOL    HW217790   1.174   2.106   3.048  0.6131 -0.9041 -0.7609
 2110SOL     OW17791   1.469   1.986   2.777 -0.4316  0.3312 -0.0277
 2110SOL    HW117792   1.563   1.997   2.790 -0.3213 -2.0493  1.1657
 2110SOL    HW217793   1.443   2.077   2.792 -2.5376 -0.1837 -0.4667
 2111SOL     OW17794   3.088   3.040   5.408  0.2725 -0.0158 -0.2431
 2111SOL    HW117795   3.011   3.072   5.454 -0.3661 -0.6160 -0.8884
 2111SOL    HW217796   3.116   3.115   5.356 -0.9790  0.1924 -0.5968
 2112SOL     OW17797   4.661   0.884   7.403  0.2263 -0.4773  0.6035
 2112SOL    HW117798   4.683   0.806   7.353 -0.2811  0.0658 -0.4901
 2112SOL    HW217799   0.016   0.893   7.457  0.5786  1.9136 -0.2805
 2113SOL     OW17800   2.883   2.861   1.023 -0.4608  0.8894 -0.1231
 2113SOL    HW117801   2.968   2.875   1.065 -0.0718 -1.1959 -0.2046
 2113SOL    HW217802   2.906   2.800   0.953 -0.0005 -0.4019  1.1258
 2114SOL     OW17803   3.376   3.575  16.080  0.3315 -0.1190  0.1863
 2114SOL    HW117804   3.390   3.596  15.988 -1.4666 -0.3004 -0.1230
 2114SOL    HW217805   3.284   3.603  16.079  0.1570 -0.6938 -0.0385
 2115SOL     OW17806   2.284   0.426  16.231  0.0609 -0.1162  0.2808
 2115SOL    HW117807   2.306   0.340  16.268  1.6045 -0.1876 -0.8303
 2115SOL    HW217808   2.363   0.479  16.226 -0.3385  0.1970 -2.4053
 2116SOL     OW17809   3.346   3.953   2.687 -0.9370 -0.4200  0.2733
 2116SOL    HW117810   3.353   3.916   2.599 -1.0952 -0.1385  0.1417
 2116SOL    HW217811   3.277   4.019   2.675 -1.8337 -1.1880  1.1381
 2117SOL     OW17812   4.594   1.614   3.605  0.1022 -0.1408 -0.6876
 2117SOL    HW117813   4.611   1.602   3.511 -0.2823 -1.0509 -0.6458
 2117SOL    HW217814   4.627   1.702   3.621  0.0249 -0.0257 -1.1644
 2118SOL     OW17815   3.332   3.019  11.967 -0.3497  0.6619 -0.2193
 2118SOL    HW117816   3.370   3.106  11.953 -2.7424  1.9964  1.5788
 2118SOL    HW217817   3.414   2.980  11.997  0.4105  2.0795 -0.4886
 2119SOL     OW17818   3.239   1.116   3.615  0.1138  0.1948 -0.5371
 2119SOL    HW117819   3.163   1.058   3.625  1.6234 -1.5651  0.7945
 2119SOL    HW217820   3.263   1.116   3.708  1.4322  0.0241 -0.8852
 2120SOL     OW17821   1.776   1.280  11.575 -0.8448 -0.1255 -0.3177
 2120SOL    HW117822   1.754   1.226  11.499  1.3489  0.4073 -1.3278
 2120SOL    HW217823   1.747   1.368  11.548  1.0961  1.0743  1.5174
 2121SOL     OW17824   0.902   1.549   2.152  0.0641  0.1097  0.0208
 2121SOL    HW117825   0.953   1.536   2.072  0.9541  0.1520  0.5755
 2121SOL    HW217826   0.812   1.539   2.122  0.5086  0.0985 -1.3035
 2122SOL     OW17827   0.801   1.302   3.031  0.3021  0.0154  0.0324
 2122SOL    HW117828   0.827   1.258   3.112  0.3229 -0.5277 -0.2700
 2122SOL    HW217829   0.750   1.233   2.987 -2.0472  1.5475  0.3570
 2123SOL     OW17830   1.039   2.781   6.731  0.1144 -0.8080  0.1656
 2123SOL    HW117831   1.037   2.769   6.636 -2.0037 -0.0518  0.1333
 2123SOL    HW217832   1.121   2.735   6.749 -0.5426 -1.7545  0.7053
 2124SOL     OW17833   0.841   1.590   8.478  0.3958 -0.5351  0.1014
 2124SOL    HW117834   0.816   1.578   8.570 -1.2680  1.1064 -0.1389
 2124SOL    HW217835   0.878   1.678   8.471  0.9553 -0.7726  0.1033
 2125SOL     OW17836   2.689   3.001   6.437  0.4584  0.3746 -0.0556
 2125SOL    HW117837   2.758   2.952   6.481  1.5633  0.8002 -1.3451
 2125SOL    HW217838   2.644   3.028   6.517 -0.0427  2.2968 -1.0040
 2126SOL     OW17839   0.943   2.217   2.833  0.0687  0.0893 -0.2228
 2126SOL    HW117840   0.876   2.155   2.803  0.0321  0.7348 -1.4734
 2126SOL    HW217841   0.969   2.247   2.746  1.4795 -0.6954 -0.0767
 2127SOL     OW17842   2.652   1.999   2.685  1.1227  0.0048 -0.8703
 2127SOL    HW117843   2.681   2.016   2.596 -1.0551  2.0758 -1.1605
 2127SOL    HW217844   2.620   1.909   2.682  0.5679  0.1413  0.9859
 2128SOL     OW17845   3.519   0.515  12.014  0.4085  0.0458  0.2721
 2128SOL    HW117846   3.517   0.594  11.959  1.8837  0.4390  0.7828
 2128SOL    HW217847   3.540   0.562  12.095 -1.2034 -1.3653  1.5069
 2129SOL     OW17848   0.524   4.289   5.740  0.4262 -0.6974  0.5201
 2129SOL    HW117849   0.485   4.331   5.662 -1.4384 -0.7050  1.4499
 2129SOL    HW217850   0.448   4.277   5.796  0.7972  2.7672  1.7869
 2130SOL     OW17851   1.227   0.204   1.720  0.0672 -0.8822 -0.0701
 2130SOL    HW117852   1.172   0.273   1.758  1.7696  0.2749  0.2981
 2130SOL    HW217853   1.261   0.245   1.640 -1.3823 -1.1946 -0.8412
 2131SOL     OW17854   1.865   3.286   6.747  0.2254  0.4477  0.3621
 2131SOL    HW117855   1.851   3.357   6.685  1.7874 -0.4118 -0.9762
 2131SOL    HW217856   1.961   3.284   6.754  0.3035 -1.2389 -1.3221
 2132SOL     OW17857   1.260   0.116   7.176 -0.1759  0.2291  0.4174
 2132SOL    HW117858   1.214   0.140   7.095  1.8151  1.3714 -0.3626
 2132SOL    HW217859   1.209   0.040   7.203 -0.2000 -0.7656 -2.4776
 2133SOL     OW17860   3.106   2.888   5.873 -0.0334 -0.4603 -0.7114
 2133SOL    HW117861   3.015   2.862   5.885 -0.2720  0.4852 -0.5215
 2133SOL    HW217862   3.141   2.806   5.838  1.1879 -0.1109 -0.3323
 2134SOL     OW17863   3.361   2.166   4.304 -0.1848 -0.3231  0.3311
 2134SOL    HW117864   3.435   2.209   4.346 -2.3384  1.7155  1.9880
 2134SOL    HW217865   3.389   2.092   4.249 -0.5881 -0.3274  0.1307
 2135SOL     OW17866   0.068   4.445   0.607  0.3285 -0.9259  0.3124
 2135SOL    HW117867   0.065   4.411   0.696  0.3954 -1.8256 -0.0235
 2135SOL    HW217868   0.068   4.364   0.555 -0.0248  0.2791 -1.5976
 2136SOL     OW17869   0.342   0.917   5.890  0.7256 -0.0660  0.6356
 2136SOL    HW117870   0.371   0.947   5.804  1.4681  0.3888  1.0433
 2136SOL    HW217871   0.263   0.866   5.874  2.0405 -1.9066  0.0239
 2137SOL     OW17872   0.145   3.183  15.068  0.4101 -0.3872 -0.1001
 2137SOL    HW117873   0.221   3.227  15.106 -0.9001  1.7542  0.0167
 2137SOL    HW217874   0.184   3.107  15.025  0.5669  0.1263 -0.8569
 2138SOL     OW17875   0.598   3.503   9.397 -0.1643 -0.1862  0.0765
 2138SOL    HW117876   0.651   3.549   9.332 -1.1513 -0.8400 -1.1788
 2138SOL    HW217877   0.667   3.457   9.445  0.0895  0.0589 -0.0581
 2139SOL     OW17878   2.774   4.350   6.821 -0.1667  0.1901  0.2004
 2139SOL    HW117879   2.764   4.300   6.902  1.8810  0.5881  0.6994
 2139SOL    HW217880   2.682   4.365   6.800 -0.6996  0.3615  2.6100
 2140SOL     OW17881   4.607   2.739  17.650  0.5390  0.4827  0.0519
 2140SOL    HW117882   4.610   2.834  17.664 -1.4337  0.5380  0.0303
 2140SOL    HW217883   4.616   2.737  17.555 -1.3975 -2.2551 -0.0521
 2141SOL     OW17884   3.005   3.572   3.308  0.2435 -0.3669  0.3567
 2141SOL    HW117885   2.940   3.502   3.316  1.1355 -1.3250 -0.6756
 2141SOL    HW217886   3.040   3.568   3.219  1.8642 -1.3447  1.0304
 2142SOL     OW17887   4.598   4.654   7.482  0.1483 -0.0488  0.1360
 2142SOL    HW117888   4.505   4.634   7.492  0.1269  0.3313  0.6799
 2142SOL    HW217889   4.611   4.716   7.554 -1.8599  0.3722  0.1328
 2143SOL     OW17890   0.061   2.688  12.549  0.0827 -0.0278 -0.2091
 2143SOL    HW117891   0.024   2.652  12.630  1.2571  2.2984  1.3626
 2143SOL    HW217892   0.129   2.623  12.533  0.8240  0.8785 -0.7481
 2144SOL     OW17893   3.179   2.496   7.312 -0.6791 -0.6219  0.1243
 2144SOL    HW117894   3.237   2.429   7.276  1.0776  0.8414  0.2207
 2144SOL    HW217895   3.098   2.446   7.308 -1.6475  0.8968  0.8678
 2145SOL     OW17896   3.943   3.405   7.967  0.8588  0.2282  0.2581
 2145SOL    HW117897   3.882   3.441   8.031 -1.0504 -0.6164 -1.0853
 2145SOL    HW217898   4.020   3.412   8.022  1.3067  0.5175 -0.3960
 2146SOL     OW17899   3.973   0.760  16.175 -0.2552 -0.0438  0.0191
 2146SOL    HW117900   3.997   0.686  16.231  0.4897  0.5684  0.5132
 2146SOL    HW217901   3.977   0.714  16.091  2.4688  0.0550  0.1024
 2147SOL     OW17902   1.726   2.963   4.228 -0.3297  0.1293 -0.3750
 2147SOL    HW117903   1.812   2.966   4.269 -0.2610 -0.4785 -0.4779
 2147SOL    HW217904   1.738   2.909   4.150 -1.0713 -0.5762 -0.0056
 2148SOL     OW17905   4.290   3.411   6.498 -0.0609  0.4120 -0.2416
 2148SOL    HW117906   4.211   3.378   6.541  0.1039  0.8665  0.3935
 2148SOL    HW217907   4.323   3.340   6.442 -1.5194  0.5947 -1.3201
 2149SOL     OW17908   0.342   1.728   0.998 -0.2199 -0.5474  0.2933
 2149SOL    HW117909   0.255   1.705   1.030 -0.1967 -1.4732 -0.3032
 2149SOL    HW217910   0.384   1.651   1.037  1.7365  0.8745  0.9625
 2150SOL     OW17911   3.855   1.714   7.948 -0.3707  0.1912  0.0486
 2150SOL    HW117912   3.787   1.663   7.905 -2.6859  0.3146  3.5834
 2150SOL    HW217913   3.918   1.644   7.965 -0.4582  0.2912  0.7967
 2151SOL     OW17914   1.855   2.533  11.720 -0.0612  0.8387  0.2932
 2151SOL    HW117915   1.910   2.462  11.689  0.3422  1.3048 -0.0713
 2151SOL    HW217916   1.795   2.553  11.647 -0.6681  1.1155  0.8681
 2152SOL     OW17917   0.313   0.318  11.056 -0.2375 -0.2029  0.1099
 2152SOL    HW117918   0.311   0.402  11.102 -0.5063 -1.4307  2.3412
 2152SOL    HW217919   0.298   0.261  11.131  1.2813 -2.0222 -0.9790
 2153SOL     OW17920   3.235   4.177   4.356  0.2897 -0.2540  0.4543
 2153SOL    HW117921   3.274   4.241   4.296 -1.0643 -0.2623 -0.4467
 2153SOL    HW217922   3.195   4.120   4.290  0.6672  0.7955 -0.6866
 2154SOL     OW17923   1.018   0.052   1.535 -0.4474 -0.1179 -0.4112
 2154SOL    HW117924   1.074   0.094   1.600  1.6103 -1.9312 -1.0117
 2154SOL    HW217925   0.936   0.041   1.584 -1.0511 -0.0772 -1.4090
 2155SOL     OW17926   1.163   4.177  10.750 -0.3976  0.1767 -0.1334
 2155SOL    HW117927   1.120   4.122  10.815 -1.7486 -0.1733 -1.3285
 2155SOL    HW217928   1.133   4.138  10.668 -1.6815  0.1714  0.3388
 2156SOL     OW17929   3.155   1.781   5.880 -0.3563  0.3512  0.1742
 2156SOL    HW117930   3.077   1.817   5.838 -2.0222 -1.7685  1.4007
 2156SOL    HW217931   3.143   1.686   5.888  0.6012  0.0694 -1.7036
 2157SOL     OW17932   4.416   1.481   7.111 -0.4060  0.0963  0.4019
 2157SOL    HW117933   4.437   1.567   7.073 -0.0117  0.4612  1.4154
 2157SOL    HW217934   4.491   1.425   7.091 -0.2809 -0.3066  2.0153
 2158SOL     OW17935   0.356   1.351   9.180  0.3496 -0.4480 -0.5292
 2158SOL    HW117936   0.349   1.406   9.102 -2.2789 -1.7486 -1.2122
 2158SOL    HW217937   0.424   1.382   9.239 -1.1807 -1.7335  1.9065
 2159SOL     OW17938   4.260   0.393   9.521 -0.3053 -0.0884  0.4933
 2159SOL    HW117939   4.176   0.377   9.479  1.2067 -2.7863 -1.5166
 2159SOL    HW217940   4.254   0.470   9.578 -0.5606 -0.8388  1.4739
 2160SOL     OW17941   0.575   3.855   7.841 -0.3771  0.2225 -0.4714
 2160SOL    HW117942   0.581   3.949   7.825  3.0465 -0.2319 -1.8376
 2160SOL    HW217943   0.490   3.848   7.885  0.6345 -0.5870  1.3575
 2161SOL     OW17944   1.487   0.503   2.396  0.0581  0.1871 -0.1649
 2161SOL    HW117945   1.498   0.571   2.462  1.3345 -0.4708  0.3074
 2161SOL    HW217946   1.409   0.459   2.430  0.0888 -1.0628 -1.7068
 2162SOL     OW17947   1.855   2.873   2.292  0.0509  0.5147  0.2497
 2162SOL    HW117948   1.800   2.796   2.278  0.1097  0.4497  0.3739
 2162SOL    HW217949   1.794   2.947   2.289 -0.4435  0.0952  0.0483
 2163SOL     OW17950   1.279   3.267   8.415  0.2725 -0.0798  0.4543
 2163SOL    HW117951   1.347   3.333   8.401  0.8533 -0.5782  0.9135
 2163SOL    HW217952   1.248   3.282   8.504 -0.2817  1.6225 -0.0181
 2164SOL     OW17953   0.338   2.794   1.027 -0.2380  0.2335 -0.5971
 2164SOL    HW117954   0.364   2.724   1.087  0.3256  0.0886 -1.0099
 2164SOL    HW217955   0.377   2.764   0.945  0.0039  0.9460 -0.7448
 2165SOL     OW17956   3.227   2.374  14.887  0.3307 -0.1829  0.2601
 2165SOL    HW117957   3.232   2.287  14.846  1.5805 -0.2232  0.5263
 2165SOL    HW217958   3.317   2.399  14.906  0.8399 -0.3032 -2.0153
 2166SOL     OW17959   3.612   0.283   6.885 -0.9953 -0.1392 -0.5314
 2166SOL    HW117960   3.596   0.353   6.948 -0.3129 -0.5553  0.0992
 2166SOL    HW217961   3.693   0.319   6.849 -0.2642  0.5576  1.8048
 2167SOL     OW17962   3.386   3.781  14.578 -0.4573  0.5146  0.0553
 2167SOL    HW117963   3.415   3.746  14.662 -0.7760  1.3356  0.5128
 2167SOL    HW217964   3.455   3.846  14.561 -0.1964 -0.1685 -1.5179
 2168SOL     OW17965   3.821   2.420   6.096 -0.0192  0.0809 -0.1036
 2168SOL    HW117966   3.865   2.483   6.039  4.5609 -2.6947  0.3343
 2168SOL    HW217967   3.815   2.344   6.039  0.3832  0.7546 -1.0430
 2169SOL     OW17968   3.604   2.898   8.428 -0.3380  0.3993 -0.0358
 2169SOL    HW117969   3.634   2.867   8.343 -1.5511  1.4399 -0.8377
 2169SOL    HW217970   3.659   2.849   8.489 -0.6836  1.4168  1.0952
 2170SOL     OW17971   1.043   4.410   9.805  0.2292 -0.2949  0.0866
 2170SOL    HW117972   1.017   4.501   9.818 -2.7306 -1.0520 -0.6287
 2170SOL    HW217973   1.137   4.426   9.812  0.2271 -0.0935 -0.3621
 2171SOL     OW17974   1.798   1.695   5.113 -0.4736 -0.0925  0.1044
 2171SOL    HW117975   1.794   1.751   5.036  1.4950  1.7178  1.3266
 2171SOL    HW217976   1.812   1.603   5.087  2.4178  0.7005 -1.1321
 2172SOL     OW17977   3.784   2.399   5.721  0.6457  0.3398  0.8664
 2172SOL    HW117978   3.788   2.325   5.782  2.3082  0.3744  0.7999
 2172SOL    HW217979   3.794   2.351   5.639  1.6615  1.9482  0.0532
 2173SOL     OW17980   1.410   1.978   5.178 -0.1437 -0.0813 -0.3987
 2173SOL    HW117981   1.400   1.941   5.091  2.3500  2.0690 -1.6050
 2173SOL    HW217982   1.385   1.902   5.231 -0.0482  0.9846  1.2029
 2174SOL     OW17983   0.496   3.229   5.420 -0.3748 -0.3878 -0.2225
 2174SOL    HW117984   0.429   3.179   5.467  0.9699 -0.7132  1.3645
 2174SOL    HW217985   0.572   3.240   5.477 -2.3975 -0.2490  2.4781
 2175SOL     OW17986   3.693   2.261   3.711  0.5867 -0.1743  0.2976
 2175SOL    HW117987   3.676   2.178   3.666 -1.4284  1.0734 -1.1826
 2175SOL    HW217988   3.714   2.308   3.631  1.7346 -0.1178  0.6297
 2176SOL     OW17989   0.174   1.006   0.297 -0.6207  0.3929  0.1642
 2176SOL    HW117990   0.177   1.099   0.320 -0.1184  0.4926 -0.3184
 2176SOL    HW217991   0.226   0.966   0.367 -2.3150 -0.3188  1.0239
 2177SOL     OW17992   2.998   1.512   1.187  0.1719 -0.3556 -0.0169
 2177SOL    HW117993   2.917   1.489   1.232 -1.1079  3.3106 -0.4851
 2177SOL    HW217994   2.955   1.580   1.135 -1.6578 -1.2153  0.3552
 2178SOL     OW17995   2.378   1.333  12.057  0.2952 -0.2158 -0.6161
 2178SOL    HW117996   2.313   1.393  12.020  0.9582  0.7893 -0.1490
 2178SOL    HW217997   2.458   1.357  12.010  0.9810  1.9068  1.6770
 2179SOL     OW17998   0.404   1.978  11.894 -0.0579  0.7766  0.7012
 2179SOL    HW117999   0.469   2.048  11.880 -1.4767  1.9244 -0.2189
 2179SOL    HW218000   0.378   1.970  11.802 -0.6981  1.7082  0.7937
 2180SOL     OW18001   2.225   0.194   4.872 -0.4134  0.2326 -0.2434
 2180SOL    HW118002   2.276   0.115   4.858 -0.5078 -0.2386  2.1074
 2180SOL    HW218003   2.296   0.249   4.907 -0.9060 -0.0054  1.1112
 2181SOL     OW18004   4.433   4.277   2.681 -0.2519 -0.4976 -0.2698
 2181SOL    HW118005   4.453   4.258   2.773  0.1457  0.9962 -0.0527
 2181SOL    HW218006   4.367   4.346   2.694  1.1757  0.7226  0.4319
 2182SOL     OW18007   1.724   3.456  15.054  0.3827  0.4432  0.3483
 2182SOL    HW118008   1.790   3.416  15.110  0.5863 -0.0223 -0.2253
 2182SOL    HW218009   1.774   3.499  14.984 -0.2681 -0.0451 -0.4055
 2183SOL     OW18010   2.724   3.077   7.136 -0.0124  0.6383 -0.6870
 2183SOL    HW118011   2.656   3.105   7.197  1.7854  1.8730  0.7424
 2183SOL    HW218012   2.700   3.125   7.057  1.7110  3.7154  0.6586
 2184SOL     OW18013   0.366   2.338   5.668  0.0622  0.1953  0.1506
 2184SOL    HW118014   0.294   2.351   5.606  0.7541  1.4535 -0.3754
 2184SOL    HW218015   0.357   2.243   5.674 -2.7882  0.3861 -1.0199
 2185SOL     OW18016   4.204   1.870   2.758  0.5013  0.5544  0.0046
 2185SOL    HW118017   4.219   1.964   2.753  1.2282  0.3584 -1.3110
 2185SOL    HW218018   4.227   1.861   2.851  0.5154  0.8473  0.0297
 2186SOL     OW18019   1.683   3.918   7.243  0.1328 -0.5775  0.0774
 2186SOL    HW118020   1.764   3.868   7.255  0.7407  0.2637 -0.5273
 2186SOL    HW218021   1.619   3.855   7.210 -0.9759  0.1056  0.9133
 2187SOL     OW18022   0.012   1.254   7.003 -0.1111  0.1883 -0.3094
 2187SOL    HW118023   4.655   1.203   7.012 -0.5614  0.8323 -0.6661
 2187SOL    HW218024   4.713   1.309   6.929  1.0855 -0.0901 -0.8880
 2188SOL     OW18025   3.376   2.895   7.333  0.3463 -0.4447  0.1171
 2188SOL    HW118026   3.313   2.850   7.276  0.0855 -0.6598  0.5762
 2188SOL    HW218027   3.428   2.820   7.359  0.4980 -0.4459 -0.1818
 2189SOL     OW18028   2.495   0.455   0.352  0.1568  0.3389  0.4216
 2189SOL    HW118029   2.534   0.525   0.299 -0.9641 -0.5256 -1.5371
 2189SOL    HW218030   2.454   0.409   0.279 -0.1847  1.1883  0.0799
 2190SOL     OW18031   0.007   1.474  14.280 -0.2991 -0.5049  0.2236
 2190SOL    HW118032   4.690   1.554  14.312  0.6478  0.4548 -1.0373
 2190SOL    HW218033   0.097   1.503  14.273 -0.5783 -0.2498 -2.3001
 2191SOL     OW18034   0.543   2.680   6.789  0.5938 -0.4140 -0.2631
 2191SOL    HW118035   0.593   2.636   6.719 -0.7816 -0.2004 -1.3724
 2191SOL    HW218036   0.617   2.728   6.826  0.9409 -0.6406 -0.6606
 2192SOL     OW18037   2.673   4.667  17.273  0.1891  0.0987  0.0106
 2192SOL    HW118038   2.713   4.603  17.214  2.3555  0.4159  1.1315
 2192SOL    HW218039   2.649   4.606  17.342  1.4557  0.3164  0.6372
 2193SOL     OW18040   1.255   2.160   7.513  0.0930 -0.8432 -0.2776
 2193SOL    HW118041   1.214   2.244   7.532  0.9222 -0.4316 -0.2672
 2193SOL    HW218042   1.253   2.114   7.596 -0.4925 -1.2892 -0.5411
 2194SOL     OW18043   3.139   4.020   5.255 -0.0471  0.4929  0.3037
 2194SOL    HW118044   3.159   3.968   5.333 -1.6483  1.5034  1.4023
 2194SOL    HW218045   3.112   4.103   5.295 -0.2670  1.8610 -2.6274
 2195SOL     OW18046   1.042   3.114   7.048  0.0218  0.7275  0.5412
 2195SOL    HW118047   0.950   3.112   7.076 -0.0384  0.5734  0.3291
 2195SOL    HW218048   1.082   3.090   7.132 -0.4059 -2.1304 -0.0807
 2196SOL     OW18049   4.305   3.488   3.236 -0.0855 -0.2178 -0.5159
 2196SOL    HW118050   4.272   3.401   3.212 -0.1415 -0.6151  0.9927
 2196SOL    HW218051   4.374   3.490   3.169 -1.6529 -0.9604 -2.1445
 2197SOL     OW18052   4.501   1.799   4.400  0.0124  0.3007  0.0180
 2197SOL    HW118053   4.579   1.851   4.420 -1.2005  2.1211 -0.0081
 2197SOL    HW218054   4.529   1.726   4.344 -0.9235 -0.7677  0.9294
 2198SOL     OW18055   4.197   0.123   0.783  0.3270 -0.2789 -0.3834
 2198SOL    HW118056   4.194   0.049   0.723 -1.6827 -0.9355  0.5248
 2198SOL    HW218057   4.126   0.175   0.746  0.7978  0.4373 -0.2758
 2199SOL     OW18058   1.229   3.652   5.739  0.1330 -0.6312 -0.1254
 2199SOL    HW118059   1.139   3.680   5.721  0.4428  0.0248 -0.6631
 2199SOL    HW218060   1.270   3.661   5.653 -0.5320  0.2196 -0.3563
 2200SOL     OW18061   1.054   3.911   9.046  0.1173  0.1768 -0.1628
 2200SOL    HW118062   1.004   3.829   9.041  1.1295 -0.4091 -0.6490
 2200SOL    HW218063   0.983   3.972   9.066  0.4886  0.4229  0.3967
 2201SOL     OW18064   0.301   2.111   2.452 -0.2922 -0.4536 -0.1049
 2201SOL    HW118065   0.282   2.034   2.506  1.9233 -0.2139  1.0130
 2201SOL    HW218066   0.234   2.178   2.466  1.9246  1.2184  2.4925
 2202SOL     OW18067   2.961   2.452  14.840 -0.1561 -0.2177  0.1405
 2202SOL    HW118068   3.053   2.435  14.857  0.6299  1.4417 -2.3883
 2202SOL    HW218069   2.922   2.402  14.912 -0.2832  1.0698  0.9536
 2203SOL     OW18070   2.773   2.556  10.501  0.5573  0.5990  0.8940
 2203SOL    HW118071   2.736   2.468  10.501  0.1920  0.7558  0.3349
 2203SOL    HW218072   2.692   2.607  10.503  0.5228  0.5028  1.7616
 2204SOL     OW18073   4.024   0.339   3.735  0.7473 -0.3122 -1.0605
 2204SOL    HW118074   3.953   0.276   3.730 -0.7120  1.2796 -0.6168
 2204SOL    HW218075   4.067   0.336   3.650  1.2235  0.6345 -0.8561
 2205SOL     OW18076   0.099   1.324  13.957 -0.6835  0.3396 -0.3011
 2205SOL    HW118077   0.021   1.293  13.912  0.5515 -1.2325 -1.3540
 2205SOL    HW218078   0.065   1.391  14.017  0.6112  0.2545  0.5206
 2206SOL     OW18079   0.589   1.269   4.752 -0.0203 -0.0536  0.2297
 2206SOL    HW118080   0.497   1.248   4.737  0.0284  0.5016 -0.8154
 2206SOL    HW218081   0.614   1.305   4.667  0.9763 -2.5124 -0.4990
 2207SOL     OW18082   1.095   4.331  15.401  0.3751  0.2109 -0.5555
 2207SOL    HW118083   1.067   4.364  15.487  0.8445  0.6932 -0.5898
 2207SOL    HW218084   1.055   4.244  15.410  0.8917  0.3212  2.7184
 2208SOL     OW18085   1.108   0.243  13.223  0.4044 -0.4479  0.2944
 2208SOL    HW118086   1.064   0.168  13.182 -0.7415 -0.3401  1.3002
 2208SOL    HW218087   1.173   0.263  13.156 -0.3629 -0.8128 -0.5639
 2209SOL     OW18088   1.106   4.513   6.453 -0.1962 -0.3122 -0.5534
 2209SOL    HW118089   1.018   4.511   6.416 -0.0298  1.3108 -1.0632
 2209SOL    HW218090   1.092   4.487   6.544  0.6810  0.6027 -0.1502
 2210SOL     OW18091   1.163   3.886   6.859  0.7589  0.3313 -0.0023
 2210SOL    HW118092   1.200   3.927   6.781  1.3015 -1.3411 -0.6245
 2210SOL    HW218093   1.182   3.793   6.846 -0.2347  0.1031  0.1282
 2211SOL     OW18094   1.607   3.878   6.386  0.1866 -0.5826  0.3970
 2211SOL    HW118095   1.620   3.969   6.409  0.1098  0.1460 -2.4021
 2211SOL    HW218096   1.515   3.863   6.407 -0.0752  1.8462  0.8692
 2212SOL     OW18097   4.269   1.313   9.342 -0.7743  0.1630  0.4300
 2212SOL    HW118098   4.282   1.372   9.416 -0.6011  1.3804 -0.5756
 2212SOL    HW218099   4.269   1.224   9.378  0.6558 -0.7034 -1.7313
 2213SOL     OW18100   1.910   2.679   3.001  0.0438  0.2400 -0.0505
 2213SOL    HW118101   1.921   2.757   2.947 -1.7054  0.0320 -0.7009
 2213SOL    HW218102   1.998   2.657   3.032 -0.9481 -1.1454  1.8513
 2214SOL     OW18103   2.130   3.544   1.536 -0.0761 -0.0642 -0.5585
 2214SOL    HW118104   2.076   3.615   1.502  1.8697  0.6564 -2.1496
 2214SOL    HW218105   2.218   3.574   1.513  0.2087 -0.7016 -0.2849
 2215SOL     OW18106   0.108   1.709   1.630 -0.6183 -0.4623  0.1614
 2215SOL    HW118107   0.083   1.619   1.647 -0.3030 -0.4563  0.6796
 2215SOL    HW218108   0.179   1.695   1.567 -0.2663 -0.2470  0.5041
 2216SOL     OW18109   1.327   4.268   3.502 -0.0712  0.5935 -0.4423
 2216SOL    HW118110   1.406   4.227   3.466 -1.0196 -0.6713 -1.1123
 2216SOL    HW218111   1.329   4.362   3.485  1.5736  0.6466  0.0664
 2217SOL     OW18112   1.215   3.384   5.835  0.1311  0.4673  0.5070
 2217SOL    HW118113   1.215   3.473   5.800  1.6529 -0.7884 -2.7402
 2217SOL    HW218114   1.185   3.399   5.925  0.4561  0.6032  0.5924
 2218SOL     OW18115   4.160   3.500   6.725  0.6428  0.2636 -0.4979
 2218SOL    HW118116   4.071   3.514   6.691 -0.4162 -2.0318  1.3254
 2218SOL    HW218117   4.212   3.533   6.652  1.0253  1.2756  0.2256
 2219SOL     OW18118   2.247   0.912   1.456 -0.4258  0.1956 -0.4599
 2219SOL    HW118119   2.152   0.904   1.450 -0.5825  0.3768  2.0751
 2219SOL    HW218120   2.258   0.959   1.373  1.1492  0.8626  0.1265
 2220SOL     OW18121   2.747   3.346  14.529 -0.1965 -0.0967  0.4349
 2220SOL    HW118122   2.715   3.294  14.603  2.3105 -1.0086  0.8740
 2220SOL    HW218123   2.743   3.429  14.577 -1.7167 -0.8195  1.5718
 2221SOL     OW18124   4.208   0.718   3.811  0.4751 -0.0110  0.0966
 2221SOL    HW118125   4.279   0.739   3.872  1.4186 -0.8706 -0.7141
 2221SOL    HW218126   4.156   0.796   3.831  1.3621  0.4859  0.4954
 2222SOL     OW18127   4.640   3.995  15.208  0.0576 -0.2612  0.2205
 2222SOL    HW118128   4.571   4.044  15.164 -1.1492 -0.7836  1.5474
 2222SOL    HW218129   4.592   3.944  15.273 -0.8559  0.8644  0.4249
 2223SOL     OW18130   4.036   1.968   8.936  0.2204 -0.0335 -0.4895
 2223SOL    HW118131   3.985   2.049   8.940  0.3760  0.1567 -2.3103
 2223SOL    HW218132   3.979   1.906   8.891 -0.1070 -0.0616 -0.0367
 2224SOL     OW18133   3.685   3.892   8.418 -0.6395 -0.4043 -0.4058
 2224SOL    HW118134   3.733   3.929   8.491  0.7577  1.1523 -2.1051
 2224SOL    HW218135   3.617   3.960   8.410 -0.3419 -0.2005 -1.2344
 2225SOL     OW18136   4.098   0.144   7.918 -0.2705  0.7222 -0.1376
 2225SOL    HW118137   4.171   0.198   7.950  0.3535 -0.5882  0.6287
 2225SOL    HW218138   4.040   0.216   7.893  0.7122  1.5640 -0.0188
 2226SOL     OW18139   4.436   1.199   1.323  0.3518  0.8704  0.0414
 2226SOL    HW118140   4.464   1.252   1.398  0.8640  0.6429  0.0099
 2226SOL    HW218141   4.341   1.209   1.322  0.3121  0.7019  2.9617
 2227SOL     OW18142   2.884   1.818   4.428  0.4546 -0.4926  0.5804
 2227SOL    HW118143   2.862   1.892   4.371  0.9820 -1.0216 -0.3152
 2227SOL    HW218144   2.979   1.813   4.420  0.1710 -3.2898 -1.0025
 2228SOL     OW18145   0.427   2.862   9.745 -0.3362 -0.4891 -0.0018
 2228SOL    HW118146   0.353   2.880   9.803  0.8826 -0.5461  1.5835
 2228SOL    HW218147   0.488   2.836   9.815  0.1060 -0.7596 -0.4944
 2229SOL     OW18148   0.913   3.671   8.838  0.4583 -0.1853 -0.5023
 2229SOL    HW118149   0.839   3.629   8.794  1.2935 -1.1488 -0.9901
 2229SOL    HW218150   0.931   3.591   8.889 -0.4743  0.0481  0.2064
 2230SOL     OW18151   0.279   0.426   9.483 -0.2873 -0.5080  0.4307
 2230SOL    HW118152   0.371   0.449   9.493 -0.2145  0.2297 -1.8812
 2230SOL    HW218153   0.263   0.399   9.574 -0.4776  1.2798  0.9353
 2231SOL     OW18154   1.901   2.111   7.627 -0.2573  0.1558 -0.4226
 2231SOL    HW118155   1.980   2.105   7.573  0.5008  0.0384  0.7112
 2231SOL    HW218156   1.884   2.205   7.618 -0.6939 -0.0416 -1.6913
 2232SOL     OW18157   0.665   1.504   8.709  0.1758  0.4158 -0.1976
 2232SOL    HW118158   0.716   1.571   8.755 -0.1206  0.7276 -0.3196
 2232SOL    HW218159   0.641   1.446   8.781  0.8016  0.4990  0.0816
 2233SOL     OW18160   0.536   3.648  14.052 -0.0707  0.3398  0.0734
 2233SOL    HW118161   0.455   3.694  14.029 -0.5202 -0.9009 -0.8316
 2233SOL    HW218162   0.546   3.599  13.971  1.5904  0.9936 -0.1200
 2234SOL     OW18163   2.284   3.895   3.952  0.2048  0.1877 -0.2894
 2234SOL    HW118164   2.327   3.810   3.962 -1.2714 -0.4395  0.8324
 2234SOL    HW218165   2.335   3.926   3.878  0.8818  1.1187  0.5660
 2235SOL     OW18166   1.370   4.253   3.756 -0.1777 -0.8840  0.7035
 2235SOL    HW118167   1.362   4.267   3.661 -1.8681 -1.4431  0.7546
 2235SOL    HW218168   1.359   4.343   3.785 -2.4175 -0.9812  0.1700
 2236SOL     OW18169   4.423   3.366   7.381 -0.6313  0.4927 -0.0975
 2236SOL    HW118170   4.456   3.437   7.325 -0.8579  1.7703  1.3892
 2236SOL    HW218171   4.487   3.312   7.426 -0.8348 -0.1679 -0.5979
 2237SOL     OW18172   3.872   1.395  15.590  0.7206  0.3603  0.5077
 2237SOL    HW118173   3.850   1.468  15.533 -0.3634  0.0439  0.5107
 2237SOL    HW218174   3.796   1.340  15.567  1.3168 -0.1592 -0.2230
 2238SOL     OW18175   0.606   4.249   2.621  0.7879 -0.2270 -0.4053
 2238SOL    HW118176   0.653   4.190   2.562  1.0372 -0.1789 -0.2561
 2238SOL    HW218177   0.587   4.317   2.556 -0.1628  0.3979  0.5400
 2239SOL     OW18178   1.731   0.019   3.539  0.4089 -0.5035  0.1872
 2239SOL    HW118179   1.811   4.690   3.531 -1.0665 -2.4588 -1.8558
 2239SOL    HW218180   1.742   0.061   3.454  0.2655  0.9932  0.9092
 2240SOL     OW18181   3.634   0.406   5.634 -0.3197  0.1823  0.0688
 2240SOL    HW118182   3.578   0.480   5.614 -1.6637 -0.3760  1.8065
 2240SOL    HW218183   3.692   0.444   5.700 -0.8367 -1.8468  1.7122
 2241SOL     OW18184   0.685   1.361   8.040 -0.0344  0.2249 -0.3756
 2241SOL    HW118185   0.719   1.278   8.074  2.5057  1.1193 -0.7265
 2241SOL    HW218186   0.669   1.410   8.120 -1.1767 -0.6116 -0.0922
 2242SOL     OW18187   1.094   4.027   5.425  0.1460  0.5351  0.6043
 2242SOL    HW118188   1.082   3.948   5.373  0.1358  0.5295  0.6150
 2242SOL    HW218189   1.182   4.051   5.395 -0.1158  0.3618 -0.2921
 2243SOL     OW18190   0.386   3.871  17.533 -0.6619  0.3851 -0.4698
 2243SOL    HW118191   0.325   3.902  17.600  0.8248  0.4457  0.8511
 2243SOL    HW218192   0.468   3.905  17.569  0.6988 -1.1012 -2.1707
 2244SOL     OW18193   0.125   2.121  10.434 -0.2782  0.8717  0.1589
 2244SOL    HW118194   0.136   2.177  10.510 -0.2664  1.7665 -0.5109
 2244SOL    HW218195   0.133   2.177  10.357  0.8844 -1.7383 -1.6602
 2245SOL     OW18196   2.711   2.231   8.551 -0.0409 -0.5959 -0.2027
 2245SOL    HW118197   2.720   2.287   8.474 -0.3206 -1.3326 -0.7711
 2245SOL    HW218198   2.645   2.171   8.517 -1.1115 -0.0154  0.8955
 2246SOL     OW18199   1.365   0.627   5.812  0.0205  0.8973  0.4054
 2246SOL    HW118200   1.412   0.703   5.779 -0.1253  0.6695 -0.3257
 2246SOL    HW218201   1.282   0.667   5.838  0.0736  1.3796 -0.1634
 2247SOL     OW18202   1.051   3.139  11.847 -0.4042  0.3318 -0.9481
 2247SOL    HW118203   1.087   3.195  11.778 -0.1295 -0.7192 -1.6570
 2247SOL    HW218204   1.126   3.086  11.876 -2.6273 -1.4191  1.6057
 2248SOL     OW18205   1.251   3.716  11.883  0.4046  0.4660 -0.0936
 2248SOL    HW118206   1.234   3.780  11.952 -0.2469  0.9575 -0.7135
 2248SOL    HW218207   1.165   3.712  11.842  0.3752  1.4358 -0.1390
 2249SOL     OW18208   3.290   3.446  13.002  0.4313  0.5818 -0.2015
 2249SOL    HW118209   3.245   3.498  12.935 -1.9019 -0.2895  0.7135
 2249SOL    HW218210   3.239   3.366  13.007  0.9221  0.3846  1.5891
 2250SOL     OW18211   2.293   4.686   5.561  0.2896 -0.2045  0.2068
 2250SOL    HW118212   2.362   4.622   5.578  0.2090 -0.0499  1.1250
 2250SOL    HW218213   2.336   0.032   5.511 -2.7659  1.8859  0.4078
 2251SOL     OW18214   4.072   1.518   7.949 -0.3551 -0.3355 -0.0464
 2251SOL    HW118215   4.139   1.569   7.994  1.1375 -3.4387  1.2722
 2251SOL    HW218216   4.067   1.438   8.002 -1.3529 -1.0418 -1.2128
 2252SOL     OW18217   4.319   4.579   0.158  0.4965  0.3291 -0.6288
 2252SOL    HW118218   4.272   4.655   0.122  0.1919  0.2133 -0.4709
 2252SOL    HW218219   4.311   4.595   0.252  2.3674 -1.4227 -0.1638
 2253SOL     OW18220   2.668   4.194   0.858  1.0230 -0.4614 -0.6571
 2253SOL    HW118221   2.671   4.128   0.928  0.8642 -0.4165 -0.6073
 2253SOL    HW218222   2.680   4.277   0.905 -2.1292 -0.8022  0.7236
 2254SOL     OW18223   1.868   2.267   5.664  0.0247  0.0816  0.1830
 2254SOL    HW118224   1.906   2.180   5.655 -0.5064 -0.0195 -1.0342
 2254SOL    HW218225   1.776   2.245   5.657  0.0939 -0.9543  2.5418
 2255SOL     OW18226   4.115   1.557   8.370 -0.0552 -0.4037  0.5016
 2255SOL    HW118227   4.110   1.574   8.464 -1.3738  1.9191  0.0067
 2255SOL    HW218228   4.137   1.464   8.376  0.1828 -0.5076 -2.2280
 2256SOL     OW18229   0.131   0.181  11.901  0.3569  0.4603  0.0399
 2256SOL    HW118230   0.061   0.209  11.959  0.6716 -0.9160  1.0892
 2256SOL    HW218231   0.082   0.132  11.835  1.1644 -0.6707  0.2708
 2257SOL     OW18232   2.030   3.505  17.218 -0.4029 -0.3087 -0.3410
 2257SOL    HW118233   2.048   3.485  17.310 -0.6941 -2.1197 -0.6775
 2257SOL    HW218234   2.114   3.542  17.189  0.2884 -2.1347 -0.6785
 2258SOL     OW18235   2.043   3.154   7.839 -0.1495  0.5658  0.1518
 2258SOL    HW118236   1.993   3.206   7.777  0.2482 -0.8267 -1.3285
 2258SOL    HW218237   2.079   3.227   7.889  1.3248 -1.2558  1.7733
 2259SOL     OW18238   0.556   3.670   6.266  0.1824  0.3047  0.8526
 2259SOL    HW118239   0.566   3.680   6.171 -0.3681 -0.2736  0.7333
 2259SOL    HW218240   0.462   3.651   6.272  0.2977 -0.8265 -0.8291
 2260SOL     OW18241   2.108   1.787   4.706  0.1842 -0.0873  0.3080
 2260SOL    HW118242   2.114   1.882   4.698 -0.3984 -0.0849 -0.0487
 2260SOL    HW218243   2.127   1.781   4.800  0.7431 -0.0357  0.1966
 2261SOL     OW18244   1.893   2.010   4.966 -0.5786 -0.2419 -0.7603
 2261SOL    HW118245   1.837   2.081   4.937  1.2083  1.7204  0.5547
 2261SOL    HW218246   1.979   2.052   4.975  0.0468 -1.8757  1.1582
 2262SOL     OW18247   4.170   1.607   8.625  0.1871 -0.4180 -0.4635
 2262SOL    HW118248   4.106   1.605   8.697 -0.4166 -2.3837 -1.0390
 2262SOL    HW218249   4.242   1.564   8.671 -0.5645 -1.4782 -0.2713
 2263SOL     OW18250   0.991   2.046   5.454  0.3265 -0.2954 -0.1742
 2263SOL    HW118251   0.925   2.110   5.481 -1.2443 -2.0398  0.0867
 2263SOL    HW218252   1.069   2.098   5.435  0.3331 -0.9661 -1.9420
 2264SOL     OW18253   0.280   1.305   7.552  0.7318 -0.3197 -0.5977
 2264SOL    HW118254   0.341   1.375   7.575  0.1716  0.5097 -1.6076
 2264SOL    HW218255   0.263   1.331   7.462  2.6256 -1.4098 -1.2584
 2265SOL     OW18256   2.110   1.374   3.958 -0.2636 -0.3348  0.3502
 2265SOL    HW118257   2.201   1.396   3.977 -0.0363 -0.1686 -0.9791
 2265SOL    HW218258   2.103   1.283   3.988 -1.9041 -0.1267  0.6133
 2266SOL     OW18259   0.995   0.947   3.729  0.6696  0.1573  0.2329
 2266SOL    HW118260   0.997   1.018   3.666  0.7307  1.0899  1.2861
 2266SOL    HW218261   0.954   0.885   3.669  2.0882 -2.5584  2.0342
 2267SOL     OW18262   3.339   1.096   3.874  0.6248 -0.5573  0.3623
 2267SOL    HW118263   3.346   1.171   3.933  0.8172 -1.2160  1.1723
 2267SOL    HW218264   3.327   1.018   3.929  0.0091  0.0087  1.0396
 2268SOL     OW18265   4.313   3.632   6.339 -0.0847 -0.3273  0.0852
 2268SOL    HW118266   4.302   3.567   6.409  0.4481  0.8225  1.2296
 2268SOL    HW218267   4.249   3.598   6.277 -0.3929 -1.2230  0.8884
 2269SOL     OW18268   2.912   1.305   2.477 -0.1916 -0.1159 -0.1374
 2269SOL    HW118269   2.986   1.252   2.505 -0.8586  0.0719  1.9902
 2269SOL    HW218270   2.954   1.362   2.412  0.3594  0.7102  0.9523
 2270SOL     OW18271   1.110   2.001   3.187  0.4667 -0.1653 -0.2040
 2270SOL    HW118272   1.067   2.047   3.259  1.3671 -2.7162  1.9329
 2270SOL    HW218273   1.042   1.936   3.171  1.7055 -1.7024  0.7752
 2271SOL     OW18274   4.300   0.133   6.663  0.1615 -0.2000 -0.5638
 2271SOL    HW118275   4.326   0.116   6.753  0.6087 -1.5668 -0.9414
 2271SOL    HW218276   4.262   0.046   6.648 -2.1857  0.2935  2.6607
 2272SOL     OW18277   3.386   4.616   5.991  0.1957 -0.0683  0.5904
 2272SOL    HW118278   3.450   4.687   6.001 -0.5665  0.3096  2.9045
 2272SOL    HW218279   3.318   4.635   6.056  0.2902  0.6355  0.4786
 2273SOL     OW18280   1.739   1.315   8.392  0.5010 -0.1181  0.2124
 2273SOL    HW118281   1.823   1.302   8.435  1.1597 -0.1292 -1.1050
 2273SOL    HW218282   1.701   1.390   8.439  1.2579  0.4787 -0.1312
 2274SOL     OW18283   0.956   0.273   5.441 -0.5739  0.8254  0.6477
 2274SOL    HW118284   0.891   0.219   5.397 -0.8872  1.2065  0.6532
 2274SOL    HW218285   0.992   0.201   5.493  0.6572  1.5262  0.7817
 2275SOL     OW18286   3.255   1.608  16.155  0.5198 -0.1912 -0.0347
 2275SOL    HW118287   3.257   1.627  16.248 -2.2039  1.1072 -0.2351
 2275SOL    HW218288   3.166   1.638  16.134 -0.5518 -1.3086  2.8946
 2276SOL     OW18289   0.888   3.483   7.199  0.6053 -0.2850 -0.0096
 2276SOL    HW118290   0.824   3.547   7.231  0.6275 -0.2646 -0.0071
 2276SOL    HW218291   0.899   3.509   7.108 -1.1503  1.4762  0.2812
 2277SOL     OW18292   1.200   3.971   2.989  0.1731 -0.5050  0.3484
 2277SOL    HW118293   1.230   4.040   2.931  0.0976  0.2957  1.2671
 2277SOL    HW218294   1.196   4.017   3.073 -1.8196 -2.8434  1.5740
 2278SOL     OW18295   4.491   0.266   8.962  0.3548 -0.0508  0.2949
 2278SOL    HW118296   4.544   0.329   9.011 -0.9813  1.6892 -0.4582
 2278SOL    HW218297   4.436   0.228   9.030 -1.7970  0.8343 -0.9470
 2279SOL     OW18298   1.271   3.941   4.092  0.4211  0.3428 -0.6899
 2279SOL    HW118299   1.224   3.989   4.024 -0.7480  1.2183  0.7381
 2279SOL    HW218300   1.269   4.004   4.164  0.5278 -0.6831  0.2150
 2280SOL     OW18301   1.595   1.420   5.165 -0.3219  0.0249  0.1928
 2280SOL    HW118302   1.674   1.371   5.141 -0.3321  1.6890 -3.2158
 2280SOL    HW218303   1.575   1.459   5.080  2.6309  1.7457  0.2889
 2281SOL     OW18304   0.077   2.356   7.982 -0.1227  0.0277 -0.1555
 2281SOL    HW118305   0.025   2.294   7.931  3.4176 -4.3829  1.6366
 2281SOL    HW218306   0.127   2.291   8.031  0.0360  1.3662  1.4594
 2282SOL     OW18307   0.573   4.291   8.874  0.0299 -0.2679  0.0010
 2282SOL    HW118308   0.479   4.278   8.883 -0.1683  1.0205 -0.2839
 2282SOL    HW218309   0.610   4.223   8.930 -0.7479  0.4507  1.3989
 2283SOL     OW18310   3.240   0.418   0.413  0.2118  0.7923 -0.4123
 2283SOL    HW118311   3.185   0.475   0.467 -2.7950 -1.1183 -1.4639
 2283SOL    HW218312   3.198   0.334   0.396 -0.2345  0.9343 -0.0265
 2284SOL     OW18313   1.484   4.279   4.256 -0.1038 -0.0252 -0.0832
 2284SOL    HW118314   1.469   4.296   4.163 -1.5463 -2.5836 -0.3355
 2284SOL    HW218315   1.578   4.284   4.270 -0.0544 -1.6676  0.0754
 2285SOL     OW18316   0.683   2.813   3.645 -0.0963 -0.3687  0.4961
 2285SOL    HW118317   0.703   2.891   3.593  1.1645 -2.1820 -1.6998
 2285SOL    HW218318   0.608   2.839   3.698  0.3245 -0.0643  0.9543
 2286SOL     OW18319   1.020   3.634   9.151  0.2221  0.1061  0.7871
 2286SOL    HW118320   1.008   3.550   9.107 -0.7596  2.1733 -2.8718
 2286SOL    HW218321   1.059   3.606   9.234  0.3447  1.0154  1.0339
 2287SOL     OW18322   2.863   1.623   5.500 -0.1394 -0.1793  0.2718
 2287SOL    HW118323   2.954   1.604   5.475  0.0471 -1.2783  1.7978
 2287SOL    HW218324   2.851   1.547   5.556  0.4943  1.6034  2.8113
 2288SOL     OW18325   4.606   1.234   8.773  0.0252  0.0266 -0.2349
 2288SOL    HW118326   4.642   1.300   8.832 -0.2533 -0.6368  0.6718
 2288SOL    HW218327   4.684   1.184   8.747 -0.4351 -0.4227 -0.7640
 2289SOL     OW18328   0.338   0.444   5.986  0.0546  0.0354  0.1528
 2289SOL    HW118329   0.411   0.489   5.945 -1.1419  0.0540 -1.9742
 2289SOL    HW218330   0.332   0.362   5.937  1.8223 -0.7344  1.2421
 2290SOL     OW18331   3.235   0.364   4.880  0.0742 -0.2436  0.5513
 2290SOL    HW118332   3.207   0.357   4.789  1.4088 -1.2914  0.2244
 2290SOL    HW218333   3.327   0.337   4.879 -0.5131 -2.3711  3.0938
 2291SOL     OW18334   2.602   0.670   1.429 -0.2023  0.0767 -0.2148
 2291SOL    HW118335   2.627   0.762   1.426  1.1354 -0.3123 -1.0195
 2291SOL    HW218336   2.550   0.680   1.509 -0.5296 -1.0914 -0.2730
 2292SOL     OW18337   0.564   1.221  15.935  0.4180  0.2092 -0.6735
 2292SOL    HW118338   0.604   1.248  15.852 -0.5807  0.6897 -0.9972
 2292SOL    HW218339   0.473   1.244  15.916 -0.3358 -2.9130 -0.7898
 2293SOL     OW18340   0.863   4.192   4.157  0.3736  0.0561 -0.1017
 2293SOL    HW118341   0.850   4.203   4.062 -1.8918  1.6088  0.3685
 2293SOL    HW218342   0.772   4.167   4.175  0.3524  0.4650  0.3484
 2294SOL     OW18343   0.381   2.765   9.161 -0.4835  0.3863  0.3001
 2294SOL    HW118344   0.333   2.697   9.208 -0.7650  0.3337 -0.0642
 2294SOL    HW218345   0.305   2.800   9.116 -0.7117  0.1023  0.4667
 2295SOL     OW18346   4.566   3.075   4.782 -0.3186  0.3645 -0.2042
 2295SOL    HW118347   4.559   2.983   4.805  1.9771  0.0214 -0.8214
 2295SOL    HW218348   4.492   3.112   4.829 -0.6631 -1.8586  0.9899
 2296SOL     OW18349   1.085   0.698   1.075 -0.3745  0.1888  0.4594
 2296SOL    HW118350   1.111   0.782   1.039 -1.7786  0.7478  0.7470
 2296SOL    HW218351   0.991   0.711   1.086 -0.5122 -1.5537  1.4400
 2297SOL     OW18352   1.764   0.450   7.213 -0.0897  0.0995 -0.4023
 2297SOL    HW118353   1.692   0.495   7.257  0.3851  0.6369 -0.1759
 2297SOL    HW218354   1.783   0.505   7.137  0.2019 -0.1958 -0.5457
 2298SOL     OW18355   2.513   0.121   3.454 -0.3423  0.3935  0.4137
 2298SOL    HW118356   2.555   0.073   3.382  0.3137 -0.1172  1.1345
 2298SOL    HW218357   2.484   0.047   3.507 -0.6854  0.6063  0.5164
 2299SOL     OW18358   4.115   0.909   8.056 -0.0185  0.1921 -0.1613
 2299SOL    HW118359   4.031   0.941   8.022 -0.2913 -0.2843  0.0613
 2299SOL    HW218360   4.076   0.831   8.094  1.5073 -0.2624  0.4418
 2300SOL     OW18361   3.486   3.811   6.613 -0.2585  0.2699  0.1864
 2300SOL    HW118362   3.528   3.851   6.689  0.8650 -0.6235  0.0395
 2300SOL    HW218363   3.447   3.744   6.669  0.3120  0.2958  0.6217
 2301SOL     OW18364   1.442   1.667   3.289  0.5276  0.0916 -0.4574
 2301SOL    HW118365   1.417   1.759   3.288  0.5962  0.1531  2.6094
 2301SOL    HW218366   1.463   1.637   3.200 -1.7846 -0.2205 -0.9027
 2302SOL     OW18367   4.227   0.057   4.740  0.6978 -0.8829  0.3677
 2302SOL    HW118368   4.312   0.032   4.703 -0.2173  0.1771 -2.4970
 2302SOL    HW218369   4.238   0.150   4.764 -2.2978 -0.0113 -1.6569
 2303SOL     OW18370   3.794   2.571   9.274  0.7739 -0.1319  0.4239
 2303SOL    HW118371   3.821   2.563   9.365 -0.3300  0.2678  0.7801
 2303SOL    HW218372   3.866   2.612   9.226  0.0467 -0.1866 -0.7108
 2304SOL     OW18373   3.118   1.463  15.295 -0.4990 -0.2420  0.3451
 2304SOL    HW118374   3.083   1.440  15.381 -0.7274  2.5967  1.0294
 2304SOL    HW218375   3.107   1.558  15.287  2.7112 -0.0440 -1.5163
 2305SOL     OW18376   0.928   4.042   3.776 -0.0131 -0.5790  0.1116
 2305SOL    HW118377   1.019   4.063   3.797 -0.1577 -0.7686  0.9508
 2305SOL    HW218378   0.885   4.102   3.838  1.2424  1.0295 -0.5784
 2306SOL     OW18379   0.271   2.759   6.550 -0.1555  0.0051 -0.8878
 2306SOL    HW118380   0.359   2.777   6.518 -0.1225 -0.4037 -1.0317
 2306SOL    HW218381   0.284   2.699   6.624 -0.0127  0.3292 -0.6496
 2307SOL     OW18382   1.521   4.392  16.395  0.6038  0.4264 -0.1802
 2307SOL    HW118383   1.471   4.387  16.314 -1.2307 -0.3467  0.9773
 2307SOL    HW218384   1.592   4.329  16.385  0.8775  0.9021 -1.1569
 2308SOL     OW18385   2.199   1.206   3.631  0.6016 -0.2888  0.2246
 2308SOL    HW118386   2.165   1.295   3.638 -1.3680 -0.9025 -1.5487
 2308SOL    HW218387   2.288   1.226   3.659  0.8420 -1.1245  0.0466
 2309SOL     OW18388   4.197   1.693   8.155 -0.2029 -0.5121 -0.0110
 2309SOL    HW118389   4.166   1.638   8.227 -0.8436 -0.4880 -0.2752
 2309SOL    HW218390   4.134   1.765   8.148 -1.9034 -2.0919 -0.8646
 2310SOL     OW18391   3.803   3.469   8.187 -0.0565 -0.4447 -0.4475
 2310SOL    HW118392   3.746   3.398   8.217 -0.7026  0.1961 -0.1396
 2310SOL    HW218393   3.764   3.549   8.222  3.6985 -0.1669  3.2337
 2311SOL     OW18394   2.480   0.820   3.818  0.3068  0.0289 -0.6880
 2311SOL    HW118395   2.519   0.877   3.751 -0.3870  0.6335 -0.5796
 2311SOL    HW218396   2.563   0.774   3.832 -0.1340 -0.1440  1.2539
 2312SOL     OW18397   4.433   1.625   2.971 -0.0329  0.1619  0.1975
 2312SOL    HW118398   4.354   1.620   2.916 -0.6309  0.6111  1.0157
 2312SOL    HW218399   4.396   1.592   3.053  0.1274 -0.4028  0.0395
 2313SOL     OW18400   3.910   1.711   8.269 -0.0745 -0.0590 -0.6851
 2313SOL    HW118401   3.976   1.670   8.324  0.0587  1.5042  0.3221
 2313SOL    HW218402   3.861   1.639   8.229 -0.0397 -0.2395 -0.4032
 2314SOL     OW18403   3.766   2.530  15.721 -0.4988 -0.2996 -0.0902
 2314SOL    HW118404   3.788   2.589  15.794 -0.9764  1.4670 -1.3772
 2314SOL    HW218405   3.805   2.451  15.759  0.2273 -0.2128 -0.6676
 2315SOL     OW18406   0.462   3.430   2.117 -1.2284  0.0397 -0.0602
 2315SOL    HW118407   0.396   3.408   2.052 -0.3572  0.5239 -1.1147
 2315SOL    HW218408   0.421   3.406   2.200 -2.1671  1.3372 -0.1649
 2316SOL     OW18409   1.479   2.525  11.610 -0.6534  0.0517  0.0261
 2316SOL    HW118410   1.435   2.487  11.686 -0.4065  1.0063  0.6516
 2316SOL    HW218411   1.399   2.529  11.559  1.1037 -0.3994 -2.7590
 2317SOL     OW18412   2.019   1.063   5.656 -0.2641  0.2310 -0.0727
 2317SOL    HW118413   2.014   1.044   5.750 -0.0267  0.9221  0.0836
 2317SOL    HW218414   2.084   1.001   5.625  1.0124  1.0239  1.0269
 2318SOL     OW18415   0.601   2.624   2.515  0.1703  0.1938 -0.0475
 2318SOL    HW118416   0.589   2.599   2.423  1.2275  1.1990 -0.4763
 2318SOL    HW218417   0.663   2.555   2.540  0.0030  0.7022  1.7702
 2319SOL     OW18418   3.613   3.823   5.896 -0.1601 -0.7850 -0.4072
 2319SOL    HW118419   3.632   3.911   5.865 -2.3663 -0.1305  0.1356
 2319SOL    HW218420   3.702   3.788   5.893  0.6976  1.3146  0.7489
 2320SOL     OW18421   1.941   1.110   3.079  0.5872  0.0302 -0.5124
 2320SOL    HW118422   1.910   1.169   3.011  0.2137 -0.2751 -0.6075
 2320SOL    HW218423   1.973   1.159   3.155 -0.3177  1.7062 -1.2299
 2321SOL     OW18424   1.385   2.312   2.268 -0.1939  0.4884 -0.1200
 2321SOL    HW118425   1.430   2.273   2.193  1.3877  0.7588  0.6901
 2321SOL    HW218426   1.438   2.392   2.261  0.4368  0.2070  1.5889
 2322SOL     OW18427   2.970   1.324   0.808  0.0137 -0.0694  0.2147
 2322SOL    HW118428   2.912   1.251   0.832  0.0919 -0.4082 -0.6187
 2322SOL    HW218429   3.043   1.325   0.870  0.3010  1.5163 -0.1528
 2323SOL     OW18430   3.372   3.915  16.139 -0.1652  0.8367 -0.2657
 2323SOL    HW118431   3.411   3.976  16.076  4.7888  0.0052  2.0326
 2323SOL    HW218432   3.396   3.956  16.221 -2.1021 -0.0155  0.7320
 2324SOL     OW18433   2.023   1.231   8.451  0.0901 -0.3122 -0.1517
 2324SOL    HW118434   2.077   1.221   8.529  1.3916  1.8260 -0.8117
 2324SOL    HW218435   1.984   1.143   8.450  2.5109 -1.4003  0.8490
 2325SOL     OW18436   4.642   2.408   0.512  0.5512  0.4949 -0.1014
 2325SOL    HW118437   4.700   2.335   0.488 -1.1717 -0.6940 -0.6800
 2325SOL    HW218438   4.593   2.426   0.432 -0.0080 -2.4347 -0.4260
 2326SOL     OW18439   1.999   1.961   3.682  0.1520  0.1316  0.2860
 2326SOL    HW118440   2.061   2.016   3.729 -1.1268  0.5511  1.4602
 2326SOL    HW218441   2.020   1.993   3.594  0.8135  0.1696  0.4573
 2327SOL     OW18442   1.207   2.423   3.980  0.0546  0.5368 -0.6913
 2327SOL    HW118443   1.133   2.439   4.038  0.8033  0.6256  0.2403
 2327SOL    HW218444   1.196   2.495   3.918  1.9112  0.3805 -1.2011
 2328SOL     OW18445   0.259   2.386   0.427 -0.0653 -0.1157  0.5784
 2328SOL    HW118446   0.326   2.403   0.361  1.3767 -3.1577  1.2464
 2328SOL    HW218447   0.201   2.462   0.423  1.1740  0.8332  0.8788
 2329SOL     OW18448   0.136   3.505   8.386 -0.5734 -0.0632  0.3651
 2329SOL    HW118449   0.106   3.591   8.416 -0.1284  0.5060 -0.8202
 2329SOL    HW218450   0.210   3.487   8.444 -0.5406 -1.5044 -0.1124
 2330SOL     OW18451   1.769   1.895  15.990  0.4359 -0.7450  0.5289
 2330SOL    HW118452   1.851   1.881  16.037  0.2123  1.6388  1.6214
 2330SOL    HW218453   1.798   1.952  15.918  0.9141 -1.1354  0.4160
 2331SOL     OW18454   0.286   3.677   3.534  0.6523  0.3964 -0.3751
 2331SOL    HW118455   0.262   3.740   3.602 -0.2687 -0.8841  0.4999
 2331SOL    HW218456   0.260   3.595   3.576  1.3545  0.3435 -0.0486
 2332SOL     OW18457   2.789   0.433   6.547 -0.2365 -0.0601 -0.0353
 2332SOL    HW118458   2.745   0.409   6.465  1.2198  3.2475 -1.8211
 2332SOL    HW218459   2.876   0.431   6.508 -0.2876  0.5256 -0.1837
 2333SOL     OW18460   3.984   4.250   4.729 -0.4847  0.1444  0.4513
 2333SOL    HW118461   3.906   4.213   4.772 -1.2420 -0.7214 -1.6317
 2333SOL    HW218462   4.049   4.209   4.786 -1.5708  0.3786  1.8661
 2334SOL     OW18463   1.065   1.072   6.839  0.1354 -0.1374 -0.2843
 2334SOL    HW118464   1.113   1.011   6.894  2.1927  1.2934 -0.4977
 2334SOL    HW218465   1.086   1.033   6.754  0.0934  1.1425 -0.8885
 2335SOL     OW18466   3.590   2.855   8.121  0.3950  0.1398  0.2322
 2335SOL    HW118467   3.573   2.946   8.145  2.1181  1.2880 -2.9561
 2335SOL    HW218468   3.571   2.867   8.028  0.6564  0.0209  0.1632
 2336SOL     OW18469   0.910   1.393   6.378 -0.2134 -0.1083 -0.6526
 2336SOL    HW118470   0.947   1.397   6.290  0.1942  2.4804 -0.3664
 2336SOL    HW218471   0.826   1.437   6.370 -1.5869 -2.9358 -1.9791
 2337SOL     OW18472   1.286   0.952   1.404  0.0391  0.2671  0.0840
 2337SOL    HW118473   1.335   1.032   1.421  1.1230  0.2901 -3.2712
 2337SOL    HW218474   1.362   0.900   1.376  0.2039 -0.1446  1.2635
 2338SOL     OW18475   2.974   1.306  12.972  0.5682  0.2133 -0.4888
 2338SOL    HW118476   3.055   1.267  12.938 -1.2575 -2.5634 -1.6955
 2338SOL    HW218477   2.956   1.246  13.044  1.8843  0.8668  0.3810
 2339SOL     OW18478   0.043   0.619   4.838 -0.0973 -0.0427 -0.3870
 2339SOL    HW118479   0.084   0.704   4.854  0.1465 -0.4515  1.2217
 2339SOL    HW218480   0.027   0.621   4.744  0.1225 -0.7019 -0.4435
 2340SOL     OW18481   2.417   1.831   2.814  0.2677 -0.3798 -0.1260
 2340SOL    HW118482   2.480   1.767   2.781 -0.2077 -1.0572  0.2837
 2340SOL    HW218483   2.367   1.847   2.734  0.9100 -0.7813 -0.6053
 2341SOL     OW18484   0.698   1.115   2.824 -0.3105 -0.0907  0.7983
 2341SOL    HW118485   0.619   1.107   2.770 -1.6331  0.3503  2.6724
 2341SOL    HW218486   0.709   1.026   2.858  1.3449 -0.1909 -0.0079
 2342SOL     OW18487   1.843   1.668   1.891 -0.3068 -0.3993  0.0609
 2342SOL    HW118488   1.859   1.582   1.854  0.9495  0.0614 -0.4417
 2342SOL    HW218489   1.844   1.652   1.985  1.8726  1.2755  0.3114
 2343SOL     OW18490   3.337   0.154  10.099  0.6364 -0.2595  0.0045
 2343SOL    HW118491   3.333   0.248  10.119 -0.4884 -0.1406 -0.8063
 2343SOL    HW218492   3.397   0.120  10.165 -0.2416 -0.4332  0.7104
 2344SOL     OW18493   2.081   3.872  15.035  0.3926  0.2740 -0.0070
 2344SOL    HW118494   2.026   3.923  14.976 -1.3232 -1.3972  0.1623
 2344SOL    HW218495   2.173   3.892  15.017  0.5764 -0.6220 -0.0746
 2345SOL     OW18496   1.310   0.423  10.330  0.1805 -0.0030 -0.6185
 2345SOL    HW118497   1.291   0.474  10.409  0.2500  0.7502 -1.0838
 2345SOL    HW218498   1.346   0.342  10.365 -0.9675 -0.0685  0.4368
 2346SOL     OW18499   4.588   1.822   6.887 -0.7315 -0.2203 -0.9073
 2346SOL    HW118500   4.623   1.749   6.937 -1.9695 -0.5719 -0.5572
 2346SOL    HW218501   4.494   1.807   6.877 -0.4148 -1.6532 -1.7448
 2347SOL     OW18502   0.621   4.089   1.023  0.0555  0.1604  0.0862
 2347SOL    HW118503   0.635   4.182   1.041 -0.5559  0.4951 -1.1533
 2347SOL    HW218504   0.712   4.058   1.023  0.4037  1.2038  2.4047
 2348SOL     OW18505   2.653   0.940   1.440  0.2213 -0.3401  0.2811
 2348SOL    HW118506   2.727   0.997   1.462  1.2985 -2.0555  1.0524
 2348SOL    HW218507   2.591   0.991   1.388  0.8608  0.7441  0.5914
 2349SOL     OW18508   2.131   3.156  14.180 -0.2978  0.8363 -0.8409
 2349SOL    HW118509   2.116   3.121  14.093 -2.1946 -1.4399  0.4025
 2349SOL    HW218510   2.189   3.232  14.171  1.2001  0.0957  2.4773
 2350SOL     OW18511   4.646   2.819   0.406 -0.4581  0.4057  0.2248
 2350SOL    HW118512   4.585   2.870   0.458  1.8965  2.2242  1.2228
 2350SOL    HW218513   4.700   2.792   0.480 -0.4629 -1.5305 -0.4573
 2351SOL     OW18514   2.624   0.401  17.155 -0.3285 -0.6185  0.6255
 2351SOL    HW118515   2.604   0.479  17.103 -0.5919 -0.4903  0.9201
 2351SOL    HW218516   2.533   0.377  17.174 -0.6568 -1.0162 -1.4648
 2352SOL     OW18517   0.146   4.378  13.917 -0.4854  0.6299 -0.1654
 2352SOL    HW118518   0.213   4.333  13.969 -0.0570  1.8286  0.3063
 2352SOL    HW218519   0.200   4.443  13.871 -0.5217  0.9691  0.2748
 2353SOL     OW18520   4.034   0.430   4.895 -0.5855 -0.3583  0.1271
 2353SOL    HW118521   3.969   0.385   4.842 -0.5274 -0.8979  0.5136
 2353SOL    HW218522   3.996   0.426   4.983 -0.8349  1.2046  0.0892
 2354SOL     OW18523   2.181   0.019  17.566 -0.1268  0.1856 -0.1241
 2354SOL    HW118524   2.163   4.721  17.475  0.5203 -0.0808 -0.1851
 2354SOL    HW218525   2.195   4.652  17.592 -1.1006 -0.3378 -1.4606
 2355SOL     OW18526   1.065   2.203  14.952 -0.3204 -0.1220 -0.3537
 2355SOL    HW118527   1.113   2.281  14.979 -3.1865  1.0337  1.4604
 2355SOL    HW218528   0.988   2.206  15.009  0.1709  0.4218  0.2877
 2356SOL     OW18529   2.713   2.580   3.904 -0.1261 -0.0534 -0.0968
 2356SOL    HW118530   2.694   2.622   3.988 -1.7791 -1.7007  0.3471
 2356SOL    HW218531   2.745   2.649   3.846  0.8038  0.2201  0.7367
 2357SOL     OW18532   3.528   2.470  10.129  0.5236  0.4152  0.1270
 2357SOL    HW118533   3.482   2.534  10.184  1.5777  1.1958  0.1087
 2357SOL    HW218534   3.614   2.506  10.106 -0.0020  1.6925  0.1155
 2358SOL     OW18535   3.359   3.475   8.746  0.1085  0.0753 -0.6462
 2358SOL    HW118536   3.369   3.437   8.833  0.0644 -1.5412 -1.3487
 2358SOL    HW218537   3.267   3.453   8.729  0.7455 -1.0363 -2.5944
 2359SOL     OW18538   0.311   2.139  16.880 -0.0878  0.4309  0.3850
 2359SOL    HW118539   0.247   2.143  16.809 -0.1006  1.4692  0.4456
 2359SOL    HW218540   0.306   2.060  16.933  0.5758  0.2580  0.1864
 2360SOL     OW18541   3.575   4.708   6.438 -0.0948  0.3584 -0.1269
 2360SOL    HW118542   3.631   4.685   6.512  1.2322  1.1543 -0.8934
 2360SOL    HW218543   3.618   0.064   6.409  0.5659  0.4219  1.0327
 2361SOL     OW18544   2.719   1.424   3.417  0.5446  0.2142  0.3353
 2361SOL    HW118545   2.630   1.391   3.424  0.7513 -0.3766  0.1953
 2361SOL    HW218546   2.710   1.517   3.436  0.0395 -0.1393  1.8296
 2362SOL     OW18547   1.938   3.602  14.167 -0.0056  0.5588  0.3684
 2362SOL    HW118548   1.929   3.687  14.124  0.2932  0.6834  0.5568
 2362SOL    HW218549   1.917   3.625  14.258 -1.9608 -1.2182  0.3792
 2363SOL     OW18550   2.673   2.703   0.158 -0.2659  1.2001 -0.2892
 2363SOL    HW118551   2.589   2.719   0.202  0.5183 -1.3069  2.1190
 2363SOL    HW218552   2.687   2.613   0.186  0.1067  0.8251 -1.6757
 2364SOL     OW18553   1.945   3.603  13.524  0.6594  0.5729 -0.0790
 2364SOL    HW118554   1.895   3.644  13.454  0.6509 -0.4539 -0.6716
 2364SOL    HW218555   2.035   3.613  13.495  0.2509 -1.2729 -1.9481
 2365SOL     OW18556   4.195   1.999   1.058  0.1837 -0.0066 -0.1844
 2365SOL    HW118557   4.170   2.074   1.004  1.6764  2.0925  2.1240
 2365SOL    HW218558   4.288   2.013   1.073 -0.1113  0.2783  1.3246
 2366SOL     OW18559   2.419   3.963   0.874  0.0773  0.0877  0.0848
 2366SOL    HW118560   2.370   3.967   0.791 -0.9602 -0.4512  0.6712
 2366SOL    HW218561   2.505   3.941   0.839 -0.3077 -0.5937 -0.4500
 2367SOL     OW18562   2.424   2.681   7.007  0.1566  0.0685  0.0829
 2367SOL    HW118563   2.330   2.702   7.006 -0.1223 -1.1716  0.2335
 2367SOL    HW218564   2.414   2.597   7.052  2.1768 -0.7710 -1.0565
 2368SOL     OW18565   2.976   1.849   1.613 -0.3071 -0.0549  0.0445
 2368SOL    HW118566   2.881   1.856   1.626 -0.3401  0.9122 -0.6627
 2368SOL    HW218567   2.999   1.864   1.705  1.4597  0.1480 -0.4274
 2369SOL     OW18568   2.700   2.873  16.562 -0.3862  0.2421  0.4452
 2369SOL    HW118569   2.671   2.878  16.653 -0.3202  2.2043  0.3600
 2369SOL    HW218570   2.795   2.868  16.568 -0.4280  1.0056  1.6448
 2370SOL     OW18571   1.880   1.341   3.558  0.4191  0.5410  0.5885
 2370SOL    HW118572   1.855   1.425   3.595  0.3798 -0.1962  2.2519
 2370SOL    HW218573   1.922   1.292   3.629 -0.2927 -0.6511  0.1984
 2371SOL     OW18574   2.707   1.884   1.670 -0.5175  0.7356 -0.0556
 2371SOL    HW118575   2.675   1.807   1.622 -0.3127 -0.3071  1.4997
 2371SOL    HW218576   2.687   1.954   1.607  1.0092  2.1888  1.0870
 2372SOL     OW18577   2.332   3.116   8.506 -0.5556 -0.1826  0.0892
 2372SOL    HW118578   2.369   3.200   8.534 -0.2164 -0.4933  0.5691
 2372SOL    HW218579   2.322   3.077   8.592  0.8253 -0.2012  0.2395
 2373SOL     OW18580   1.063   2.611  11.585  0.2777  0.8004 -0.2221
 2373SOL    HW118581   1.128   2.658  11.534 -1.0906  2.1530 -0.7466
 2373SOL    HW218582   1.053   2.659  11.667 -0.9480 -0.2943  0.2723
 2374SOL     OW18583   0.988   3.388   8.977  0.0955 -0.5300  0.2919
 2374SOL    HW118584   1.080   3.411   8.988  0.6412 -1.1212 -2.9943
 2374SOL    HW218585   0.977   3.324   9.047  0.1494 -0.8591 -0.0017
 2375SOL     OW18586   0.651   4.222   8.064  0.1237  0.1724 -0.1346
 2375SOL    HW118587   0.661   4.228   7.969  0.4414 -2.6057 -0.2823
 2375SOL    HW218588   0.604   4.303   8.083  0.4847  1.0081 -2.8551
 2376SOL     OW18589   1.970   2.824  15.311 -0.2874 -0.6610  0.0194
 2376SOL    HW118590   1.881   2.789  15.319 -0.5835 -0.1866 -1.0470
 2376SOL    HW218591   2.004   2.808  15.398 -1.0913  0.3305  0.5183
 2377SOL     OW18592   1.630   4.291   6.919 -0.2856  0.2545  0.1631
 2377SOL    HW118593   1.561   4.347   6.953 -1.4995 -1.6992  0.8961
 2377SOL    HW218594   1.705   4.339   6.955  0.1548  0.7557 -1.4266
 2378SOL     OW18595   4.579   3.387   6.046  0.6175  0.5260  0.0445
 2378SOL    HW118596   4.631   3.395   5.966 -1.5589  2.7456 -1.1736
 2378SOL    HW218597   4.540   3.471   6.072 -0.9233 -0.8050  1.9849
 2379SOL     OW18598   2.810   2.299   2.612  0.4964 -0.0987  0.1622
 2379SOL    HW118599   2.890   2.323   2.566  0.9428  0.2007  1.0920
 2379SOL    HW218600   2.783   2.224   2.560 -0.9432  0.6169 -0.1275
 2380SOL     OW18601   1.817   0.253  10.879 -0.8161  0.8351  0.7100
 2380SOL    HW118602   1.747   0.188  10.884 -1.7439  1.7991  0.4052
 2380SOL    HW218603   1.804   0.285  10.790  3.6858  0.2809 -0.1137
 2381SOL     OW18604   2.899   2.408   5.912  0.2357  0.4067 -0.1117
 2381SOL    HW118605   2.943   2.393   5.995  0.6864  3.4958  0.2359
 2381SOL    HW218606   2.836   2.476   5.938  1.6961  1.5048  0.5761
 2382SOL     OW18607   1.497   0.999   7.650 -0.2181  0.0744 -0.3833
 2382SOL    HW118608   1.529   0.911   7.665  1.1360  0.7624  0.8216
 2382SOL    HW218609   1.423   1.005   7.711 -0.6187  2.5558 -1.1011
 2383SOL     OW18610   0.998   0.989   8.411 -0.0299  0.0478  0.1145
 2383SOL    HW118611   0.981   1.009   8.503  0.4715  2.8781 -0.3928
 2383SOL    HW218612   1.064   0.920   8.416 -1.2974 -1.2972 -2.0616
 2384SOL     OW18613   1.843   3.529   4.325  0.0927  0.5491 -0.3144
 2384SOL    HW118614   1.856   3.535   4.420  1.4543 -0.5824 -0.4388
 2384SOL    HW218615   1.801   3.615   4.314  1.8726  1.4768  0.2289
 2385SOL     OW18616   2.042   3.790  16.632 -0.1993  0.0068  0.1791
 2385SOL    HW118617   1.999   3.719  16.584 -1.1339 -0.1392  1.2326
 2385SOL    HW218618   2.121   3.802  16.579 -0.1906  0.0751  0.2080
 2386SOL     OW18619   4.539   2.634  15.748 -0.1925 -0.0287 -0.0814
 2386SOL    HW118620   4.499   2.706  15.797  0.3301 -0.0604  0.3870
 2386SOL    HW218621   4.486   2.564  15.786  0.8939  0.3992  2.2120
 2387SOL     OW18622   3.364   0.658   6.718  0.3126  0.2086  0.0938
 2387SOL    HW118623   3.398   0.580   6.674  0.3866  0.0995  0.3424
 2387SOL    HW218624   3.272   0.653   6.691  0.1999  0.1029  0.5029
 2388SOL     OW18625   3.264   4.272  15.511  0.8308  0.2176  0.4699
 2388SOL    HW118626   3.239   4.285  15.419  1.5795 -0.5130  0.1589
 2388SOL    HW218627   3.303   4.184  15.504 -1.0174 -0.6304  0.9565
 2389SOL     OW18628   1.917   3.751   8.083 -0.1656 -0.6684  0.1130
 2389SOL    HW118629   1.924   3.656   8.087  0.3779 -0.5182  2.8215
 2389SOL    HW218630   1.922   3.766   8.177 -0.4339 -1.6807  0.2873
 2390SOL     OW18631   3.438   0.600  15.529  0.3025 -0.3176 -0.2056
 2390SOL    HW118632   3.488   0.660  15.584 -0.8063  1.0303 -0.6577
 2390SOL    HW218633   3.356   0.649  15.533 -0.1037 -1.0962  1.3547
 2391SOL     OW18634   1.826   1.816   6.447 -0.7272  0.0670 -0.0463
 2391SOL    HW118635   1.829   1.756   6.522  1.4377  1.0633  0.6470
 2391SOL    HW218636   1.739   1.794   6.415  0.0818 -1.9255 -0.8879
 2392SOL     OW18637   2.565   0.690   7.402 -0.3809  0.2436  0.1004
 2392SOL    HW118638   2.649   0.728   7.426  0.6949 -2.6892  0.9376
 2392SOL    HW218639   2.501   0.754   7.432  0.4409  0.9139  0.4178
 2393SOL     OW18640   1.215   2.749   4.813 -0.2313 -0.1410  0.2214
 2393SOL    HW118641   1.183   2.782   4.897  1.7562  1.2266  0.4392
 2393SOL    HW218642   1.277   2.683   4.844  0.6490  1.3606  1.6428
 2394SOL     OW18643   0.625   3.357  16.997  0.3305 -0.2719  0.1078
 2394SOL    HW118644   0.645   3.264  17.010 -2.3037 -1.0755 -1.6586
 2394SOL    HW218645   0.705   3.402  16.969 -0.1151 -0.5949 -1.7193
 2395SOL     OW18646   1.045   2.044  11.040  0.3917  0.9299 -0.1807
 2395SOL    HW118647   1.057   2.138  11.026 -0.7731  0.9140 -1.3359
 2395SOL    HW218648   1.131   2.010  11.063  0.3809  1.2035  0.2518
 2396SOL     OW18649   4.393   1.145   5.858 -0.2018 -0.0913  0.5006
 2396SOL    HW118650   4.309   1.115   5.822 -0.7739 -0.7965  2.4014
 2396SOL    HW218651   4.384   1.240   5.851 -1.5810 -0.3466 -1.1426
 2397SOL     OW18652   2.169   2.932   4.786 -0.1994 -0.3162  0.5228
 2397SOL    HW118653   2.241   2.949   4.726 -0.8179 -0.0002 -0.1214
 2397SOL    HW218654   2.094   2.955   4.731  1.1215  0.7231 -0.8302
 2398SOL     OW18655   0.235   3.472   8.000  0.6088 -0.6399  0.7760
 2398SOL    HW118656   0.293   3.489   7.925 -0.9391  0.0648 -0.2770
 2398SOL    HW218657   0.269   3.546   8.050  0.8537  0.8994 -1.6220
 2399SOL     OW18658   1.955   1.909  15.195 -0.8313  0.0333 -0.1262
 2399SOL    HW118659   1.961   1.816  15.174  0.0714 -0.4455  2.2577
 2399SOL    HW218660   1.942   1.906  15.290  0.4289 -1.1214  0.0088
 2400SOL     OW18661   4.594   2.900  15.307 -0.0353  0.3867 -0.1673
 2400SOL    HW118662   4.599   2.893  15.212  0.5430  0.3784 -0.1360
 2400SOL    HW218663   4.585   2.995  15.304  2.0436  0.6194  0.9885
 2401SOL     OW18664   2.623   0.947   2.936  0.4755 -0.1821  0.7328
 2401SOL    HW118665   2.707   0.965   2.894  0.0242 -1.3719 -0.6771
 2401SOL    HW218666   2.573   0.890   2.877 -0.8380  1.0627  0.6564
 2402SOL     OW18667   1.282   3.856   7.423 -0.1777 -0.3705  0.2428
 2402SOL    HW118668   1.268   3.944   7.458 -0.0745  0.5836 -2.0810
 2402SOL    HW218669   1.198   3.810   7.425 -0.3772  0.0451  1.3981
 2403SOL     OW18670   1.283   0.668   7.077 -0.6079  0.3089 -0.9638
 2403SOL    HW118671   1.353   0.690   7.139 -0.7797 -1.8326 -0.0128
 2403SOL    HW218672   1.228   0.608   7.127  0.2278 -0.9727 -1.5786
 2404SOL     OW18673   3.506   3.222   0.233  0.0240 -0.6958 -0.1653
 2404SOL    HW118674   3.590   3.195   0.196  1.3627  1.6037  1.1833
 2404SOL    HW218675   3.455   3.141   0.228 -0.5338 -0.2949 -0.8415
 2405SOL     OW18676   0.806   0.976  12.216 -0.1903  0.2078 -0.1503
 2405SOL    HW118677   0.897   0.976  12.187  1.5373  0.9958  5.1385
 2405SOL    HW218678   0.800   0.895  12.267  2.6330 -0.9261 -1.6319
 2406SOL     OW18679   2.830   4.465   7.832 -0.2013 -0.2223 -0.2568
 2406SOL    HW118680   2.761   4.438   7.892 -0.9509  2.4451  0.0751
 2406SOL    HW218681   2.790   4.504   7.754  0.4554 -0.3025 -0.6350
 2407SOL     OW18682   2.174   0.398   5.313 -0.5218 -0.2455 -0.3124
 2407SOL    HW118683   2.171   0.384   5.408  0.8104 -0.3361 -0.2891
 2407SOL    HW218684   2.264   0.372   5.292 -0.1678  1.7956 -1.3593
 2408SOL     OW18685   2.257   2.485   4.147  0.4162 -0.0944 -0.3675
 2408SOL    HW118686   2.235   2.402   4.189  2.2798  0.2026  1.1410
 2408SOL    HW218687   2.228   2.459   4.059  0.2779  0.7050 -0.5651
 2409SOL     OW18688   0.401   2.879   5.966 -0.2397 -0.4409 -0.3536
 2409SOL    HW118689   0.388   2.973   5.984 -2.4016 -1.2053  2.0887
 2409SOL    HW218690   0.489   2.858   5.998 -1.1095 -1.2731  1.5276
 2410SOL     OW18691   3.755   4.178   1.189 -0.3360 -0.0929 -0.7498
 2410SOL    HW118692   3.778   4.267   1.216  1.0376 -0.1517 -1.7569
 2410SOL    HW218693   3.660   4.191   1.200 -0.0446 -0.3483  2.1762
 2411SOL     OW18694   1.707   3.674   5.976  0.1630  0.2023  0.1522
 2411SOL    HW118695   1.622   3.632   5.963  0.8233 -0.3559 -2.2844
 2411SOL    HW218696   1.761   3.647   5.902 -1.1514 -3.3808  0.4816
 2412SOL     OW18697   1.043   3.734   7.426 -0.2268  0.2837 -0.4001
 2412SOL    HW118698   0.989   3.684   7.488 -2.5506  2.6774 -0.5155
 2412SOL    HW218699   1.061   3.658   7.370  0.6669 -0.6541  1.1566
 2413SOL     OW18700   3.865   3.052  12.836  0.0485 -0.9666  0.1803
 2413SOL    HW118701   3.796   2.989  12.854 -0.3286 -0.0866  1.8038
 2413SOL    HW218702   3.822   3.123  12.787 -0.7888 -0.5423  1.5178
 2414SOL     OW18703   1.170   3.421  11.107 -0.1617  0.0203  0.1480
 2414SOL    HW118704   1.196   3.484  11.175 -0.1712 -0.4546  0.5964
 2414SOL    HW218705   1.240   3.356  11.117  0.0649  0.1902 -0.3484
 2415SOL     OW18706   0.843   0.106   3.275  0.5218  0.0049 -0.2861
 2415SOL    HW118707   0.755   0.143   3.276  0.7910  0.6514 -0.1114
 2415SOL    HW218708   0.826   0.012   3.272  0.0358  0.0568  0.9249
 2416SOL     OW18709   2.910   4.023   8.819  0.1839  0.2800  0.0882
 2416SOL    HW118710   2.981   4.087   8.807 -0.0145  0.8536  2.0266
 2416SOL    HW218711   2.953   3.942   8.793 -0.3489 -0.1738  0.6318
 2417SOL     OW18712   4.673   4.027   2.588  0.2051 -0.1602 -0.4161
 2417SOL    HW118713   0.023   4.006   2.645  0.4463  0.3666 -0.5370
 2417SOL    HW218714   4.719   4.104   2.557 -0.4795  1.5344  2.7543
 2418SOL     OW18715   0.958   2.200  12.075 -0.4982 -0.1085 -0.1852
 2418SOL    HW118716   0.973   2.212  11.981  0.1178  0.8767  0.0442
 2418SOL    HW218717   0.867   2.170  12.074 -0.2952 -0.8542  2.8055
 2419SOL     OW18718   1.222   2.504   6.749  0.1548 -0.2705  0.3568
 2419SOL    HW118719   1.217   2.410   6.764  1.6655 -0.2434  0.9960
 2419SOL    HW218720   1.183   2.518   6.662  1.0838  0.3685  0.0466
 2420SOL     OW18721   0.097   0.628   8.587  0.0633  0.0105  0.3909
 2420SOL    HW118722   0.043   0.677   8.525 -0.6414  0.1710  1.1397
 2420SOL    HW218723   0.122   0.551   8.536  0.8122  0.7434 -0.3640
 2421SOL     OW18724   2.538   0.522   3.736  0.2657 -0.3481  0.2250
 2421SOL    HW118725   2.494   0.459   3.679 -0.4078 -0.0277  0.3965
 2421SOL    HW218726   2.469   0.586   3.753  1.2700  0.8503 -0.2404
 2422SOL     OW18727   2.564   3.615   3.880  0.0933  0.4717 -0.2749
 2422SOL    HW118728   2.650   3.610   3.922 -0.0698  1.7033  0.2010
 2422SOL    HW218729   2.584   3.656   3.795  2.2581 -1.2998 -0.6129
 2423SOL     OW18730   2.301   0.824   3.244 -0.3573  0.2030 -0.1336
 2423SOL    HW118731   2.249   0.888   3.293  0.7321  2.0510 -1.3735
 2423SOL    HW218732   2.300   0.869   3.159  3.6113  1.3449  0.4158
 2424SOL     OW18733   4.299   4.528  16.585  0.3262 -0.2625  0.6121
 2424SOL    HW118734   4.279   4.449  16.533  1.5738  1.0872 -1.9391
 2424SOL    HW218735   4.301   4.598  16.519 -2.4511  0.3757  1.2077
 2425SOL     OW18736   1.609   0.814  14.358 -0.6640  0.1358 -0.7053
 2425SOL    HW118737   1.536   0.779  14.409 -0.6561 -1.1565 -1.5735
 2425SOL    HW218738   1.662   0.848  14.430 -0.7963  0.3677 -0.7180
 2426SOL     OW18739   3.645   0.932   8.031 -0.1596 -0.2139  0.0889
 2426SOL    HW118740   3.629   0.897   7.943  1.1681  1.0486 -0.6406
 2426SOL    HW218741   3.604   0.863   8.084  1.0402 -0.4344  0.7317
 2427SOL     OW18742   3.334   0.009   8.495 -0.0501  0.2284  0.7492
 2427SOL    HW118743   3.258   0.062   8.474  0.5926  1.1944  0.8634
 2427SOL    HW218744   3.376   0.007   8.409 -0.3756  0.9702  0.5765
 2428SOL     OW18745   2.527   4.025   0.565  0.6771 -0.0539 -0.6258
 2428SOL    HW118746   2.432   4.025   0.554  0.8989 -0.8194 -2.5113
 2428SOL    HW218747   2.541   3.933   0.543 -0.5429 -0.1326 -1.1092
 2429SOL     OW18748   3.516   0.770   3.946 -0.1849 -0.5388 -0.5434
 2429SOL    HW118749   3.527   0.830   3.872 -0.5374  0.8518  0.5505
 2429SOL    HW218750   3.473   0.695   3.904 -3.2054 -0.3769  2.1904
 2430SOL     OW18751   1.727   0.450   4.337 -0.1577 -0.2226  0.4646
 2430SOL    HW118752   1.813   0.493   4.340  0.6740 -1.6876 -1.9116
 2430SOL    HW218753   1.750   0.367   4.377 -2.1332 -1.0586 -0.1643
 2431SOL     OW18754   1.904   2.204   8.893 -0.0158  0.3594 -0.4262
 2431SOL    HW118755   1.822   2.250   8.911  0.0676  0.5513 -0.5233
 2431SOL    HW218756   1.888   2.116   8.926 -0.4987  1.1955  1.5686
 2432SOL     OW18757   4.162   0.086   5.250 -0.2983  0.2774 -0.0703
 2432SOL    HW118758   4.093   0.054   5.309 -1.6883 -1.2041 -2.5040
 2432SOL    HW218759   4.116   0.066   5.169  0.2367 -0.3688 -0.2197
 2433SOL     OW18760   2.666   2.128   1.533  0.5952  0.1511  0.1613
 2433SOL    HW118761   2.760   2.113   1.546  0.3219 -2.9514 -1.5131
 2433SOL    HW218762   2.658   2.132   1.438  0.9435 -0.7789  0.0977
 2434SOL     OW18763   1.615   2.609   4.204  0.5106 -0.3443 -0.1921
 2434SOL    HW118764   1.686   2.617   4.268 -0.4057 -0.5757  0.8615
 2434SOL    HW218765   1.661   2.622   4.121  1.0331 -0.4004  0.0903
 2435SOL     OW18766   2.857   4.113   4.947 -0.4806  0.2604  0.4223
 2435SOL    HW118767   2.902   4.133   5.030 -0.7719  2.2405  0.1049
 2435SOL    HW218768   2.928   4.134   4.887 -1.4446  2.8378  0.1998
 2436SOL     OW18769   0.894   3.193   7.464 -0.2834  0.1126  0.1786
 2436SOL    HW118770   0.877   3.212   7.556  0.5655 -1.7001  0.7017
 2436SOL    HW218771   0.963   3.128   7.479 -0.1780 -0.0775 -1.1580
 2437SOL     OW18772   4.193   2.452  16.522  0.1508 -0.1388 -0.0905
 2437SOL    HW118773   4.173   2.489  16.436 -0.7535  2.9943  1.4672
 2437SOL    HW218774   4.287   2.460  16.534  0.4296 -1.8403 -1.1802
 2438SOL     OW18775   3.515   1.698   5.779 -0.6037  0.0999 -0.4705
 2438SOL    HW118776   3.596   1.745   5.762 -0.4936  0.2736  0.5818
 2438SOL    HW218777   3.544   1.612   5.811 -0.2694  0.5364  0.3874
 2439SOL     OW18778   1.264   2.778   5.323 -0.5509  0.3566  0.4453
 2439SOL    HW118779   1.252   2.872   5.337 -0.3945 -0.1414  4.0327
 2439SOL    HW218780   1.350   2.768   5.365 -0.4063  0.2594  0.1247
 2440SOL     OW18781   2.712   4.155   7.912 -0.3822 -0.2604  0.1960
 2440SOL    HW118782   2.777   4.190   7.852 -1.3309 -1.9402 -1.7865
 2440SOL    HW218783   2.629   4.178   7.869  0.1010 -0.4722 -0.8167
 2441SOL     OW18784   1.288   3.850  10.776 -0.5757  0.5251 -0.1460
 2441SOL    HW118785   1.210   3.843  10.722 -0.7867 -0.6646  0.2920
 2441SOL    HW218786   1.257   3.893  10.856  0.2427  3.4714 -1.4325
 2442SOL     OW18787   4.540   4.549   9.226  0.2243  0.2178  0.2125
 2442SOL    HW118788   4.589   4.621   9.186 -0.9961  1.4819  1.0217
 2442SOL    HW218789   4.612   4.497   9.262  1.1721  0.4205 -1.3514
 2443SOL     OW18790   0.992   2.979  10.212 -0.8776 -0.0540 -0.0561
 2443SOL    HW118791   0.954   2.980  10.124  0.3570  2.4200 -0.5572
 2443SOL    HW218792   1.086   2.976  10.199 -0.5455  0.6908  2.1180
 2444SOL     OW18793   3.246   1.944   3.267  0.0749 -0.0715 -0.0076
 2444SOL    HW118794   3.290   2.029   3.265 -0.0967  0.0480  1.3356
 2444SOL    HW218795   3.158   1.975   3.244 -1.3000 -3.8191  0.1845
 2445SOL     OW18796   0.047   2.615   2.863 -0.3983 -0.4175  0.3820
 2445SOL    HW118797   0.014   2.654   2.782  0.7072  0.1719  0.2138
 2445SOL    HW218798   4.709   2.642   2.932 -0.3703  1.0914 -0.1761
 2446SOL     OW18799   2.566   2.730  10.529  0.7008 -0.1145  0.1873
 2446SOL    HW118800   2.518   2.717  10.447 -0.2133  1.2541  0.5175
 2446SOL    HW218801   2.492   2.752  10.585 -0.6388 -3.0039 -0.4174
 2447SOL     OW18802   2.017   2.369   2.948  0.3245 -0.7709  0.2865
 2447SOL    HW118803   1.950   2.372   2.880  1.9683  3.1193 -1.1276
 2447SOL    HW218804   1.965   2.413   3.016  2.9369  0.9870  1.1295
 2448SOL     OW18805   2.839   0.082   5.767  0.6360 -0.9677 -0.4075
 2448SOL    HW118806   2.759   0.030   5.754 -0.4147  0.5527 -0.0738
 2448SOL    HW218807   2.836   0.148   5.697  0.8298 -1.5408 -0.9526
 2449SOL     OW18808   4.623   2.649   3.093 -0.3282 -0.3696 -0.1134
 2449SOL    HW118809   4.552   2.586   3.102  1.2295 -2.1571 -0.3610
 2449SOL    HW218810   4.628   2.682   3.183 -1.1813  2.6618 -1.1726
 2450SOL     OW18811   3.093   1.426   6.858 -0.1171  0.3765 -0.4748
 2450SOL    HW118812   3.119   1.425   6.950  0.1553  0.7319 -0.5517
 2450SOL    HW218813   3.139   1.349   6.824 -2.4088 -0.3270 -2.0167
 2451SOL     OW18814   0.531   4.651   5.928  0.3317  0.1225 -0.0507
 2451SOL    HW118815   0.609   4.612   5.969  1.4493  2.2036 -0.1581
 2451SOL    HW218816   0.463   4.642   5.995  0.0730 -1.5976 -0.5596
 2452SOL     OW18817   0.170   2.581   4.424 -0.6070  0.3896  0.3959
 2452SOL    HW118818   0.227   2.558   4.350 -0.6325  0.3172  0.3996
 2452SOL    HW218819   0.223   2.577   4.503 -0.7526 -2.8281  0.3225
 2453SOL     OW18820   1.979   4.200   8.231  0.1500  0.4920 -0.1715
 2453SOL    HW118821   1.997   4.257   8.156  1.1644 -0.0377 -0.3342
 2453SOL    HW218822   1.915   4.247   8.284  0.1732  0.2349  0.0845
 2454SOL     OW18823   1.976   0.892   2.092 -0.2683 -0.2948  0.2919
 2454SOL    HW118824   2.056   0.942   2.077 -0.5425 -0.1333 -0.6107
 2454SOL    HW218825   2.013   0.837   2.161  0.2635  1.1669  1.1671
 2455SOL     OW18826   4.190   2.895  16.673  0.2404  0.0737 -0.4321
 2455SOL    HW118827   4.168   2.977  16.716 -3.2647 -1.2847  0.3655
 2455SOL    HW218828   4.213   2.928  16.586  2.2012  1.3887  0.6051
 2456SOL     OW18829   3.931   0.264  17.134  0.4769 -0.2561 -0.7261
 2456SOL    HW118830   3.883   0.218  17.202 -0.9987  1.6748 -0.4947
 2456SOL    HW218831   3.936   0.355  17.161 -1.8640 -0.3843  0.0764
 2457SOL     OW18832   3.061   0.085  14.757  0.0135 -0.1563  0.4816
 2457SOL    HW118833   3.046   0.090  14.662  1.3614 -1.2970  0.2057
 2457SOL    HW218834   3.141   0.033  14.761  0.0492 -0.0177  1.4472
 2458SOL     OW18835   1.862   2.865   1.072  0.0880  0.2736 -0.3549
 2458SOL    HW118836   1.901   2.930   1.130 -0.1577  1.7868 -1.9093
 2458SOL    HW218837   1.787   2.912   1.035 -1.9794  0.5150  4.1944
 2459SOL     OW18838   1.436   3.266   8.028  0.2355 -0.3784  0.0143
 2459SOL    HW118839   1.444   3.188   8.082  0.2107 -0.8641 -0.6730
 2459SOL    HW218840   1.353   3.237   7.989 -0.1963 -0.9630  1.3864
 2460SOL     OW18841   2.259   1.532   8.915 -0.4769 -0.1987  0.5132
 2460SOL    HW118842   2.216   1.498   8.994  0.3957  0.0209  1.0743
 2460SOL    HW218843   2.207   1.496   8.843 -0.0380  0.4389 -0.1188
 2461SOL     OW18844   0.542   2.218   8.169 -0.6709  0.1691 -0.1338
 2461SOL    HW118845   0.503   2.243   8.254  0.0471 -0.8013  0.4815
 2461SOL    HW218846   0.499   2.135   8.148 -1.8047  0.3838  1.3478
 2462SOL     OW18847   4.300   2.134   2.808  0.4551 -0.0894  0.2903
 2462SOL    HW118848   4.339   2.209   2.763  2.3642 -0.0767  1.9713
 2462SOL    HW218849   4.267   2.184   2.882  0.3063  1.4000 -0.7818
 2463SOL     OW18850   3.110   1.330   8.205  0.1788 -0.1225 -0.4887
 2463SOL    HW118851   3.037   1.303   8.261  1.0319 -0.6793  0.3705
 2463SOL    HW218852   3.062   1.383   8.142  0.6531  0.1472 -0.6212
 2464SOL     OW18853   3.294   1.777   3.502 -0.7328  0.1088  0.4976
 2464SOL    HW118854   3.329   1.834   3.570 -0.7516  1.9518 -1.0330
 2464SOL    HW218855   3.277   1.834   3.426 -0.0073  0.6449  0.7465
 2465SOL     OW18856   1.203   2.626   8.904  0.4041  0.0117 -0.1582
 2465SOL    HW118857   1.196   2.675   8.986  0.6095 -0.6412  0.2443
 2465SOL    HW218858   1.181   2.701   8.848 -2.2865  1.0448  2.2760
 2466SOL     OW18859   3.726   3.251   5.394  0.8418  0.1596 -0.6058
 2466SOL    HW118860   3.805   3.202   5.373  2.0012  1.6191  0.3261
 2466SOL    HW218861   3.761   3.318   5.453 -1.6786  0.7072  0.2495
 2467SOL     OW18862   3.522   0.598  12.285 -0.4299 -0.0537 -0.0325
 2467SOL    HW118863   3.558   0.683  12.259 -2.7668  0.6383 -1.0544
 2467SOL    HW218864   3.600   0.553  12.315  0.9623  1.1922 -1.7917
 2468SOL     OW18865   0.254   3.094   4.111  0.1120  0.0602 -0.4186
 2468SOL    HW118866   0.215   3.180   4.124  1.2894  0.5357 -0.0184
 2468SOL    HW218867   0.337   3.116   4.154 -0.5040 -1.8045  1.7217
 2469SOL     OW18868   0.542   1.604  16.675  0.4003 -0.0704 -0.0723
 2469SOL    HW118869   0.617   1.647  16.715  1.6797 -2.1341 -0.2689
 2469SOL    HW218870   0.501   1.570  16.755 -2.2927  2.5302 -0.3409
 2470SOL     OW18871   1.962   0.589   3.254  0.0015  0.1838  0.2821
 2470SOL    HW118872   1.928   0.516   3.203 -1.7414  1.1994 -0.0374
 2470SOL    HW218873   1.968   0.654   3.184 -0.3251 -1.5424 -1.3395
 2471SOL     OW18874   1.878   1.214  15.327  0.1690 -0.3395  0.1877
 2471SOL    HW118875   1.841   1.132  15.361 -1.9877  0.5943  0.1033
 2471SOL    HW218876   1.955   1.183  15.279 -0.3218 -1.4653  0.1147
 2472SOL     OW18877   2.859   0.608   1.620  0.0609  0.7879 -0.1964
 2472SOL    HW118878   2.954   0.603   1.605  0.0145  0.2263 -0.3127
 2472SOL    HW218879   2.844   0.702   1.625 -1.4126  0.4962  0.7970
 2473SOL     OW18880   3.466   2.617  13.216 -0.7409  0.0565  0.6214
 2473SOL    HW118881   3.488   2.608  13.309 -0.7882  0.0868  0.6357
 2473SOL    HW218882   3.531   2.683  13.195 -0.9058  0.4174  1.2328
 2474SOL     OW18883   2.971   3.254   9.079 -0.1908  0.2206  0.0418
 2474SOL    HW118884   2.977   3.268   9.173  0.3667 -2.6756  0.4529
 2474SOL    HW218885   3.011   3.167   9.075 -0.1218  0.3289 -1.6322
 2475SOL     OW18886   1.582   2.958   4.893  0.4094 -0.0847 -0.9715
 2475SOL    HW118887   1.550   2.881   4.844 -0.9067  0.8639 -1.5986
 2475SOL    HW218888   1.646   2.921   4.954 -1.3748 -1.5014  0.0631
 2476SOL     OW18889   4.083   0.363  15.143 -0.1060 -0.1163  0.1810
 2476SOL    HW118890   4.120   0.448  15.168 -1.5524  0.3854  0.6407
 2476SOL    HW218891   4.090   0.325  15.230 -1.0556 -0.4682  0.1074
 2477SOL     OW18892   2.292   1.529   8.550  0.4599 -0.8320  0.2192
 2477SOL    HW118893   2.232   1.486   8.612 -1.0418 -1.4123 -1.6152
 2477SOL    HW218894   2.246   1.607   8.520  0.7288 -0.5550  0.5419
 2478SOL     OW18895   4.329   1.029   0.770  0.1715  0.5567 -0.7451
 2478SOL    HW118896   4.396   1.056   0.833  0.3203 -1.2178 -0.1315
 2478SOL    HW218897   4.364   0.942   0.748 -0.4770 -0.0277  0.5128
 2479SOL     OW18898   0.503   0.005   3.068  0.1649 -0.4797  0.3880
 2479SOL    HW118899   0.531   0.091   3.100 -3.5895  0.5731  0.8057
 2479SOL    HW218900   0.466   0.025   2.983  0.7724 -0.5663  0.1042
 2480SOL     OW18901   2.282   2.457  13.515  0.7344 -0.1185 -0.0410
 2480SOL    HW118902   2.337   2.456  13.437 -1.1017  2.8824 -1.3838
 2480SOL    HW218903   2.217   2.518  13.478  0.2807 -0.8490 -0.4563
 2481SOL     OW18904   4.450   2.937   5.488 -0.3680 -0.0300  0.0679
 2481SOL    HW118905   4.416   3.023   5.513 -2.5098 -0.3094 -1.8614
 2481SOL    HW218906   4.391   2.907   5.419 -0.5820  1.4799 -0.4126
 2482SOL     OW18907   0.859   3.966  15.658  0.2675  0.0691  0.1109
 2482SOL    HW118908   0.824   4.055  15.654  1.1058  0.2726 -2.5534
 2482SOL    HW218909   0.949   3.976  15.627 -0.7589  2.6714 -2.0468
 2483SOL     OW18910   2.326   0.104   8.776 -0.2699  0.3305 -0.1316
 2483SOL    HW118911   2.275   0.057   8.842  2.2423 -0.5204  1.2193
 2483SOL    HW218912   2.295   0.060   8.697 -0.5233  0.0007  0.1536
 2484SOL     OW18913   0.968   2.592   5.844  0.2674 -0.1731 -0.6369
 2484SOL    HW118914   0.939   2.617   5.931  1.0881  2.0329 -1.0006
 2484SOL    HW218915   0.890   2.590   5.789  0.4441  2.7700 -0.9932
 2485SOL     OW18916   1.018   1.381   8.037 -0.1125 -0.1248 -0.1096
 2485SOL    HW118917   0.985   1.450   8.095  0.9032  1.8002 -1.8171
 2485SOL    HW218918   0.993   1.303   8.086 -2.2140  0.4297 -0.2610
 2486SOL     OW18919   3.646   4.161  17.032 -0.5727  0.6081  0.0112
 2486SOL    HW118920   3.576   4.183  17.094  2.0480 -0.6852  3.4689
 2486SOL    HW218921   3.690   4.098  17.089 -1.8945 -1.1586 -0.9222
 2487SOL     OW18922   0.376   4.371   6.995  0.4662  0.5374  0.7862
 2487SOL    HW118923   0.329   4.399   6.917 -0.9388 -2.2921  0.6552
 2487SOL    HW218924   0.301   4.331   7.039 -2.1190  2.6594 -1.6757
 2488SOL     OW18925   1.536   2.168   8.327  0.6602  0.0200 -0.0208
 2488SOL    HW118926   1.458   2.119   8.351 -0.2322  1.7281  0.5330
 2488SOL    HW218927   1.542   2.231   8.399  0.9834 -0.7021  0.5816
 2489SOL     OW18928   3.848   1.791   9.545  0.7975  0.4577 -0.0712
 2489SOL    HW118929   3.869   1.814   9.455  1.7773  0.5924  0.1868
 2489SOL    HW218930   3.763   1.749   9.532 -0.8666  2.7171  3.3788
 2490SOL     OW18931   1.941   0.864   3.445  0.2952  0.1482 -0.0710
 2490SOL    HW118932   1.875   0.924   3.480  0.0160  1.3833 -2.7299
 2490SOL    HW218933   1.909   0.793   3.501  2.2237 -0.6586  0.0286
 2491SOL     OW18934   2.725   0.535   6.036  0.0713  0.1129  0.0174
 2491SOL    HW118935   2.729   0.484   5.955  0.9309  2.1433 -1.2272
 2491SOL    HW218936   2.690   0.614   5.995  0.9709  1.0590  1.0541
 2492SOL     OW18937   3.256   3.406   4.433 -0.0982 -0.6633  0.1703
 2492SOL    HW118938   3.177   3.435   4.478  1.7282  0.7396  2.4986
 2492SOL    HW218939   3.298   3.492   4.427  1.3319 -1.3922 -0.4096
 2493SOL     OW18940   3.952   4.095   8.201  0.0641  0.4344  0.6380
 2493SOL    HW118941   3.914   4.178   8.172 -1.2038  0.1469  1.5071
 2493SOL    HW218942   4.043   4.124   8.208  0.5428 -0.4813 -1.8771
 2494SOL     OW18943   3.426   1.937  15.978  0.0867  0.1143 -0.7030
 2494SOL    HW118944   3.459   1.955  15.891  1.6940 -0.3030 -0.1674
 2494SOL    HW218945   3.337   1.913  15.951  0.0358  0.9462 -1.2879
 2495SOL     OW18946   2.651   3.458  17.529 -0.0416 -0.5836  0.1363
 2495SOL    HW118947   2.669   3.525  17.595  0.4113 -0.6789  0.1095
 2495SOL    HW218948   2.671   3.513  17.453  0.2130 -1.8980 -0.7420
 2496SOL     OW18949   2.944   3.923  14.617  0.1028 -0.0621 -0.7800
 2496SOL    HW118950   2.919   3.903  14.707  0.9868 -1.9729 -0.9647
 2496SOL    HW218951   3.006   3.857  14.588 -0.6820 -1.2983  0.3423
 2497SOL     OW18952   0.837   2.991   3.445  0.7101  0.2676  0.2363
 2497SOL    HW118953   0.923   3.003   3.405 -0.9246  1.1412 -3.0637
 2497SOL    HW218954   0.809   2.910   3.402 -0.5673  1.4380 -1.1365
 2498SOL     OW18955   3.928   2.528   4.762  0.1576  0.2018  0.0800
 2498SOL    HW118956   3.932   2.519   4.858  1.9395  0.6654  0.0659
 2498SOL    HW218957   3.991   2.462   4.734 -0.8177  0.0108 -1.6302
 2499SOL     OW18958   1.579   4.115   3.552 -0.2387  0.0525  0.0833
 2499SOL    HW118959   1.615   4.202   3.566 -0.2375  0.2062 -0.8372
 2499SOL    HW218960   1.611   4.069   3.629 -0.9572 -1.7077 -0.6714
 2500SOL     OW18961   4.698   2.237   8.257  0.1727  0.2996 -0.6427
 2500SOL    HW118962   0.056   2.286   8.261  1.0245 -1.3357  1.8309
 2500SOL    HW218963   4.722   2.147   8.279 -0.1456  0.5938  0.9003
 2501SOL     OW18964   2.996   0.625  10.945 -0.3768  0.1064  0.2141
 2501SOL    HW118965   2.988   0.569  11.022 -1.5580  0.4518  0.3346
 2501SOL    HW218966   2.990   0.564  10.871 -1.3621  0.5407 -0.0641
 2502SOL     OW18967   0.125   1.346   4.850  0.0189  0.1315  0.1268
 2502SOL    HW118968   0.069   1.412   4.810 -0.1511  0.8555  1.5949
 2502SOL    HW218969   0.186   1.409   4.889 -2.0701  0.7354  2.3690
 2503SOL     OW18970   4.447   3.304   6.305  0.0362 -0.1903  0.3008
 2503SOL    HW118971   4.482   3.229   6.353 -2.0404  0.2493  2.4594
 2503SOL    HW218972   4.502   3.310   6.227  0.7245 -0.6880  0.7450
 2504SOL     OW18973   2.523   4.320  10.308  0.0178 -0.0663  0.4719
 2504SOL    HW118974   2.594   4.322  10.372 -0.8757  1.0993  1.4381
 2504SOL    HW218975   2.447   4.343  10.363 -0.8058 -1.9818  0.1133
 2505SOL     OW18976   0.718   0.127  10.920 -0.1387 -0.2510 -0.1345
 2505SOL    HW118977   0.740   0.034  10.917 -3.0311 -1.0113  2.4675
 2505SOL    HW218978   0.627   0.130  10.892 -0.2832  0.4513  0.4321
 2506SOL     OW18979   0.274   4.527  11.758 -0.6013 -0.5802  0.5376
 2506SOL    HW118980   0.191   4.480  11.758 -0.8921 -0.0789 -0.1245
 2506SOL    HW218981   0.302   4.506  11.669  2.4059 -0.1951  1.3914
 2507SOL     OW18982   1.688   4.169  16.319 -0.2454 -0.3155  0.4246
 2507SOL    HW118983   1.674   4.178  16.225  0.4533  0.6295  0.4160
 2507SOL    HW218984   1.770   4.122  16.330 -0.8312 -1.6958 -1.2785
 2508SOL     OW18985   0.232   2.553  15.888  0.3292  0.4656  0.4707
 2508SOL    HW118986   0.151   2.506  15.905 -1.3470  2.3925 -2.2341
 2508SOL    HW218987   0.300   2.486  15.899 -0.0690  0.0493  0.4132
 2509SOL     OW18988   2.878   3.305   6.336  0.7251  0.0139  0.2340
 2509SOL    HW118989   2.922   3.388   6.358  0.0098  0.5642 -0.4270
 2509SOL    HW218990   2.934   3.233   6.365  3.0895  1.2015 -1.4052
 2510SOL     OW18991   1.428   3.942  16.695  0.1427  0.2640 -0.4312
 2510SOL    HW118992   1.423   3.994  16.614  1.1635 -0.0865 -0.7184
 2510SOL    HW218993   1.375   3.867  16.669 -1.3356  2.1308 -2.8356
 2511SOL     OW18994   0.798   0.467  10.871 -0.0927  0.4236  0.4977
 2511SOL    HW118995   0.718   0.451  10.921  0.3982  0.4269  1.2960
 2511SOL    HW218996   0.757   0.514  10.799  1.8269  1.5430  0.1514
 2512SOL     OW18997   2.692   3.344  13.929 -0.0064  0.4397  0.9259
 2512SOL    HW118998   2.633   3.370  13.859 -0.2655  1.2441  1.4446
 2512SOL    HW218999   2.709   3.431  13.966 -0.3513  1.3191 -1.0080
 2513SOL     OW19000   3.952   2.044   6.593 -0.2771  0.6580  0.7456
 2513SOL    HW119001   3.987   2.078   6.511  2.6686  0.8202  2.0684
 2513SOL    HW219002   3.905   2.117   6.633 -1.1893  1.6989 -2.2563
 2514SOL     OW19003   3.989   3.837   7.228 -0.6381  0.5994 -0.8234
 2514SOL    HW119004   4.075   3.842   7.270 -0.2424 -2.9684 -1.2547
 2514SOL    HW219005   3.958   3.926   7.245 -0.7978  0.6378 -1.3351
 2515SOL     OW19006   1.607   1.258   4.409  0.2656  0.6680 -0.7830
 2515SOL    HW119007   1.516   1.275   4.386 -0.1646 -0.9458 -0.2585
 2515SOL    HW219008   1.614   1.300   4.495  2.1767 -0.2426 -0.4866
 2516SOL     OW19009   0.867   3.778   3.719 -1.0395  0.2304  0.2479
 2516SOL    HW119010   0.903   3.863   3.745  0.6609 -0.7071  1.0192
 2516SOL    HW219011   0.913   3.772   3.636 -1.0231 -0.7954  0.3292
 2517SOL     OW19012   0.192   2.399   5.464  0.2384 -0.1452  0.3908
 2517SOL    HW119013   0.124   2.352   5.416 -0.8691 -2.0954  3.8851
 2517SOL    HW219014   0.253   2.423   5.395  0.2400 -0.9651  0.1025
 2518SOL     OW19015   0.105   4.265   3.764  0.6220  0.0039 -0.4515
 2518SOL    HW119016   0.076   4.206   3.694  1.4637 -0.0162 -0.7861
 2518SOL    HW219017   0.198   4.273   3.741  0.5693  0.3675 -0.5290
 2519SOL     OW19018   4.104   4.351  16.170  0.0331 -0.0887 -0.0460
 2519SOL    HW119019   4.149   4.435  16.181 -2.2638  0.8587  2.3179
 2519SOL    HW219020   4.086   4.351  16.076  1.0608  2.4129 -0.2353
 2520SOL     OW19021   1.717   3.346   4.180 -0.4506 -0.1891  0.4684
 2520SOL    HW119022   1.780   3.412   4.210 -0.8137  0.5564 -0.4400
 2520SOL    HW219023   1.642   3.402   4.163 -0.5853  0.0026  1.6894
 2521SOL     OW19024   1.713   2.623   7.058 -0.5917  0.2423 -0.3373
 2521SOL    HW119025   1.652   2.696   7.072  1.0754  1.1611  2.1588
 2521SOL    HW219026   1.654   2.553   7.085 -0.9093  0.1291 -1.3298
 2522SOL     OW19027   0.456   0.649   9.694 -0.2630  0.2820 -0.7040
 2522SOL    HW119028   0.463   0.653   9.790  2.3046  1.2355 -0.9457
 2522SOL    HW219029   0.456   0.554   9.684  2.9336  0.1701  0.4734
 2523SOL     OW19030   2.512   2.725   0.356 -0.3125 -0.5375  0.1636
 2523SOL    HW119031   2.509   2.809   0.400  1.2492  0.1472 -1.0297
 2523SOL    HW219032   2.554   2.671   0.424 -2.8158 -0.2785  1.9040
 2524SOL     OW19033   0.079   1.020   0.873  0.3644  0.2834  0.1042
 2524SOL    HW119034   0.073   1.063   0.788 -2.1177 -0.8061 -0.2680
 2524SOL    HW219035   0.001   1.052   0.919  0.8470 -1.0229  1.8663
 2525SOL     OW19036   4.241   1.942   9.120 -0.6062 -0.0510 -0.3381
 2525SOL    HW119037   4.165   1.958   9.064 -0.2222 -1.1306 -1.1675
 2525SOL    HW219038   4.270   1.857   9.087 -1.4949  0.0879 -1.5052
 2526SOL     OW19039   3.857   2.794   8.579  0.2535  1.2119  0.3863
 2526SOL    HW119040   3.795   2.769   8.648 -0.0320  0.8762  0.0063
 2526SOL    HW219041   3.929   2.826   8.633 -0.8416  1.7703  1.5144
 2527SOL     OW19042   1.265   0.046   6.119 -0.0979  0.4166 -0.5550
 2527SOL    HW119043   1.357   0.024   6.135 -0.2378  0.5894  0.4924
 2527SOL    HW219044   1.260   0.046   6.024  1.9762 -0.0916 -0.6662
 2528SOL     OW19045   4.505   1.828   1.671 -0.6622  0.1612 -0.0268
 2528SOL    HW119046   4.558   1.815   1.749  1.0651  0.1756 -1.1829
 2528SOL    HW219047   4.437   1.885   1.707 -0.2017  0.7871 -0.1637
 2529SOL     OW19048   0.578   2.037   5.379 -0.1068  0.1275  0.7881
 2529SOL    HW119049   0.498   2.084   5.353 -0.1443 -0.1806  0.3361
 2529SOL    HW219050   0.619   2.110   5.425 -1.2284  1.2382  0.0323
 2530SOL     OW19051   0.171   1.664   1.352  0.6610 -0.9753 -0.1418
 2530SOL    HW119052   0.125   1.641   1.271  1.7098 -2.0375 -0.4424
 2530SOL    HW219053   0.181   1.577   1.391  0.5553 -0.6471  0.6057
 2531SOL     OW19054   2.800   0.838   7.462  0.5291 -0.2669 -0.3223
 2531SOL    HW119055   2.840   0.854   7.377  0.3913  1.2453 -0.1045
 2531SOL    HW219056   2.878   0.814   7.513  1.0799 -0.8750 -1.4536
 2532SOL     OW19057   0.487   1.653   9.386 -0.4664  0.4202  0.1006
 2532SOL    HW119058   0.455   1.665   9.476  1.9478 -2.0303  1.2910
 2532SOL    HW219059   0.468   1.737   9.344 -1.0206  1.5146  2.5367
 2533SOL     OW19060   2.508   3.173   2.153  0.1081 -0.0048 -0.2522
 2533SOL    HW119061   2.417   3.197   2.133  0.5144  1.1407 -0.7314
 2533SOL    HW219062   2.546   3.183   2.066  1.1705  1.0319  0.3314
 2534SOL     OW19063   1.035   4.291  11.964  0.3771 -0.1842  0.4745
 2534SOL    HW119064   1.106   4.336  12.011  0.4676  1.3541 -1.1230
 2534SOL    HW219065   1.000   4.368  11.919  0.5124  0.1116  0.8696
 2535SOL     OW19066   2.126   3.257   5.173 -0.2070 -0.4081 -0.4690
 2535SOL    HW119067   2.119   3.163   5.156  0.8804 -0.2056 -1.9474
 2535SOL    HW219068   2.119   3.288   5.083 -0.5653  2.4897  0.5561
 2536SOL     OW19069   3.567   0.860  12.218 -0.7731 -0.1728  0.6292
 2536SOL    HW119070   3.552   0.952  12.195  0.1433  0.2236  1.6331
 2536SOL    HW219071   3.643   0.868  12.275 -0.2330 -0.7156 -0.0232
 2537SOL     OW19072   0.363   1.150   5.239 -0.3610 -0.0282  0.2272
 2537SOL    HW119073   0.414   1.203   5.301  2.0083  0.9099 -2.4989
 2537SOL    HW219074   0.398   1.066   5.269 -2.9500 -0.4114  2.1782
 2538SOL     OW19075   0.216   2.413  10.437  0.0781 -0.0498 -0.2795
 2538SOL    HW119076   0.178   2.474  10.374 -0.8624 -0.9923 -0.6237
 2538SOL    HW219077   0.307   2.441  10.424  0.2605 -1.0294 -1.0345
 2539SOL     OW19078   2.925   0.326  17.036  0.7581  0.3524  0.1517
 2539SOL    HW119079   2.889   0.256  17.090  1.0919  0.4551  0.5044
 2539SOL    HW219080   3.019   0.314  17.047  0.4278 -0.9052  1.4990
 2540SOL     OW19081   1.203   0.088   0.409 -0.2825 -0.0807  0.8924
 2540SOL    HW119082   1.190   0.160   0.346  0.3025 -0.1101  0.7361
 2540SOL    HW219083   1.299   0.083   0.405 -0.4106 -0.8256 -1.7750
 2541SOL     OW19084   3.572   3.837   6.345 -0.7536 -0.0927  0.6038
 2541SOL    HW119085   3.521   3.845   6.425  0.1616 -1.0637  1.2831
 2541SOL    HW219086   3.647   3.791   6.383  0.1283 -0.3574 -1.4240
 2542SOL     OW19087   0.278   4.641   5.768 -0.4280  0.1958  0.3731
 2542SOL    HW119088   0.368   4.647   5.800 -0.1460  0.9704 -0.5541
 2542SOL    HW219089   0.228   4.669   5.844 -0.2047  1.1776  0.1537
 2543SOL     OW19090   2.736   1.875   7.312 -0.1417 -0.4381  0.2508
 2543SOL    HW119091   2.676   1.803   7.328 -0.6518  0.3854  1.9448
 2543SOL    HW219092   2.764   1.860   7.221 -0.1125 -2.8986  0.6717
 2544SOL     OW19093   2.792   2.112   0.076  0.1310  0.6350  0.1116
 2544SOL    HW119094   2.784   2.051   0.003  1.0725  1.4560 -0.6769
 2544SOL    HW219095   2.738   2.065   0.140  2.5215 -1.1883  0.7683
 2545SOL     OW19096   3.167   4.130   2.324 -0.1281 -0.1606 -0.0392
 2545SOL    HW119097   3.111   4.190   2.275  1.5489  1.8370  0.4905
 2545SOL    HW219098   3.101   4.108   2.390  0.7798 -0.2631  0.8473
 2546SOL     OW19099   2.242   2.080   5.981 -0.2072  0.0683 -0.3714
 2546SOL    HW119100   2.163   2.133   5.966  1.2536  2.5499  0.7065
 2546SOL    HW219101   2.267   2.100   6.071 -0.3747  2.2589 -0.8150
 2547SOL     OW19102   2.767   3.042   4.125  0.8196  0.5499 -0.0388
 2547SOL    HW119103   2.767   2.966   4.067  1.7254  0.1452  0.4782
 2547SOL    HW219104   2.834   3.008   4.184 -0.5866  1.4430  2.0982
 2548SOL     OW19105   3.969   3.435  16.986  0.0310 -0.5087  0.3463
 2548SOL    HW119106   4.007   3.367  17.042  0.2636 -0.7067 -0.0531
 2548SOL    HW219107   3.884   3.393  16.970  0.8778 -1.4619 -1.5402
 2549SOL     OW19108   2.198   1.927   6.682  0.2351  0.5143  0.0154
 2549SOL    HW119109   2.159   1.901   6.598 -0.2423 -1.3778  0.8253
 2549SOL    HW219110   2.209   1.845   6.730  0.8093  1.9891  2.4072
 2550SOL     OW19111   3.565   2.522   5.659  0.0775  0.0070 -0.2336
 2550SOL    HW119112   3.642   2.467   5.675 -1.3985 -1.6286  1.2780
 2550SOL    HW219113   3.580   2.597   5.715 -0.8120 -0.9045  1.2196
 2551SOL     OW19114   4.527   1.759   4.911 -0.7780 -0.3797  0.6386
 2551SOL    HW119115   4.608   1.807   4.895 -1.3391 -0.0966 -1.3045
 2551SOL    HW219116   4.551   1.713   4.992 -0.2480 -2.4333 -0.6947
 2552SOL     OW19117   3.492   3.967  10.228  0.0514 -0.1805  0.0512
 2552SOL    HW119118   3.499   4.057  10.259 -0.5813  0.6964 -2.3355
 2552SOL    HW219119   3.404   3.930  10.238 -0.5884  1.2380 -0.3001
 2553SOL     OW19120   4.138   3.360   4.834  0.3325 -0.0466  0.3658
 2553SOL    HW119121   4.176   3.273   4.838  0.5500  0.1184  1.9990
 2553SOL    HW219122   4.113   3.374   4.925 -0.1609 -0.3682  0.2828
 2554SOL     OW19123   2.775   4.223  10.777 -0.3171 -0.0493  0.2690
 2554SOL    HW119124   2.842   4.290  10.765 -0.6524  0.6414  2.2016
 2554SOL    HW219125   2.752   4.240  10.869  0.0698  4.1536 -0.4352
 2555SOL     OW19126   4.104   4.653   7.347  0.1574 -0.4834  0.6579
 2555SOL    HW119127   4.019   4.697   7.349 -0.2949 -1.3251  0.2325
 2555SOL    HW219128   4.154   0.002   7.311  2.0284 -1.6408  0.8951
 2556SOL     OW19129   2.587   2.830   5.938  0.2059  0.4594 -0.0614
 2556SOL    HW119130   2.510   2.886   5.935  0.5280  0.9830  1.5790
 2556SOL    HW219131   2.639   2.890   5.992 -0.3284 -0.0675  1.0447
 2557SOL     OW19132   2.531   4.143  10.095  0.0027 -0.0280  0.3562
 2557SOL    HW119133   2.548   4.207  10.165  1.4508  0.5210 -0.5130
 2557SOL    HW219134   2.502   4.208  10.031 -1.4471 -1.4020 -0.3642
 2558SOL     OW19135   3.199   2.426   5.132  0.3051 -0.7094 -0.2864
 2558SOL    HW119136   3.290   2.457   5.127  0.5527 -1.3211  0.3831
 2558SOL    HW219137   3.161   2.459   5.051  3.2063  1.9461 -0.5971
 2559SOL     OW19138   2.977   4.357   2.294  0.2606  0.3775  0.9902
 2559SOL    HW119139   3.019   4.367   2.209  1.2961  1.0428  1.5738
 2559SOL    HW219140   2.888   4.351   2.260  0.1707 -0.1694  1.3100
 2560SOL     OW19141   2.682   2.092   1.212 -0.4338  0.6295 -0.4454
 2560SOL    HW119142   2.605   2.145   1.234 -0.5222 -0.2223  1.3552
 2560SOL    HW219143   2.663   2.052   1.127 -1.2687  0.3364 -0.1252
 2561SOL     OW19144   0.543   0.200   1.377 -0.1541  0.2290  0.4445
 2561SOL    HW119145   0.509   0.124   1.424 -0.9249  0.1096 -0.2955
 2561SOL    HW219146   0.489   0.268   1.417  0.3227 -0.9208  3.0342
 2562SOL     OW19147   1.987   2.257   4.437 -0.1740 -0.1292 -0.7020
 2562SOL    HW119148   1.899   2.256   4.400 -1.0447 -0.8640  1.4063
 2562SOL    HW219149   1.964   2.228   4.525 -2.0409 -0.8781 -1.4563
 2563SOL     OW19150   0.432   1.066   9.175 -0.0515 -0.8720  0.1055
 2563SOL    HW119151   0.411   1.154   9.143 -1.5187 -0.7917  1.3099
 2563SOL    HW219152   0.524   1.064   9.148  0.1025 -1.2775  0.6721
 2564SOL     OW19153   2.980   4.134   9.591  0.0894  0.3007  0.2667
 2564SOL    HW119154   2.990   4.044   9.624  1.3395 -0.8857 -3.3200
 2564SOL    HW219155   2.905   4.171   9.639  0.4405 -0.8759  1.7357
 2565SOL     OW19156   3.313   1.872   5.662  0.5392  0.0544 -0.3415
 2565SOL    HW119157   3.260   1.815   5.718  1.0444 -0.3607 -0.2876
 2565SOL    HW219158   3.394   1.826   5.683  1.8757  2.2237 -0.8051
 2566SOL     OW19159   2.203   2.333   3.910 -0.2783  0.2799 -0.3785
 2566SOL    HW119160   2.298   2.331   3.898 -0.1764 -1.3869  0.6971
 2566SOL    HW219161   2.189   2.399   3.843  0.6952 -0.0451 -0.9047
 2567SOL     OW19162   4.083   2.871   6.313 -0.3417  1.0005 -0.4632
 2567SOL    HW119163   4.174   2.898   6.300  0.5165  0.2198  3.7987
 2567SOL    HW219164   4.095   2.798   6.374 -1.1009  1.4657  0.2511
 2568SOL     OW19165   2.579   0.475   3.040 -0.1298  0.6152 -0.2581
 2568SOL    HW119166   2.563   0.500   3.131 -0.4426 -1.2081  0.1888
 2568SOL    HW219167   2.643   0.405   3.051 -1.8779 -0.6978  1.5155
 2569SOL     OW19168   4.097   0.895   7.121 -0.6349 -0.1060  0.3212
 2569SOL    HW119169   4.068   0.933   7.038 -1.4732 -2.6602 -0.5536
 2569SOL    HW219170   4.038   0.820   7.126  1.4407 -1.6751  0.9416
 2570SOL     OW19171   3.325   2.280   7.890 -0.0237 -0.4809  0.2025
 2570SOL    HW119172   3.324   2.340   7.816  2.5387 -0.5459  0.1254
 2570SOL    HW219173   3.269   2.334   7.946  0.8735  0.4374  0.2172
 2571SOL     OW19174   1.999   1.695   8.981 -0.2349  0.0616 -0.2389
 2571SOL    HW119175   2.001   1.637   9.057  0.0630  0.7467  0.2727
 2571SOL    HW219176   2.003   1.784   9.015  0.6542 -0.8226  1.9647
 2572SOL     OW19177   1.135   3.367   9.704  0.0405 -0.0890  0.4567
 2572SOL    HW119178   1.159   3.274   9.698  0.0662 -0.0111 -0.7000
 2572SOL    HW219179   1.144   3.383   9.798  3.4279 -1.4731  0.3534
 2573SOL     OW19180   0.520   0.696   8.509  0.3531  0.1243  0.3542
 2573SOL    HW119181   0.594   0.648   8.545  0.3110 -0.8888 -0.9089
 2573SOL    HW219182   0.478   0.716   8.593 -0.6261  1.7910 -0.5291
 2574SOL     OW19183   1.886   1.395   1.857 -0.2939 -0.1328  0.4348
 2574SOL    HW119184   1.857   1.313   1.817 -0.8019  0.2386  0.0454
 2574SOL    HW219185   1.868   1.377   1.950  0.4372 -2.7269  0.0701
 2575SOL     OW19186   1.993   1.169  12.434  0.3091 -0.2941  0.5643
 2575SOL    HW119187   1.973   1.261  12.414  1.4994  0.1228  1.2727
 2575SOL    HW219188   2.060   1.175  12.502 -3.3959 -0.4872  4.2459
 2576SOL     OW19189   2.120   1.607   9.266 -0.3788 -0.1895 -0.1432
 2576SOL    HW119190   2.162   1.687   9.299  0.2668  0.2282 -1.9864
 2576SOL    HW219191   2.196   1.553   9.283  0.9624  1.5773 -0.5096
 2577SOL     OW19192   4.000   3.010  17.273 -0.7355  0.7957  0.6190
 2577SOL    HW119193   4.050   2.935  17.304  1.1957  1.9493  0.3086
 2577SOL    HW219194   3.908   2.983  17.273  0.1983 -2.3288 -2.3806
 2578SOL     OW19195   0.364   1.785   2.822  0.7647  0.7289  0.4062
 2578SOL    HW119196   0.397   1.728   2.891 -0.7491  2.2601  2.3941
 2578SOL    HW219197   0.346   1.860   2.879 -2.1924 -0.7712  1.4006
 2579SOL     OW19198   4.466   1.245  11.852 -0.7808 -0.5100 -0.3060
 2579SOL    HW119199   4.475   1.281  11.764  3.3303  1.0480  0.7447
 2579SOL    HW219200   4.412   1.316  11.885  1.5398  0.6439  0.9955
 2580SOL     OW19201   1.537   2.917   5.193 -0.4801 -0.0670  0.3319
 2580SOL    HW119202   1.606   2.977   5.219 -1.1042  0.1121  1.5637
 2580SOL    HW219203   1.502   2.896   5.279 -0.3253 -1.4469  0.0594
 2581SOL     OW19204   1.593   3.951   8.660  0.1724  0.1555 -0.6906
 2581SOL    HW119205   1.498   3.952   8.676 -0.2548  1.2340 -3.2919
 2581SOL    HW219206   1.606   3.861   8.630 -2.3679 -0.5185  0.2111
 2582SOL     OW19207   4.062   2.343   9.779  0.1520  0.3247  0.3428
 2582SOL    HW119208   3.985   2.386   9.816 -1.4686 -0.4668 -2.0862
 2582SOL    HW219209   4.079   2.411   9.714 -0.8277  1.2740  1.0835
 2583SOL     OW19210   3.612   4.001   9.912  0.7873 -0.2906 -0.3449
 2583SOL    HW119211   3.544   4.054   9.955  0.5553 -0.4231 -0.5477
 2583SOL    HW219212   3.670   4.065   9.870  0.3459 -0.9541 -1.9407
 2584SOL     OW19213   3.049   4.669   5.874 -0.5300  0.3723 -0.2264
 2584SOL    HW119214   3.129   4.694   5.828 -0.2282 -1.2171 -0.5440
 2584SOL    HW219215   2.986   0.005   5.833 -1.9250 -0.2812  0.9707
 2585SOL     OW19216   2.301   3.420  15.477 -0.6231  0.2983 -0.7855
 2585SOL    HW119217   2.315   3.482  15.548  0.8066  0.5582 -1.2933
 2585SOL    HW219218   2.385   3.432  15.433  0.3604 -0.7466  0.8010
 2586SOL     OW19219   2.598   3.800   4.104  0.2240 -0.0265 -0.1333
 2586SOL    HW119220   2.628   3.865   4.041  0.5472  0.2504  0.3057
 2586SOL    HW219221   2.582   3.724   4.048 -2.7590 -0.1369  0.8485
 2587SOL     OW19222   2.341   1.846   3.259  0.3057  0.0243  0.1751
 2587SOL    HW119223   2.415   1.804   3.215 -0.1493 -1.6277  0.9968
 2587SOL    HW219224   2.376   1.935   3.259 -2.0071  0.9121 -0.7289
 2588SOL     OW19225   0.092   2.211  17.673  0.5191  0.0192  0.4866
 2588SOL    HW119226   0.133   2.296  17.683 -0.0112  0.2459  0.7458
 2588SOL    HW219227   0.000   2.237  17.665 -0.3937 -2.8360  1.7478
 2589SOL     OW19228   1.392   4.049   4.540 -0.0331 -0.3918  0.1030
 2589SOL    HW119229   1.414   3.962   4.505  1.1130  0.7805 -2.0681
 2589SOL    HW219230   1.438   4.038   4.623 -0.3566  1.9449  0.5670
 2590SOL     OW19231   2.029   4.117   2.752 -0.1943 -0.1920 -0.2955
 2590SOL    HW119232   2.026   4.191   2.691  1.2564  0.2659  0.1848
 2590SOL    HW219233   2.031   4.166   2.834 -0.9824 -1.5523  0.5465
 2591SOL     OW19234   2.406   4.182   3.139 -0.1432  0.7507 -0.0948
 2591SOL    HW119235   2.342   4.127   3.185 -2.3140  0.6369 -3.2223
 2591SOL    HW219236   2.442   4.234   3.210  0.1089 -0.8236  0.9376
 2592SOL     OW19237   3.503   3.395   7.369 -0.2561  0.1477  0.1392
 2592SOL    HW119238   3.585   3.381   7.416 -0.2963  0.6782  0.3689
 2592SOL    HW219239   3.521   3.349   7.287 -3.3400  1.0241 -1.0556
 2593SOL     OW19240   3.556   4.629   9.230 -0.5114  0.0080  0.2826
 2593SOL    HW119241   3.534   4.694   9.163  2.3027 -0.3274 -0.9757
 2593SOL    HW219242   3.526   4.666   9.313 -2.2288  0.5120 -0.5517
 2594SOL     OW19243   0.350   0.285  17.057 -0.0455 -0.2966 -0.1236
 2594SOL    HW119244   0.392   0.368  17.033  0.1154 -0.2793  0.2118
 2594SOL    HW219245   0.410   0.226  17.011 -0.3918 -1.7947  1.3647
 2595SOL     OW19246   2.879   3.049  14.912  0.4892  1.0066 -0.2129
 2595SOL    HW119247   2.866   3.017  15.002  0.2393 -0.1118 -0.6522
 2595SOL    HW219248   2.965   3.015  14.888  0.1163  1.0801 -1.6545
 2596SOL     OW19249   4.118   0.764   4.591 -0.1931  0.4130 -0.5495
 2596SOL    HW119250   4.047   0.822   4.620 -1.5380 -0.8406 -1.3253
 2596SOL    HW219251   4.072   0.710   4.526 -2.3779 -0.7012  1.9031
 2597SOL     OW19252   4.069   2.033  17.485  0.0374  0.2877 -0.6305
 2597SOL    HW119253   3.984   2.015  17.525 -0.0689 -0.1691 -1.0574
 2597SOL    HW219254   4.093   1.940  17.490  1.1102  0.3943 -3.7432
 2598SOL     OW19255   3.770   4.107  10.974  0.5343 -0.0731 -0.6138
 2598SOL    HW119256   3.675   4.095  10.972  0.6748 -0.9722 -1.9638
 2598SOL    HW219257   3.797   4.034  11.029  0.2895 -0.1713 -0.6251
 2599SOL     OW19258   2.329   4.179   2.224  0.1251  0.2110 -0.3138
 2599SOL    HW119259   2.277   4.175   2.304  4.0679 -0.7727  2.1792
 2599SOL    HW219260   2.343   4.274   2.226 -1.2179  0.4061 -0.2479
 2600SOL     OW19261   1.538   2.735   3.076 -0.3057  0.6149  0.5166
 2600SOL    HW119262   1.607   2.791   3.113 -0.1605 -0.0452  1.2596
 2600SOL    HW219263   1.494   2.737   3.161  0.3140  0.5151  0.8473
 2601SOL     OW19264   3.450   2.065   9.011 -0.4174 -0.1974  0.4919
 2601SOL    HW119265   3.402   2.032   9.087 -0.6941 -0.8575  0.0240
 2601SOL    HW219266   3.454   2.160   9.025 -0.8318 -0.3641  1.8098
 2602SOL     OW19267   3.908   0.474   1.484  0.6283 -0.4215  0.2201
 2602SOL    HW119268   3.953   0.539   1.536  0.7688 -0.2974 -0.0571
 2602SOL    HW219269   3.867   0.433   1.560  1.0433  0.4731  0.9095
 2603SOL     OW19270   0.885   3.147  16.912  0.2294  0.4390  0.2954
 2603SOL    HW119271   0.837   3.120  16.833 -3.0013  0.1609  2.3834
 2603SOL    HW219272   0.817   3.127  16.975 -0.0157 -0.8446 -0.3756
 2604SOL     OW19273   2.159   2.745   6.748 -0.0258 -0.3059  0.1278
 2604SOL    HW119274   2.153   2.742   6.844 -2.3624 -1.3432 -0.0479
 2604SOL    HW219275   2.092   2.810   6.730 -0.5947 -1.2071 -1.0473
 2605SOL     OW19276   2.896   0.506   0.122 -0.3548 -0.2970 -0.0615
 2605SOL    HW119277   2.891   0.427   0.069  3.9769 -1.7314  1.7036
 2605SOL    HW219278   2.862   0.476   0.207  2.6267 -0.2213  1.1688
 2606SOL     OW19279   1.689   2.727  11.913 -0.4638 -0.4621 -0.8098
 2606SOL    HW119280   1.613   2.705  11.859 -1.0525 -0.1663 -0.1008
 2606SOL    HW219281   1.720   2.811  11.879  0.9260 -0.6297  0.0673
 2607SOL     OW19282   2.756   3.742   1.851  0.1724 -0.2469 -0.3954
 2607SOL    HW119283   2.671   3.744   1.895  0.4047  0.1081  0.0256
 2607SOL    HW219284   2.811   3.793   1.910 -0.5189 -0.3036  0.2997
 2608SOL     OW19285   0.869   0.105   9.977 -0.3641 -0.1191 -0.0769
 2608SOL    HW119286   0.792   0.088  10.031 -2.0558  0.0800 -2.4340
 2608SOL    HW219287   0.849   0.173   9.914  1.2819  0.4245 -0.0255
 2609SOL     OW19288   4.437   1.828   5.620  0.2745 -0.2992  0.3172
 2609SOL    HW119289   4.494   1.834   5.696  0.3361  0.3365  0.2156
 2609SOL    HW219290   4.498   1.787   5.559 -0.5629  0.7770 -1.2549
 2610SOL     OW19291   3.566   4.561   3.184  0.0402 -0.1021 -0.2752
 2610SOL    HW119292   3.545   4.493   3.120  0.0121  0.6364 -1.0447
 2610SOL    HW219293   3.660   4.554   3.168  0.0021 -2.0301  0.2718
 2611SOL     OW19294   3.578   3.303  13.761  0.3340  0.0927  0.3671
 2611SOL    HW119295   3.487   3.334  13.768  0.5304  1.1783 -1.8241
 2611SOL    HW219296   3.564   3.211  13.739  2.6065  0.3228 -1.9804
 2612SOL     OW19297   1.224   2.488   7.596 -0.5395 -0.1939 -0.4153
 2612SOL    HW119298   1.244   2.450   7.681 -2.1746 -0.5832 -0.2147
 2612SOL    HW219299   1.309   2.506   7.555 -0.2927  0.7505  0.5031
 2613SOL     OW19300   3.272   1.452   1.265  0.8219  0.5736 -0.4431
 2613SOL    HW119301   3.300   1.521   1.204  0.0467 -0.4236 -1.9387
 2613SOL    HW219302   3.177   1.459   1.253  0.9764 -0.6594 -2.3952
 2614SOL     OW19303   3.965   3.936   0.502 -0.2959  0.2531  0.1001
 2614SOL    HW119304   3.928   4.017   0.536 -0.7138 -0.1772  0.6677
 2614SOL    HW219305   3.955   3.881   0.580 -0.0985 -1.1895 -0.8929
 2615SOL     OW19306   2.478   1.461   6.337 -0.0890  0.5028 -0.5323
 2615SOL    HW119307   2.416   1.488   6.270 -0.1128  0.1720 -0.6464
 2615SOL    HW219308   2.423   1.400   6.387  1.5010 -0.5691 -0.0763
 2616SOL     OW19309   2.535   0.767   6.987  0.2676 -0.0172  0.3961
 2616SOL    HW119310   2.627   0.792   6.984  0.2182  0.1787  0.4810
 2616SOL    HW219311   2.499   0.851   6.958  0.2256  0.1536  0.9404
 2617SOL     OW19312   4.183   1.453   0.383 -0.0011  0.8692 -0.6441
 2617SOL    HW119313   4.107   1.406   0.349 -0.1496 -1.2809  2.6528
 2617SOL    HW219314   4.249   1.451   0.313  0.2223  0.0990 -0.4030
 2618SOL     OW19315   3.559   1.799   0.010  0.4055  0.0200 -0.2644
 2618SOL    HW119316   3.611   1.871   0.045  1.0803  0.4189 -2.1166
 2618SOL    HW219317   3.494   1.790   0.080 -0.2614  1.7171 -0.6771
 2619SOL     OW19318   2.477   3.613  16.049 -0.5893 -0.3029 -0.1073
 2619SOL    HW119319   2.392   3.589  16.086 -0.8786  2.6177  1.1075
 2619SOL    HW219320   2.446   3.640  15.963 -2.1207  0.5591  0.7053
 2620SOL     OW19321   3.547   3.009   4.045 -0.0472 -0.5609 -0.3428
 2620SOL    HW119322   3.547   3.050   3.958 -0.6109 -2.1163 -1.0784
 2620SOL    HW219323   3.560   2.915   4.031 -1.2312 -0.6216 -1.0449
 2621SOL     OW19324   3.373   2.404   9.637  0.7055 -0.0691 -0.0521
 2621SOL    HW119325   3.296   2.349   9.651  0.1269  0.2751 -1.7925
 2621SOL    HW219326   3.390   2.383   9.545 -1.4733 -3.1725  0.2560
 2622SOL     OW19327   1.660   3.990  15.731 -0.4286  0.2005  0.4159
 2622SOL    HW119328   1.684   3.915  15.676 -0.1109  0.5818  0.0283
 2622SOL    HW219329   1.569   3.966  15.742  0.1694 -1.8830  0.7155
 2623SOL     OW19330   0.284   0.376   9.746  0.2907 -0.2565 -0.7197
 2623SOL    HW119331   0.293   0.281   9.759 -1.0942 -0.8734 -4.1404
 2623SOL    HW219332   0.334   0.399   9.824 -0.6536  2.1236 -0.8043
 2624SOL     OW19333   4.039   4.049   7.797 -0.1664  0.4085 -0.4529
 2624SOL    HW119334   4.095   4.098   7.857  0.1316 -0.9169  0.3411
 2624SOL    HW219335   4.052   3.959   7.825  1.3391  0.5287 -0.7293
 2625SOL     OW19336   3.771   0.522   5.828  0.1097  0.5853 -0.0774
 2625SOL    HW119337   3.729   0.525   5.914 -1.2217  0.8897 -0.7317
 2625SOL    HW219338   3.862   0.526   5.857  0.2235 -0.0147 -0.3562
 2626SOL     OW19339   1.064   2.916  16.644  0.9038  0.3836  0.1651
 2626SOL    HW119340   0.998   2.926  16.712 -0.5728 -0.2005 -1.1926
 2626SOL    HW219341   1.012   2.952  16.573  1.2579  0.6015  0.0152
 2627SOL     OW19342   3.240   3.760   7.876  0.5902  0.0977  0.3795
 2627SOL    HW119343   3.252   3.852   7.901  1.7048  0.3606 -1.1434
 2627SOL    HW219344   3.324   3.726   7.907  0.7405 -1.9182 -2.2994
 2628SOL     OW19345   2.741   2.469   0.315  0.0477  0.2324 -0.0368
 2628SOL    HW119346   2.833   2.458   0.342  0.3878  0.6127 -1.0508
 2628SOL    HW219347   2.698   2.478   0.400 -0.9479  0.6280 -0.5890
 2629SOL     OW19348   4.186   4.411   8.579  0.4701 -0.0171  0.3124
 2629SOL    HW119349   4.112   4.352   8.564  1.2080 -0.7840 -0.2847
 2629SOL    HW219350   4.243   4.361   8.637  0.9734 -2.9917 -2.7092
 2630SOL     OW19351   0.630   4.025   5.704  0.2890  0.1152  0.0965
 2630SOL    HW119352   0.615   4.115   5.673  2.1612  1.2321  2.4384
 2630SOL    HW219353   0.692   4.047   5.772  1.5695 -0.8997 -0.7488
 2631SOL     OW19354   1.576   3.329  17.363  0.0842  0.4430 -0.1395
 2631SOL    HW119355   1.571   3.423  17.378 -2.2709  0.0913  1.2470
 2631SOL    HW219356   1.670   3.322  17.344 -0.6192 -1.3240 -2.9745
 2632SOL     OW19357   1.561   2.265   7.702  0.2447  0.1260  0.5670
 2632SOL    HW119358   1.557   2.274   7.606 -1.2295 -0.5754  0.5640
 2632SOL    HW219359   1.638   2.318   7.724 -0.2186  1.2640 -0.5033
 2633SOL     OW19360   4.063   3.110  12.163  0.5075 -0.0975  0.0105
 2633SOL    HW119361   4.047   3.027  12.119  1.5279  0.6649 -1.8289
 2633SOL    HW219362   4.063   3.089  12.256  2.8294 -2.0626 -0.4268
 2634SOL     OW19363   2.008   0.134   2.250 -0.1870 -0.4839  0.5151
 2634SOL    HW119364   1.929   0.133   2.195 -1.0903  1.7699  1.7717
 2634SOL    HW219365   2.061   0.205   2.214 -1.1288 -0.4716 -0.8271
 2635SOL     OW19366   3.425   2.115  14.408  0.0831  0.6146 -0.0967
 2635SOL    HW119367   3.413   2.206  14.380  1.6055  1.5381  2.2348
 2635SOL    HW219368   3.498   2.127  14.469  0.7552 -1.3437 -0.5236
 2636SOL     OW19369   3.760   0.798   5.803 -0.3765 -0.2165 -0.4997
 2636SOL    HW119370   3.786   0.705   5.806 -2.3726 -0.7749 -0.7698
 2636SOL    HW219371   3.846   0.840   5.802 -1.4269  1.9163  1.0848
 2637SOL     OW19372   3.140   4.164   7.585  0.1531 -0.2240  0.1597
 2637SOL    HW119373   3.216   4.111   7.610 -1.6243 -2.1166  1.5245
 2637SOL    HW219374   3.145   4.240   7.642 -1.2198 -1.5778  2.0859
 2638SOL     OW19375   4.367   1.182   0.516 -0.1890  0.2315 -0.4307
 2638SOL    HW119376   4.380   1.150   0.606 -0.4543 -0.0515 -0.4899
 2638SOL    HW219377   4.271   1.186   0.513 -0.1472  1.8355  0.4412
 2639SOL     OW19378   0.449   4.206   0.141  0.0131  0.8085  0.7926
 2639SOL    HW119379   0.366   4.219   0.095  1.7518  0.3116 -2.4137
 2639SOL    HW219380   0.482   4.291   0.172  0.5117  1.2070 -0.8351
 2640SOL     OW19381   3.909   2.697   5.406  0.1347  0.1582  0.1866
 2640SOL    HW119382   3.928   2.739   5.322 -1.4840 -1.3115 -0.9231
 2640SOL    HW219383   3.991   2.690   5.455 -1.5523 -1.4396  2.7462
 2641SOL     OW19384   4.140   4.348   4.545 -0.7489  0.0598 -0.0466
 2641SOL    HW119385   4.155   4.426   4.600  0.0560 -1.4074  1.8368
 2641SOL    HW219386   4.082   4.298   4.602 -0.9882  1.0042  0.5439
 2642SOL     OW19387   4.104   3.760  16.763 -0.3010  0.0762 -0.4680
 2642SOL    HW119388   4.033   3.801  16.811  1.3107  0.9010  1.2228
 2642SOL    HW219389   4.154   3.835  16.731  0.1560  0.2496  0.6687
 2643SOL     OW19390   3.370   3.732   9.976  0.7999  0.0059 -0.2072
 2643SOL    HW119391   3.458   3.754  10.007  0.8691  0.4506 -0.7249
 2643SOL    HW219392   3.312   3.808   9.986 -2.0662 -2.4624  2.0326
 2644SOL     OW19393   3.467   1.473  13.316 -0.7375  0.0104  0.4691
 2644SOL    HW119394   3.440   1.472  13.407  0.3460 -3.2306  0.7828
 2644SOL    HW219395   3.535   1.405  13.313 -1.4962 -0.6993 -0.6879
 2645SOL     OW19396   2.439   2.647  12.957  0.3352 -0.0869  0.0983
 2645SOL    HW119397   2.534   2.652  12.951  0.2639  0.8897 -0.2728
 2645SOL    HW219398   2.415   2.617  12.869 -2.4710 -0.9636  1.1732
 2646SOL     OW19399   3.054   4.229   3.632  0.5941  0.2014  0.0473
 2646SOL    HW119400   3.075   4.152   3.684 -1.4001  0.6493  1.5390
 2646SOL    HW219401   3.114   4.225   3.558  0.1126 -0.3682 -0.3108
 2647SOL     OW19402   3.638   1.501   5.238  0.1601  0.0585 -0.7408
 2647SOL    HW119403   3.628   1.583   5.288  0.4011 -1.9053  2.5067
 2647SOL    HW219404   3.553   1.461   5.257  0.4347 -0.8719 -1.5188
 2648SOL     OW19405   1.565   3.852  17.215  0.4026 -0.0021  0.3298
 2648SOL    HW119406   1.564   3.862  17.120 -0.9211  0.4753  0.3977
 2648SOL    HW219407   1.641   3.794  17.224  0.0644 -0.5813 -0.5428
 2649SOL     OW19408   1.377   1.886   4.923  0.8497  0.0128 -0.6567
 2649SOL    HW119409   1.403   1.958   4.864  3.5101 -0.4936 -0.1227
 2649SOL    HW219410   1.342   1.827   4.856 -0.0565  0.1024 -0.2524
 2650SOL     OW19411   4.634   2.385   6.449  0.2204  0.6666 -0.2609
 2650SOL    HW119412   4.586   2.461   6.418 -2.8247 -1.1278  0.0292
 2650SOL    HW219413   4.720   2.421   6.428 -0.1094  2.5036  1.4753
 2651SOL     OW19414   3.367   3.604   0.251 -0.2064 -0.5002 -0.0185
 2651SOL    HW119415   3.383   3.690   0.290 -1.1332  1.1818 -3.3723
 2651SOL    HW219416   3.384   3.629   0.161 -2.3908 -0.5965 -0.4633
 2652SOL     OW19417   2.501   2.039  14.884  0.0321 -0.3023 -0.1865
 2652SOL    HW119418   2.412   2.064  14.909 -0.0248 -0.2853 -0.4074
 2652SOL    HW219419   2.513   2.106  14.817  0.3113 -0.9861 -0.8113
 2653SOL     OW19420   1.999   0.745   5.771  0.3330  0.3789 -0.4336
 2653SOL    HW119421   1.966   0.686   5.704 -0.0926 -0.6132  0.6436
 2653SOL    HW219422   2.092   0.747   5.750  0.6420 -1.5198  0.7241
 2654SOL     OW19423   1.224   1.981   8.990 -0.3495 -0.7701  0.0345
 2654SOL    HW119424   1.289   2.048   9.010 -1.9861  0.5237  1.0031
 2654SOL    HW219425   1.145   2.032   8.971 -0.5472 -0.7387  0.9446
 2655SOL     OW19426   2.073   1.012   7.962  0.0612  0.1854  0.1060
 2655SOL    HW119427   2.156   0.982   7.927  0.6675  3.1626 -1.0522
 2655SOL    HW219428   2.025   1.018   7.879 -0.2263  0.1575  0.2677
 2656SOL     OW19429   1.346   2.332   3.540 -0.2386  0.4439  0.0702
 2656SOL    HW119430   1.327   2.248   3.498  0.3854 -0.8385  2.3633
 2656SOL    HW219431   1.259   2.368   3.560 -0.5068  0.6959 -1.5171
 2657SOL     OW19432   1.436   1.510   9.200  0.6494  0.3545  0.0373
 2657SOL    HW119433   1.517   1.555   9.224  1.2704 -0.4110 -0.6613
 2657SOL    HW219434   1.399   1.497   9.288  1.3921 -1.0265  0.1429
 2658SOL     OW19435   2.506   1.380   5.982 -0.7129 -0.6142  0.8459
 2658SOL    HW119436   2.521   1.435   5.906 -2.3245 -0.4362  0.6534
 2658SOL    HW219437   2.540   1.441   6.048  0.9967  0.7540 -1.2992
 2659SOL     OW19438   1.107   3.892   4.829 -0.6830  0.0824  0.3168
 2659SOL    HW119439   1.096   3.823   4.764 -0.1986  0.0808  0.2311
 2659SOL    HW219440   1.202   3.886   4.841 -0.6443  1.2759  0.6371
 2660SOL     OW19441   3.257   3.185  14.896  0.0190 -0.0515 -0.4282
 2660SOL    HW119442   3.299   3.153  14.816  0.5910  2.0459 -0.9508
 2660SOL    HW219443   3.183   3.228  14.852  1.6598  1.2759 -1.8690
 2661SOL     OW19444   2.874   0.082   9.347 -0.0380 -0.3689 -0.5110
 2661SOL    HW119445   2.967   0.060   9.354 -0.5094 -2.6500 -1.7279
 2661SOL    HW219446   2.869   0.118   9.258 -2.1340  0.5447 -0.0299
 2662SOL     OW19447   1.843   2.769   8.729 -0.1981  0.2916 -0.1571
 2662SOL    HW119448   1.858   2.681   8.763 -0.2512  1.5952  3.2163
 2662SOL    HW219449   1.934   2.800   8.720  0.6375 -1.8417  1.1315
 2663SOL     OW19450   3.895   3.174  16.850  0.2957 -0.1559 -0.1126
 2663SOL    HW119451   3.990   3.183  16.835  0.6485 -1.9305  1.0907
 2663SOL    HW219452   3.883   3.082  16.871 -2.6086  0.2749  0.0751
 2664SOL     OW19453   2.339   2.592   7.946  0.1629 -0.0307  0.1087
 2664SOL    HW119454   2.269   2.527   7.949 -2.4641  2.7690 -0.6804
 2664SOL    HW219455   2.375   2.592   8.035 -0.2562 -1.6400  0.2763
 2665SOL     OW19456   4.594   4.369   2.486  0.7224 -0.0378  0.6553
 2665SOL    HW119457   4.677   4.329   2.513  0.2513  0.5004  2.9131
 2665SOL    HW219458   4.537   4.344   2.558  0.8169  0.0339  0.7557
 2666SOL     OW19459   1.543   0.881   1.327 -0.0988 -0.0189  0.1772
 2666SOL    HW119460   1.607   0.811   1.316  0.6781  0.5840  0.8793
 2666SOL    HW219461   1.535   0.893   1.232 -0.8247  0.4455  0.2951
 2667SOL     OW19462   1.624   2.104   2.380  0.4786  0.4873  0.3846
 2667SOL    HW119463   1.541   2.059   2.363  0.6939  0.3112 -0.2243
 2667SOL    HW219464   1.642   2.144   2.295  0.7298  0.4697  0.4283
 2668SOL     OW19465   4.039   0.324   9.414  0.2990 -0.1547 -0.3458
 2668SOL    HW119466   4.067   0.263   9.345 -1.8314 -2.4417  0.8162
 2668SOL    HW219467   3.997   0.268   9.479  2.4418  1.1191  2.1391
 2669SOL     OW19468   1.171   1.252   3.857 -0.5456  0.3861 -0.1542
 2669SOL    HW119469   1.145   1.289   3.941  0.5361 -0.7532  0.6938
 2669SOL    HW219470   1.169   1.328   3.799  1.5392 -0.0147 -0.7594
 2670SOL     OW19471   0.449   4.156  10.744 -0.1918  0.3814  0.6928
 2670SOL    HW119472   0.356   4.180  10.739  0.2348  1.6227 -1.3066
 2670SOL    HW219473   0.452   4.075  10.693 -1.0643  1.4064 -1.0016
 2671SOL     OW19474   1.009   3.186  15.910 -0.2679 -0.4257  0.1864
 2671SOL    HW119475   0.940   3.218  15.852 -1.6662 -0.7646  1.6702
 2671SOL    HW219476   0.997   3.254  15.976  1.9665 -0.2871  0.4544
 2672SOL     OW19477   1.371   1.317   9.909  0.0227 -0.5793  0.3175
 2672SOL    HW119478   1.349   1.390   9.851 -0.3808 -1.2981 -0.4411
 2672SOL    HW219479   1.289   1.296   9.954 -0.5006 -0.2807 -0.4871
 2673SOL     OW19480   0.222   0.701   5.533 -0.5023 -0.4783  0.1761
 2673SOL    HW119481   0.291   0.747   5.486 -2.6853  1.2322 -1.3777
 2673SOL    HW219482   0.239   0.615   5.494 -1.2043 -0.8932  0.7839
 2674SOL     OW19483   4.686   1.001   9.116 -0.1916  0.4012 -0.2387
 2674SOL    HW119484   4.630   1.064   9.161  1.3912  1.2777  0.4879
 2674SOL    HW219485   4.696   0.929   9.178  0.5535  2.0453  1.5390
 2675SOL     OW19486   0.671   1.768   8.296  0.1833  0.5081  0.1318
 2675SOL    HW119487   0.578   1.748   8.289  0.4963 -0.1551 -2.0418
 2675SOL    HW219488   0.689   1.771   8.390  0.7093  1.4733  0.0077
 2676SOL     OW19489   0.725   3.414  12.208 -0.4894  0.0842 -0.1575
 2676SOL    HW119490   0.774   3.356  12.149  0.4178  1.1151 -0.4179
 2676SOL    HW219491   0.766   3.398  12.293 -0.9088 -0.1160  0.0079
 2677SOL     OW19492   1.774   2.083   6.486  0.4869 -0.2464  0.1046
 2677SOL    HW119493   1.730   2.086   6.401  1.1618 -0.0757 -0.2445
 2677SOL    HW219494   1.797   1.990   6.488  1.2810 -0.0106  1.6652
 2678SOL     OW19495   2.974   0.696  14.649  0.6023 -0.5927 -0.2656
 2678SOL    HW119496   2.995   0.750  14.726 -2.6767  0.9688 -0.4720
 2678SOL    HW219497   2.926   0.632  14.701  0.7598 -1.4015 -1.1288
 2679SOL     OW19498   3.701   2.179   2.890  0.2304  0.0549  0.8097
 2679SOL    HW119499   3.618   2.132   2.900 -0.6075  0.9847 -1.9969
 2679SOL    HW219500   3.728   2.210   2.977 -2.8590  1.0994  1.3727
 2680SOL     OW19501   1.709   0.427  13.732  0.2612  0.0648 -0.3286
 2680SOL    HW119502   1.736   0.512  13.769 -0.1442  0.3387 -0.6639
 2680SOL    HW219503   1.640   0.445  13.668 -0.0643  3.0234  0.8396
 2681SOL     OW19504   4.189   2.258   5.761 -0.3556  0.1996 -0.1714
 2681SOL    HW119505   4.166   2.173   5.800 -1.8684  0.6732 -0.0241
 2681SOL    HW219506   4.279   2.237   5.738 -0.9010 -0.8663 -1.3092
 2682SOL     OW19507   1.892   3.333   2.269  0.1801 -0.1035  0.0267
 2682SOL    HW119508   1.835   3.344   2.345  1.2194 -0.6155  0.8752
 2682SOL    HW219509   1.957   3.401   2.285 -0.1326  0.3734 -0.7278
 2683SOL     OW19510   3.567   3.206   1.416  0.5067  0.8558 -0.1263
 2683SOL    HW119511   3.561   3.289   1.462  1.0602  1.6240 -1.4340
 2683SOL    HW219512   3.490   3.164   1.453  0.8274  0.3250 -0.0472
 2684SOL     OW19513   0.178   3.653   5.696 -0.3497  0.0804 -0.1819
 2684SOL    HW119514   0.177   3.696   5.781 -1.9506  2.6134 -1.4567
 2684SOL    HW219515   0.160   3.730   5.642 -0.8659  0.1634  0.1103
 2685SOL     OW19516   3.243   0.314   2.162  0.3862  0.4312 -0.7359
 2685SOL    HW119517   3.235   0.399   2.205  1.0548 -0.0189  0.2837
 2685SOL    HW219518   3.155   0.279   2.143  1.0313 -1.0770 -0.8986
 2686SOL     OW19519   3.036   2.642  11.393 -0.0706 -0.1321  0.5479
 2686SOL    HW119520   3.076   2.728  11.395  1.8191 -1.0444  1.9683
 2686SOL    HW219521   3.082   2.597  11.322  0.7652  0.4055  0.7469
 2687SOL     OW19522   1.298   4.496   9.900 -0.2240  0.2460  0.2188
 2687SOL    HW119523   1.296   4.492   9.996 -1.4149  0.0577  0.1898
 2687SOL    HW219524   1.327   4.587   9.900  1.5688 -0.3152  0.5075
 2688SOL     OW19525   3.557   1.285  12.867  0.5486  0.3403  0.0046
 2688SOL    HW119526   3.636   1.243  12.901  1.5371  0.7025 -1.8486
 2688SOL    HW219527   3.519   1.216  12.812  0.3022 -0.5985  1.3507
 2689SOL     OW19528   1.802   0.742   5.972 -0.6005 -0.1260 -0.2100
 2689SOL    HW119529   1.868   0.783   5.917  0.5878 -0.1721  1.1786
 2689SOL    HW219530   1.852   0.665   5.997  0.3415  0.7843  0.6656
 2690SOL     OW19531   3.160   3.749  16.070 -0.0134  0.8208  0.3363
 2690SOL    HW119532   3.222   3.813  16.105  0.5600 -0.1406  1.0633
 2690SOL    HW219533   3.156   3.778  15.979 -0.8657  0.2160  0.1762
 2691SOL     OW19534   2.678   0.246   0.536  0.0548 -0.1242  0.2190
 2691SOL    HW119535   2.618   0.183   0.496  0.1437 -0.4541  0.6007
 2691SOL    HW219536   2.609   0.306   0.564 -0.7459 -0.5335 -0.8769
 2692SOL     OW19537   2.038   0.748   2.483 -0.4432  0.7693 -0.0016
 2692SOL    HW119538   2.064   0.740   2.575 -2.3316  0.6020  0.5058
 2692SOL    HW219539   2.085   0.827   2.455  0.7743 -0.1254 -0.5283
 2693SOL     OW19540   4.613   4.061  15.548 -0.1755 -0.1868  0.4901
 2693SOL    HW119541   4.550   4.086  15.616 -0.2760 -0.1110  0.3715
 2693SOL    HW219542   4.547   4.032  15.484  0.0465 -3.1402  1.6444
 2694SOL     OW19543   1.680   3.019   6.106 -0.0617  0.0105  0.1320
 2694SOL    HW119544   1.693   3.066   6.023  1.1049 -0.0458  0.2805
 2694SOL    HW219545   1.585   3.020   6.104 -0.0838 -0.4340  1.4450
 2695SOL     OW19546   3.969   1.455  16.540 -0.0860 -0.7496  0.3701
 2695SOL    HW119547   3.988   1.526  16.601 -0.7212  1.6324 -2.1634
 2695SOL    HW219548   4.044   1.399  16.556  1.1656  1.0710  0.8567
 2696SOL     OW19549   3.840   4.667   8.912 -0.7335 -0.4268 -0.2437
 2696SOL    HW119550   3.776   4.604   8.944 -0.6369 -1.4763 -2.1421
 2696SOL    HW219551   3.803   0.030   8.931 -0.8685 -0.7848  1.0921
 2697SOL     OW19552   3.440   0.948   6.660  0.3789  0.4189 -0.6680
 2697SOL    HW119553   3.435   0.853   6.657  1.3654  0.3439  0.2854
 2697SOL    HW219554   3.350   0.962   6.688  1.5846  0.9810  2.8480
 2698SOL     OW19555   1.739   3.089   3.664  0.5138 -0.2755 -0.0191
 2698SOL    HW119556   1.824   3.133   3.668  0.4894 -0.4260  2.1063
 2698SOL    HW219557   1.693   3.132   3.736 -2.5314 -2.7570 -0.5175
 2699SOL     OW19558   4.291   0.792   3.516 -0.5563 -0.9605 -0.2130
 2699SOL    HW119559   4.263   0.883   3.525 -0.0804 -0.6200 -2.0877
 2699SOL    HW219560   4.263   0.747   3.596  0.3837 -1.1115  0.0261
 2700SOL     OW19561   1.016   1.859   2.406  0.1680 -0.0404  0.0703
 2700SOL    HW119562   1.100   1.902   2.424  0.6799 -1.9227  2.0847
 2700SOL    HW219563   1.049   1.772   2.384 -0.3136 -0.5969  1.5497
 2701SOL     OW19564   3.457   1.615  15.981  0.1672 -0.3587 -0.0445
 2701SOL    HW119565   3.385   1.602  16.042 -0.3492 -0.8269 -0.7635
 2701SOL    HW219566   3.532   1.653  16.027 -1.0860  1.7223  0.2502
 2702SOL     OW19567   3.519   0.145   1.256  0.2132  0.2272 -0.1572
 2702SOL    HW119568   3.612   0.125   1.246  0.7128  1.5754  1.6962
 2702SOL    HW219569   3.510   0.150   1.351 -1.5225 -1.2121 -0.2458
 2703SOL     OW19570   0.718   4.221   9.410  0.4067 -0.0200 -0.2620
 2703SOL    HW119571   0.721   4.215   9.505  1.0194  2.7458 -0.1013
 2703SOL    HW219572   0.648   4.285   9.399  0.5232  0.2268  0.4365
 2704SOL     OW19573   3.487   0.252   3.937 -0.2138 -0.0201 -0.5718
 2704SOL    HW119574   3.489   0.258   4.032  0.5634  1.7889 -0.7053
 2704SOL    HW219575   3.444   0.168   3.922 -3.4062  1.4225  0.6243
 2705SOL     OW19576   2.576   3.416   2.570  0.1641  0.1665  0.1983
 2705SOL    HW119577   2.599   3.363   2.493  1.7254 -0.1862  0.9067
 2705SOL    HW219578   2.651   3.431   2.628  1.1127 -3.7534  0.0159
 2706SOL     OW19579   2.137   0.329   6.892 -0.5573 -0.1648 -0.0565
 2706SOL    HW119580   2.109   0.329   6.984 -1.3092  0.3321 -0.2822
 2706SOL    HW219581   2.143   0.421   6.866  1.2935 -0.1101  0.5434
 2707SOL     OW19582   2.492   2.555   9.231 -0.3445  0.4608 -0.0361
 2707SOL    HW119583   2.570   2.592   9.272 -1.0258  2.5751 -0.6652
 2707SOL    HW219584   2.464   2.483   9.287 -3.4545  2.0376  0.4646
 2708SOL     OW19585   1.848   0.878   4.016 -0.0801  0.0864 -0.1114
 2708SOL    HW119586   1.937   0.843   4.021 -0.1655  0.1026  1.5083
 2708SOL    HW219587   1.805   0.793   4.022 -0.2850  0.1944 -0.0502
 2709SOL     OW19588   3.526   0.940   5.694 -0.6108  0.3918 -1.1033
 2709SOL    HW119589   3.577   1.021   5.696  0.4751 -0.3082 -0.5110
 2709SOL    HW219590   3.583   0.895   5.756  0.9597  0.8119 -2.2752
 2710SOL     OW19591   3.924   0.003   0.354  0.0789  0.2577  0.2259
 2710SOL    HW119592   3.933   4.704   0.262  0.1693 -1.1634  0.5875
 2710SOL    HW219593   3.953   4.643   0.391 -0.5542  0.4996  1.2862
 2711SOL     OW19594   2.049   2.689   4.303  0.6047 -0.4277  0.7670
 2711SOL    HW119595   2.070   2.780   4.285  0.4663 -0.1183  2.2147
 2711SOL    HW219596   2.041   2.644   4.219 -0.3443  0.0570  0.5921
 2712SOL     OW19597   3.986   1.485   1.417  0.3238  0.2730  0.2512
 2712SOL    HW119598   3.959   1.476   1.326 -2.5191  0.3581  1.1015
 2712SOL    HW219599   3.961   1.403   1.461  1.2763 -0.2427 -0.1546
 2713SOL     OW19600   3.875   0.567   3.410  0.0434 -0.0262 -0.7873
 2713SOL    HW119601   3.950   0.519   3.444  0.3174  1.3345  0.5613
 2713SOL    HW219602   3.862   0.523   3.326 -0.4491  2.2197 -1.8900
 2714SOL     OW19603   2.804   2.247   5.054  0.3079 -0.2224  0.5345
 2714SOL    HW119604   2.733   2.196   5.091  0.2257  0.1240  0.8582
 2714SOL    HW219605   2.843   2.291   5.129  0.4856  0.2320  0.1809
 2715SOL     OW19606   1.621   2.279  11.585 -0.1103 -0.1244 -0.2904
 2715SOL    HW119607   1.590   2.251  11.499  0.4706 -0.3018 -0.4453
 2715SOL    HW219608   1.573   2.360  11.603 -0.1224  0.0230 -0.9950
 2716SOL     OW19609   0.583   4.038  14.632 -0.4253 -0.1496 -0.3709
 2716SOL    HW119610   0.657   4.059  14.575 -0.7072  1.8920  0.0097
 2716SOL    HW219611   0.520   3.987  14.580 -1.0393 -1.3079  1.5037
 2717SOL     OW19612   1.019   3.451   5.553 -0.3343 -0.2512  0.5689
 2717SOL    HW119613   1.065   3.465   5.470 -1.4837  0.7550  0.1047
 2717SOL    HW219614   0.961   3.378   5.533 -1.5901  1.1195 -0.7725
 2718SOL     OW19615   1.891   1.569   3.204  0.0131 -0.1558  0.3082
 2718SOL    HW119616   1.919   1.577   3.113 -2.9015 -0.7603 -0.6533
 2718SOL    HW219617   1.805   1.526   3.198  1.4530 -3.2704  1.8604
 2719SOL     OW19618   4.635   1.636   3.994 -0.2385  0.5170 -0.0714
 2719SOL    HW119619   4.653   1.590   3.912  0.9292  0.5816  0.1414
 2719SOL    HW219620   4.604   1.556   4.037  0.5633 -1.3391 -2.9447
 2720SOL     OW19621   2.052   1.351   5.629  0.3431 -0.1681  0.4304
 2720SOL    HW119622   1.961   1.381   5.640 -0.1916 -1.4339 -0.5582
 2720SOL    HW219623   2.040   1.258   5.646  2.0510 -0.3919  0.3470
 2721SOL     OW19624   0.141   3.328   9.348  0.3730 -0.3037  0.1521
 2721SOL    HW119625   0.227   3.361   9.323 -0.7862  0.8808 -2.2584
 2721SOL    HW219626   0.167   3.274   9.423 -1.2446 -1.1718  0.1101
 2722SOL     OW19627   4.073   0.704   6.511  0.2592 -0.0936  0.5500
 2722SOL    HW119628   4.122   0.765   6.456  0.1952 -2.9736 -2.6776
 2722SOL    HW219629   4.045   0.638   6.448  4.7450 -2.5328  1.1011
 2723SOL     OW19630   0.526   2.557   3.769  0.0892 -0.4465 -0.5995
 2723SOL    HW119631   0.471   2.622   3.724 -0.1162  0.2564  0.6507
 2723SOL    HW219632   0.575   2.610   3.832 -1.6892 -0.0652  0.4431
 2724SOL     OW19633   0.769   4.274   8.493 -0.1537  0.8411  0.5088
 2724SOL    HW119634   0.712   4.350   8.495  0.0130  0.9352  1.7289
 2724SOL    HW219635   0.851   4.312   8.526  0.5013 -0.3692  0.2658
 2725SOL     OW19636   2.364   4.502  11.219 -0.4118 -0.6933 -0.5846
 2725SOL    HW119637   2.430   4.471  11.281 -0.6345 -1.5545 -0.7783
 2725SOL    HW219638   2.402   4.472  11.136 -1.5253  0.3390 -1.4799
 2726SOL     OW19639   2.721   0.879   1.120  0.0410  0.1333  0.2786
 2726SOL    HW119640   2.700   0.893   1.213 -0.1800 -1.1303  0.4236
 2726SOL    HW219641   2.776   0.954   1.097  0.1253  0.7455  2.4713
 2727SOL     OW19642   0.515   4.323   2.371 -0.2019 -0.0566  0.3430
 2727SOL    HW119643   0.592   4.313   2.315 -1.3687 -0.9840 -1.0851
 2727SOL    HW219644   0.461   4.373   2.310  1.2815  2.7713  1.3572
 2728SOL     OW19645   1.200   0.384   8.462  0.6334 -0.0407 -0.3810
 2728SOL    HW119646   1.191   0.435   8.543  1.2470 -1.4650  0.5850
 2728SOL    HW219647   1.282   0.410   8.421  0.9486 -0.0382  0.2491
 2729SOL     OW19648   1.709   0.070  14.139  0.7042 -0.1360  0.0065
 2729SOL    HW119649   1.672   0.119  14.065 -0.2328 -1.7190 -0.5906
 2729SOL    HW219650   1.761   0.000  14.099  0.4711 -0.3867  0.1428
 2730SOL     OW19651   3.648   1.204   8.890 -0.3782 -0.1274  0.0736
 2730SOL    HW119652   3.650   1.241   8.801  2.3764  1.8111  0.9452
 2730SOL    HW219653   3.648   1.109   8.874 -0.1143 -0.5810  2.7846
 2731SOL     OW19654   0.805   2.875   4.445 -0.3375 -0.3596 -0.2331
 2731SOL    HW119655   0.727   2.824   4.469  0.7821 -2.1413 -0.3187
 2731SOL    HW219656   0.806   2.946   4.509 -1.7731 -0.3412 -0.2424
 2732SOL     OW19657   3.014   1.625   7.201 -0.3635  0.2242 -0.9669
 2732SOL    HW119658   2.996   1.691   7.135  1.8853  2.9026  1.1164
 2732SOL    HW219659   3.102   1.652   7.228  0.3956 -2.0290 -1.1829
 2733SOL     OW19660   2.271   2.616   0.217 -0.1306 -0.1941 -0.1182
 2733SOL    HW119661   2.348   2.642   0.268  0.3386 -2.1172  0.1816
 2733SOL    HW219662   2.240   2.545   0.274 -0.4869  0.6084  0.6920
 2734SOL     OW19663   4.248   3.959  12.243  0.0661  0.5394 -0.1475
 2734SOL    HW119664   4.299   3.922  12.314  1.8778  1.5842 -0.8870
 2734SOL    HW219665   4.260   3.890  12.178 -1.6507  0.5148 -0.4352
 2735SOL     OW19666   4.176   4.441   2.071  0.2315 -0.1947 -0.7475
 2735SOL    HW119667   4.144   4.352   2.063  0.5347 -0.5574  1.8807
 2735SOL    HW219668   4.238   4.432   2.144 -0.2068 -2.0361 -0.6117
 2736SOL     OW19669   3.278   1.047  13.859  0.5094  0.6099  0.1382
 2736SOL    HW119670   3.201   1.028  13.806  0.5067  0.3527  0.2354
 2736SOL    HW219671   3.347   1.015  13.800 -2.5408 -2.0891 -1.9221
 2737SOL     OW19672   3.007   4.538  10.491 -0.0257 -0.9713  0.0077
 2737SOL    HW119673   2.987   4.486  10.569  1.8136 -0.4595  0.8191
 2737SOL    HW219674   2.943   4.609  10.493  0.7494 -0.2931  1.4171
 2738SOL     OW19675   2.859   3.441  13.710 -0.2171  0.7558 -0.4403
 2738SOL    HW119676   2.792   3.455  13.643 -2.0231 -1.1094  0.9911
 2738SOL    HW219677   2.810   3.411  13.787 -0.9673 -0.5593 -1.4290
 2739SOL     OW19678   2.536   3.872   5.101  0.0737 -0.3025  0.4322
 2739SOL    HW119679   2.516   3.795   5.153  1.7650 -0.4860  0.8017
 2739SOL    HW219680   2.588   3.925   5.161  0.2412 -0.5654  0.5159
 2740SOL     OW19681   3.387   1.632   4.693  0.6588  0.0417  0.2920
 2740SOL    HW119682   3.376   1.727   4.693 -0.8437 -0.1307  0.7534
 2740SOL    HW219683   3.384   1.617   4.598  1.1847 -0.9654  0.4298
 2741SOL     OW19684   1.901   0.420   5.220  0.5422  0.0010  0.1539
 2741SOL    HW119685   1.891   0.512   5.246  0.5260  0.2942 -0.9009
 2741SOL    HW219686   1.991   0.402   5.249  0.0880  0.3891  1.8227
 2742SOL     OW19687   3.481   0.536   9.509  0.4152  0.2652 -0.8003
 2742SOL    HW119688   3.389   0.518   9.531  0.7021  1.0117  0.9874
 2742SOL    HW219689   3.475   0.555   9.416  0.2878 -0.1873 -0.8875
 2743SOL     OW19690   4.093   4.373   7.615 -0.1700 -0.5247  0.9412
 2743SOL    HW119691   4.149   4.402   7.687  1.0591 -0.9763  0.1670
 2743SOL    HW219692   4.008   4.396   7.652 -1.1389 -2.5755  0.0105
 2744SOL     OW19693   2.620   2.379   6.808 -0.1158 -0.1065  0.1262
 2744SOL    HW119694   2.556   2.317   6.844  1.1882 -0.9290  0.9901
 2744SOL    HW219695   2.563   2.455   6.796  0.0128 -0.1563 -0.8291
 2745SOL     OW19696   2.981   4.351   2.970 -0.5584 -0.1831 -0.0630
 2745SOL    HW119697   3.014   4.404   3.043 -0.5410 -2.0510  1.3028
 2745SOL    HW219698   2.938   4.420   2.920 -0.7446 -0.1074  0.1987
 2746SOL     OW19699   3.372   0.460   6.394  0.2290  0.1274 -0.3092
 2746SOL    HW119700   3.373   0.469   6.489  0.9894  2.1678 -0.5011
 2746SOL    HW219701   3.372   0.551   6.363  0.5296 -0.0060 -0.6898
 2747SOL     OW19702   2.509   2.057   8.153  0.6752 -0.3567  0.4318
 2747SOL    HW119703   2.502   1.962   8.161  0.6730 -0.2691  1.3957
 2747SOL    HW219704   2.583   2.064   8.093 -0.3791 -2.2263 -1.0774
 2748SOL     OW19705   4.612   1.686   5.451 -0.2435  0.1690  0.0444
 2748SOL    HW119706   4.706   1.701   5.439  0.0348  0.1811  2.2489
 2748SOL    HW219707   4.599   1.617   5.386  1.1551 -0.8749  0.8835
 2749SOL     OW19708   2.618   2.156   4.603 -0.6246 -0.3343  0.3416
 2749SOL    HW119709   2.687   2.201   4.554  0.0127 -0.1054  1.4455
 2749SOL    HW219710   2.596   2.086   4.542  1.8502 -1.1920  0.4224
 2750SOL     OW19711   2.524   4.591   3.867  0.4807  0.0561 -0.1133
 2750SOL    HW119712   2.574   4.549   3.938  0.8559  0.1513 -0.3230
 2750SOL    HW219713   2.450   4.622   3.919  0.1764 -1.5052  0.3880
 2751SOL     OW19714   3.747   2.792   5.611 -0.2043  0.2156 -0.5530
 2751SOL    HW119715   3.717   2.874   5.573 -0.1377 -0.0117 -1.0927
 2751SOL    HW219716   3.803   2.760   5.541  0.3374 -2.1821  0.9661
 2752SOL     OW19717   0.134   2.793   0.150 -0.3407 -0.3032 -0.0244
 2752SOL    HW119718   0.142   2.888   0.151  0.4471 -0.3909  1.3019
 2752SOL    HW219719   0.136   2.772   0.057  1.3091 -0.3462  0.0224
 2753SOL     OW19720   2.559   2.194  13.408  0.6751 -0.4542 -0.4032
 2753SOL    HW119721   2.514   2.214  13.490 -0.0064  0.3998 -0.9913
 2753SOL    HW219722   2.618   2.268  13.392  0.9969 -1.3278 -3.2140
 2754SOL     OW19723   2.107   2.818   5.822  0.0708  0.1847  0.7980
 2754SOL    HW119724   2.151   2.852   5.900 -2.5192  0.6517  2.0370
 2754SOL    HW219725   2.095   2.904   5.784 -1.5246 -0.0564  0.7782
 2755SOL     OW19726   0.371   0.494   3.841  0.1500  0.3138 -0.1921
 2755SOL    HW119727   0.320   0.552   3.785  1.9887  1.1132 -1.0727
 2755SOL    HW219728   0.301   0.471   3.901  1.1159 -0.7369  0.5293
 2756SOL     OW19729   1.135   3.400   1.457 -0.0118 -0.4819  0.0407
 2756SOL    HW119730   1.075   3.464   1.419  0.1464 -1.3546 -1.6883
 2756SOL    HW219731   1.123   3.404   1.552 -0.9839  1.8401 -0.1875
 2757SOL     OW19732   1.762   0.546  15.680 -0.4404 -0.3151  0.4985
 2757SOL    HW119733   1.857   0.546  15.694 -0.5208 -0.0517  1.0476
 2757SOL    HW219734   1.732   0.551  15.771 -0.1203 -1.7990  0.6793
 2758SOL     OW19735   0.840   3.317   8.659  0.1567  0.5306  0.5898
 2758SOL    HW119736   0.809   3.406   8.643 -0.3856  0.0061 -1.2039
 2758SOL    HW219737   0.926   3.325   8.618 -1.5040  2.3818 -2.5167
 2759SOL     OW19738   2.359   1.097  10.975  0.0420 -0.0632 -0.2433
 2759SOL    HW119739   2.328   1.024  11.029  0.5166 -0.0351  0.0738
 2759SOL    HW219740   2.278   1.124  10.932 -0.6872 -0.7681  0.7054
 2760SOL     OW19741   0.154   1.148   7.735 -0.3592 -0.0074  0.0225
 2760SOL    HW119742   0.190   1.193   7.658  0.2398  2.7649  1.9369
 2760SOL    HW219743   0.179   1.207   7.806  1.1770 -1.5679  0.7759
 2761SOL     OW19744   2.555   1.132  11.621  0.1959  0.2947 -0.3537
 2761SOL    HW119745   2.540   1.046  11.661 -0.1881  1.0502  1.1454
 2761SOL    HW219746   2.609   1.103  11.548  2.1199 -1.7033  1.8470
 2762SOL     OW19747   3.180   0.545   9.279 -0.1142 -0.1835  0.9780
 2762SOL    HW119748   3.173   0.556   9.374 -1.0519 -0.2790  0.9187
 2762SOL    HW219749   3.271   0.573   9.266 -0.0655 -0.3037  1.0620
 2763SOL     OW19750   2.782   1.714   1.068 -0.0692 -0.4678 -0.3725
 2763SOL    HW119751   2.753   1.679   0.984 -1.9524 -0.1224  0.1184
 2763SOL    HW219752   2.808   1.804   1.051 -0.3498 -0.5876 -1.4394
 2764SOL     OW19753   0.554   0.165   9.646  0.2204  0.0786 -0.5356
 2764SOL    HW119754   0.476   0.157   9.700 -0.3482 -0.5940 -1.4652
 2764SOL    HW219755   0.556   0.082   9.598 -4.8123  0.0469 -0.6865
 2765SOL     OW19756   1.227   2.030   6.348  0.0146 -0.3096  0.2093
 2765SOL    HW119757   1.232   1.966   6.419 -1.4329 -0.2395  0.3859
 2765SOL    HW219758   1.166   1.980   6.293 -0.9301  0.1236  0.8624
 2766SOL     OW19759   3.700   4.341   3.572  0.2486  0.2461 -0.5406
 2766SOL    HW119760   3.708   4.260   3.623 -2.0078  0.4228  0.0647
 2766SOL    HW219761   3.790   4.372   3.586 -0.1621  1.4003 -0.4546
 2767SOL     OW19762   4.587   0.655   5.780  0.1554 -0.2804 -0.1800
 2767SOL    HW119763   4.532   0.695   5.847  0.0909  0.8003 -0.8671
 2767SOL    HW219764   4.637   0.582   5.816  2.6118  1.1010 -0.7702
 2768SOL     OW19765   2.198   2.096  11.181 -0.2978  0.6331 -0.0278
 2768SOL    HW119766   2.231   2.059  11.262 -1.5703 -0.6440 -0.0910
 2768SOL    HW219767   2.219   2.189  11.187 -0.2923  0.6650 -0.5092
 2769SOL     OW19768   3.513   4.097   8.178  0.0358  0.0349  0.6401
 2769SOL    HW119769   3.446   4.164   8.187  1.9475  1.7258  2.3963
 2769SOL    HW219770   3.503   4.067   8.269 -0.6444 -0.7650  0.3024
 2770SOL     OW19771   4.469   2.928  11.992  0.1384 -0.7323 -0.2611
 2770SOL    HW119772   4.460   2.840  11.956 -0.7736 -1.1515  0.9896
 2770SOL    HW219773   4.562   2.944  12.005 -0.0504 -0.3160  0.5635
 2771SOL     OW19774   1.671   3.109  10.930 -0.0724  0.1992 -0.1892
 2771SOL    HW119775   1.710   3.176  10.873 -1.3040 -0.9038 -2.3108
 2771SOL    HW219776   1.580   3.135  10.919 -0.1496  0.2934  0.6539
 2772SOL     OW19777   0.970   0.000  13.212  0.4407 -0.1746  0.4850
 2772SOL    HW119778   0.880   0.030  13.201 -0.2328 -3.5500 -3.1218
 2772SOL    HW219779   0.969   4.643  13.161  0.1460  2.8307 -4.2263
 2773SOL     OW19780   2.747   0.230  14.876 -0.9593 -0.1751  0.0164
 2773SOL    HW119781   2.708   0.143  14.873 -0.9096 -0.0695 -3.1741
 2773SOL    HW219782   2.743   0.258  14.967 -3.7175  2.0360 -0.7769
 2774SOL     OW19783   3.912   3.343   8.811  0.1472  1.0343  0.0826
 2774SOL    HW119784   3.944   3.428   8.781  0.6254  0.0637 -2.1177
 2774SOL    HW219785   3.938   3.299   8.730  0.3908 -2.3137  1.9712
 2775SOL     OW19786   0.217   1.428   8.716 -0.4374  0.2049 -0.1485
 2775SOL    HW119787   0.205   1.334   8.701 -1.0621  0.8047 -3.4089
 2775SOL    HW219788   0.129   1.457   8.740 -0.6880  0.1379 -0.9871
 2776SOL     OW19789   1.336   1.877   3.015  0.0279 -0.0387 -0.1498
 2776SOL    HW119790   1.374   1.923   2.940  1.4735  1.3268  1.4414
 2776SOL    HW219791   1.352   1.932   3.092  0.1375  2.4681 -1.9718
 2777SOL     OW19792   4.217   1.261   4.955  0.5692 -0.0359 -0.5459
 2777SOL    HW119793   4.302   1.291   4.989  0.2869  0.6173 -0.4305
 2777SOL    HW219794   4.226   1.166   4.961 -2.7978 -0.3862 -1.1286
 2778SOL     OW19795   1.287   1.575   8.445 -0.4208 -0.2429  0.1404
 2778SOL    HW119796   1.245   1.654   8.411  0.0787  0.1439  0.4262
 2778SOL    HW219797   1.371   1.610   8.475 -1.8259  1.3605  2.2079
 2779SOL     OW19798   3.431   0.937   5.026 -0.5187 -0.6239  0.6891
 2779SOL    HW119799   3.406   1.024   4.994  0.8137 -0.5113 -0.0235
 2779SOL    HW219800   3.514   0.927   4.980 -0.1940  0.9911  0.8994
 2780SOL     OW19801   3.405   2.120   2.715  0.4617 -0.4447  0.5790
 2780SOL    HW119802   3.375   2.193   2.661  1.1285 -0.9227 -0.4364
 2780SOL    HW219803   3.386   2.040   2.667 -1.5899  0.1789  0.3483
 2781SOL     OW19804   3.550   3.518  13.546  0.3630 -0.6735 -0.0452
 2781SOL    HW119805   3.495   3.442  13.563  0.4385 -0.7243 -0.0302
 2781SOL    HW219806   3.487   3.580  13.509  1.5843  0.2637 -0.5693
 2782SOL     OW19807   2.297   0.423   6.043 -0.0829 -0.5577 -0.4203
 2782SOL    HW119808   2.361   0.494   6.035  0.2924 -0.8077  0.3754
 2782SOL    HW219809   2.342   0.347   6.005 -1.5953 -1.8177  0.2926
 2783SOL     OW19810   1.896   0.425  11.703  0.4770  0.1854  0.2280
 2783SOL    HW119811   1.907   0.376  11.784  2.7630  0.1509 -0.1122
 2783SOL    HW219812   1.949   0.379  11.637  0.2359  1.0042 -0.5407
 2784SOL     OW19813   2.191   0.703   8.765  0.0590  0.0746  0.2861
 2784SOL    HW119814   2.143   0.733   8.842  0.3925 -1.1283  0.9618
 2784SOL    HW219815   2.220   0.785   8.725  0.8917  0.2151  1.1685
 2785SOL     OW19816   3.097   3.103   3.589  0.7344 -0.5874 -0.3463
 2785SOL    HW119817   3.137   3.075   3.506  0.7852  1.1405 -0.8915
 2785SOL    HW219818   3.089   3.022   3.640 -0.6235 -0.5844 -0.5444
 2786SOL     OW19819   1.465   3.562  10.219  0.5114 -0.5066  0.1793
 2786SOL    HW119820   1.373   3.581  10.202  1.1226  0.4505 -2.0829
 2786SOL    HW219821   1.466   3.537  10.312 -1.5926 -1.7173 -0.1368
 2787SOL     OW19822   1.507   4.172   2.173 -0.4128 -0.1570  0.3692
 2787SOL    HW119823   1.576   4.180   2.107 -0.3259 -0.1953  0.4573
 2787SOL    HW219824   1.462   4.253   2.147  0.0108 -0.6927 -2.0524
 2788SOL     OW19825   4.087   3.997   8.558  0.3139 -0.2230  0.2911
 2788SOL    HW119826   4.181   4.014   8.571  0.2887  0.4473 -0.3620
 2788SOL    HW219827   4.055   4.000   8.648 -2.0071 -1.3293 -0.5034
 2789SOL     OW19828   3.153   3.849   9.635 -0.7459 -0.3897 -0.0701
 2789SOL    HW119829   3.180   3.882   9.550  0.3805 -3.3584 -0.8704
 2789SOL    HW219830   3.189   3.761   9.634  2.7872  1.0646 -1.1709
 2790SOL     OW19831   4.203   2.722  12.773 -0.2450 -0.1886  0.1998
 2790SOL    HW119832   4.244   2.635  12.769  0.3124  0.0500  0.6956
 2790SOL    HW219833   4.235   2.765  12.694  0.8283  0.6474  1.0897
 2791SOL     OW19834   4.294   0.474   1.707 -0.4252  0.0385 -0.1320
 2791SOL    HW119835   4.267   0.413   1.639  2.0953 -0.5218 -0.6591
 2791SOL    HW219836   4.217   0.530   1.708 -2.6375 -2.9891  1.4818
 2792SOL     OW19837   0.340   3.608   2.621  0.1626 -0.0151 -1.1474
 2792SOL    HW119838   0.300   3.660   2.691  1.1696 -0.1033 -0.5202
 2792SOL    HW219839   0.316   3.522   2.655  2.0673  0.2514  0.8382
 2793SOL     OW19840   0.519   4.677  11.855  0.4744 -0.7071 -0.7517
 2793SOL    HW119841   0.534   4.590  11.890 -3.2325 -0.5381  1.2788
 2793SOL    HW219842   0.424   4.671  11.844  0.2479  1.1341  0.1873
 2794SOL     OW19843   2.688   0.701   8.349  0.7074 -0.4728 -0.7717
 2794SOL    HW119844   2.607   0.651   8.361  2.0649 -1.8408  2.5652
 2794SOL    HW219845   2.666   0.759   8.276 -2.7987  1.7737  2.0772
 2795SOL     OW19846   2.181   2.585   3.624 -0.1726  0.3471 -0.2468
 2795SOL    HW119847   2.110   2.588   3.688  2.2755  1.5783  2.4076
 2795SOL    HW219848   2.134   2.604   3.543 -0.0467 -0.2679 -0.4639
 2796SOL     OW19849   2.735   0.186   3.628  0.4629  0.7070  0.0332
 2796SOL    HW119850   2.659   0.180   3.569 -0.6055  1.3361  1.3389
 2796SOL    HW219851   2.788   0.110   3.605  1.4186  1.4870 -0.3552
 2797SOL     OW19852   1.669   0.431  10.410  0.3646 -0.1784 -0.3009
 2797SOL    HW119853   1.665   0.393  10.322  0.2126  1.5250 -1.0239
 2797SOL    HW219854   1.646   0.523  10.396  1.1188 -0.0699 -0.8364
 2798SOL     OW19855   4.519   2.311   1.438 -0.1447 -0.1335  0.2762
 2798SOL    HW119856   4.614   2.323   1.443 -0.2894  0.4161  1.8706
 2798SOL    HW219857   4.498   2.350   1.353 -0.9116  1.6361  1.2655
 2799SOL     OW19858   3.420   0.172  14.224 -0.1910 -0.3872  0.3173
 2799SOL    HW119859   3.372   0.240  14.272 -2.0408 -1.4497 -0.0077
 2799SOL    HW219860   3.416   0.102  14.289 -1.0751 -0.9286 -0.3063
 2800SOL     OW19861   0.994   2.227  11.785  0.1815 -0.3883 -0.2810
 2800SOL    HW119862   0.958   2.149  11.742 -0.0690  0.9950 -2.5788
 2800SOL    HW219863   0.966   2.298  11.726  0.4697  0.8092  1.0225
 2801SOL     OW19864   1.726   3.776   3.122 -0.1435 -0.0629 -0.3290
 2801SOL    HW119865   1.644   3.765   3.171  0.8522 -0.0598  1.3375
 2801SOL    HW219866   1.721   3.693   3.074 -0.1983 -0.9475  1.1972
 2802SOL     OW19867   3.251   2.224   6.626  0.1743 -0.0487 -0.3933
 2802SOL    HW119868   3.344   2.225   6.650  0.2608 -0.6253 -0.7050
 2802SOL    HW219869   3.206   2.246   6.708 -0.9706  2.5660 -1.7138
 2803SOL     OW19870   3.935   0.933   7.738 -0.3670 -0.4571  0.5560
 2803SOL    HW119871   3.953   0.943   7.645 -1.7364  0.1488  0.3479
 2803SOL    HW219872   3.970   1.009   7.784 -2.1168  0.4005  0.4750
 2804SOL     OW19873   0.015   2.209  16.339  0.2797  0.0598  0.1847
 2804SOL    HW119874   4.693   2.129  16.366 -1.1375  1.2561  1.4146
 2804SOL    HW219875   4.679   2.277  16.371 -0.4912 -0.9544  0.9155
 2805SOL     OW19876   3.383   4.695  16.115  0.8757 -0.5376 -0.0287
 2805SOL    HW119877   3.452   4.629  16.104  1.3915  0.0477 -0.2725
 2805SOL    HW219878   3.311   4.645  16.153  2.0951 -2.0807  0.2801
 2806SOL     OW19879   2.900   3.329   5.247 -0.1452  0.3390  0.9295
 2806SOL    HW119880   2.883   3.237   5.269 -0.9672  0.2581 -0.0585
 2806SOL    HW219881   2.991   3.337   5.278 -0.2298 -1.5545  1.6464
 2807SOL     OW19882   1.691   1.760  13.417 -0.0929  0.4298 -0.0528
 2807SOL    HW119883   1.736   1.676  13.410 -2.6377 -0.8846 -0.6000
 2807SOL    HW219884   1.624   1.738  13.482  0.1643 -1.2763 -0.3606
 2808SOL     OW19885   2.131   2.171   3.521  0.0263  0.0294  0.2006
 2808SOL    HW119886   2.103   2.233   3.454 -0.7251  0.1170  0.5862
 2808SOL    HW219887   2.145   2.223   3.601 -0.6733 -0.2442  0.5002
 2809SOL     OW19888   2.562   1.857   9.984  0.0136 -0.0245  0.6238
 2809SOL    HW119889   2.559   1.771   9.942  1.6764 -0.1659  0.8019
 2809SOL    HW219890   2.505   1.842  10.059 -0.1466  1.5525  0.8170
 2810SOL     OW19891   0.936   0.038   5.022  0.3723 -0.2085  0.4084
 2810SOL    HW119892   0.882   0.093   4.964  1.4215 -0.2000 -0.5621
 2810SOL    HW219893   1.015   0.092   5.027 -1.5397  2.4387  2.4331
 2811SOL     OW19894   0.276   1.553   3.544  0.0456  0.0579  0.2907
 2811SOL    HW119895   0.212   1.504   3.494  1.5187 -1.2609 -0.2932
 2811SOL    HW219896   0.294   1.485   3.609  0.0223  1.3039  1.6204
 2812SOL     OW19897   2.181   0.111  14.686 -0.0160 -0.2674 -0.3034
 2812SOL    HW119898   2.142   0.031  14.721 -0.0955 -0.5547 -1.0565
 2812SOL    HW219899   2.114   0.136  14.623 -1.4990  0.7947  1.6775
 2813SOL     OW19900   4.357   3.516   5.615 -0.1180  0.0537 -0.3861
 2813SOL    HW119901   4.290   3.503   5.682  0.0968  0.2807 -0.1286
 2813SOL    HW219902   4.421   3.448   5.638 -0.9547 -0.7324 -0.3724
 2814SOL     OW19903   0.940   3.209   4.216 -0.3954 -0.2076  0.4098
 2814SOL    HW119904   0.924   3.281   4.156  1.5931 -1.7259 -1.9645
 2814SOL    HW219905   1.009   3.235   4.277  0.5127 -0.7878 -0.3621
 2815SOL     OW19906   0.546   0.691   2.076 -0.6513 -0.1905 -0.0684
 2815SOL    HW119907   0.477   0.642   2.120 -1.5286 -0.6206 -1.9413
 2815SOL    HW219908   0.622   0.658   2.123  0.0482  0.1032 -0.9978
 2816SOL     OW19909   3.016   1.638  11.621  0.5348  0.0068  0.7920
 2816SOL    HW119910   2.994   1.704  11.687  0.0881 -0.9291  1.5618
 2816SOL    HW219911   2.979   1.682  11.544 -0.4178 -0.8272  0.7719
 2817SOL     OW19912   2.488   0.299   9.912 -0.0058 -0.2492  0.0776
 2817SOL    HW119913   2.487   0.258   9.998 -0.7200  3.7505  2.0026
 2817SOL    HW219914   2.541   0.237   9.862 -0.2900  1.1076 -1.9318
 2818SOL     OW19915   0.434   3.601  12.942 -0.4718  0.4881  0.3745
 2818SOL    HW119916   0.383   3.533  12.897  0.1440  1.3581 -1.6190
 2818SOL    HW219917   0.493   3.632  12.874  0.5951  0.0111  1.0649
 2819SOL     OW19918   1.150   3.313  14.147 -0.5123  0.3932 -0.1994
 2819SOL    HW119919   1.061   3.337  14.122  0.5084  2.2731 -1.9550
 2819SOL    HW219920   1.138   3.297  14.241  1.3555 -0.4933 -0.1192
 2820SOL     OW19921   4.613   4.196   3.253  0.0823 -0.0002  0.3049
 2820SOL    HW119922   4.668   4.274   3.256 -0.2140  0.2600 -1.3269
 2820SOL    HW219923   4.574   4.198   3.166  1.1262  0.8337 -0.1435
 2821SOL     OW19924   1.843   1.344  16.987 -0.1139  0.1835 -0.1799
 2821SOL    HW119925   1.935   1.344  16.964 -0.8584  0.2333 -3.1348
 2821SOL    HW219926   1.812   1.407  16.922 -2.0644 -2.7273 -2.1035
 2822SOL     OW19927   0.148   1.920   6.932  0.0301  0.2492  0.4799
 2822SOL    HW119928   0.129   2.009   6.961  0.7593  1.0225 -1.4293
 2822SOL    HW219929   0.068   1.881   6.897 -0.3979  1.9809 -0.4642
 2823SOL     OW19930   2.975   3.873  11.582 -0.0477  0.0383 -0.3868
 2823SOL    HW119931   2.943   3.823  11.658 -2.0186  3.6287  1.1419
 2823SOL    HW219932   3.069   3.865  11.597  0.1474  1.9611 -0.5787
 2824SOL     OW19933   4.616   1.702  14.253  0.7520 -0.4847  0.5122
 2824SOL    HW119934   4.629   1.797  14.258 -0.0485 -0.2686 -1.4774
 2824SOL    HW219935   4.530   1.699  14.211  0.0323 -0.9192  2.0254
 2825SOL     OW19936   3.684   0.589   7.773  0.1152  0.4145  0.0117
 2825SOL    HW119937   3.777   0.600   7.755 -0.2421  0.8874 -1.5574
 2825SOL    HW219938   3.692   0.540   7.855  1.8582  0.8122  0.0747
 2826SOL     OW19939   0.322   4.635   7.038 -0.0562 -0.1374  0.3403
 2826SOL    HW119940   0.366   4.550   7.034 -0.7566 -0.4169 -1.1511
 2826SOL    HW219941   0.292   4.631   7.129  1.8013 -2.1966  0.8735
 2827SOL     OW19942   2.765   1.265   3.795  0.6183  0.2661  0.2480
 2827SOL    HW119943   2.847   1.295   3.757  1.2609 -1.1583  0.4837
 2827SOL    HW219944   2.770   1.315   3.876 -1.1831  0.8044  0.0176
 2828SOL     OW19945   1.341   1.009   0.792 -0.1250  0.0372  0.1040
 2828SOL    HW119946   1.297   1.011   0.708 -1.5686  1.5922  0.8976
 2828SOL    HW219947   1.382   1.096   0.790 -1.3575  0.5802 -1.2216
 2829SOL     OW19948   1.160   0.274   3.796  0.3502 -0.2357  0.3081
 2829SOL    HW119949   1.192   0.210   3.859 -0.1070 -1.2413 -0.4630
 2829SOL    HW219950   1.168   0.360   3.837  0.0432 -0.2825  0.4702
 2830SOL     OW19951   2.311   3.554   4.477 -0.6310  0.1336  0.2353
 2830SOL    HW119952   2.346   3.547   4.388 -1.6397  2.7855 -0.3552
 2830SOL    HW219953   2.342   3.472   4.515 -1.1763 -0.2037 -0.0570
 2831SOL     OW19954   4.703   3.958   4.243  1.0319  0.1959  0.6448
 2831SOL    HW119955   4.665   3.989   4.325  0.7896 -0.7845  0.9099
 2831SOL    HW219956   4.688   3.864   4.258  0.3134 -0.0455 -1.5636
 2832SOL     OW19957   2.861   3.433   9.566 -0.4290 -0.2132  0.1923
 2832SOL    HW119958   2.955   3.448   9.566 -0.9035  2.6880 -0.3236
 2832SOL    HW219959   2.846   3.380   9.487  0.1369  1.1809 -0.8335
 2833SOL     OW19960   3.445   2.348   0.192 -0.1908 -1.1191 -0.0850
 2833SOL    HW119961   3.424   2.367   0.100  1.3669  1.1008  0.0319
 2833SOL    HW219962   3.447   2.252   0.191 -1.6229 -1.1494  0.5858
 2834SOL     OW19963   1.349   0.982   9.222  0.4079  0.1089 -0.5606
 2834SOL    HW119964   1.349   1.077   9.207 -1.2645  0.5317  1.9599
 2834SOL    HW219965   1.435   0.985   9.264 -0.6888 -1.2286  1.7611
 2835SOL     OW19966   3.000   3.129  14.541  0.0337 -0.2084  0.1865
 2835SOL    HW119967   3.093   3.121  14.561  0.0935 -2.8548 -1.1937
 2835SOL    HW219968   2.970   3.041  14.520  1.5891 -1.4522  3.1064
 2836SOL     OW19969   3.793   3.662   3.249  0.3320 -0.5568  0.1541
 2836SOL    HW119970   3.699   3.677   3.246  0.3950 -0.1985 -0.0503
 2836SOL    HW219971   3.798   3.600   3.176  1.6565 -0.3458  0.0659
 2837SOL     OW19972   2.921   1.810   4.841 -0.4693 -0.2818  0.0764
 2837SOL    HW119973   2.938   1.879   4.905 -3.2310  0.9896 -0.5532
 2837SOL    HW219974   2.958   1.852   4.763 -0.9404  2.4836  1.3608
 2838SOL     OW19975   0.290   2.414  11.768  0.6228  0.1414 -0.1131
 2838SOL    HW119976   0.237   2.343  11.731 -0.9049  1.2389 -0.0027
 2838SOL    HW219977   0.265   2.414  11.860  0.8292 -0.7471 -0.0566
 2839SOL     OW19978   2.040   3.926   4.067  1.0680 -0.6924 -0.0428
 2839SOL    HW119979   2.042   3.842   4.113 -1.1573 -0.1257  1.0793
 2839SOL    HW219980   2.132   3.922   4.038  1.2986  0.4474  0.5304
 2840SOL     OW19981   1.791   1.258  11.842 -0.5212 -0.4098 -0.1858
 2840SOL    HW119982   1.698   1.262  11.865 -0.2530  1.8189  0.5299
 2840SOL    HW219983   1.783   1.233  11.750 -1.2388  2.6565 -0.9456
 2841SOL     OW19984   3.034   0.483  14.996  0.3148  0.0129  0.1855
 2841SOL    HW119985   3.014   0.492  15.090 -1.9477  0.6879 -0.3532
 2841SOL    HW219986   2.954   0.482  14.943  1.8857 -2.9996 -2.1341
 2842SOL     OW19987   4.661   0.594   0.104  0.4098  0.3197  0.2063
 2842SOL    HW119988   0.030   0.595   0.079  0.2001  2.3624 -0.4965
 2842SOL    HW219989   4.647   0.502   0.129 -1.8836  0.7090  0.3782
 2843SOL     OW19990   4.575   1.651   1.493  0.5911 -0.3271  0.0277
 2843SOL    HW119991   4.665   1.683   1.495 -0.0107  1.3444  0.9261
 2843SOL    HW219992   4.548   1.716   1.558  0.8129  0.9002 -1.0930
 2844SOL     OW19993   0.728   2.488   4.950 -0.0105 -0.2654  0.8098
 2844SOL    HW119994   0.807   2.446   4.914  1.2407  2.3233  0.5259
 2844SOL    HW219995   0.688   2.415   4.996 -1.0298 -0.9260 -1.1133
 2845SOL     OW19996   1.309   1.314  11.161 -0.2557 -0.0086 -0.3661
 2845SOL    HW119997   1.266   1.302  11.245 -0.8316  0.7318 -0.5622
 2845SOL    HW219998   1.384   1.366  11.190  0.5800 -2.5143  2.0227
 2846SOL     OW19999   4.605   3.105   7.145  0.3118  0.2418  0.1610
 2846SOL    HW120000   4.525   3.151   7.172 -0.1715  0.0655 -0.9819
 2846SOL    HW220001   4.580   3.016   7.168 -2.1663  1.2483  1.4515
 2847SOL     OW20002   3.385   0.181  15.125  0.0108 -0.3094  0.2730
 2847SOL    HW120003   3.401   0.104  15.070 -2.6540 -0.9801  0.4812
 2847SOL    HW220004   3.318   0.228  15.075  0.1806  1.9366  2.1471
 2848SOL     OW20005   1.510   1.488   2.064 -0.1920  0.5068  0.3441
 2848SOL    HW120006   1.548   1.441   2.139 -0.9656 -0.2283  0.2834
 2848SOL    HW220007   1.587   1.537   2.036 -0.1095  0.1929  0.0222
 2849SOL     OW20008   3.396   1.603   7.937  0.0017 -0.6131 -0.5653
 2849SOL    HW120009   3.481   1.577   7.901 -0.6911 -1.0854 -1.8543
 2849SOL    HW220010   3.391   1.560   8.022  1.9979  0.2634 -0.0189
 2850SOL     OW20011   0.750   0.480   6.089  0.6180  0.0706  0.7536
 2850SOL    HW120012   0.684   0.412   6.074  1.0145 -0.1761  0.1390
 2850SOL    HW220013   0.823   0.420   6.076 -0.1143 -0.6809  0.1121
 2851SOL     OW20014   1.505   0.002  10.418  0.1220 -0.4395  0.5350
 2851SOL    HW120015   1.531   4.678  10.497  0.5925  0.0844  0.6938
 2851SOL    HW220016   1.439   0.066  10.445  0.7722  1.0181 -1.3230
 2852SOL     OW20017   4.002   1.041  16.241  0.6533 -0.2652 -0.2522
 2852SOL    HW120018   3.954   1.088  16.173  0.5401 -0.7492 -0.5035
 2852SOL    HW220019   3.983   0.950  16.218  0.0137 -0.1813 -0.0738
 2853SOL     OW20020   3.252   1.850  16.540 -0.1860  0.2996  0.1193
 2853SOL    HW120021   3.228   1.760  16.518 -1.6276  0.8199 -0.4502
 2853SOL    HW220022   3.310   1.829  16.612  0.4622  0.1000 -0.4585
 2854SOL     OW20023   2.263   2.705   2.483 -0.1681 -0.1495  0.3488
 2854SOL    HW120024   2.358   2.699   2.471 -0.3845  2.1259 -2.3575
 2854SOL    HW220025   2.232   2.641   2.419  0.7232 -2.8137  2.5192
 2855SOL     OW20026   2.073   3.222   4.657 -0.0590  0.4278 -0.1003
 2855SOL    HW120027   1.989   3.221   4.611  1.3493 -2.0396 -2.5919
 2855SOL    HW220028   2.132   3.198   4.585 -0.9453 -0.6309 -0.4619
 2856SOL     OW20029   1.114   1.076   8.644 -0.4522  0.3422  0.4995
 2856SOL    HW120030   1.106   1.125   8.726 -0.0128  0.3016  0.5642
 2856SOL    HW220031   1.197   1.113   8.613 -0.6571  1.0275  0.7740
 2857SOL     OW20032   1.445   1.723   4.269 -0.1654 -0.4604 -0.2324
 2857SOL    HW120033   1.450   1.788   4.339  2.1364  1.2513 -1.9764
 2857SOL    HW220034   1.495   1.771   4.202  0.6649  2.0381  2.1965
 2858SOL     OW20035   4.210   0.825   6.285  0.4857 -0.5138 -0.4401
 2858SOL    HW120036   4.150   0.843   6.213  0.5055  2.1301  0.1879
 2858SOL    HW220037   4.238   0.736   6.265 -1.8213 -0.6813 -2.8673
 2859SOL     OW20038   2.361   3.503   4.213  0.2429  0.4025 -0.2304
 2859SOL    HW120039   2.395   3.433   4.159  3.0380  1.9859 -0.5595
 2859SOL    HW220040   2.272   3.471   4.226  0.5400 -1.3548 -2.5593
 2860SOL     OW20041   4.424   0.362   6.034  0.0688 -0.3977 -0.0180
 2860SOL    HW120042   4.452   0.448   6.065  0.9989 -0.9699  0.7368
 2860SOL    HW220043   4.476   0.347   5.955 -0.2464  0.0597 -0.3089
 2861SOL     OW20044   0.259   4.380   3.144  0.0554  0.2353 -0.1018
 2861SOL    HW120045   0.250   4.446   3.076 -2.3402  0.1013  0.1068
 2861SOL    HW220046   0.340   4.338   3.114  0.8479  0.8070  1.2265
 2862SOL     OW20047   2.562   1.205   0.661  0.0072  0.7395  0.0156
 2862SOL    HW120048   2.608   1.122   0.646 -0.9106  0.0844  0.8022
 2862SOL    HW220049   2.591   1.228   0.750 -0.3167  1.3824 -0.0443
 2863SOL     OW20050   1.513   0.990   6.034  0.5607  0.0808  0.1322
 2863SOL    HW120051   1.475   0.933   6.101  0.8305  0.7637  0.8626
 2863SOL    HW220052   1.563   1.046   6.094 -1.6465  0.5515  1.5565
 2864SOL     OW20053   0.437   3.405   3.572  0.2613 -0.0384  0.2197
 2864SOL    HW120054   0.421   3.334   3.634  3.9017  0.5204  1.7712
 2864SOL    HW220055   0.392   3.368   3.496  1.4968  0.9575 -1.0031
 2865SOL     OW20056   0.967   3.890   6.410 -1.0198 -0.1775 -0.5508
 2865SOL    HW120057   0.879   3.854   6.417 -2.8146  3.9490 -2.1315
 2865SOL    HW220058   1.003   3.824   6.351  0.4933 -2.2923  2.7370
 2866SOL     OW20059   2.496   0.884   4.641 -0.2456 -0.2347 -0.0326
 2866SOL    HW120060   2.581   0.927   4.640  0.4039 -1.5696 -0.6813
 2866SOL    HW220061   2.452   0.947   4.583 -1.6826 -0.2755  1.0030
 2867SOL     OW20062   2.665   2.495   6.531 -0.4911 -0.2876 -0.1166
 2867SOL    HW120063   2.679   2.485   6.625 -0.7725 -0.3609 -0.0811
 2867SOL    HW220064   2.737   2.438   6.504  1.5353  1.5859  1.3293
 2868SOL     OW20065   0.748   2.635   7.370  0.2051 -0.1795  0.1261
 2868SOL    HW120066   0.715   2.637   7.460 -0.2626 -0.3313 -0.0448
 2868SOL    HW220067   0.830   2.587   7.378  0.2401 -0.1291  0.0721
 2869SOL     OW20068   4.573   1.097   3.340  0.2770 -0.3121 -0.1732
 2869SOL    HW120069   4.594   1.114   3.432 -0.3497 -2.5985  0.4148
 2869SOL    HW220070   4.541   1.007   3.351  0.0842 -0.5720 -2.9276
 2870SOL     OW20071   3.954   2.632  12.651 -0.2621 -0.2170  0.4867
 2870SOL    HW120072   4.016   2.661  12.718  0.7362  0.5100 -0.7421
 2870SOL    HW220073   3.927   2.548  12.687 -0.7241 -0.5549 -0.6676
 2871SOL     OW20074   0.411   2.370  14.320  0.0719  0.3433 -0.0951
 2871SOL    HW120075   0.331   2.379  14.268 -0.0483 -0.5353 -0.0498
 2871SOL    HW220076   0.478   2.355  14.253  2.1448  2.7073  1.4301
 2872SOL     OW20077   1.883   0.375   0.935  0.1227  0.0869 -0.2455
 2872SOL    HW120078   1.894   0.469   0.919  2.2792 -0.0997  0.1629
 2872SOL    HW220079   1.848   0.352   0.849 -0.1762  0.9378 -0.3552
 2873SOL     OW20080   3.556   0.458   1.352  0.5215  0.2664 -0.1156
 2873SOL    HW120081   3.552   0.412   1.436 -0.0213 -0.1333 -0.3608
 2873SOL    HW220082   3.493   0.410   1.298  1.3615  0.4608 -1.2851
 2874SOL     OW20083   4.088   2.374   2.392  0.0888 -0.0341  0.6633
 2874SOL    HW120084   4.024   2.348   2.459  1.9943 -0.1566  2.4432
 2874SOL    HW220085   4.086   2.469   2.404 -1.4805 -0.0680  0.6544
 2875SOL     OW20086   4.481   2.147  12.370 -0.3590  0.1429  0.1394
 2875SOL    HW120087   4.563   2.196  12.360 -1.2993  1.3584 -1.7300
 2875SOL    HW220088   4.416   2.217  12.372 -0.1868  0.2951  0.4298
 2876SOL     OW20089   4.688   0.649   9.744  0.5508  0.3757  0.1013
 2876SOL    HW120090   4.708   0.742   9.729  1.8428  0.0718 -0.0265
 2876SOL    HW220091   0.040   0.610   9.701 -0.7100 -0.5456 -1.2710
 2877SOL     OW20092   0.114   3.149   8.815  0.4869 -0.0281 -0.6511
 2877SOL    HW120093   0.035   3.102   8.843  0.5075  0.0285 -0.5000
 2877SOL    HW220094   0.082   3.233   8.782  0.2539  0.9796  2.1211
 2878SOL     OW20095   3.765   1.868  10.135  0.5210 -0.1882 -0.4052
 2878SOL    HW120096   3.846   1.899  10.094  1.1189 -1.3680 -0.1276
 2878SOL    HW220097   3.732   1.945  10.180  1.8700  0.1870 -0.0618
 2879SOL     OW20098   2.733   1.117   2.413 -0.5943 -0.7413  0.2047
 2879SOL    HW120099   2.794   1.186   2.438 -0.2718 -1.7247  2.1819
 2879SOL    HW220100   2.677   1.123   2.490 -0.8858  1.5682 -0.1909
 2880SOL     OW20101   4.612   2.134   1.689 -0.5782 -0.2388 -0.5647
 2880SOL    HW120102   4.665   2.213   1.675  0.8602 -1.1567 -0.2230
 2880SOL    HW220103   4.680   2.068   1.697  0.3129  0.3801 -3.0151
 2881SOL     OW20104   3.179   0.274  15.416 -0.1807 -0.4741 -0.2472
 2881SOL    HW120105   3.093   0.235  15.426 -0.0418 -1.3651 -2.4525
 2881SOL    HW220106   3.236   0.199  15.394  1.2744  1.0916 -1.8414
 2882SOL     OW20107   0.101   2.464   3.196  0.6371  0.3599 -0.2491
 2882SOL    HW120108   0.050   2.430   3.269 -0.6783  1.2239 -0.7503
 2882SOL    HW220109   0.024   2.488   3.144 -0.4922 -3.1106 -0.2146
 2883SOL     OW20110   0.280   4.672  15.750  0.2809  0.4425  0.2155
 2883SOL    HW120111   0.324   4.690  15.667 -0.1518  2.2135  0.3674
 2883SOL    HW220112   0.192   4.706  15.735  0.0303 -0.4817 -0.3646
 2884SOL     OW20113   4.691   2.775   3.326  0.1935  0.2006  0.2182
 2884SOL    HW120114   0.031   2.845   3.342 -1.5244  1.5517  1.0502
 2884SOL    HW220115   4.649   2.774   3.412  1.3756  0.3098  0.7932
 2885SOL     OW20116   3.421   1.693   6.746 -0.3446  0.4914  0.1112
 2885SOL    HW120117   3.365   1.691   6.824 -1.2423  2.7585 -0.4659
 2885SOL    HW220118   3.456   1.782   6.758  0.9693 -0.0326  0.1990
 2886SOL     OW20119   3.057   2.399   6.158 -0.1196  0.2774 -0.1871
 2886SOL    HW120120   3.079   2.363   6.244 -0.1924 -0.2870 -0.4051
 2886SOL    HW220121   3.133   2.454   6.138  0.9765 -1.5087 -0.8740
 2887SOL     OW20122   1.830   3.477   7.882  0.8190 -0.0927 -0.0522
 2887SOL    HW120123   1.735   3.483   7.894  0.7305  0.9046 -1.3249
 2887SOL    HW220124   1.834   3.437   7.796 -0.9248 -2.1913  0.8310
 2888SOL     OW20125   3.811   0.082   1.250  0.3698  0.0244 -0.7255
 2888SOL    HW120126   3.897   0.124   1.257  0.6202 -0.3764 -1.4047
 2888SOL    HW220127   3.802   0.050   1.160  1.9898  0.5190 -1.0620
 2889SOL     OW20128   3.976   3.594  11.263  0.2877  0.4876 -0.0870
 2889SOL    HW120129   3.948   3.580  11.354 -0.3581 -0.3766 -0.4190
 2889SOL    HW220130   4.067   3.566  11.267  0.1760 -0.1687 -2.4541
 2890SOL     OW20131   2.388   4.513   6.856  0.7700  0.7050 -0.4098
 2890SOL    HW120132   2.422   4.456   6.787  3.8363  1.5693  0.4029
 2890SOL    HW220133   2.465   4.552   6.897  1.5123  0.3137 -1.4380
 2891SOL     OW20134   0.638   0.172   6.916 -0.2891  0.6561 -0.1607
 2891SOL    HW120135   0.592   0.245   6.958  0.6861  0.0199  1.9892
 2891SOL    HW220136   0.682   0.142   6.995  0.3072 -0.6973 -1.0139
 2892SOL     OW20137   1.118   4.525   1.603  0.4238 -0.0158 -0.1349
 2892SOL    HW120138   1.128   4.465   1.529 -0.7775 -4.1129  3.0126
 2892SOL    HW220139   1.070   4.592   1.554 -2.1284 -1.2330  0.7010
 2893SOL     OW20140   0.130   1.582   4.385  0.4499  0.2343  0.6423
 2893SOL    HW120141   0.102   1.651   4.324  1.0212  1.1608  1.4162
 2893SOL    HW220142   0.222   1.568   4.362  0.6664 -1.9835  2.8817
 2894SOL     OW20143   3.649   2.339   7.266  1.4187 -0.1984  0.4886
 2894SOL    HW120144   3.689   2.426   7.273 -0.6180  0.7661 -0.0466
 2894SOL    HW220145   3.665   2.296   7.350  1.6227  0.5072  0.8072
 2895SOL     OW20146   2.122   2.666   0.979 -0.1383 -0.2340  0.0867
 2895SOL    HW120147   2.122   2.760   0.962 -0.4009 -0.0758  0.9796
 2895SOL    HW220148   2.132   2.631   0.890 -0.5817 -1.2190  0.4148
 2896SOL     OW20149   0.104   2.980   9.137  0.3410  0.1868  0.1837
 2896SOL    HW120150   0.032   3.009   9.079 -0.1963 -1.6854 -0.0937
 2896SOL    HW220151   0.083   3.030   9.216 -0.4507 -0.3386  0.3022
 2897SOL     OW20152   0.818   3.866   4.371  0.0602 -0.2120  0.1020
 2897SOL    HW120153   0.785   3.850   4.283  1.1842 -1.7919 -0.0276
 2897SOL    HW220154   0.903   3.901   4.343  0.8029 -3.7526 -1.9948
 2898SOL     OW20155   1.031   1.643   5.537  0.1632  0.2161 -0.4940
 2898SOL    HW120156   1.121   1.640   5.506  0.3168 -0.4990  0.0289
 2898SOL    HW220157   1.013   1.549   5.544  0.4310  0.1578 -0.5957
 2899SOL     OW20158   3.626   3.527   3.464  0.3212  0.2860 -0.1627
 2899SOL    HW120159   3.624   3.446   3.412  0.2036  0.1136  0.1107
 2899SOL    HW220160   3.577   3.587   3.409  2.4713  1.5160 -0.7564
 2900SOL     OW20161   1.690   3.069   7.927  0.2105  0.1695  1.0683
 2900SOL    HW120162   1.625   3.134   7.899 -1.0268 -1.3950  0.3365
 2900SOL    HW220163   1.673   3.000   7.864 -0.1247  2.2965 -1.1947
 2901SOL     OW20164   3.031   0.297  16.139 -0.4541 -0.1082  0.2253
 2901SOL    HW120165   3.013   0.275  16.047 -0.7196 -2.7049  0.9012
 2901SOL    HW220166   3.054   0.389  16.124  1.0375 -0.2703  1.5516
 2902SOL     OW20167   3.638   3.197   2.356 -0.1300  0.3581  0.4367
 2902SOL    HW120168   3.605   3.281   2.325 -2.3962 -1.1241 -1.0902
 2902SOL    HW220169   3.560   3.167   2.403  0.0935  0.0836  0.6332
 2903SOL     OW20170   2.006   4.582  15.008 -0.5411 -0.3300 -0.3046
 2903SOL    HW120171   2.048   4.564  14.924 -0.9798 -0.1751 -0.5588
 2903SOL    HW220172   2.078   4.599  15.069 -0.5265  1.1527 -0.7242
 2904SOL     OW20173   0.016   2.939  12.004 -0.0746 -0.3535  0.4888
 2904SOL    HW120174   0.037   2.889  12.082  0.8580 -0.4543  0.1735
 2904SOL    HW220175   0.101   2.983  12.006  0.1433 -0.8000  0.8952
 2905SOL     OW20176   1.035   0.702   6.804 -0.3269  0.2151  0.4674
 2905SOL    HW120177   0.942   0.689   6.790 -0.4387  1.6447 -0.1467
 2905SOL    HW220178   1.076   0.636   6.749 -1.6478  0.3859 -0.7142
 2906SOL     OW20179   0.478   4.670  16.539  0.2929  0.2077  0.0280
 2906SOL    HW120180   0.446   4.598  16.485 -0.7938  1.4720 -1.0038
 2906SOL    HW220181   0.398   4.681  16.591 -0.6200  0.4200 -1.4086
 2907SOL     OW20182   2.639   4.342  12.885 -0.3258 -0.6957  0.2837
 2907SOL    HW120183   2.591   4.267  12.850 -0.1330 -0.0733 -1.3605
 2907SOL    HW220184   2.571   4.381  12.939 -2.0869 -1.4015 -1.4133
 2908SOL     OW20185   2.990   2.409  12.211  0.3498 -0.7509  0.5051
 2908SOL    HW120186   2.984   2.482  12.149  0.5426 -1.3477 -0.2253
 2908SOL    HW220187   3.085   2.407  12.219  0.3446  0.7209  0.9820
 2909SOL     OW20188   3.593   3.202  12.946 -0.1088 -0.2429  0.6293
 2909SOL    HW120189   3.673   3.240  12.982  1.3391 -1.9354 -0.8438
 2909SOL    HW220190   3.535   3.242  13.011 -0.4703  0.4564 -0.1161
 2910SOL     OW20191   3.969   2.477   5.017 -0.9538 -0.1039  0.0416
 2910SOL    HW120192   3.988   2.387   4.994  1.0822  0.2604  0.3568
 2910SOL    HW220193   4.056   2.496   5.052 -0.1376 -0.7461 -1.6495
 2911SOL     OW20194   0.282   3.012  12.019  0.0279  0.3840 -0.7293
 2911SOL    HW120195   0.367   3.043  12.051 -0.8946 -0.5455  2.6459
 2911SOL    HW220196   0.307   2.989  11.930 -0.6383  0.3091 -0.8954
 2912SOL     OW20197   2.830   3.068   3.083  0.5128  0.4421 -0.2446
 2912SOL    HW120198   2.870   2.983   3.100  0.1717  0.4382  0.5495
 2912SOL    HW220199   2.899   3.130   3.104 -0.0048  1.3931 -1.3195
 2913SOL     OW20200   3.038   3.094   6.460  0.4838  0.1724  0.0504
 2913SOL    HW120201   3.126   3.126   6.480 -0.0928  1.0385  1.1830
 2913SOL    HW220202   3.019   3.062   6.548  0.8505 -0.9420 -0.2746
 2914SOL     OW20203   0.322   2.647   7.547 -0.2387 -0.5991  0.5529
 2914SOL    HW120204   0.351   2.556   7.551 -1.1023 -0.9252 -0.5724
 2914SOL    HW220205   0.359   2.681   7.628 -3.3613 -0.8642  2.0745
 2915SOL     OW20206   0.569   3.227   0.430 -0.2764 -0.2553 -0.4059
 2915SOL    HW120207   0.499   3.162   0.440 -0.9354  0.7646  1.5320
 2915SOL    HW220208   0.638   3.175   0.388 -0.0699 -0.4899  0.2331
 2916SOL     OW20209   4.023   3.249   6.268  0.2179 -0.5893  0.1338
 2916SOL    HW120210   3.933   3.271   6.243  1.0326  1.4634 -0.9286
 2916SOL    HW220211   4.016   3.175   6.329  0.6355 -0.3317  0.4947
 2917SOL     OW20212   2.697   3.473   1.589  0.0518 -0.2753  0.0106
 2917SOL    HW120213   2.663   3.467   1.678 -0.3374  1.5476 -0.0096
 2917SOL    HW220214   2.790   3.465   1.609 -0.0954 -0.7937  0.4870
 2918SOL     OW20215   2.728   3.611  16.388  0.2212 -0.7986 -0.3873
 2918SOL    HW120216   2.697   3.544  16.328  0.3204 -1.5789  0.4300
 2918SOL    HW220217   2.820   3.594  16.365  0.7487 -1.4573  2.2648
 2919SOL     OW20218   4.300   1.580   0.593  0.1763 -0.0677  0.5171
 2919SOL    HW120219   4.337   1.657   0.550 -1.7603  0.0307 -0.9434
 2919SOL    HW220220   4.259   1.537   0.519 -0.9815 -0.0023  1.1204
 2920SOL     OW20221   2.747   1.168   1.135 -0.5801 -0.1044 -0.4239
 2920SOL    HW120222   2.678   1.190   1.198  0.0882 -1.2504  0.7197
 2920SOL    HW220223   2.826   1.180   1.188 -0.6840  1.2832 -0.5777
 2921SOL     OW20224   1.150   1.155   1.192  0.4896  0.4106 -0.1705
 2921SOL    HW120225   1.246   1.151   1.194  0.5918  3.1533  0.4584
 2921SOL    HW220226   1.139   1.082   1.132 -0.8578  0.6028 -0.1528
 2922SOL     OW20227   1.694   1.128  14.445  0.2855  0.6951  0.2511
 2922SOL    HW120228   1.746   1.208  14.459  1.8390 -0.7010  2.3750
 2922SOL    HW220229   1.744   1.058  14.485 -0.7371  0.8432  1.7887
 2923SOL     OW20230   4.714   0.113  16.356 -0.0636  0.0125  0.1394
 2923SOL    HW120231   4.642   0.143  16.301 -1.0620 -2.3831  0.1210
 2923SOL    HW220232   0.021   0.036  16.308  3.0401 -0.4993  2.9345
 2924SOL     OW20233   3.154   3.227   6.673 -0.2280 -0.0186  0.2128
 2924SOL    HW120234   3.191   3.139   6.673  0.0198  0.0918  2.1315
 2924SOL    HW220235   3.070   3.207   6.714 -1.0967 -0.1375 -1.5910
 2925SOL     OW20236   3.720   3.443   2.076  0.6500  0.3278  0.2682
 2925SOL    HW120237   3.738   3.527   2.034 -0.2174  0.8019  0.8491
 2925SOL    HW220238   3.666   3.458   2.154  1.4849 -1.3024  1.1637
 2926SOL     OW20239   3.808   0.815   8.409 -0.5229  0.2372  0.1077
 2926SOL    HW120240   3.796   0.761   8.331 -1.4697 -0.1438  0.5228
 2926SOL    HW220241   3.728   0.868   8.409 -1.1550 -0.7294 -0.4595
 2927SOL     OW20242   4.623   0.873   0.211  0.1312  0.3331  0.7483
 2927SOL    HW120243   4.612   0.781   0.186 -0.1301  0.4506  0.4352
 2927SOL    HW220244   4.647   0.864   0.304 -2.7363  2.4534  1.7186
 2928SOL     OW20245   0.364   4.188   9.964  0.6304  0.3063 -0.6730
 2928SOL    HW120246   0.336   4.097   9.955  0.5802  0.2041  0.5369
 2928SOL    HW220247   0.457   4.164   9.961  0.6195  0.1522  0.2732
 2929SOL     OW20248   3.070   0.392   4.646  0.1154 -0.7015  0.8225
 2929SOL    HW120249   3.107   0.428   4.566  0.4145 -2.0881  0.3336
 2929SOL    HW220250   3.078   0.472   4.697 -2.8359  0.5903 -0.7310
 2930SOL     OW20251   1.693   4.249   1.939  0.0825 -0.4968 -0.0904
 2930SOL    HW120252   1.676   4.316   1.873  0.8398  0.9722  1.2149
 2930SOL    HW220253   1.780   4.281   1.960 -1.0990  1.4801  1.7512
 2931SOL     OW20254   3.738   0.500  12.459 -0.5996  0.4871  0.7123
 2931SOL    HW120255   3.727   0.555  12.536  0.1318  0.6048  0.7338
 2931SOL    HW220256   3.781   0.423  12.496 -1.3175  0.6949  1.9818
 2932SOL     OW20257   1.101   3.206   6.584 -0.2908 -0.3037  0.5507
 2932SOL    HW120258   1.040   3.275   6.606  0.9063  0.5184  1.2995
 2932SOL    HW220259   1.130   3.187   6.673 -1.1826 -0.5233  0.7927
 2933SOL     OW20260   0.929   0.019   0.414  0.2156 -0.1595 -0.2689
 2933SOL    HW120261   1.023   0.036   0.411  0.3511 -0.7765  0.3790
 2933SOL    HW220262   0.908   0.059   0.498 -0.7814 -0.5477 -0.3329
 2934SOL     OW20263   1.784   4.718  11.366 -0.7113 -0.1077 -0.9446
 2934SOL    HW120264   1.699   4.717  11.321 -0.0526  2.0394 -2.2326
 2934SOL    HW220265   1.828   0.074  11.334 -0.8775  0.5361  0.4048
 2935SOL     OW20266   2.692   0.519  17.413 -0.1430  0.1887  0.2551
 2935SOL    HW120267   2.750   0.595  17.405  0.1997 -0.1427 -0.3810
 2935SOL    HW220268   2.665   0.503  17.322  1.2037 -1.2088  0.1024
 2936SOL     OW20269   4.711   0.057  11.716  0.6625  0.6035  0.4369
 2936SOL    HW120270   4.616   0.047  11.716  0.5292  1.9414 -1.4720
 2936SOL    HW220271   0.013   4.699  11.673 -0.5719  0.5520 -0.1886
 2937SOL     OW20272   2.276   2.934   8.316  0.0590 -0.2899 -0.8872
 2937SOL    HW120273   2.315   2.980   8.390  1.2778 -2.4026 -0.2176
 2937SOL    HW220274   2.183   2.921   8.337  0.2753  2.4143  1.6343
 2938SOL     OW20275   2.769   2.542  11.400  0.2813 -0.6750 -0.2927
 2938SOL    HW120276   2.738   2.610  11.460 -1.8235 -1.9002 -0.0226
 2938SOL    HW220277   2.847   2.585  11.364 -1.6936  2.5580 -0.7680
 2939SOL     OW20278   0.060   2.261  10.178 -0.0668  0.5148 -0.0498
 2939SOL    HW120279   0.080   2.324  10.108  2.0338  0.3742  0.4039
 2939SOL    HW220280   4.705   2.297  10.217 -0.6232 -1.9646  1.0804
 2940SOL     OW20281   1.843   3.230  13.844 -0.1296  0.0095  0.0053
 2940SOL    HW120282   1.749   3.215  13.858 -0.1514 -1.1789 -1.4478
 2940SOL    HW220283   1.862   3.322  13.860  0.7729 -0.1789  0.0267
 2941SOL     OW20284   0.463   2.685   0.831 -0.4215 -0.3030  0.5013
 2941SOL    HW120285   0.520   2.619   0.871  3.3839  0.8542 -2.9401
 2941SOL    HW220286   0.423   2.638   0.758 -2.2220  0.7002  0.8494
 2942SOL     OW20287   1.801   1.746   4.590 -0.0037  0.1583 -0.3311
 2942SOL    HW120288   1.789   1.689   4.514  1.0195 -0.7502  0.1979
 2942SOL    HW220289   1.864   1.808   4.551 -0.5677 -0.1728 -1.7890
 2943SOL     OW20290   0.665   2.282   7.007 -0.5652 -0.1366 -0.0305
 2943SOL    HW120291   0.705   2.223   7.072 -0.3078  0.1474  0.0708
 2943SOL    HW220292   0.693   2.367   7.041 -1.7492  0.3607 -0.3116
 2944SOL     OW20293   4.579   1.264   9.895  0.2455  0.6475 -0.0472
 2944SOL    HW120294   4.552   1.250   9.804  0.9886  2.6993 -0.5848
 2944SOL    HW220295   4.641   1.336   9.887 -0.8387  1.2958 -2.9694
 2945SOL     OW20296   3.367   3.091  13.755 -0.1529  0.0694  0.3396
 2945SOL    HW120297   3.381   3.113  13.663 -0.8569  2.4473  0.7940
 2945SOL    HW220298   3.289   3.144  13.774 -1.2838 -1.4425 -0.1478
 2946SOL     OW20299   1.055   2.497   4.856  0.0549 -0.2367 -0.3089
 2946SOL    HW120300   1.089   2.551   4.928  1.7317  1.7132 -2.5692
 2946SOL    HW220301   1.101   2.530   4.779  0.4742  1.1131  0.5194
 2947SOL     OW20302   0.370   2.755   2.674 -0.3439  0.2991 -0.7555
 2947SOL    HW120303   0.454   2.739   2.717 -0.3900  0.8157 -0.4747
 2947SOL    HW220304   0.334   2.811   2.742  0.6540  0.1510 -0.1200
 2948SOL     OW20305   2.393   1.866  13.453  0.3665  0.5114 -0.3400
 2948SOL    HW120306   2.373   1.780  13.415  1.0683  0.2580 -0.1445
 2948SOL    HW220307   2.474   1.894  13.410 -0.0983 -0.5811 -1.9508
 2949SOL     OW20308   3.848   1.198  10.461 -0.1859 -0.1334  0.2047
 2949SOL    HW120309   3.878   1.175  10.549 -2.3599  0.7048  1.1731
 2949SOL    HW220310   3.758   1.210  10.491  0.4196 -0.1864  2.1074
 2950SOL     OW20311   2.221   2.584  15.562  0.1853  0.0397  0.2338
 2950SOL    HW120312   2.228   2.607  15.655 -0.9930  0.9540  0.0849
 2950SOL    HW220313   2.300   2.624  15.526  0.4782 -1.6270 -0.9469
 2951SOL     OW20314   2.299   2.153   7.875  0.1974 -0.5318 -0.6316
 2951SOL    HW120315   2.284   2.199   7.957 -0.0428 -2.7360  0.5779
 2951SOL    HW220316   2.394   2.144   7.867  0.5440 -0.0503  3.1759
 2952SOL     OW20317   0.460   1.507   6.233  0.0144  0.1637  0.4267
 2952SOL    HW120318   0.501   1.454   6.165 -1.9506 -0.4806 -0.2342
 2952SOL    HW220319   0.413   1.573   6.182  1.1110  1.1377  0.6852
 2953SOL     OW20320   0.160   0.479   4.033 -0.4700  0.3928  0.2620
 2953SOL    HW120321   0.067   0.500   4.034 -0.5938 -0.1241 -0.1641
 2953SOL    HW220322   0.152   0.385   4.016 -0.7295  0.3703  0.5138
 2954SOL     OW20323   1.411   0.249   1.326  0.5689  0.1675 -0.3549
 2954SOL    HW120324   1.328   0.202   1.322 -1.0996  3.5890 -4.6706
 2954SOL    HW220325   1.421   0.271   1.234  0.0505 -2.0702 -0.9522
 2955SOL     OW20326   4.191   0.333   7.099  0.5507  0.2931  0.7450
 2955SOL    HW120327   4.099   0.358   7.104  0.4654  0.2695 -0.7972
 2955SOL    HW220328   4.187   0.330   7.003 -1.3565 -2.2928  0.8945
 2956SOL     OW20329   3.098   4.308   0.560 -0.3074  0.2537  0.2274
 2956SOL    HW120330   3.142   4.381   0.603  0.7770 -0.2859  0.0566
 2956SOL    HW220331   3.080   4.251   0.635  1.3990 -2.3328 -1.2968
 2957SOL     OW20332   3.957   3.212  13.185  0.3333  0.5749  0.0830
 2957SOL    HW120333   3.962   3.270  13.261  0.2270 -0.0240  0.5488
 2957SOL    HW220334   3.913   3.270  13.123  0.2164  1.1703  0.7333
 2958SOL     OW20335   2.236   1.805  16.412 -0.1859 -0.3375 -0.1548
 2958SOL    HW120336   2.268   1.864  16.344  0.1346 -2.5839 -1.9925
 2958SOL    HW220337   2.152   1.842  16.436 -0.2099 -0.3278 -0.2516
 2959SOL     OW20338   1.171   4.661   2.795  0.4288 -0.1655 -0.4595
 2959SOL    HW120339   1.239   4.596   2.775  0.0515 -1.3398  2.0835
 2959SOL    HW220340   1.187   0.001   2.725 -0.6746 -0.4836 -0.9905
 2960SOL     OW20341   1.089   1.066   4.157 -0.2646  0.6580  0.1152
 2960SOL    HW120342   1.016   1.064   4.095 -0.8693  0.2801  0.8527
 2960SOL    HW220343   1.154   1.017   4.106 -1.4303 -1.2928  0.5114
 2961SOL     OW20344   2.372   2.440   7.058 -0.1145 -0.5608 -0.5493
 2961SOL    HW120345   2.432   2.377   7.098 -0.6118 -0.4949  0.2856
 2961SOL    HW220346   2.288   2.396   7.074  0.8384 -2.2584 -0.2270
 2962SOL     OW20347   2.392   3.907  10.113 -0.6530 -0.2230  0.0554
 2962SOL    HW120348   2.365   3.928  10.202 -2.4582 -1.9736 -0.0684
 2962SOL    HW220349   2.470   3.962  10.101 -1.3368  0.6887 -0.2266
 2963SOL     OW20350   1.652   0.075   4.102  0.3486 -0.1891 -0.4029
 2963SOL    HW120351   1.641   0.096   4.009  1.9114  1.7694 -0.1468
 2963SOL    HW220352   1.734   0.121   4.122  0.3005  0.6952 -2.2493
 2964SOL     OW20353   1.135   2.065   2.024 -0.2201  0.3115 -0.4690
 2964SOL    HW120354   1.161   1.984   2.068 -0.3413  0.5073 -0.0306
 2964SOL    HW220355   1.059   2.022   1.986  0.4057 -1.3034  0.1155
 2965SOL     OW20356   2.187   3.533   1.807  0.8185 -0.7429 -0.1553
 2965SOL    HW120357   2.106   3.576   1.833 -0.1670 -0.4203 -3.7099
 2965SOL    HW220358   2.161   3.525   1.715  1.6523  1.6491 -0.6048
 2966SOL     OW20359   1.071   2.175   7.299 -0.1291 -0.1876  0.5531
 2966SOL    HW120360   1.012   2.182   7.374 -1.2407  1.6533 -0.5138
 2966SOL    HW220361   1.148   2.159   7.354 -0.7942 -1.4456  1.1301
 2967SOL     OW20362   2.227   0.345   2.900  0.3773  0.0006  0.7084
 2967SOL    HW120363   2.219   0.251   2.883  0.4363  0.0109  0.6251
 2967SOL    HW220364   2.301   0.365   2.844 -1.1815  0.3693 -1.2206
 2968SOL     OW20365   1.157   0.523   8.683  0.1619  0.2522 -0.2233
 2968SOL    HW120366   1.197   0.516   8.770 -0.4884  1.5984  0.1811
 2968SOL    HW220367   1.140   0.617   8.676  0.4764  0.1722 -2.2462
 2969SOL     OW20368   3.498   3.725  14.798 -0.8333  0.0045 -0.2035
 2969SOL    HW120369   3.539   3.639  14.788 -0.4942  0.3211 -1.5665
 2969SOL    HW220370   3.565   3.769  14.850 -0.1516  0.3245 -1.3291
 2970SOL     OW20371   4.300   3.910  13.294 -0.1849 -0.1561 -0.4501
 2970SOL    HW120372   4.289   3.818  13.270  0.2856  0.2195 -2.1113
 2970SOL    HW220373   4.234   3.949  13.237  0.2908  2.0965  0.5482
 2971SOL     OW20374   2.902   3.757   1.434  0.0439  0.0058  0.2628
 2971SOL    HW120375   2.946   3.681   1.395  0.0157 -0.2198  0.6728
 2971SOL    HW220376   2.885   3.715   1.519 -2.1518  0.3345 -0.0138
 2972SOL     OW20377   4.080   0.659   2.543 -0.2890  0.5124  0.0451
 2972SOL    HW120378   4.083   0.707   2.460 -1.1050  0.3066 -0.1130
 2972SOL    HW220379   4.172   0.637   2.558  0.0900  1.8548 -0.3701
 2973SOL     OW20380   2.421   0.767  12.844 -0.1715 -0.0985  0.1490
 2973SOL    HW120381   2.420   0.690  12.902  1.2763 -0.8063 -0.7528
 2973SOL    HW220382   2.508   0.794  12.874 -0.1938 -1.8048  1.7985
 2974SOL     OW20383   3.642   1.002   8.713 -0.5551  0.0288 -0.1189
 2974SOL    HW120384   3.726   1.043   8.693 -1.1012  0.0662 -2.4436
 2974SOL    HW220385   3.610   0.976   8.626 -0.8725  0.7462 -0.2113
 2975SOL     OW20386   4.279   3.120   9.276  0.4819  0.3727  0.3819
 2975SOL    HW120387   4.346   3.083   9.334  2.0249  3.7033  0.6774
 2975SOL    HW220388   4.264   3.209   9.308  1.6381  0.0538  1.8173
 2976SOL     OW20389   3.912   3.834  11.564  0.1959 -0.0996 -0.3762
 2976SOL    HW120390   3.916   3.900  11.495  0.3967  1.1565  0.8406
 2976SOL    HW220391   3.876   3.872  11.644 -3.2930  1.2481 -2.6388
 2977SOL     OW20392   0.815   2.094   2.304 -0.4764 -1.0342 -0.0229
 2977SOL    HW120393   0.841   2.124   2.217  0.6855  0.7662  0.9322
 2977SOL    HW220394   0.895   2.046   2.324  0.6330  0.2004 -1.4989
 2978SOL     OW20395   2.310   0.853  17.585 -0.2593  0.6646 -0.4781
 2978SOL    HW120396   2.288   0.872  17.493 -1.2183  0.4290 -0.3054
 2978SOL    HW220397   2.227   0.827  17.625  1.5867  1.2086  3.6415
 2979SOL     OW20398   0.063   0.738   4.611 -0.2896  0.5959  0.4920
 2979SOL    HW120399   0.073   0.831   4.589  3.5389  0.1434  0.4216
 2979SOL    HW220400   0.152   0.712   4.592 -0.6516  0.2974 -0.7511
 2980SOL     OW20401   1.062   4.160   4.893  0.6059  0.6219  0.2228
 2980SOL    HW120402   1.098   4.072   4.891  1.3297  0.9651 -1.5789
 2980SOL    HW220403   1.014   4.162   4.810 -1.2685 -0.0624  1.2873
 2981SOL     OW20404   3.517   0.736   8.171 -0.1790  1.2142 -0.1272
 2981SOL    HW120405   3.494   0.651   8.133 -0.0687  0.9558  0.3864
 2981SOL    HW220406   3.469   0.725   8.253  1.7360  1.6958  1.0752
 2982SOL     OW20407   0.240   2.769  11.071  0.1861 -0.6402  0.1408
 2982SOL    HW120408   0.297   2.842  11.047 -2.4273  1.5616  0.6417
 2982SOL    HW220409   0.210   2.811  11.151  0.4415 -3.0049  1.4654
 2983SOL     OW20410   1.618   0.009   9.462 -0.3334 -0.2979 -0.8231
 2983SOL    HW120411   1.608   0.103   9.450  0.9386  0.0362  0.7420
 2983SOL    HW220412   1.534   4.721   9.506 -0.5201 -0.3888 -1.1990
 2984SOL     OW20413   3.702   4.434  16.953 -0.5603  0.0603 -0.3311
 2984SOL    HW120414   3.633   4.460  17.015 -1.2010 -1.1245 -0.5524
 2984SOL    HW220415   3.679   4.341  16.953  0.3512 -0.1600 -0.4786
 2985SOL     OW20416   4.142   3.012   7.054  0.1059  0.0643 -0.1235
 2985SOL    HW120417   4.204   3.076   7.089 -1.6664  1.6804  0.0326
 2985SOL    HW220418   4.069   3.072   7.039 -1.5791 -2.4313 -1.9846
 2986SOL     OW20419   0.792   3.313  15.775 -0.0275  0.4088 -0.2236
 2986SOL    HW120420   0.716   3.349  15.820  0.6911  0.4509  0.9638
 2986SOL    HW220421   0.757   3.241  15.723  1.0169  1.7958 -2.8053
 2987SOL     OW20422   4.431   1.046   0.267 -0.0118 -0.3428 -0.1294
 2987SOL    HW120423   4.446   1.078   0.356  2.1300  1.2872 -1.0686
 2987SOL    HW220424   4.502   0.983   0.255 -0.0551  0.0912 -2.5508
 2988SOL     OW20425   2.166   1.745   7.063  0.0538 -0.1971  0.6237
 2988SOL    HW120426   2.206   1.723   6.979 -0.8155 -1.8675  0.6581
 2988SOL    HW220427   2.168   1.840   7.053  0.3376  0.1072  3.6593
 2989SOL     OW20428   2.459   4.105   5.539 -0.4116  0.0568  0.1790
 2989SOL    HW120429   2.489   4.019   5.567 -1.5627  0.1842  1.7593
 2989SOL    HW220430   2.457   4.161   5.617  2.2289  2.4190 -1.4112
 2990SOL     OW20431   0.036   1.179   4.170  0.1575 -0.1893  0.3067
 2990SOL    HW120432   0.006   1.245   4.106  1.0807 -0.0953 -0.0246
 2990SOL    HW220433   0.131   1.185   4.162  0.2337 -1.2603  0.4790
 2991SOL     OW20434   1.543   4.650   1.319 -0.5149  0.1127  0.1863
 2991SOL    HW120435   1.520   4.719   1.380  0.1326  1.4558 -1.0952
 2991SOL    HW220436   1.603   4.602   1.376  1.0520  1.4742 -0.3243
 2992SOL     OW20437   1.949   4.197   8.699  0.1208 -0.4500 -0.0483
 2992SOL    HW120438   1.872   4.148   8.727  1.5798 -2.6622  0.0097
 2992SOL    HW220439   1.998   4.176   8.778  1.3001  2.4240 -0.0058
 2993SOL     OW20440   3.493   3.125   6.351 -0.0496  1.0982 -0.0247
 2993SOL    HW120441   3.420   3.185   6.365 -0.4098  0.3006  1.4645
 2993SOL    HW220442   3.458   3.041   6.380 -0.7145  1.6552  0.7916
 2994SOL     OW20443   2.344   2.797  10.659  0.1434  0.2505  0.1951
 2994SOL    HW120444   2.317   2.809  10.750 -2.5159  1.5024 -0.7762
 2994SOL    HW220445   2.267   2.834  10.615  1.5620  1.8452 -0.9665
 2995SOL     OW20446   3.022   0.636  12.532  0.5921  0.1824  0.2563
 2995SOL    HW120447   3.033   0.666  12.622 -0.1461 -1.3093  0.8327
 2995SOL    HW220448   2.969   0.709  12.500  1.1747  0.6052  0.2317
 2996SOL     OW20449   0.037   0.622  13.920  0.1428 -0.2910 -0.5583
 2996SOL    HW120450   0.032   0.713  13.951 -1.1345 -0.6870  0.3937
 2996SOL    HW220451   0.023   0.570  13.999  1.2835 -0.4351 -0.4575
 2997SOL     OW20452   1.580   3.695   4.729  0.5273  0.1056 -0.2661
 2997SOL    HW120453   1.639   3.769   4.717  1.1694 -0.7333 -2.2167
 2997SOL    HW220454   1.505   3.750   4.749 -0.1975 -1.6303  1.8370
 2998SOL     OW20455   2.379   3.967   7.990 -0.0570  0.0932  0.1354
 2998SOL    HW120456   2.306   3.977   8.051 -0.6170 -2.1832 -0.1463
 2998SOL    HW220457   2.362   3.882   7.949  1.7642 -1.4632  2.6511
 2999SOL     OW20458   2.192   2.871   3.692  0.2026  0.2121  0.2662
 2999SOL    HW120459   2.113   2.825   3.662 -0.4400  0.8083  1.0421
 2999SOL    HW220460   2.251   2.854   3.619  1.4350  0.0978  1.2956
 3000SOL     OW20461   0.793   0.113   5.778 -0.7806  0.1194 -0.2593
 3000SOL    HW120462   0.796   0.019   5.759 -0.5198 -0.1865  1.2667
 3000SOL    HW220463   0.752   0.140   5.696 -1.4371  0.4731  0.1824
 3001SOL     OW20464   3.935   1.334   8.870 -0.2059  0.0388  0.2885
 3001SOL    HW120465   3.900   1.278   8.801  1.3131 -0.7081  0.1274
 3001SOL    HW220466   3.906   1.415   8.829  0.7700 -1.0730 -2.6091
 3002SOL     OW20467   0.825   4.721   9.545  0.0073  0.1966  0.4812
 3002SOL    HW120468   0.832   4.684   9.633  0.3390 -0.7932  0.0464
 3002SOL    HW220469   0.737   0.035   9.551 -0.5251 -0.7656 -1.4600
 3003SOL     OW20470   0.848   4.451  16.212  0.7003  0.4768 -0.2304
 3003SOL    HW120471   0.774   4.492  16.168  1.9244  2.6370 -0.2923
 3003SOL    HW220472   0.869   4.386  16.146  0.0509 -2.6054  2.6169
 3004SOL     OW20473   1.495   3.477  13.705  0.2099 -0.2378  0.3964
 3004SOL    HW120474   1.501   3.399  13.760  0.0035  0.3450  1.2438
 3004SOL    HW220475   1.403   3.479  13.679  0.0522 -0.6203  0.9202
 3005SOL     OW20476   4.369   3.135   3.238  0.3353 -0.0379 -0.1085
 3005SOL    HW120477   4.295   3.196   3.230 -1.0761 -1.4864  1.9677
 3005SOL    HW220478   4.427   3.162   3.167  0.1176  0.1854 -0.2019
 3006SOL     OW20479   3.482   0.151   2.058 -0.2472 -0.1863 -0.2329
 3006SOL    HW120480   3.484   0.057   2.076  1.3682 -0.1217 -0.0039
 3006SOL    HW220481   3.414   0.180   2.118  0.7051  0.5917  0.4849
 3007SOL     OW20482   2.299   2.430   2.919  0.9091  0.1982 -1.3403
 3007SOL    HW120483   2.306   2.495   2.849 -0.2867  0.0910 -1.5552
 3007SOL    HW220484   2.355   2.463   2.990 -0.1755 -1.8500  0.4738
 3008SOL     OW20485   0.521   1.916   2.617  0.0317 -0.3260 -0.0369
 3008SOL    HW120486   0.492   1.887   2.704 -2.5517  4.2949  0.6753
 3008SOL    HW220487   0.472   1.862   2.555 -2.0697  0.0053  1.3058
 3009SOL     OW20488   1.396   3.617   7.697 -0.2303 -0.2260 -0.2249
 3009SOL    HW120489   1.345   3.562   7.638 -2.3682  1.3730  0.1389
 3009SOL    HW220490   1.329   3.643   7.761  0.4480 -0.1963  0.4753
 3010SOL     OW20491   1.982   3.690   2.867  0.2049 -0.0627 -0.2712
 3010SOL    HW120492   2.039   3.749   2.915  0.3813  0.7040 -1.4333
 3010SOL    HW220493   1.947   3.629   2.932 -0.6581  0.7441  0.0210
 3011SOL     OW20494   0.818   1.852   9.983  0.3111  0.3814 -0.4661
 3011SOL    HW120495   0.776   1.936   9.967 -1.2781 -0.5895 -1.3638
 3011SOL    HW220496   0.837   1.843  10.076  0.4692 -0.7228 -0.6007
 3012SOL     OW20497   2.925   2.060  13.338 -0.3767 -0.6567  0.0898
 3012SOL    HW120498   2.917   2.149  13.302  0.5807 -0.1884  1.0448
 3012SOL    HW220499   3.016   2.044  13.313  0.3053  1.5130  1.1439
 3013SOL     OW20500   4.313   2.035   6.278 -0.4579 -0.1375 -0.1261
 3013SOL    HW120501   4.286   2.104   6.339  1.1065  1.8220 -1.6652
 3013SOL    HW220502   4.234   1.982   6.286 -0.5764  0.0809  0.1681
 3014SOL     OW20503   3.543   2.747   3.967 -0.0958 -0.1570 -0.4286
 3014SOL    HW120504   3.619   2.699   3.932 -1.2757 -1.9643 -0.4705
 3014SOL    HW220505   3.485   2.746   3.891 -2.3250 -0.3066  1.3073
 3015SOL     OW20506   4.154   1.195  13.866  0.4778 -0.2976 -0.4699
 3015SOL    HW120507   4.170   1.107  13.901  1.4955  0.4878  1.0033
 3015SOL    HW220508   4.087   1.176  13.801 -0.0323 -0.8603  0.2193
 3016SOL     OW20509   0.912   4.080   2.897  0.1004  0.2530  0.4101
 3016SOL    HW120510   0.999   4.090   2.858  0.7020 -0.5440  1.5627
 3016SOL    HW220511   0.912   3.991   2.932  0.9570 -0.0780 -0.4237
 3017SOL     OW20512   2.437   1.672   5.528  0.3383 -1.0660 -0.6649
 3017SOL    HW120513   2.369   1.608   5.507  1.0937 -1.9821 -0.3234
 3017SOL    HW220514   2.493   1.657   5.452  1.7099  2.4253 -0.3375
 3018SOL     OW20515   1.641   2.596   0.901  0.0640  0.5086 -0.7239
 3018SOL    HW120516   1.592   2.574   0.821 -2.6355  1.1163  0.7521
 3018SOL    HW220517   1.669   2.509   0.930 -0.5922  0.2138 -0.9548
 3019SOL     OW20518   2.078   0.253   5.644  0.1555 -0.7356  0.1368
 3019SOL    HW120519   2.089   0.317   5.715  0.6074 -1.7309  0.9597
 3019SOL    HW220520   2.163   0.270   5.605 -0.1849  0.3871 -0.1153
 3020SOL     OW20521   2.135   2.325  13.715 -0.3348  0.1489  0.1936
 3020SOL    HW120522   2.198   2.371  13.659  1.0962  0.1549  1.7926
 3020SOL    HW220523   2.105   2.258  13.654 -1.3223 -0.2455  1.1333
 3021SOL     OW20524   2.149   1.604   0.491 -0.6642 -0.4054  0.0186
 3021SOL    HW120525   2.150   1.680   0.433  0.8475  1.0006  1.9235
 3021SOL    HW220526   2.179   1.530   0.438 -0.6843 -1.1345  1.0200
 3022SOL     OW20527   3.675   2.323   8.304 -0.1753  0.3788 -0.2454
 3022SOL    HW120528   3.690   2.383   8.377 -1.5788  1.5083 -0.8982
 3022SOL    HW220529   3.581   2.330   8.292 -0.1176  1.8296  0.2329
 3023SOL     OW20530   4.468   0.733   4.571  0.0945 -0.0069  0.2025
 3023SOL    HW120531   4.465   0.812   4.516 -1.7831  0.9945  1.7438
 3023SOL    HW220532   4.563   0.728   4.584  0.1927 -0.1012 -0.5047
 3024SOL     OW20533   0.742   4.125  13.180 -0.4297  0.3222  0.6389
 3024SOL    HW120534   0.656   4.103  13.144 -0.2668 -2.8200  2.1735
 3024SOL    HW220535   0.744   4.219  13.166  2.5796  0.0247 -0.7982
 3025SOL     OW20536   4.364   4.596   8.967 -0.3372  0.1885  0.4327
 3025SOL    HW120537   4.401   4.667   9.018 -0.1129 -0.6744  1.4654
 3025SOL    HW220538   4.359   4.535   9.041 -1.5510  0.5299  0.6366
 3026SOL     OW20539   1.446   4.559   0.867  0.5018  1.1584 -0.4502
 3026SOL    HW120540   1.368   4.614   0.868 -1.1258 -1.2023  1.7768
 3026SOL    HW220541   1.489   4.593   0.945  2.5434 -1.0528 -0.5931
 3027SOL     OW20542   2.326   1.454   0.330  0.0428 -0.2393  0.0440
 3027SOL    HW120543   2.319   1.361   0.351  0.4643 -0.7797 -2.1848
 3027SOL    HW220544   2.416   1.449   0.298  0.6022 -1.8366  1.8437
 3028SOL     OW20545   4.708   0.184   8.157  0.0087  0.2756  0.5027
 3028SOL    HW120546   4.695   0.246   8.086  0.5326 -0.9724 -0.6661
 3028SOL    HW220547   0.073   0.148   8.144 -0.1227 -1.0113  3.1073
 3029SOL     OW20548   3.339   0.310   5.429 -0.1057 -0.1004 -0.6784
 3029SOL    HW120549   3.352   0.215   5.431  1.1917  0.0718 -0.8005
 3029SOL    HW220550   3.400   0.342   5.362  0.6331  2.1249  1.0495
 3030SOL     OW20551   3.894   3.055   8.030  0.7006 -0.1780 -0.5531
 3030SOL    HW120552   3.806   3.092   8.022  1.5138  2.1920  1.2185
 3030SOL    HW220553   3.909   3.018   7.943 -0.4610 -1.5224 -0.1619
 3031SOL     OW20554   4.433   2.564   8.963 -0.2003 -0.2541  0.0978
 3031SOL    HW120555   4.363   2.541   8.902  2.2790 -0.3882 -2.7164
 3031SOL    HW220556   4.404   2.536   9.049  0.7072 -2.7531 -0.4253
 3032SOL     OW20557   4.168   3.288   3.624 -0.1448  0.1618  0.1549
 3032SOL    HW120558   4.189   3.345   3.551  2.2303 -1.6723 -0.6189
 3032SOL    HW220559   4.187   3.201   3.588 -1.1269  1.5852 -3.7048
 3033SOL     OW20560   2.028   0.914  12.081 -0.8870  0.7225 -0.1679
 3033SOL    HW120561   2.058   0.828  12.053 -3.2547  0.2871 -1.4421
 3033SOL    HW220562   2.101   0.947  12.132 -0.0292  0.2346 -1.0886
 3034SOL     OW20563   2.869   3.634   2.968  0.3222  0.3920 -0.0638
 3034SOL    HW120564   2.894   3.598   2.883  0.0140  0.7520 -0.3025
 3034SOL    HW220565   2.927   3.572   3.013  0.4831 -1.2845 -2.5952
 3035SOL     OW20566   0.905   4.569   9.359  0.5400  0.0403 -0.1502
 3035SOL    HW120567   0.865   4.635   9.415 -0.3332  0.6442 -1.5100
 3035SOL    HW220568   0.943   4.507   9.421 -2.6049  0.3912  2.1206
 3036SOL     OW20569   0.528   4.262  16.745  0.0449  0.9017 -0.4049
 3036SOL    HW120570   0.603   4.287  16.798 -0.7718  3.5272 -0.4873
 3036SOL    HW220571   0.508   4.174  16.778  1.7896 -0.4964 -3.0726
 3037SOL     OW20572   2.476   2.493  13.324 -0.5047 -0.2766  0.5067
 3037SOL    HW120573   2.474   2.585  13.297  1.3313 -0.6641 -0.9386
 3037SOL    HW220574   2.568   2.482  13.346 -0.9068 -0.1751  2.2343
 3038SOL     OW20575   0.367   3.221   1.680  0.4718  0.3635 -0.0876
 3038SOL    HW120576   0.383   3.231   1.774  1.4962 -1.4417 -0.0700
 3038SOL    HW220577   0.294   3.160   1.671  0.6723  0.1097  0.0102
 3039SOL     OW20578   4.379   0.701   9.329 -0.3358  0.3737 -0.5149
 3039SOL    HW120579   4.467   0.684   9.294 -0.7164 -2.1889 -0.2234
 3039SOL    HW220580   4.353   0.767   9.265 -0.2673  0.5302 -0.3818
 3040SOL     OW20581   1.166   1.081  10.779  0.2535 -0.3377  0.0244
 3040SOL    HW120582   1.119   0.998  10.780  1.7923 -1.2204 -0.6999
 3040SOL    HW220583   1.096   1.143  10.799 -0.1677 -0.7571 -0.1606
 3041SOL     OW20584   3.164   2.082   7.307  0.2599  0.5398 -0.2321
 3041SOL    HW120585   3.163   2.069   7.402  1.0823  0.3596 -0.2537
 3041SOL    HW220586   3.116   2.163   7.292 -1.2737 -0.3910 -0.4225
 3042SOL     OW20587   4.108   0.259  16.353  0.1058 -0.0743 -0.0747
 3042SOL    HW120588   4.098   0.171  16.316  1.7520  0.1024 -0.9575
 3042SOL    HW220589   4.199   0.260  16.382 -0.1027 -1.4981  0.6224
 3043SOL     OW20590   2.911   4.569   7.326  0.0193  0.4098 -0.2354
 3043SOL    HW120591   2.945   4.599   7.410 -0.5199  0.7071 -0.1198
 3043SOL    HW220592   2.986   4.550   7.269 -0.1351  0.2020 -0.3689
 3044SOL     OW20593   0.071   2.463   9.976  0.1019  0.0946  1.0243
 3044SOL    HW120594   0.002   2.505  10.027 -1.3261  1.6198 -2.2085
 3044SOL    HW220595   0.073   2.527   9.905 -2.5198  0.1375  0.9975
 3045SOL     OW20596   3.864   3.622  14.838 -0.0123  0.1908  0.9997
 3045SOL    HW120597   3.823   3.586  14.917 -0.8281  0.8118  0.8547
 3045SOL    HW220598   3.806   3.698  14.841  0.6186  0.6688  0.7642
 3046SOL     OW20599   1.446   1.495   3.068 -0.9736 -0.5109 -0.4643
 3046SOL    HW120600   1.356   1.521   3.085 -0.8063 -1.8391  2.4282
 3046SOL    HW220601   1.433   1.402   3.046  0.6301 -0.2795 -2.4381
 3047SOL     OW20602   4.387   4.507   4.957 -0.1605 -0.4201 -0.2769
 3047SOL    HW120603   4.428   4.567   5.019  1.4752 -2.2218  0.3843
 3047SOL    HW220604   4.333   4.576   4.917 -0.2038 -0.2349  0.1053
 3048SOL     OW20605   2.472   4.624   1.025  0.0197 -0.0012  0.3346
 3048SOL    HW120606   2.387   4.660   1.051 -0.4891  1.0328 -2.7508
 3048SOL    HW220607   2.525   4.699   0.998  2.3027 -1.7052  0.0323
 3049SOL     OW20608   0.433   3.671  11.143 -0.0808 -0.0173 -0.1469
 3049SOL    HW120609   0.474   3.667  11.229  0.7394 -0.4263 -0.5477
 3049SOL    HW220610   0.412   3.763  11.132 -1.7779 -0.5752 -1.5960
 3050SOL     OW20611   3.029   0.465   6.417  0.0627  0.7403 -0.0172
 3050SOL    HW120612   3.008   0.482   6.325 -1.6685  2.0928  0.6182
 3050SOL    HW220613   3.084   0.387   6.414 -3.1064 -1.3303 -3.7268
 3051SOL     OW20614   1.479   3.027   8.180 -0.2225 -0.6331  0.3293
 3051SOL    HW120615   1.389   2.996   8.191 -1.0113  1.2385 -0.9039
 3051SOL    HW220616   1.528   2.945   8.176  1.9382  0.6798 -0.0780
 3052SOL     OW20617   3.371   2.653   8.956  0.1572 -0.5112 -0.4036
 3052SOL    HW120618   3.279   2.650   8.980  0.4685  1.2824  0.9966
 3052SOL    HW220619   3.392   2.745   8.976 -1.0391 -0.3331  0.0306
 3053SOL     OW20620   3.025   3.237  12.417  0.2636  0.1693 -0.3689
 3053SOL    HW120621   3.099   3.201  12.467 -1.2135 -0.6604  1.2543
 3053SOL    HW220622   2.954   3.189  12.460  0.8896 -1.2454 -0.9297
 3054SOL     OW20623   2.507   3.085   3.882 -0.2558  0.3328 -0.2143
 3054SOL    HW120624   2.536   3.073   3.972 -1.2072 -1.0112 -0.0861
 3054SOL    HW220625   2.482   2.995   3.859 -3.8353  0.6707  2.3619
 3055SOL     OW20626   2.841   1.508   6.056  0.0047 -0.3073 -0.0935
 3055SOL    HW120627   2.785   1.566   6.004  0.6739  0.3489 -0.0940
 3055SOL    HW220628   2.924   1.513   6.007 -1.1097  0.0928 -1.9622
 3056SOL     OW20629   0.693   1.288  14.018 -0.7650  0.1718 -0.7022
 3056SOL    HW120630   0.733   1.207  14.051 -2.4562 -0.1988  0.5219
 3056SOL    HW220631   0.659   1.259  13.933 -1.1305 -0.5533 -0.3148
 3057SOL     OW20632   1.760   0.405   4.910 -0.4504  0.0488 -0.3805
 3057SOL    HW120633   1.676   0.413   4.865  0.1575 -2.3221 -1.9154
 3057SOL    HW220634   1.807   0.487   4.891  0.6575 -0.3664  0.5887
 3058SOL     OW20635   0.138   1.663   8.370  0.2999 -0.5326  0.0615
 3058SOL    HW120636   0.112   1.574   8.347  1.8191 -0.6930 -1.0665
 3058SOL    HW220637   0.093   1.684   8.451 -1.4640  2.5921 -1.7121
 3059SOL     OW20638   4.544   0.441   9.179  0.0888 -0.7979  0.3717
 3059SOL    HW120639   4.627   0.399   9.199 -0.3912 -2.1392 -0.4741
 3059SOL    HW220640   4.565   0.535   9.181 -0.3984 -0.6865  0.4203
 3060SOL     OW20641   0.940   2.371  11.545 -0.0305 -0.3773 -0.0340
 3060SOL    HW120642   0.985   2.455  11.559 -1.7515  0.4155  0.8124
 3060SOL    HW220643   0.851   2.399  11.568 -0.2483 -2.3434  1.5146
 3061SOL     OW20644   1.440   3.024   7.760  0.3083 -0.0079 -0.2210
 3061SOL    HW120645   1.409   3.083   7.692 -1.9941  1.6721  2.2809
 3061SOL    HW220646   1.381   3.060   7.826  1.2445 -1.3268  1.3537
 3062SOL     OW20647   1.923   2.955   4.617  0.5972  0.3520  0.0821
 3062SOL    HW120648   1.843   3.007   4.612  1.1481  1.1333 -0.6342
 3062SOL    HW220649   1.889   2.876   4.658  2.6503 -1.4833 -1.7403
 3063SOL     OW20650   4.080   4.571   6.918 -0.1506 -0.0826  0.0508
 3063SOL    HW120651   4.118   4.637   6.976 -0.7029 -1.8567  2.3888
 3063SOL    HW220652   4.005   4.540   6.968  1.0862 -1.6648  0.9007
 3064SOL     OW20653   1.056   4.044   6.093  0.3476  0.1095  0.9648
 3064SOL    HW120654   0.973   4.059   6.139 -0.9110  1.8111 -1.8759
 3064SOL    HW220655   1.120   4.057   6.163  1.0185  1.8161  0.0355
 3065SOL     OW20656   1.322   3.716   2.964  0.1347 -0.3415  0.7002
 3065SOL    HW120657   1.391   3.759   3.016 -0.7586  2.5062 -0.4393
 3065SOL    HW220658   1.252   3.781   2.967 -0.5143 -1.0059  0.0119
 3066SOL     OW20659   2.906   3.099   8.720  0.0309  0.3540 -0.1721
 3066SOL    HW120660   2.991   3.067   8.751  0.3975 -0.9191 -2.4661
 3066SOL    HW220661   2.853   3.086   8.799  2.5844  0.2343  1.5472
 3067SOL     OW20662   1.889   0.268   3.824  0.4059 -0.0308  0.3170
 3067SOL    HW120663   1.908   0.256   3.917  1.2732 -0.7653  0.0472
 3067SOL    HW220664   1.979   0.289   3.797  0.1149 -0.4751 -0.9787
 3068SOL     OW20665   2.806   4.455  17.179  0.2612  0.0927  0.0814
 3068SOL    HW120666   2.776   4.402  17.253 -2.2870  1.2422 -0.1182
 3068SOL    HW220667   2.901   4.460  17.190  0.3048  0.5808 -0.5196
 3069SOL     OW20668   0.919   3.785   2.247  0.2052  0.8477 -0.3968
 3069SOL    HW120669   1.000   3.815   2.287 -0.2620  0.7926  0.5959
 3069SOL    HW220670   0.936   3.771   2.154 -0.0896 -0.6851 -0.2106
 3070SOL     OW20671   1.737   3.913  16.144 -0.6809 -1.1990  1.0612
 3070SOL    HW120672   1.675   3.982  16.122 -0.7073 -0.8574  2.2199
 3070SOL    HW220673   1.692   3.847  16.091  0.8197 -1.4408  0.0716
 3071SOL     OW20674   1.860   4.433   7.001 -0.0859  0.0818  0.4025
 3071SOL    HW120675   1.850   4.487   7.080 -0.0476 -0.4943  0.7993
 3071SOL    HW220676   1.922   4.477   6.943  0.0384 -1.5937 -0.7176
 3072SOL     OW20677   3.828   1.252  11.652 -0.0087  0.0026 -0.3176
 3072SOL    HW120678   3.761   1.296  11.704 -2.1714 -0.2730 -2.8286
 3072SOL    HW220679   3.849   1.326  11.595 -0.7398  1.4531  1.3250
 3073SOL     OW20680   3.157   1.465   5.174 -0.4866 -0.4278  0.0667
 3073SOL    HW120681   3.086   1.431   5.120  0.7028 -1.5452 -0.7917
 3073SOL    HW220682   3.222   1.486   5.108 -0.5280  0.1338  0.2028
 3074SOL     OW20683   3.251   2.147   3.911 -0.3215 -0.3001 -0.3273
 3074SOL    HW120684   3.225   2.055   3.917  0.2638 -0.5291 -1.3228
 3074SOL    HW220685   3.336   2.125   3.872 -0.7907 -1.1199 -0.8922
 3075SOL     OW20686   2.935   4.688   8.292 -0.0325 -0.6950  0.1531
 3075SOL    HW120687   2.845   4.656   8.301 -0.0093 -0.7507  0.1922
 3075SOL    HW220688   2.960   0.003   8.376 -2.2455 -0.6341  0.7866
 3076SOL     OW20689   0.781   1.273  15.157 -0.4325 -0.1597  0.6621
 3076SOL    HW120690   0.762   1.180  15.148  0.0647  0.0009 -2.1579
 3076SOL    HW220691   0.875   1.282  15.143 -0.6802  0.7335 -0.4693
 3077SOL     OW20692   0.667   4.568   5.694 -0.1494  0.2989  0.5345
 3077SOL    HW120693   0.626   4.608   5.771 -0.6779 -0.0941  0.4598
 3077SOL    HW220694   0.588   4.540   5.647 -1.1032 -0.1893  2.4127
 3078SOL     OW20695   0.233   1.582  15.870 -0.2945 -0.7770  0.4840
 3078SOL    HW120696   0.142   1.602  15.847  0.8099  2.9357 -0.6043
 3078SOL    HW220697   0.232   1.551  15.961  1.1549  2.9965  1.7620
 3079SOL     OW20698   4.706   4.293   6.833 -0.3211  0.0451  0.0752
 3079SOL    HW120699   0.048   4.344   6.786  0.3790 -1.1637 -0.2642
 3079SOL    HW220700   4.720   4.205   6.798 -0.6728  0.2359 -0.5590
 3080SOL     OW20701   2.290   1.721   7.466  0.2986  0.0519 -0.1024
 3080SOL    HW120702   2.313   1.640   7.511 -0.7262  0.5592  1.3092
 3080SOL    HW220703   2.195   1.708   7.462 -0.1113  2.9470  0.3972
 3081SOL     OW20704   2.955   0.399   6.134  0.4297  0.1965  0.0862
 3081SOL    HW120705   2.861   0.394   6.118  0.2103  1.1069  1.1572
 3081SOL    HW220706   2.972   0.305   6.142  1.4925  0.3700 -0.0928
 3082SOL     OW20707   1.558   3.884   1.667  0.4066 -0.0246  0.4752
 3082SOL    HW120708   1.541   3.936   1.745 -2.5046 -1.6295  0.9258
 3082SOL    HW220709   1.648   3.854   1.683 -0.1664 -1.5150  0.9491
 3083SOL     OW20710   0.908   3.037   8.957 -0.1506  0.4615  0.6945
 3083SOL    HW120711   0.967   3.065   9.027  0.0633 -0.2344  0.7927
 3083SOL    HW220712   0.972   3.044   8.885  0.1192 -1.3568  0.7699
 3084SOL     OW20713   3.987   1.396   6.463  0.0928  0.1633  0.3649
 3084SOL    HW120714   3.968   1.304   6.482  1.1231 -0.2940 -0.8010
 3084SOL    HW220715   3.963   1.438   6.545 -1.9692  1.1164 -0.7102
 3085SOL     OW20716   4.432   1.209  17.255 -0.0138 -0.1746 -0.2934
 3085SOL    HW120717   4.432   1.204  17.160 -2.4528 -0.8654 -0.2575
 3085SOL    HW220718   4.498   1.144  17.277 -0.9180 -1.6917 -2.0575
 3086SOL     OW20719   1.233   1.265   6.969 -0.2333  0.3031  0.4683
 3086SOL    HW120720   1.298   1.240   6.904  0.7641  1.4154  1.0442
 3086SOL    HW220721   1.150   1.242   6.928  0.3934  1.1816 -1.2767
 3087SOL     OW20722   2.837   0.272   8.183 -0.3031  0.6678  0.1966
 3087SOL    HW120723   2.852   0.178   8.179  1.5048  0.8497  2.7414
 3087SOL    HW220724   2.761   0.271   8.126 -1.3064 -1.0940  1.5600
 3088SOL     OW20725   3.926   4.706  15.461  0.2670 -0.2570 -0.4460
 3088SOL    HW120726   3.954   0.073  15.478  0.1196 -0.4210  0.6634
 3088SOL    HW220727   3.864   4.699  15.533 -0.3398  0.3501 -0.9067
 3089SOL     OW20728   3.575   2.352   9.861  0.0026  0.4518 -0.1314
 3089SOL    HW120729   3.531   2.346   9.776 -0.2249  2.3505 -0.1446
 3089SOL    HW220730   3.581   2.447   9.875 -1.3266  0.2103  2.1345
 3090SOL     OW20731   0.306   3.922   3.177 -1.0733  0.4855 -0.3420
 3090SOL    HW120732   0.256   3.849   3.142  2.3312 -2.1226  0.2390
 3090SOL    HW220733   0.321   3.981   3.104 -0.5501  0.5248 -0.2039
 3091SOL     OW20734   4.560   1.272  16.209 -0.3971  0.6768  1.0643
 3091SOL    HW120735   4.553   1.180  16.236  0.1809  0.0138 -1.0465
 3091SOL    HW220736   4.472   1.280  16.171 -0.3184  1.8521  1.1453
 3092SOL     OW20737   3.998   2.188  17.177  0.3201  0.5652  0.1310
 3092SOL    HW120738   3.977   2.127  17.248  2.4976  0.8258  0.9895
 3092SOL    HW220739   4.088   2.156  17.171  0.4883  1.1083 -0.1868
 3093SOL     OW20740   1.645   2.506   2.718 -0.1963  0.1067 -0.2124
 3093SOL    HW120741   1.707   2.548   2.658  0.5903 -0.2132  0.3798
 3093SOL    HW220742   1.572   2.487   2.659 -1.6714  2.7967  0.7584
 3094SOL     OW20743   1.303   2.879   9.806 -0.6504  0.0408  0.3285
 3094SOL    HW120744   1.354   2.922   9.876  0.6375 -2.6626  1.0379
 3094SOL    HW220745   1.247   2.831   9.867  1.4307 -0.8168  1.5666
 3095SOL     OW20746   2.611   3.601   3.057 -0.4953  0.3401 -0.7623
 3095SOL    HW120747   2.596   3.652   3.137 -1.6686  0.5810 -1.1408
 3095SOL    HW220748   2.706   3.587   3.051 -0.6354 -0.4555 -1.0747
 3096SOL     OW20749   0.068   2.924   4.226  0.1642 -0.5867  0.0730
 3096SOL    HW120750   0.049   2.967   4.309  0.4012  0.6621 -0.5289
 3096SOL    HW220751   0.120   2.992   4.183  2.5651 -3.2088 -1.1943
 3097SOL     OW20752   4.340   3.386   5.333  0.0363  0.7790 -0.9884
 3097SOL    HW120753   4.382   3.471   5.340  0.1228  0.6755 -0.2848
 3097SOL    HW220754   4.409   3.319   5.333  2.5131  3.3068  1.1800
 3098SOL     OW20755   0.616   0.029   8.435  0.0193 -0.1903 -0.1606
 3098SOL    HW120756   0.671   0.105   8.451  0.7737 -0.4345 -1.6630
 3098SOL    HW220757   0.682   4.683   8.429  0.5678  0.5666 -2.6793
 3099SOL     OW20758   1.123   3.334   3.947  0.2616  0.0050  0.1386
 3099SOL    HW120759   1.168   3.254   3.973 -0.4430 -0.5957 -0.4978
 3099SOL    HW220760   1.078   3.345   4.031 -0.5704 -2.5760  0.0406
 3100SOL     OW20761   3.454   3.157  13.514 -0.7693 -0.2765 -0.2252
 3100SOL    HW120762   3.414   3.243  13.529 -0.9575 -0.2537 -0.8302
 3100SOL    HW220763   3.518   3.182  13.446 -1.0486  1.9578  0.3317
 3101SOL     OW20764   2.285   3.778   7.813 -0.2357  0.1262  0.5647
 3101SOL    HW120765   2.299   3.697   7.862  0.0554 -0.3225 -0.2538
 3101SOL    HW220766   2.230   3.736   7.747  0.7812  3.9028 -2.6463
 3102SOL     OW20767   1.248   0.113   5.410 -0.1738  0.2418  0.0569
 3102SOL    HW120768   1.170   0.117   5.465  0.6618 -3.3614  1.5203
 3102SOL    HW220769   1.255   0.025   5.374  0.8638  0.7160 -0.9022
 3103SOL     OW20770   2.034   2.870  10.218 -0.4912  0.0586  0.2188
 3103SOL    HW120771   2.072   2.888  10.132 -0.1887 -2.6318 -0.2122
 3103SOL    HW220772   1.942   2.876  10.192 -0.3502  0.7338 -0.1275
 3104SOL     OW20773   4.642   3.210   9.267  0.2801 -0.3761  0.2750
 3104SOL    HW120774   4.599   3.282   9.221 -1.8023 -1.3604  0.6906
 3104SOL    HW220775   4.718   3.257   9.302  0.8927 -0.8732 -0.4009
 3105SOL     OW20776   3.284   2.802  17.357 -0.4299  0.3097  0.1423
 3105SOL    HW120777   3.339   2.727  17.380 -0.2852  0.2700 -0.3386
 3105SOL    HW220778   3.275   2.790  17.262  0.9597  0.2036  0.0200
 3106SOL     OW20779   4.660   2.565  12.345  0.3457  0.0222 -0.0547
 3106SOL    HW120780   4.674   2.578  12.438 -1.9188 -0.8411  0.4072
 3106SOL    HW220781   0.014   2.511  12.330  0.8332  0.8344 -0.4835
 3107SOL     OW20782   1.797   3.729  11.024  0.4696 -0.3585  0.3534
 3107SOL    HW120783   1.790   3.649  10.971 -1.0839 -1.3660  2.0714
 3107SOL    HW220784   1.709   3.748  11.055  0.2754  1.6180 -1.4444
 3108SOL     OW20785   1.758   4.469  15.026  0.2130 -0.1895  0.0947
 3108SOL    HW120786   1.747   4.548  15.078 -1.6763 -0.5173  0.2112
 3108SOL    HW220787   1.851   4.471  15.004  0.2716  0.6721  0.4263
 3109SOL     OW20788   3.299   1.774   5.340  0.0590 -0.3419  0.2886
 3109SOL    HW120789   3.395   1.774   5.348 -0.0163 -0.4195  1.1633
 3109SOL    HW220790   3.285   1.782   5.246  1.5210  0.4325  0.1399
 3110SOL     OW20791   4.214   2.351  13.471 -0.3089  0.0998 -0.1038
 3110SOL    HW120792   4.221   2.335  13.565 -0.9596  1.8805  0.2378
 3110SOL    HW220793   4.307   2.337  13.451 -0.8042 -1.5332 -1.2637
 3111SOL     OW20794   2.370   3.359  16.275 -0.3406  0.6103 -0.2075
 3111SOL    HW120795   2.331   3.397  16.353  2.6485  1.4465  0.8898
 3111SOL    HW220796   2.462   3.362  16.301 -0.2868 -2.0856 -0.0087
 3112SOL     OW20797   3.841   1.271   7.656  0.5136 -0.2691  0.4812
 3112SOL    HW120798   3.756   1.236   7.629  1.0426  0.3738 -2.0712
 3112SOL    HW220799   3.881   1.294   7.572  0.0980  0.4289  0.4751
 3113SOL     OW20800   3.852   3.617   4.848 -0.0463 -0.5551 -0.5772
 3113SOL    HW120801   3.944   3.617   4.876  0.3902  0.6012 -1.9973
 3113SOL    HW220802   3.861   3.614   4.753  2.3046 -1.6563 -0.3110
 3114SOL     OW20803   2.816   2.429   5.623 -0.2469 -0.4194 -0.2182
 3114SOL    HW120804   2.836   2.402   5.713 -2.1424  0.2322  0.3984
 3114SOL    HW220805   2.897   2.403   5.578 -2.0923 -0.9469 -3.1811
 3115SOL     OW20806   3.469   1.735  13.355  0.7568  0.7284 -0.1657
 3115SOL    HW120807   3.409   1.684  13.300 -2.9436  1.4478  3.2442
 3115SOL    HW220808   3.469   1.684  13.436  0.9246  2.4631  0.9306
 3116SOL     OW20809   2.622   1.696   2.666 -0.2778 -0.8384 -0.6584
 3116SOL    HW120810   2.632   1.623   2.605 -0.1599 -1.3150 -0.0703
 3116SOL    HW220811   2.665   1.660   2.743  0.1280 -1.5067 -1.2049
 3117SOL     OW20812   1.053   0.743   2.495 -0.3400  0.2609 -0.7715
 3117SOL    HW120813   0.965   0.761   2.527 -0.7045 -1.2999 -0.8844
 3117SOL    HW220814   1.076   0.824   2.450  1.1509  1.2012  1.6578
 3118SOL     OW20815   0.926   0.597   5.582  0.3511  0.1605 -0.1510
 3118SOL    HW120816   0.861   0.536   5.616  0.4540  1.2601  1.9788
 3118SOL    HW220817   0.908   0.678   5.629  0.6754 -0.8558  1.7049
 3119SOL     OW20818   3.560   2.025   8.346 -0.5137 -0.0051 -0.0981
 3119SOL    HW120819   3.606   2.109   8.334 -0.6688  0.0058 -0.6480
 3119SOL    HW220820   3.477   2.043   8.302 -1.9434 -1.2869  2.1538
 3120SOL     OW20821   0.219   4.181  16.207 -0.2589 -0.3572  0.0593
 3120SOL    HW120822   0.219   4.271  16.175  2.8924  0.5773  2.6581
 3120SOL    HW220823   0.236   4.189  16.301  0.7136 -1.7178 -0.0029
 3121SOL     OW20824   2.251   4.559  14.035 -0.3818  0.1000  0.2204
 3121SOL    HW120825   2.250   4.650  14.008 -2.2020 -0.1965 -0.7123
 3121SOL    HW220826   2.302   4.552  14.116 -0.2452  1.2406  0.2275
 3122SOL     OW20827   2.348   2.389   3.493  0.1571  0.3714  0.0335
 3122SOL    HW120828   2.331   2.436   3.575  0.0482 -1.1773  0.9202
 3122SOL    HW220829   2.387   2.315   3.541  0.1939  0.2169 -0.2361
 3123SOL     OW20830   0.795   3.534  13.208 -0.2745  0.6089 -0.4012
 3123SOL    HW120831   0.739   3.562  13.136 -0.1489  0.0808 -0.7034
 3123SOL    HW220832   0.749   3.559  13.287 -0.1483  0.1314 -0.1783
 3124SOL     OW20833   0.740   0.418   7.943  0.4040 -0.1615 -0.0982
 3124SOL    HW120834   0.795   0.348   7.908  1.4261  1.7007 -2.2267
 3124SOL    HW220835   0.738   0.387   8.033  0.7372  1.1096  0.3392
 3125SOL     OW20836   1.127   3.459   2.089  0.5580  0.2247  0.3929
 3125SOL    HW120837   1.169   3.540   2.062  0.0205  0.5081  0.4271
 3125SOL    HW220838   1.180   3.442   2.167 -0.4344  1.3808  1.3130
 3126SOL     OW20839   2.154   1.287   2.570 -0.0114  0.4929 -0.6178
 3126SOL    HW120840   2.141   1.195   2.592  1.1454  0.0800 -1.6690
 3126SOL    HW220841   2.071   1.333   2.583 -0.8654  0.0475 -4.4486
 3127SOL     OW20842   3.744   1.924   4.118  0.5276 -0.1516 -0.3058
 3127SOL    HW120843   3.728   1.991   4.051 -0.2692 -0.2826 -0.2412
 3127SOL    HW220844   3.761   1.851   4.060  2.8518  0.6991 -0.7139
 3128SOL     OW20845   4.465   2.543   9.250  0.1752 -0.5722 -0.0364
 3128SOL    HW120846   4.433   2.585   9.330 -0.6857 -0.2329 -0.5607
 3128SOL    HW220847   4.556   2.571   9.257  0.1871 -0.5187 -0.4232
 3129SOL     OW20848   4.252   0.317  17.603  0.7103  0.7160  0.1303
 3129SOL    HW120849   4.287   0.386  17.547 -0.3373  0.7325 -0.5069
 3129SOL    HW220850   4.311   0.246  17.578 -0.0005 -0.2086  1.0737
 3130SOL     OW20851   2.456   0.839   0.452  0.2246 -0.2336 -0.1182
 3130SOL    HW120852   2.506   0.789   0.387 -0.8688  0.1962 -1.3006
 3130SOL    HW220853   2.388   0.778   0.480  1.3382 -0.7181  1.4953
 3131SOL     OW20854   0.530   3.875  15.209  0.0933 -0.3110  0.1735
 3131SOL    HW120855   0.529   3.802  15.147 -2.1196 -0.0167 -0.1292
 3131SOL    HW220856   0.505   3.948  15.152  0.1314  0.8588  1.6502
 3132SOL     OW20857   3.291   2.507   8.584 -0.4264  0.0275  0.0429
 3132SOL    HW120858   3.255   2.484   8.498 -2.8576  1.2319  0.7396
 3132SOL    HW220859   3.353   2.578   8.569 -0.4126  0.0049 -0.0094
 3133SOL     OW20860   1.169   0.044   2.117 -0.1065 -0.3867  0.4503
 3133SOL    HW120861   1.181   0.025   2.024 -0.7714  0.8732  0.0986
 3133SOL    HW220862   1.146   4.683   2.155 -1.3978 -0.4304 -0.4490
 3134SOL     OW20863   2.030   2.683   3.402 -0.1549  0.1925  0.1382
 3134SOL    HW120864   2.010   2.767   3.445  1.3256  1.1166 -0.9748
 3134SOL    HW220865   1.943   2.644   3.396  0.5337 -1.3401  0.1749
 3135SOL     OW20866   0.503   0.213   3.556  0.2642 -0.6904  0.6175
 3135SOL    HW120867   0.440   0.233   3.486  1.3512 -0.1845 -0.2256
 3135SOL    HW220868   0.536   0.292   3.599 -0.9571  0.8690 -1.2679
 3136SOL     OW20869   3.768   2.135   4.651  0.0529 -0.2972  0.5544
 3136SOL    HW120870   3.810   2.093   4.576 -2.5952  0.3380 -1.2773
 3136SOL    HW220871   3.776   2.064   4.716  3.0073 -0.5204 -0.0349
 3137SOL     OW20872   2.880   4.360   4.206  0.5659 -0.4430  0.4200
 3137SOL    HW120873   2.898   4.297   4.136 -0.7357 -0.0884 -0.2489
 3137SOL    HW220874   2.844   4.295   4.267 -0.1830 -0.8208 -0.4050
 3138SOL     OW20875   2.778   0.923   7.039 -0.1445  0.3445 -0.2636
 3138SOL    HW120876   2.766   1.012   7.072 -0.3059 -0.0578  0.7720
 3138SOL    HW220877   2.781   0.875   7.122 -2.6830 -1.7023 -1.3235
 3139SOL     OW20878   2.051   1.903  13.887  0.1187 -0.4902 -0.2476
 3139SOL    HW120879   2.017   1.992  13.890 -0.3927 -0.6655 -0.8615
 3139SOL    HW220880   2.086   1.899  13.798  2.4728  1.2874  0.5826
 3140SOL     OW20881   0.157   4.143  13.109  0.4221 -0.0497  0.3312
 3140SOL    HW120882   0.247   4.171  13.126  0.4573  0.1642 -0.2090
 3140SOL    HW220883   0.122   4.197  13.037 -1.7769 -1.2575  0.5031
 3141SOL     OW20884   3.284   3.458   4.803 -0.1331 -0.5034  0.0779
 3141SOL    HW120885   3.323   3.398   4.739 -0.4862  0.3361 -0.9294
 3141SOL    HW220886   3.363   3.509   4.821  0.1310 -1.4368  1.5709
 3142SOL     OW20887   1.357   2.280   4.897  0.8453 -0.0015 -0.1233
 3142SOL    HW120888   1.404   2.259   4.978 -1.5233 -1.8701  0.7686
 3142SOL    HW220889   1.266   2.269   4.925  0.5955 -2.7103 -2.0237
 3143SOL     OW20890   4.718   3.641   2.949 -0.1876  0.3841 -0.2348
 3143SOL    HW120891   4.711   3.601   2.862 -1.5124 -0.3465  0.2102
 3143SOL    HW220892   4.637   3.691   2.940  1.4318  3.0480 -0.1734
 3144SOL     OW20893   1.068   2.840   5.861  0.0946  0.1189 -0.2235
 3144SOL    HW120894   1.079   2.746   5.846 -1.5482  0.1880 -1.7797
 3144SOL    HW220895   1.036   2.863   5.774  0.2643 -0.1183 -0.3501
 3145SOL     OW20896   3.514   0.184   2.976  0.3879 -0.1565 -0.3207
 3145SOL    HW120897   3.544   0.100   3.013  0.7113 -0.6585 -1.7455
 3145SOL    HW220898   3.594   0.228   2.948  0.2531  1.3944  1.7149
 3146SOL     OW20899   3.863   1.583   6.640 -0.0335 -0.2095  0.0550
 3146SOL    HW120900   3.878   1.676   6.655  0.0248 -0.5280  1.9762
 3146SOL    HW220901   3.769   1.574   6.625  0.3210 -0.3081 -2.2124
 3147SOL     OW20902   0.837   3.756   5.256 -0.1842 -0.0744  0.0334
 3147SOL    HW120903   0.832   3.845   5.292  0.3314 -0.0531  0.0536
 3147SOL    HW220904   0.770   3.714   5.310  2.1641 -1.3184  1.9518
 3148SOL     OW20905   2.932   2.116   5.831  0.0801 -0.2343  0.2803
 3148SOL    HW120906   2.925   2.208   5.857  0.4824 -0.8391  2.5012
 3148SOL    HW220907   2.939   2.068   5.914 -0.0751 -0.3481  0.2291
 3149SOL     OW20908   3.678   0.505  14.116 -0.4152 -0.1197  0.6687
 3149SOL    HW120909   3.686   0.424  14.067 -0.0728  1.2188 -1.4652
 3149SOL    HW220910   3.678   0.473  14.206  0.2809 -0.5372  0.5192
 3150SOL     OW20911   4.103   3.225  17.119  0.5667 -0.5103 -0.2598
 3150SOL    HW120912   4.052   3.152  17.153  0.3916  0.9267  2.5127
 3150SOL    HW220913   4.125   3.272  17.200 -0.1495 -0.5528 -0.0433
 3151SOL     OW20914   3.529   0.212   6.646  0.1762 -0.4496 -0.0213
 3151SOL    HW120915   3.575   0.220   6.729 -4.0739  1.6330  2.0916
 3151SOL    HW220916   3.605   0.219   6.588 -0.3487 -0.7449 -0.7497
 3152SOL     OW20917   1.753   4.161   5.201 -0.3833  0.1572 -0.3811
 3152SOL    HW120918   1.709   4.114   5.130 -0.1945 -2.3981  1.1657
 3152SOL    HW220919   1.839   4.187   5.170 -0.4947  1.7385  0.6141
 3153SOL     OW20920   4.693   2.651   9.392 -0.0129 -0.0834 -0.2657
 3153SOL    HW120921   0.065   2.646   9.380 -0.1245 -0.4011 -0.9804
 3153SOL    HW220922   4.684   2.739   9.429  0.8954 -0.6234  1.2628
 3154SOL     OW20923   3.889   3.872  11.063 -0.3309 -0.0741  0.0221
 3154SOL    HW120924   3.881   3.788  11.109  0.1316 -1.1131 -1.8041
 3154SOL    HW220925   3.979   3.870  11.030  0.1935  1.8372  1.3628
 3155SOL     OW20926   2.448   3.126  13.347 -0.1694 -0.2509  0.1827
 3155SOL    HW120927   2.429   3.121  13.253 -1.4492 -0.3537  0.4472
 3155SOL    HW220928   2.385   3.069  13.392 -0.7134 -1.5546 -2.2607
 3156SOL     OW20929   0.417   3.360   4.578 -0.5043  0.1503 -0.4737
 3156SOL    HW120930   0.484   3.383   4.643 -0.0177 -0.5183 -0.7450
 3156SOL    HW220931   0.384   3.277   4.613  0.0854 -0.5782 -1.6468
 3157SOL     OW20932   0.344   3.357   9.635  0.2739 -0.1564 -0.5595
 3157SOL    HW120933   0.296   3.275   9.642  1.1581 -0.5746  0.5595
 3157SOL    HW220934   0.399   3.346   9.557 -0.4642  1.0775 -1.2680
 3158SOL     OW20935   2.132   2.167   9.064 -0.0202 -0.2906  0.4614
 3158SOL    HW120936   2.178   2.198   8.986  1.1364 -0.9244  0.8827
 3158SOL    HW220937   2.044   2.147   9.033 -0.1080  0.0137  0.5213
 3159SOL     OW20938   2.680   0.489   2.201 -0.5422 -0.7218 -0.4349
 3159SOL    HW120939   2.627   0.412   2.180 -2.9576  0.9280 -0.3505
 3159SOL    HW220940   2.719   0.500   2.115  0.8926 -1.0498  0.1665
 3160SOL     OW20941   2.196   0.887   5.539 -0.4617  0.2965 -0.2472
 3160SOL    HW120942   2.231   0.798   5.535 -0.9587  0.0482  0.8802
 3160SOL    HW220943   2.272   0.929   5.499 -1.1153  1.5868 -0.1281
 3161SOL     OW20944   3.882   4.363   0.248 -0.9107  0.2216  0.1956
 3161SOL    HW120945   3.924   4.392   0.329  0.0502 -0.6189 -0.0020
 3161SOL    HW220946   3.922   4.425   0.187 -0.9095 -1.8133 -1.8794
 3162SOL     OW20947   2.109   3.941   1.796  0.0780  0.2292  0.5627
 3162SOL    HW120948   2.094   3.856   1.754 -2.9792  1.1618 -0.2177
 3162SOL    HW220949   2.186   3.918   1.850  1.4560  0.6480 -1.2359
 3163SOL     OW20950   4.168   1.071   1.099 -0.3869 -0.2064  0.0707
 3163SOL    HW120951   4.106   1.007   1.064 -0.7865 -0.5851  1.4791
 3163SOL    HW220952   4.246   1.017   1.083 -0.7189 -0.6557 -0.0232
 3164SOL     OW20953   1.643   4.591  11.104 -0.1584 -0.2275  0.4972
 3164SOL    HW120954   1.707   4.539  11.152 -0.8132 -1.4708 -0.0046
 3164SOL    HW220955   1.567   4.556  11.150 -0.8554 -1.0413 -1.2919
 3165SOL     OW20956   3.844   4.626  11.985 -0.7303  0.1101 -0.4892
 3165SOL    HW120957   3.851   4.709  12.032  0.3771  0.3171 -1.0309
 3165SOL    HW220958   3.758   4.591  12.008 -1.8500  2.4521 -1.1028
 3166SOL     OW20959   4.000   3.277   6.601 -0.7360  0.0116 -0.5768
 3166SOL    HW120960   3.927   3.336   6.582  1.2976  2.0640 -1.8254
 3166SOL    HW220961   3.960   3.198   6.563  1.4517 -2.3961  2.1397
 3167SOL     OW20962   2.495   0.298  14.155  0.1235 -0.6774  0.3173
 3167SOL    HW120963   2.404   0.285  14.182 -0.3596 -1.1706 -1.4926
 3167SOL    HW220964   2.471   0.312  14.063 -1.9789 -1.0838  0.8160
 3168SOL     OW20965   2.759   4.288   3.750  0.0357 -0.2185  0.3403
 3168SOL    HW120966   2.779   4.231   3.676 -0.2891  1.6897 -1.2197
 3168SOL    HW220967   2.730   4.366   3.701  0.8568 -0.8188 -1.1075
 3169SOL     OW20968   4.285   1.087   6.302  0.1396  0.2392 -0.3005
 3169SOL    HW120969   4.298   0.994   6.284  1.8532  0.6388 -1.1716
 3169SOL    HW220970   4.376   1.116   6.306  0.0449  0.6049 -0.7104
 3170SOL     OW20971   1.638   3.386   7.305  0.1865  0.1406 -0.1858
 3170SOL    HW120972   1.656   3.472   7.342  1.4331 -1.0283  1.9855
 3170SOL    HW220973   1.543   3.379   7.293  0.6818 -1.5357 -3.0468
 3171SOL     OW20974   1.693   4.659  15.193 -0.1158  0.1797  0.2393
 3171SOL    HW120975   1.680   4.697  15.280 -0.7697 -1.7320  0.9817
 3171SOL    HW220976   1.662   0.012  15.145  1.2806 -0.2728 -1.3934
 3172SOL     OW20977   0.596   2.712  17.585 -0.2087  0.0263 -0.2849
 3172SOL    HW120978   0.560   2.775  17.523 -2.1738 -0.6614  0.1458
 3172SOL    HW220979   0.604   2.756  17.670 -2.7981 -0.7486  0.3606
 3173SOL     OW20980   3.063   3.414   5.628  0.2014 -0.2498  0.5863
 3173SOL    HW120981   2.973   3.413   5.596  0.3336  0.9692  0.1538
 3173SOL    HW220982   3.054   3.335   5.680  0.4390 -0.6854 -0.0305
 3174SOL     OW20983   3.059   1.381   4.177  0.0913  0.0196 -0.4904
 3174SOL    HW120984   2.998   1.382   4.104 -2.5524  2.3570  1.7788
 3174SOL    HW220985   3.023   1.436   4.245 -1.9779 -3.1605  0.9939
 3175SOL     OW20986   2.570   1.130   4.300  0.1804  0.6545  0.1202
 3175SOL    HW120987   2.591   1.044   4.264 -1.6491 -1.2213  3.6048
 3175SOL    HW220988   2.489   1.109   4.346 -0.2174 -1.0914 -1.4075
 3176SOL     OW20989   1.056   2.245   6.364  0.2445 -0.1670 -0.5760
 3176SOL    HW120990   0.982   2.188   6.386  2.5025 -2.9750 -0.3268
 3176SOL    HW220991   1.127   2.181   6.358 -1.5696 -2.3110  0.4813
 3177SOL     OW20992   4.215   1.465   2.846 -0.5980 -0.2942 -0.0810
 3177SOL    HW120993   4.288   1.406   2.827  0.4644  1.2475 -0.7121
 3177SOL    HW220994   4.187   1.403   2.914  1.7412 -0.4601  0.7375
 3178SOL     OW20995   4.354   2.581   4.059 -0.2204  0.7426  0.4305
 3178SOL    HW120996   4.272   2.601   4.013  0.2033  0.8671 -0.2749
 3178SOL    HW220997   4.363   2.643   4.131  1.9681 -0.2132  0.9795
 3179SOL     OW20998   2.391   3.469   3.141 -0.3636  0.0624  0.2287
 3179SOL    HW120999   2.395   3.563   3.126 -0.7851  0.0578  0.0732
 3179SOL    HW221000   2.481   3.448   3.116 -0.2074 -0.9467  1.6462
 3180SOL     OW21001   0.314   3.861   2.192  0.2642 -0.2327  0.0821
 3180SOL    HW121002   0.371   3.785   2.178  0.2094 -0.5019  1.3167
 3180SOL    HW221003   0.288   3.844   2.283  0.9498 -0.0165  0.3239
 3181SOL     OW21004   0.252   1.603   7.949  0.4153 -0.2045  0.2420
 3181SOL    HW121005   0.231   1.674   8.009  0.1968  1.4892 -1.8568
 3181SOL    HW221006   0.346   1.611   7.934 -0.1986 -0.1227 -3.6517
 3182SOL     OW21007   0.597   2.388   7.937 -0.9165  0.4057  0.7975
 3182SOL    HW121008   0.614   2.331   8.012  1.3507 -0.2156 -0.1925
 3182SOL    HW221009   0.530   2.450   7.965  0.4625  1.8924  0.7877
 3183SOL     OW21010   1.841   4.143   3.063  0.3755 -0.1350  0.1014
 3183SOL    HW121011   1.804   4.146   3.151 -0.3858  1.7559 -0.2914
 3183SOL    HW221012   1.774   4.099   3.011  1.0976 -0.7501 -0.3185
 3184SOL     OW21013   3.101   3.561   5.120 -0.2945 -0.3307 -0.2901
 3184SOL    HW121014   3.063   3.570   5.208  1.8619  2.2887  0.3741
 3184SOL    HW221015   3.194   3.581   5.132 -0.2280 -1.6300  1.2567
 3185SOL     OW21016   2.951   3.767   2.659  0.5375 -0.0315 -0.4926
 3185SOL    HW121017   3.017   3.776   2.727 -0.6683  0.0908  0.6545
 3185SOL    HW221018   2.911   3.681   2.672  2.7715 -1.0716 -0.5412
 3186SOL     OW21019   2.488   0.931  15.450  0.0214  0.0575 -0.3263
 3186SOL    HW121020   2.483   0.946  15.355  1.2689  0.9435 -0.2499
 3186SOL    HW221021   2.435   0.851  15.449  0.4693 -0.2315 -0.8028
 3187SOL     OW21022   0.407   1.360  11.024 -0.1916  0.3828  1.2879
 3187SOL    HW121023   0.467   1.434  11.016  0.6560 -0.5053 -0.4534
 3187SOL    HW221024   0.332   1.381  10.969  0.0590  0.2183  0.8815
 3188SOL     OW21025   3.841   4.441   2.862 -0.4308 -0.1232  0.2292
 3188SOL    HW121026   3.795   4.520   2.834  0.8872  0.7405  0.4821
 3188SOL    HW221027   3.933   4.465   2.873 -0.8362  0.8578  1.4985
 3189SOL     OW21028   0.170   4.684  10.264  0.4666  0.0386  0.1493
 3189SOL    HW121029   0.169   4.719  10.353  0.0238 -0.5924  0.3928
 3189SOL    HW221030   0.101   4.618  10.263 -1.5461  2.1787 -1.2747
 3190SOL     OW21031   3.643   0.881   7.765 -0.1505 -0.4405 -0.3149
 3190SOL    HW121032   3.622   0.862   7.674 -1.1621 -1.6939  0.1586
 3190SOL    HW221033   3.723   0.832   7.784 -0.6065 -0.6251  1.1434
 3191SOL     OW21034   0.871   3.412  12.446  0.3291 -0.0716 -1.2114
 3191SOL    HW121035   0.861   3.357  12.524  1.4161  2.9338  1.0286
 3191SOL    HW221036   0.850   3.496  12.487 -1.4891 -1.9163  1.6328
 3192SOL     OW21037   2.544   1.555   7.096 -0.4357  1.0805 -0.4808
 3192SOL    HW121038   2.559   1.646   7.123  0.7955  0.1955  1.7828
 3192SOL    HW221039   2.505   1.520   7.176  0.4167 -0.3533 -0.6990
 3193SOL     OW21040   4.651   0.538  11.631 -0.3831  0.4103  0.1763
 3193SOL    HW121041   4.672   0.622  11.671  1.1228  0.2186 -0.2352
 3193SOL    HW221042   0.016   0.501  11.630 -0.2983  0.5581  1.8068
 3194SOL     OW21043   1.112   0.346  13.475 -0.0100  0.3492 -0.4288
 3194SOL    HW121044   1.199   0.333  13.512 -0.6735 -1.5677  0.4529
 3194SOL    HW221045   1.126   0.315  13.386 -0.0331  0.8977 -0.6228
 3195SOL     OW21046   4.333   1.701   9.008  0.4194 -0.6746  0.1303
 3195SOL    HW121047   4.296   1.674   8.924 -0.9886 -0.2692  0.6182
 3195SOL    HW221048   4.425   1.711   8.983 -0.3647  0.4007 -2.2562
 3196SOL     OW21049   0.815   4.517   8.759 -0.0718 -0.3654 -0.1070
 3196SOL    HW121050   0.874   4.547   8.690 -1.8136  0.6354 -1.1532
 3196SOL    HW221051   0.743   4.476   8.712  0.4248 -3.1354  1.5440
 3197SOL     OW21052   3.229   2.354  17.406 -0.7395 -0.4858 -0.0207
 3197SOL    HW121053   3.149   2.405  17.390  0.3024  2.1351  2.9943
 3197SOL    HW221054   3.266   2.337  17.319  1.2828  3.1271  0.1247
 3198SOL     OW21055   2.478   2.264  14.733  0.4680  0.0610  0.1573
 3198SOL    HW121056   2.573   2.277  14.733  0.1351  2.5842 -2.9955
 3198SOL    HW221057   2.458   2.323  14.805  0.0006 -1.4560  1.2653
 3199SOL     OW21058   1.881   0.748   1.745  0.8624 -0.0903  0.1025
 3199SOL    HW121059   1.846   0.666   1.710  0.2360  0.2988 -0.1780
 3199SOL    HW221060   1.882   0.739   1.840  1.8417  0.6520  0.1573
 3200SOL     OW21061   3.201   1.339   3.435  0.1889  0.0242  0.5992
 3200SOL    HW121062   3.223   1.254   3.473 -2.1864 -0.6396  0.4640
 3200SOL    HW221063   3.107   1.335   3.451  0.0919 -4.3718 -1.2160
 3201SOL     OW21064   4.576   3.929  14.429  0.3363 -0.0292 -0.1466
 3201SOL    HW121065   4.655   3.984  14.426 -0.7833  1.6137  1.1208
 3201SOL    HW221066   4.566   3.891  14.342 -0.6826  1.6945 -0.7879
 3202SOL     OW21067   1.957   0.635   9.391  0.5611 -0.4536  0.0177
 3202SOL    HW121068   2.013   0.652   9.466  0.8500  0.8786 -0.5151
 3202SOL    HW221069   1.869   0.659   9.421 -0.0021 -1.7534 -0.5590
 3203SOL     OW21070   4.722   1.498   4.680 -0.1680 -0.4258  0.2980
 3203SOL    HW121071   0.053   1.515   4.602 -1.5450 -0.2122 -0.6212
 3203SOL    HW221072   4.659   1.568   4.662 -0.0450 -0.3331  0.2280
 3204SOL     OW21073   1.564   4.005   1.904 -0.1701  0.3215  0.4466
 3204SOL    HW121074   1.617   4.085   1.905  2.0743 -1.1464 -0.6635
 3204SOL    HW221075   1.574   3.965   1.990  2.9159  1.6969  0.7218
 3205SOL     OW21076   0.719   3.522  13.509  0.1495 -0.3303 -0.1584
 3205SOL    HW121077   0.710   3.465  13.585  0.9809  0.3697  0.4702
 3205SOL    HW221078   0.636   3.569  13.507  0.6754  0.6276  0.3849
 3206SOL     OW21079   4.394   4.544   4.311 -0.7582 -0.0659 -0.0416
 3206SOL    HW121080   4.436   4.467   4.274  3.6750  3.5758 -2.5316
 3206SOL    HW221081   4.314   4.551   4.259  0.2286  2.4885 -1.1567
 3207SOL     OW21082   2.045   0.519   0.393  0.0754 -0.0069 -0.4437
 3207SOL    HW121083   2.032   0.562   0.478 -2.6865 -0.1247 -0.8284
 3207SOL    HW221084   2.132   0.551   0.369  0.1109 -0.4345 -0.8683
 3208SOL     OW21085   1.775   4.209  15.825 -0.1506 -0.4626  0.1016
 3208SOL    HW121086   1.701   4.268  15.817  1.0643  1.2180  1.2831
 3208SOL    HW221087   1.738   4.131  15.783 -1.6497  0.9127 -1.1227
 3209SOL     OW21088   3.889   3.980   4.615 -0.3694 -0.0813  0.6005
 3209SOL    HW121089   3.899   4.030   4.534 -0.7738  1.4583  1.4887
 3209SOL    HW221090   3.967   3.925   4.619  1.3943  2.3526  0.0225
 3210SOL     OW21091   2.848   3.737  11.780 -0.0707 -0.2013 -0.2367
 3210SOL    HW121092   2.892   3.660  11.816 -1.4509 -1.2893 -0.8917
 3210SOL    HW221093   2.768   3.747  11.831  0.7427  0.4258  0.8990
 3211SOL     OW21094   3.177   1.851   3.937  0.5348  0.7241 -0.3361
 3211SOL    HW121095   3.117   1.894   4.000 -0.3000  0.6463 -1.0769
 3211SOL    HW221096   3.248   1.820   3.993  0.7473 -0.3025 -1.1891
 3212SOL     OW21097   2.443   3.792   0.079  0.4822 -0.1139 -0.3132
 3212SOL    HW121098   2.354   3.778   0.046  0.2908 -1.9603  1.0094
 3212SOL    HW221099   2.453   3.707   0.122 -1.6798 -0.4316 -0.4303
 3213SOL     OW21100   1.576   1.163   3.739 -0.3705 -0.5180 -0.1933
 3213SOL    HW121101   1.585   1.257   3.753 -0.0224 -0.5593 -0.1481
 3213SOL    HW221102   1.594   1.145   3.647  0.3800  1.5048 -0.4469
 3214SOL     OW21103   4.566   0.512   3.313 -0.1031 -0.6199 -0.3335
 3214SOL    HW121104   4.548   0.448   3.244  2.6746 -1.4221 -0.2935
 3214SOL    HW221105   4.489   0.508   3.371 -0.9023 -0.7015 -1.3865
 3215SOL     OW21106   1.333   2.965   5.622  0.7119 -0.4497 -0.5013
 3215SOL    HW121107   1.290   3.039   5.580  1.7748  0.9529  0.8945
 3215SOL    HW221108   1.335   2.980   5.717 -1.7162 -0.4233 -0.4682
 3216SOL     OW21109   3.357   1.071   5.231  0.5307 -0.0545 -0.3113
 3216SOL    HW121110   3.405   1.026   5.161 -0.9491  0.1543 -1.4685
 3216SOL    HW221111   3.422   1.065   5.300 -0.0257 -1.1107  0.1261
 3217SOL     OW21112   0.704   2.532   7.112  0.1664 -0.2104 -0.0867
 3217SOL    HW121113   0.791   2.529   7.074  0.0426  1.4176 -0.5024
 3217SOL    HW221114   0.718   2.588   7.189 -0.5842 -0.4777  0.2484
 3218SOL     OW21115   1.400   3.510   9.625 -0.1272  0.4064  0.5307
 3218SOL    HW121116   1.306   3.529   9.635 -0.4557 -1.4155  0.9475
 3218SOL    HW221117   1.409   3.419   9.655  2.5406  0.1701 -1.0956
 3219SOL     OW21118   1.910   4.219   6.348 -0.2289  0.5474 -0.2629
 3219SOL    HW121119   1.907   4.294   6.288  3.9811 -0.4201 -1.7052
 3219SOL    HW221120   1.824   4.210   6.389 -0.5823 -0.3663 -1.2160
 3220SOL     OW21121   4.179   3.505  16.847  0.1628 -0.0562 -0.3742
 3220SOL    HW121122   4.149   3.589  16.813  2.2317  0.2219 -1.5046
 3220SOL    HW221123   4.098   3.470  16.885  0.6552 -2.4142 -1.4941
 3221SOL     OW21124   0.604   3.752   1.965  0.5037  0.5224  0.3181
 3221SOL    HW121125   0.604   3.657   1.954 -0.9169  0.4021  1.2348
 3221SOL    HW221126   0.515   3.777   1.940 -0.5061 -2.7507  0.6586
 3222SOL     OW21127   4.121   2.318  15.420 -0.2476  0.1693 -0.3484
 3222SOL    HW121128   4.059   2.384  15.449  1.0619  1.6308 -0.8672
 3222SOL    HW221129   4.203   2.364  15.438 -0.2244 -0.3865  0.9290
 3223SOL     OW21130   3.655   2.147   5.640 -0.2533 -0.4013 -0.2792
 3223SOL    HW121131   3.734   2.096   5.659  0.7257  0.4001 -2.2827
 3223SOL    HW221132   3.645   2.133   5.546 -1.2397 -1.0877 -0.0802
 3224SOL     OW21133   1.544   4.273   8.671  0.5020 -0.1541  0.3475
 3224SOL    HW121134   1.576   4.183   8.670 -4.3880 -1.8749 -1.5065
 3224SOL    HW221135   1.468   4.260   8.728  0.1527 -0.6338 -0.2257
 3225SOL     OW21136   3.750   1.602   4.095  0.4122 -0.3925 -0.1651
 3225SOL    HW121137   3.756   1.638   4.007  0.5899 -1.1541 -0.4687
 3225SOL    HW221138   3.841   1.575   4.109  0.1445  0.4820  3.5074
 3226SOL     OW21139   1.468   4.532  10.613  0.2958 -0.3863 -0.1251
 3226SOL    HW121140   1.465   4.495  10.525  1.1345 -0.6567 -0.0411
 3226SOL    HW221141   1.488   4.447  10.650  0.9695 -0.3236 -0.3441
 3227SOL     OW21142   3.248   2.282   2.540  0.2381  0.2368 -0.3278
 3227SOL    HW121143   3.159   2.313   2.523  0.5198  1.1397 -0.1784
 3227SOL    HW221144   3.267   2.242   2.455 -0.2226  0.6147 -0.6091
 3228SOL     OW21145   2.288   1.591   3.080  0.0161  0.0941  0.5365
 3228SOL    HW121146   2.207   1.607   3.032  0.2836 -2.2067 -0.6748
 3228SOL    HW221147   2.247   1.579   3.166  0.8781 -0.4004  0.8801
 3229SOL     OW21148   2.547   1.197  12.526  0.9535 -0.3932 -0.4327
 3229SOL    HW121149   2.518   1.271  12.472 -0.9451 -2.1845 -1.8827
 3229SOL    HW221150   2.494   1.126  12.490 -0.5696  0.6366 -0.2038
 3230SOL     OW21151   1.375   0.886   4.921 -0.5408 -0.0590 -0.3146
 3230SOL    HW121152   1.385   0.811   4.978 -0.5381 -1.1229 -1.7115
 3230SOL    HW221153   1.418   0.863   4.838  0.4979 -0.7219  0.4102
 3231SOL     OW21154   2.532   3.613   7.346  0.1002 -0.3747 -0.1244
 3231SOL    HW121155   2.500   3.677   7.282 -1.4369 -0.7020  0.3229
 3231SOL    HW221156   2.566   3.542   7.291 -2.5981 -2.1938  0.6077
 3232SOL     OW21157   3.932   4.684   5.331  0.4298 -0.1381  0.1339
 3232SOL    HW121158   3.853   0.012   5.349  2.7870  3.3242  0.6670
 3232SOL    HW221159   3.909   4.614   5.392 -0.6157 -0.0497 -0.1579
 3233SOL     OW21160   1.922   0.572   3.549  0.4046 -0.4892  0.3494
 3233SOL    HW121161   1.842   0.520   3.544  1.2618 -1.8119  0.4613
 3233SOL    HW221162   1.951   0.581   3.458  2.3557 -1.4048  0.8727
 3234SOL     OW21163   4.349   1.589   4.794 -0.2074 -0.0511  0.1617
 3234SOL    HW121164   4.263   1.608   4.831 -0.2723  1.4500 -0.7547
 3234SOL    HW221165   4.407   1.651   4.837 -1.6157  1.4769 -0.1111
 3235SOL     OW21166   2.455   0.966   4.889 -0.6638  0.2083  0.3966
 3235SOL    HW121167   2.461   0.925   4.802 -0.2877  1.5437 -0.2089
 3235SOL    HW221168   2.397   1.042   4.880 -1.0333 -0.2397 -1.0628
 3236SOL     OW21169   3.449   2.389  14.339  0.2801 -1.0928  0.2884
 3236SOL    HW121170   3.390   2.465  14.344  1.4609  0.0537 -3.0911
 3236SOL    HW221171   3.492   2.396  14.254 -1.5626  0.1743 -0.5340
 3237SOL     OW21172   2.323   3.308   7.620 -0.2276 -0.2231 -0.0123
 3237SOL    HW121173   2.264   3.356   7.679 -1.6033 -2.4270  0.4072
 3237SOL    HW221174   2.398   3.292   7.677  2.5831  2.7550 -2.8609
 3238SOL     OW21175   3.298   1.592  14.183 -0.5420  0.2856  0.0839
 3238SOL    HW121176   3.360   1.583  14.110 -0.0352  1.3393  0.3981
 3238SOL    HW221177   3.354   1.630  14.250  2.2303  1.6788 -3.0370
 3239SOL     OW21178   0.233   4.451   6.735  0.2357 -0.5584 -0.3972
 3239SOL    HW121179   0.225   4.400   6.654  1.2942  2.0339 -2.1072
 3239SOL    HW221180   0.239   4.543   6.713 -3.2201 -0.8483 -2.5360
 3240SOL     OW21181   0.586   3.223  10.479  0.0334 -0.1571  0.0635
 3240SOL    HW121182   0.551   3.199  10.565 -0.9428  3.1965  0.5842
 3240SOL    HW221183   0.674   3.190  10.498  0.8725  1.8917 -0.2773
 3241SOL     OW21184   2.369   3.033   4.968 -0.2017  0.4563 -0.1372
 3241SOL    HW121185   2.390   3.117   4.927 -0.5895 -0.3758 -2.0537
 3241SOL    HW221186   2.300   2.997   4.912 -1.3543 -0.1573  1.7074
 3242SOL     OW21187   1.554   0.108  13.427 -0.1394  0.1803 -0.5446
 3242SOL    HW121188   1.589   0.154  13.504 -0.2567 -1.0905  0.2651
 3242SOL    HW221189   1.611   0.031  13.426 -2.2041 -1.3183 -1.2694
 3243SOL     OW21190   2.919   1.021   0.236  0.2052 -0.2595  0.0460
 3243SOL    HW121191   2.873   0.939   0.221 -0.1601 -0.0718  0.1247
 3243SOL    HW221192   2.847   1.070   0.276  1.6564  2.6655 -0.9041
 3244SOL     OW21193   1.775   0.877   7.717 -0.1818 -0.0382  0.1395
 3244SOL    HW121194   1.761   0.960   7.762  2.4855  1.4460 -1.7912
 3244SOL    HW221195   1.829   0.903   7.643  0.0487  0.5769  0.5232
 3245SOL     OW21196   1.220   2.176   4.482  0.2105  0.2133  0.2809
 3245SOL    HW121197   1.257   2.262   4.502  1.5231  0.2584 -2.3883
 3245SOL    HW221198   1.257   2.158   4.396 -0.4805 -1.2239  0.2981
 3246SOL     OW21199   1.107   2.139   8.739 -0.2909 -1.0170  0.6362
 3246SOL    HW121200   1.142   2.201   8.803 -2.6721 -2.0901  2.9719
 3246SOL    HW221201   1.189   2.096   8.713 -0.8659 -2.3696  1.0702
 3247SOL     OW21202   3.195   0.232  11.550 -0.0470 -0.1159  0.0180
 3247SOL    HW121203   3.243   0.301  11.597 -0.3930 -0.5702  1.0388
 3247SOL    HW221204   3.195   0.267  11.461  0.7074 -0.0261  0.0474
 3248SOL     OW21205   2.809   3.833   3.450  0.3889 -0.3726  0.3077
 3248SOL    HW121206   2.888   3.886   3.459  0.3016 -0.1204 -0.4439
 3248SOL    HW221207   2.819   3.794   3.364 -0.9935 -1.1089  0.4795
 3249SOL     OW21208   0.388   0.113   5.098 -0.3364 -0.1059  0.7935
 3249SOL    HW121209   0.328   0.040   5.104  2.5336 -2.4668  0.9009
 3249SOL    HW221210   0.382   0.132   5.005 -1.6654  1.1607  1.1316
 3250SOL     OW21211   3.357   0.503  17.291  0.4647  0.3770  0.2343
 3250SOL    HW121212   3.401   0.523  17.373 -0.2553  0.8254  0.5146
 3250SOL    HW221213   3.371   0.586  17.244  2.7286 -0.1650 -0.0473
 3251SOL     OW21214   1.506   1.397   5.630  0.2244 -0.4442 -0.2311
 3251SOL    HW121215   1.528   1.309   5.600  1.5491 -1.0624  2.5483
 3251SOL    HW221216   1.434   1.374   5.689  0.0319  1.0070  0.0948
 3252SOL     OW21217   0.476   2.812   8.671 -0.2769  0.1116 -0.1567
 3252SOL    HW121218   0.423   2.761   8.732 -1.7347  3.1255  1.0969
 3252SOL    HW221219   0.537   2.752   8.629 -0.7443 -0.2308 -0.3448
 3253SOL     OW21220   0.704   2.905   0.745 -0.2454 -0.0101  0.0573
 3253SOL    HW121221   0.632   2.967   0.730 -0.1138  0.1191 -0.0439
 3253SOL    HW221222   0.656   2.822   0.744 -0.0384 -0.1404  1.1669
 3254SOL     OW21223   3.631   0.475   4.812  0.3144  0.9590 -0.6127
 3254SOL    HW121224   3.723   0.502   4.799 -0.2392  2.5299 -1.3347
 3254SOL    HW221225   3.590   0.562   4.817  1.0463  1.2458  0.4425
 3255SOL     OW21226   4.420   2.083   1.211 -0.2718  0.1604 -0.2955
 3255SOL    HW121227   4.511   2.108   1.227 -0.1572  0.1147 -0.8924
 3255SOL    HW221228   4.408   1.999   1.255 -0.0098  0.9095  1.2160
 3256SOL     OW21229   2.389   0.662  10.738 -1.1832 -0.3587 -0.5520
 3256SOL    HW121230   2.351   0.739  10.696  0.2571  1.4418  1.4797
 3256SOL    HW221231   2.310   0.607  10.742 -1.3399 -0.0623  0.3632
 3257SOL     OW21232   3.169   0.145   7.908 -0.4049 -0.3849 -0.6382
 3257SOL    HW121233   3.182   0.063   7.861 -1.3428  0.0562 -1.6603
 3257SOL    HW221234   3.076   0.166   7.919  0.3296  2.3349  0.5050
 3258SOL     OW21235   1.904   3.105  17.451 -0.8457  0.0181 -0.1017
 3258SOL    HW121236   1.948   3.076  17.531  1.6704 -2.9760 -2.5322
 3258SOL    HW221237   1.829   3.046  17.447 -1.0771  0.3142 -0.0650
 3259SOL     OW21238   2.405   3.317   5.451 -0.3940  0.0583 -0.1609
 3259SOL    HW121239   2.411   3.387   5.386 -0.8201  1.4400  1.2555
 3259SOL    HW221240   2.310   3.322   5.466 -0.5432  2.3586 -1.7941
 3260SOL     OW21241   0.178   1.824   5.717  0.4658  0.4589 -0.3063
 3260SOL    HW121242   0.242   1.756   5.737  0.5201 -0.0747 -2.2733
 3260SOL    HW221243   0.185   1.838   5.623  0.6164 -1.1158 -0.5199
 3261SOL     OW21244   0.088   3.362   5.897 -0.5798  0.4157  0.2738
 3261SOL    HW121245   0.171   3.370   5.943 -0.0672  0.4455 -0.6632
 3261SOL    HW221246   0.105   3.401   5.811 -4.0560  0.7075 -0.3047
 3262SOL     OW21247   0.846   0.480   2.533  0.0017 -0.5950 -0.4092
 3262SOL    HW121248   0.878   0.567   2.512  0.8745 -0.3700  1.9267
 3262SOL    HW221249   0.761   0.498   2.572  0.1056 -1.3685  0.1789
 3263SOL     OW21250   0.301   3.611  17.599 -0.4386  0.4511 -0.1113
 3263SOL    HW121251   0.340   3.696  17.581 -2.6389  1.0745 -1.8354
 3263SOL    HW221252   0.297   3.574  17.511  3.6125  3.5338 -1.5919
 3264SOL     OW21253   3.468   1.926  15.013  0.1709  0.5248  0.9522
 3264SOL    HW121254   3.435   1.985  14.946 -1.3843 -1.6179 -0.1577
 3264SOL    HW221255   3.399   1.860  15.005  0.0367  0.8459 -0.5888
 3265SOL     OW21256   0.605   0.199  11.922 -0.2003  0.3664 -1.0290
 3265SOL    HW121257   0.605   0.113  11.879 -0.6383 -0.0617 -0.1673
 3265SOL    HW221258   0.525   0.189  11.973  0.4959 -1.3818 -0.2728
 3266SOL     OW21259   3.567   1.072   9.568  0.8026  0.2523  0.5220
 3266SOL    HW121260   3.483   1.057   9.524  0.3113 -1.6826  2.1429
 3266SOL    HW221261   3.576   0.979   9.585 -0.1713  0.0002 -0.3204
 3267SOL     OW21262   0.051   1.143   7.255 -0.5247  0.0444 -0.0903
 3267SOL    HW121263   0.039   1.177   7.166  1.0447  2.8298  0.7838
 3267SOL    HW221264   4.691   1.103   7.279  1.4314 -1.0218  4.9274
 3268SOL     OW21265   4.437   1.676   8.454 -0.2241 -0.1442 -0.6519
 3268SOL    HW121266   4.364   1.614   8.456  0.1539 -0.6075 -1.3271
 3268SOL    HW221267   4.473   1.673   8.543 -1.9646 -0.1671  0.0600
 3269SOL     OW21268   1.736   2.959   6.977 -0.2176  0.1741  0.5885
 3269SOL    HW121269   1.711   3.052   6.976 -2.6527 -0.4732  2.3711
 3269SOL    HW221270   1.828   2.962   7.003 -0.0747  0.7152  0.0261
 3270SOL     OW21271   1.820   1.012   6.875 -0.4577  0.0138 -0.4867
 3270SOL    HW121272   1.885   0.943   6.882 -1.3265 -0.8004 -0.4041
 3270SOL    HW221273   1.752   0.974   6.931 -0.0223 -1.1445 -0.7571
 3271SOL     OW21274   0.852   3.780   3.266 -0.2675  0.2369  0.2897
 3271SOL    HW121275   0.765   3.761   3.232  0.4797 -0.4470 -1.2646
 3271SOL    HW221276   0.831   3.835   3.341  0.2981 -0.3157  0.8468
 3272SOL     OW21277   0.588   3.721   3.216  0.1247  0.1931  0.3129
 3272SOL    HW121278   0.588   3.726   3.120  0.4298  1.0941  0.3574
 3272SOL    HW221279   0.497   3.710   3.245  0.0125 -0.6824 -0.3681
 3273SOL     OW21280   2.922   1.240   1.314 -0.2226  0.5437 -0.2563
 3273SOL    HW121281   2.998   1.235   1.256 -0.3914 -0.8395 -0.3610
 3273SOL    HW221282   2.919   1.328   1.352  1.8246  0.8340 -0.7794
 3274SOL     OW21283   1.404   2.706   3.958 -0.6050  0.3090  0.2477
 3274SOL    HW121284   1.382   2.668   3.873  2.5286 -0.3441 -0.2905
 3274SOL    HW221285   1.482   2.656   3.982 -2.6791 -2.3881  1.4157
 3275SOL     OW21286   4.070   0.239  15.504 -0.7513  0.2086 -0.5012
 3275SOL    HW121287   3.979   0.265  15.514 -0.6090 -0.6288  2.9434
 3275SOL    HW221288   4.108   0.319  15.467  1.6879 -0.6984  0.0223
 3276SOL     OW21289   0.838   1.255  13.006  0.0423  0.3432 -0.3053
 3276SOL    HW121290   0.762   1.272  13.061  1.3007 -0.5175  1.7218
 3276SOL    HW221291   0.822   1.326  12.944  1.8199  0.1066 -1.0455
 3277SOL     OW21292   0.618   0.451  12.669  0.7528  0.1458  0.2356
 3277SOL    HW121293   0.687   0.469  12.605  0.7270  4.0300  1.3127
 3277SOL    HW221294   0.659   0.392  12.732  0.1714  1.9135  2.2704
 3278SOL     OW21295   2.245   1.212   5.460 -0.0674 -0.2420 -0.1055
 3278SOL    HW121296   2.194   1.287   5.431 -1.1716 -0.8370  0.3038
 3278SOL    HW221297   2.275   1.238   5.548  0.0361  0.1574 -0.2610
 3279SOL     OW21298   0.469   3.576  16.925  0.5008 -0.1278 -0.4833
 3279SOL    HW121299   0.494   3.483  16.927  1.2691  0.0799 -0.5300
 3279SOL    HW221300   0.454   3.584  17.019  1.3300 -0.4922 -0.3167
 3280SOL     OW21301   2.862   3.166   1.154 -0.0102 -0.3901  0.3861
 3280SOL    HW121302   2.912   3.140   1.077 -2.2157  0.6131 -1.3464
 3280SOL    HW221303   2.774   3.144   1.125  0.9037 -0.2528 -2.4622
 3281SOL     OW21304   3.254   3.518   3.408  0.1764  0.3553 -0.1567
 3281SOL    HW121305   3.187   3.559   3.353  0.8976  1.0648 -0.4989
 3281SOL    HW221306   3.285   3.454   3.345  2.6107  0.9761  0.4313
 3282SOL     OW21307   4.431   3.647   9.678 -0.3939  0.3921 -0.4741
 3282SOL    HW121308   4.504   3.669   9.621 -0.6023  1.2591 -0.4240
 3282SOL    HW221309   4.423   3.552   9.687 -0.0104  0.3985 -0.0794
 3283SOL     OW21310   0.985   0.781   8.122  0.1751  0.1335  0.0326
 3283SOL    HW121311   0.973   0.750   8.211  0.1528 -0.1383 -0.0651
 3283SOL    HW221312   1.078   0.763   8.111  0.2479  1.6370 -2.0269
 3284SOL     OW21313   1.499   0.710   7.237 -0.6112  0.6663  0.3586
 3284SOL    HW121314   1.589   0.720   7.268 -0.3000 -0.4033 -0.2087
 3284SOL    HW221315   1.484   0.638   7.298 -1.2214 -0.3635 -1.0081
 3285SOL     OW21316   2.229   3.777   5.090 -0.4457 -0.1949 -0.6956
 3285SOL    HW121317   2.318   3.812   5.086 -0.6187  0.3970  0.5882
 3285SOL    HW221318   2.199   3.794   5.179  0.7889  2.6716 -0.8495
 3286SOL     OW21319   1.880   1.282   3.833 -0.0560  0.2211 -0.1075
 3286SOL    HW121320   1.807   1.343   3.832  0.7108  1.1254 -0.8175
 3286SOL    HW221321   1.940   1.324   3.894 -1.1358  0.0436  1.0640
 3287SOL     OW21322   0.599   4.278   4.883  0.0892  0.2698 -0.6323
 3287SOL    HW121323   0.510   4.306   4.862 -0.0219 -0.8357 -1.6358
 3287SOL    HW221324   0.624   4.332   4.958  0.9350  0.1292 -0.8165
 3288SOL     OW21325   4.469   1.354   5.034 -0.2701 -0.1278  0.1453
 3288SOL    HW121326   4.507   1.282   4.984 -0.1299  0.1019 -0.0791
 3288SOL    HW221327   4.496   1.433   4.987  0.9237 -1.1674 -0.9311
 3289SOL     OW21328   2.149   3.714   2.073  0.4102 -0.3292  0.0582
 3289SOL    HW121329   2.083   3.699   2.005  0.2772 -2.6591  0.7097
 3289SOL    HW221330   2.219   3.743   2.015  2.6861 -0.2239  2.8839
 3290SOL     OW21331   2.581   3.194  12.937  0.1248 -0.4323 -0.1917
 3290SOL    HW121332   2.580   3.238  12.852  1.6151  0.4477  0.2292
 3290SOL    HW221333   2.657   3.136  12.935 -0.4168 -1.2049  1.5081
 3291SOL     OW21334   1.048   0.365  15.770 -0.3170  0.4051 -0.4069
 3291SOL    HW121335   1.119   0.334  15.714  0.5463 -0.2943  1.0615
 3291SOL    HW221336   1.063   0.459  15.773 -0.3265  0.4661 -2.5747
 3292SOL     OW21337   0.074   1.111   8.060  0.2066  0.1695 -0.2017
 3292SOL    HW121338   0.148   1.135   8.115  1.8338 -3.1641 -0.9709
 3292SOL    HW221339   0.031   1.197   8.058  1.1815  0.6560 -0.3005
 3293SOL     OW21340   0.180   0.866   7.530  0.3099 -0.7147  0.1347
 3293SOL    HW121341   0.187   0.868   7.625 -0.3940 -0.6446  0.1841
 3293SOL    HW221342   0.237   0.939   7.507 -3.6981  1.3147 -3.4034
 3294SOL     OW21343   0.500   3.942  13.353  0.0877  0.8235 -0.5954
 3294SOL    HW121344   0.479   3.958  13.261 -1.1580  0.2682 -0.4151
 3294SOL    HW221345   0.517   4.034  13.371 -0.2570  0.7648  0.0310
 3295SOL     OW21346   1.761   0.726   7.324  0.1991  0.1619 -0.1419
 3295SOL    HW121347   1.775   0.710   7.417 -0.1507  0.3706 -0.0545
 3295SOL    HW221348   1.829   0.793   7.309 -1.9014  1.4378 -3.9046
 3296SOL     OW21349   0.282   2.667   8.799  0.9542 -0.5928  0.0016
 3296SOL    HW121350   0.258   2.580   8.832 -0.9771 -0.4079 -0.9495
 3296SOL    HW221351   0.206   2.706   8.842  0.5784 -0.8355 -0.4552
 3297SOL     OW21352   0.986   1.817   7.694 -0.0211 -0.2722 -0.6366
 3297SOL    HW121353   1.007   1.726   7.716  1.6691  0.1354 -0.5391
 3297SOL    HW221354   0.936   1.860   7.763  0.7753  2.2783 -1.6578
 3298SOL     OW21355   1.618   4.503  14.249  0.5327  0.8487  0.1941
 3298SOL    HW121356   1.546   4.558  14.221  1.1111  2.2463  1.4531
 3298SOL    HW221357   1.580   4.419  14.274 -2.0079  1.7397 -0.6922
 3299SOL     OW21358   4.543   1.172   9.257 -0.2935 -0.0910  0.1221
 3299SOL    HW121359   4.570   1.247   9.311  4.4865 -1.3478 -0.4528
 3299SOL    HW221360   4.450   1.193   9.253 -0.2090  0.4262  0.8166
 3300SOL     OW21361   2.350   0.514   8.845  0.5333  0.8402  0.3526
 3300SOL    HW121362   2.280   0.449   8.858  1.2493 -0.3225 -1.6013
 3300SOL    HW221363   2.295   0.585   8.813  0.7735  0.0782 -1.7820
 3301SOL     OW21364   0.502   4.067   2.159  0.5133 -0.0600 -0.0273
 3301SOL    HW121365   0.556   4.003   2.206  1.3783 -1.1397 -2.4874
 3301SOL    HW221366   0.429   4.006   2.173  0.0325  0.9836  2.1131
 3302SOL     OW21367   3.311   0.041   6.414  0.1387 -0.1511 -0.3749
 3302SOL    HW121368   3.407   0.047   6.413  0.2159 -1.7357 -5.1066
 3302SOL    HW221369   3.277   0.109   6.357  0.4508 -0.9763 -1.5530
 3303SOL     OW21370   3.040   0.247   3.175  0.2691 -0.2891 -0.5477
 3303SOL    HW121371   3.072   0.180   3.115  0.0895  1.1693 -2.3145
 3303SOL    HW221372   3.113   0.268   3.233 -0.7048  0.4413  0.4213
 3304SOL     OW21373   4.007   0.855   6.048 -0.6006  0.1632 -0.2275
 3304SOL    HW121374   3.968   0.886   5.966 -1.6915  1.2886  0.7218
 3304SOL    HW221375   4.022   0.941   6.088  1.6847 -0.2951 -0.0979
 3305SOL     OW21376   1.464   1.780  11.463 -0.8428  0.1528  0.4155
 3305SOL    HW121377   1.531   1.723  11.426  0.9633  1.9660  0.9028
 3305SOL    HW221378   1.394   1.716  11.475  0.0523 -0.6717  1.1914
 3306SOL     OW21379   2.771   4.153   2.735  0.6268 -0.0757  0.1897
 3306SOL    HW121380   2.796   4.202   2.656 -2.0214 -0.3199 -0.8133
 3306SOL    HW221381   2.681   4.182   2.751  0.9284  1.1879 -0.4210
 3307SOL     OW21382   4.621   3.426   3.998  0.4709 -0.0490  0.2555
 3307SOL    HW121383   4.707   3.399   4.030  0.4029  0.4648  0.8744
 3307SOL    HW221384   4.592   3.340   3.968  0.1937  0.4719 -0.9644
 3308SOL     OW21385   3.151   4.669   7.043  0.4315  0.4664 -0.0384
 3308SOL    HW121386   3.177   4.621   7.121  0.6263 -0.4254 -0.6549
 3308SOL    HW221387   3.227   4.719   7.016 -1.1480  2.9138 -0.0126
 3309SOL     OW21388   0.551   2.487   9.937  0.0450 -0.2554 -0.4197
 3309SOL    HW121389   0.463   2.482   9.975 -0.5022 -1.3179 -1.8416
 3309SOL    HW221390   0.594   2.442  10.009 -0.6974  0.8906  0.7433
 3310SOL     OW21391   4.513   3.470   4.949  0.0133 -0.0757  0.0174
 3310SOL    HW121392   4.591   3.430   4.988  0.5265  0.4430 -0.4865
 3310SOL    HW221393   4.440   3.423   4.990 -1.6017  1.7880 -0.7200
 3311SOL     OW21394   3.510   0.138   0.876  0.7506  0.1062 -0.2549
 3311SOL    HW121395   3.597   0.101   0.861  0.7315 -0.4538  1.0425
 3311SOL    HW221396   3.472   0.133   0.788 -1.2024 -1.8532  0.6910
 3312SOL     OW21397   4.251   3.896   6.278  0.2428  0.2220 -0.7216
 3312SOL    HW121398   4.295   3.818   6.311  1.7301  0.5486 -1.9381
 3312SOL    HW221399   4.288   3.964   6.333  0.2074  0.2513 -0.7336
 3313SOL     OW21400   1.415   1.645  12.806  0.1355  0.1120  0.4694
 3313SOL    HW121401   1.384   1.558  12.828  0.5740 -0.0313  0.5101
 3313SOL    HW221402   1.501   1.640  12.848 -0.2826 -0.2460  1.2615
 3314SOL     OW21403   3.110   0.679  15.945 -0.0383  0.5374 -0.9322
 3314SOL    HW121404   3.067   0.645  15.867 -1.9197  1.5695 -0.3360
 3314SOL    HW221405   3.050   0.750  15.967 -1.3652 -1.0330  0.5703
 3315SOL     OW21406   0.100   0.564   7.756  0.2305  0.0575 -0.4525
 3315SOL    HW121407   0.062   0.648   7.783  1.4190  0.1654  0.8536
 3315SOL    HW221408   0.049   0.546   7.677 -1.6507  1.4778  0.4248
 3316SOL     OW21409   4.341   3.006   0.272  0.5174 -0.0160 -0.0791
 3316SOL    HW121410   4.306   2.922   0.304  1.0203 -1.1437 -2.4729
 3316SOL    HW221411   4.263   3.061   0.275  1.1729  0.9978 -1.3144
 3317SOL     OW21412   1.070   4.484   4.451 -0.4122 -0.4149  0.4029
 3317SOL    HW121413   0.978   4.482   4.477 -0.4255  0.6402  0.4411
 3317SOL    HW221414   1.115   4.541   4.513 -0.0346  0.9581 -1.1296
 3318SOL     OW21415   1.660   0.131   8.105 -0.0399 -0.0101  0.0688
 3318SOL    HW121416   1.598   0.105   8.037 -0.1403 -0.5481  0.3707
 3318SOL    HW221417   1.651   0.053   8.159  0.5284  0.9701  1.5800
 3319SOL     OW21418   3.421   4.383   5.859 -0.7935  0.7876 -0.2204
 3319SOL    HW121419   3.329   4.390   5.833 -1.1471 -0.1071  0.8118
 3319SOL    HW221420   3.435   4.472   5.890 -0.8530  0.6462  0.2123
 3320SOL     OW21421   3.221   0.113   2.342 -0.1786  0.5665 -0.1431
 3320SOL    HW121422   3.247   0.192   2.296 -0.9134  0.1880 -1.1957
 3320SOL    HW221423   3.219   0.047   2.273 -1.2939 -0.3124  0.7290
 3321SOL     OW21424   2.141   3.325   5.468 -0.2597  0.0163 -0.1466
 3321SOL    HW121425   2.142   3.318   5.372  1.8906  1.4744 -0.2357
 3321SOL    HW221426   2.059   3.371   5.483 -0.2773  0.2661 -0.9884
 3322SOL     OW21427   1.115   4.317   0.459  0.1516  0.6795  0.0652
 3322SOL    HW121428   1.060   4.353   0.388 -0.3591 -2.7183 -1.2532
 3322SOL    HW221429   1.174   4.392   0.465 -1.7004  2.1309  0.3480
 3323SOL     OW21430   0.825   2.412   2.955 -0.1403 -0.0805 -0.1887
 3323SOL    HW121431   0.868   2.346   2.900 -3.4712 -2.4843  0.1240
 3323SOL    HW221432   0.732   2.389   2.951 -0.6813  1.8631  1.5217
 3324SOL     OW21433   0.955   1.216   2.722  0.3238  0.3344 -0.0510
 3324SOL    HW121434   0.882   1.179   2.772  2.4039 -2.0796  1.1731
 3324SOL    HW221435   0.901   1.279   2.674  0.0028  1.1758  1.4144
 3325SOL     OW21436   1.039   0.554  10.962  0.5443 -0.0136  0.0715
 3325SOL    HW121437   1.024   0.537  11.056 -0.3384 -0.0193 -0.0660
 3325SOL    HW221438   0.955   0.534  10.921  0.1694 -0.9761  1.2962
 3326SOL     OW21439   2.995   3.288   2.114 -0.6240 -0.5711  0.1527
 3326SOL    HW121440   3.001   3.377   2.147  1.6071 -1.5050  2.2895
 3326SOL    HW221441   2.905   3.261   2.130 -0.6516 -1.6663 -1.7520
 3327SOL     OW21442   1.970   0.215  11.299  0.3886 -0.1340  0.0525
 3327SOL    HW121443   2.027   0.191  11.226  0.0707 -1.7232  0.3444
 3327SOL    HW221444   2.024   0.258  11.366  1.0687  0.6464 -0.9885
 3328SOL     OW21445   3.801   4.012   7.614  0.6496  0.3923  0.0560
 3328SOL    HW121446   3.873   4.053   7.663  1.4546 -0.2640 -0.5886
 3328SOL    HW221447   3.818   3.921   7.637  0.2230 -0.0990 -1.5916
 3329SOL     OW21448   2.403   2.236   7.550  0.1276 -0.2372  0.2637
 3329SOL    HW121449   2.325   2.219   7.603 -0.0502 -0.7770 -0.1699
 3329SOL    HW221450   2.445   2.151   7.561  0.2447 -0.1741  0.3069
 3330SOL     OW21451   1.659   2.370   8.964  0.4267 -0.0355  0.0179
 3330SOL    HW121452   1.674   2.413   9.048 -0.2800 -0.4573  0.3567
 3330SOL    HW221453   1.584   2.313   8.984  0.3404  0.4665  1.1441
 3331SOL     OW21454   2.852   0.512   8.003  0.2865 -0.3885 -0.2229
 3331SOL    HW121455   2.850   0.434   8.058  1.3940 -1.0789 -1.1407
 3331SOL    HW221456   2.843   0.478   7.913  0.9849  0.0220 -0.4469
 3332SOL     OW21457   1.675   2.681  11.563  0.4520  0.1397 -0.1108
 3332SOL    HW121458   1.625   2.745  11.512  0.6014  1.5360  1.5027
 3332SOL    HW221459   1.615   2.613  11.592 -0.8907  1.3922  0.0090
 3333SOL     OW21460   3.898   0.655   4.286 -0.0282 -0.2587  0.3089
 3333SOL    HW121461   3.878   0.735   4.238 -0.3578 -0.5081  0.0213
 3333SOL    HW221462   3.813   0.612   4.276 -0.0853 -0.3139  1.0345
 3334SOL     OW21463   0.427   2.301   9.040  0.0030  0.3540  0.3070
 3334SOL    HW121464   0.497   2.300   8.975  1.1086 -0.5392  1.5048
 3334SOL    HW221465   0.481   2.334   9.112  0.1742  0.7364  0.0026
 3335SOL     OW21466   1.874   3.546  11.970  0.0946 -0.0844 -0.1565
 3335SOL    HW121467   1.877   3.577  11.879  1.9061 -0.4122 -0.2110
 3335SOL    HW221468   1.835   3.621  12.015 -0.8542 -1.1791  0.8318
 3336SOL     OW21469   3.805   3.490   6.569  0.1375  0.1040 -0.4917
 3336SOL    HW121470   3.759   3.492   6.653 -2.7592 -1.7542 -2.0383
 3336SOL    HW221471   3.834   3.581   6.565  0.0889  0.1067 -0.7731
 3337SOL     OW21472   0.318   2.322   3.134  0.4628  0.3631 -0.2081
 3337SOL    HW121473   0.246   2.361   3.183  0.0779  1.5817 -1.7349
 3337SOL    HW221474   0.308   2.363   3.048  1.3109 -0.1087 -0.5297
 3338SOL     OW21475   3.555   3.692   7.583 -0.4923 -0.3568 -0.4255
 3338SOL    HW121476   3.565   3.785   7.560  0.4040  0.4427  3.1246
 3338SOL    HW221477   3.642   3.668   7.616 -0.5723  0.8824  0.7202
 3339SOL     OW21478   4.421   2.862   8.191  0.0164  0.1953  0.1285
 3339SOL    HW121479   4.472   2.874   8.270  1.1522 -2.8523 -0.1396
 3339SOL    HW221480   4.483   2.809   8.141 -0.1935  0.2815 -0.2256
 3340SOL     OW21481   4.694   4.189  13.796 -0.0491  0.1738  0.5326
 3340SOL    HW121482   0.036   4.244  13.839  0.5817  0.2726 -0.5487
 3340SOL    HW221483   4.661   4.257  13.737  2.1913  0.6007 -0.2001
 3341SOL     OW21484   3.872   3.332   4.721  0.1030 -0.2928 -0.7073
 3341SOL    HW121485   3.882   3.378   4.638 -1.4908  0.7097 -0.3440
 3341SOL    HW221486   3.933   3.387   4.772 -1.8999 -2.5048  4.1190
 3342SOL     OW21487   1.452   4.443   2.128 -0.1408 -0.0678  0.2046
 3342SOL    HW121488   1.440   4.513   2.063 -1.7357 -0.5660 -0.0526
 3342SOL    HW221489   1.370   4.435   2.177 -0.8448  1.9399 -0.6505
 3343SOL     OW21490   1.080   4.491   6.726 -0.3423  0.2559  0.0436
 3343SOL    HW121491   0.985   4.500   6.735 -0.7363 -2.5008 -1.4883
 3343SOL    HW221492   1.112   4.505   6.815 -3.7148  0.5426  1.2147
 3344SOL     OW21493   3.308   3.424   5.538  0.2672  0.5516 -0.2627
 3344SOL    HW121494   3.358   3.385   5.609  0.0196 -1.3033 -1.1105
 3344SOL    HW221495   3.225   3.438   5.583  0.4921 -0.2314  0.3975
 3345SOL     OW21496   3.956   3.149   3.998 -0.0626 -0.3359 -0.4826
 3345SOL    HW121497   3.904   3.193   4.065  2.8545  1.5345  0.5596
 3345SOL    HW221498   3.968   3.224   3.939 -0.3111 -0.7169 -1.0187
 3346SOL     OW21499   0.252   3.508  10.652  0.0983  0.1550 -0.1543
 3346SOL    HW121500   0.182   3.480  10.593  0.7284  0.6378 -1.1264
 3346SOL    HW221501   0.259   3.432  10.710  1.3770  1.1288  0.9350
 3347SOL     OW21502   3.986   1.483   6.877 -0.0020 -0.4671 -0.1051
 3347SOL    HW121503   3.933   1.512   6.803 -0.4290 -0.2222  0.2942
 3347SOL    HW221504   3.990   1.560   6.934  2.5638 -1.2648  0.7858
 3348SOL     OW21505   3.526   0.821  17.395  0.1950 -0.2364 -0.1680
 3348SOL    HW121506   3.466   0.794  17.325  0.4655 -0.0626 -0.4658
 3348SOL    HW221507   3.462   0.872  17.447 -1.0493 -0.3739 -1.5590
 3349SOL     OW21508   1.607   2.390   4.514  0.1378 -0.8203  0.4150
 3349SOL    HW121509   1.618   2.343   4.431  1.3484 -1.6303  1.0415
 3349SOL    HW221510   1.680   2.452   4.518  0.0023 -0.7510  1.5999
 3350SOL     OW21511   3.457   1.084   2.217  0.3189 -0.2376  0.2882
 3350SOL    HW121512   3.524   1.040   2.164  1.2422  0.5405  0.8094
 3350SOL    HW221513   3.494   1.169   2.238 -0.8413  1.0526 -3.0101
 3351SOL     OW21514   1.393   2.817   8.942 -0.1966 -0.0301  0.4823
 3351SOL    HW121515   1.377   2.899   8.990  1.0845  2.1831 -2.8528
 3351SOL    HW221516   1.482   2.835   8.909  0.2860  0.4077  2.0027
 3352SOL     OW21517   2.302   1.722  17.495 -0.3654  0.1113 -0.0221
 3352SOL    HW121518   2.313   1.809  17.456 -0.9701  0.1861 -0.0415
 3352SOL    HW221519   2.251   1.670  17.433 -0.0712  0.3702 -0.4744
 3353SOL     OW21520   2.403   2.817  16.659 -0.3223 -0.3207  0.0077
 3353SOL    HW121521   2.434   2.824  16.749 -1.0260 -3.7677  0.5121
 3353SOL    HW221522   2.460   2.751  16.619 -0.0230  0.0766 -0.2207
 3354SOL     OW21523   3.835   0.210   0.486  0.4065  0.2253 -0.2623
 3354SOL    HW121524   3.850   0.133   0.431 -1.2529  0.3640 -0.9123
 3354SOL    HW221525   3.922   0.249   0.498 -0.2324  1.3902  0.5354
 3355SOL     OW21526   3.611   4.365   3.017  0.1493 -0.8853 -0.0916
 3355SOL    HW121527   3.690   4.386   2.966  0.6261 -2.6722 -0.0825
 3355SOL    HW221528   3.564   4.328   2.943  1.7000  0.3774 -1.7042
 3356SOL     OW21529   4.149   2.897  13.388  0.0558 -0.1561  0.1173
 3356SOL    HW121530   4.187   2.983  13.403  0.7657 -0.1850 -1.4610
 3356SOL    HW221531   4.059   2.920  13.362 -0.0297  0.3937  0.9153
 3357SOL     OW21532   2.430   0.892  10.375 -0.0507 -0.1077 -0.1112
 3357SOL    HW121533   2.451   0.895  10.469  1.4033  1.7876 -0.4831
 3357SOL    HW221534   2.392   0.980  10.371 -1.8831 -0.9646 -1.0464
 3358SOL     OW21535   3.855   1.011   2.237 -0.2297  0.0125  0.5137
 3358SOL    HW121536   3.785   0.985   2.176  0.2195  0.7413 -0.3241
 3358SOL    HW221537   3.802   1.070   2.290 -0.2497  0.3503  0.1221
 3359SOL     OW21538   2.920   0.406  12.421 -0.1653 -0.3453  0.1216
 3359SOL    HW121539   2.989   0.347  12.450 -0.1303 -0.9146 -1.1392
 3359SOL    HW221540   2.951   0.495  12.440 -1.1927 -0.2158  1.2281
 3360SOL     OW21541   0.173   0.679   6.797 -0.4949  0.1345  0.1901
 3360SOL    HW121542   0.248   0.726   6.835 -0.8442 -0.2003  1.2820
 3360SOL    HW221543   0.173   0.712   6.707  1.7651  0.1446  0.1927
 3361SOL     OW21544   2.036   2.944   8.655  0.3167 -0.0655  0.0384
 3361SOL    HW121545   1.997   3.029   8.634  0.2413  0.2512  1.4652
 3361SOL    HW221546   2.127   2.972   8.663  0.6170 -0.0203 -3.2643
 3362SOL     OW21547   4.262   4.076  11.353  0.1541 -0.7986  0.4367
 3362SOL    HW121548   4.268   3.996  11.405 -2.9899 -0.4155  1.4094
 3362SOL    HW221549   4.337   4.126  11.385 -0.6874  1.2772 -0.8236
 3363SOL     OW21550   1.188   1.318  13.920  0.4101 -0.2528 -0.0037
 3363SOL    HW121551   1.100   1.330  13.957  1.1855  2.7079  0.8425
 3363SOL    HW221552   1.239   1.282  13.993 -2.0770 -1.4640  1.1744
 3364SOL     OW21553   0.497   3.713   2.913  0.2312 -0.1628 -0.0906
 3364SOL    HW121554   0.578   3.720   2.863  0.3431 -0.1688  0.0883
 3364SOL    HW221555   0.441   3.766   2.856  1.5527 -0.2142 -1.4439
 3365SOL     OW21556   3.864   1.412   7.203  0.2025 -0.1763 -0.5587
 3365SOL    HW121557   3.842   1.484   7.144  2.6723  0.5453 -0.5838
 3365SOL    HW221558   3.937   1.458   7.245  0.3737  0.2150 -1.2822
 3366SOL     OW21559   2.405   1.757  14.451  0.6150  0.6787 -0.0861
 3366SOL    HW121560   2.406   1.668  14.417 -1.8775  0.8082 -0.4784
 3366SOL    HW221561   2.499   1.767  14.465  1.2496 -1.9071 -2.4617
 3367SOL     OW21562   3.677   4.092   3.717 -0.6585 -0.1238  0.3747
 3367SOL    HW121563   3.730   4.024   3.758  0.6715 -0.8906 -2.6232
 3367SOL    HW221564   3.657   4.053   3.632 -0.0339  0.2799  0.0437
 3368SOL     OW21565   2.346   3.798   1.923 -0.0066 -0.1765 -0.5162
 3368SOL    HW121566   2.378   3.788   1.834  2.9907  1.0161  0.4096
 3368SOL    HW221567   2.421   3.809   1.981 -0.2181 -1.4298 -0.0028
 3369SOL     OW21568   3.988   4.471  10.698  0.2416  0.3056  0.2120
 3369SOL    HW121569   4.006   4.396  10.641 -1.2734  1.1773 -1.3773
 3369SOL    HW221570   3.952   4.427  10.775  1.8541  0.7832  1.2529
 3370SOL     OW21571   4.620   2.589   3.942 -0.4051 -0.1182 -0.2231
 3370SOL    HW121572   4.544   2.603   3.999  0.9593  0.8298  1.3709
 3370SOL    HW221573   4.652   2.504   3.972 -0.8551  0.4488  1.8562
 3371SOL     OW21574   0.183   1.159   8.649 -0.5470  0.1099  0.0975
 3371SOL    HW121575   0.247   1.128   8.585 -0.9585  1.5172 -1.0020
 3371SOL    HW221576   0.137   1.077   8.664 -0.9921  0.4909  0.7823
 3372SOL     OW21577   1.081   1.331   4.101 -0.6233  0.0015 -0.3373
 3372SOL    HW121578   1.032   1.392   4.156  1.4295  1.3150  0.0339
 3372SOL    HW221579   1.083   1.255   4.159  1.0896  1.3141  1.3361
 3373SOL     OW21580   3.945   2.097   4.237  0.3035 -0.2471 -0.1526
 3373SOL    HW121581   3.921   2.120   4.327 -1.0600 -1.1521 -0.2862
 3373SOL    HW221582   3.870   2.054   4.196  0.1911 -0.4437  0.2576
 3374SOL     OW21583   3.330   0.040   3.954 -0.0707  0.1085 -0.1790
 3374SOL    HW121584   3.366   4.675   3.951  0.1131  0.2549 -1.9932
 3374SOL    HW221585   3.237   0.019   3.948 -0.3715  1.5766 -0.7332
 3375SOL     OW21586   4.646   4.647   2.141 -0.4004  0.2796  0.1448
 3375SOL    HW121587   4.651   4.555   2.164  0.3989  0.6730  1.5259
 3375SOL    HW221588   4.687   4.686   2.218 -0.1670 -0.4566  0.3914
 3376SOL     OW21589   3.093   2.912  10.619 -0.3158  0.4770  0.3680
 3376SOL    HW121590   3.020   2.850  10.612  0.3965 -0.4092  0.7438
 3376SOL    HW221591   3.049   2.988  10.656  1.6939  3.1266 -2.6930
 3377SOL     OW21592   3.727   1.552   5.894 -0.3686  0.1327 -0.0036
 3377SOL    HW121593   3.820   1.576   5.890 -0.3485  0.0116 -0.3063
 3377SOL    HW221594   3.732   1.466   5.937 -1.6939 -0.9342 -1.9832
 3378SOL     OW21595   2.737   2.278  14.716  0.2872 -0.8159 -0.3144
 3378SOL    HW121596   2.777   2.363  14.734 -0.2227 -0.9926  1.6770
 3378SOL    HW221597   2.805   2.212  14.731  0.7442 -0.3468 -0.3334
 3379SOL     OW21598   1.178   3.922  17.310  0.1047 -0.6182  0.4678
 3379SOL    HW121599   1.196   4.011  17.340  1.2842 -0.6182 -0.2439
 3379SOL    HW221600   1.116   3.892  17.377  1.2488 -1.4496  1.1646
 3380SOL     OW21601   3.095   2.857   3.694 -0.4398 -0.2228 -0.2366
 3380SOL    HW121602   3.152   2.817   3.759 -2.6392 -3.1752 -0.1330
 3380SOL    HW221603   3.110   2.803   3.616  1.6800 -2.1445  1.4994
 3381SOL     OW21604   1.035   0.568   6.169  0.3210 -0.0854 -0.4408
 3381SOL    HW121605   0.941   0.554   6.162  0.4461 -1.1841  0.1947
 3381SOL    HW221606   1.047   0.615   6.251 -0.5040 -2.2853  0.9165
 3382SOL     OW21607   2.576   1.658   8.352 -0.0483  0.1404  0.1411
 3382SOL    HW121608   2.643   1.655   8.420 -0.1861 -0.6093  0.2428
 3382SOL    HW221609   2.528   1.580   8.379 -0.1182 -0.0524 -0.5288
 3383SOL     OW21610   3.839   3.014   0.344 -0.3272  0.1590  0.5048
 3383SOL    HW121611   3.888   2.959   0.405 -0.1259 -3.0960 -2.5939
 3383SOL    HW221612   3.832   3.100   0.386  1.2069  0.7205 -0.3847
 3384SOL     OW21613   1.725   1.502  13.445 -0.1219 -0.3350 -0.2172
 3384SOL    HW121614   1.778   1.501  13.524  0.6113 -1.3343 -0.7140
 3384SOL    HW221615   1.678   1.419  13.446 -2.2374  0.8705  0.6146
 3385SOL     OW21616   4.313   0.525   4.604 -0.0519 -0.3383 -0.2243
 3385SOL    HW121617   4.232   0.569   4.578 -0.5145 -0.6776  0.6423
 3385SOL    HW221618   4.368   0.602   4.617  0.0588 -0.2815 -0.9950
 3386SOL     OW21619   0.155   0.451  12.758  0.1458 -0.8953  0.3784
 3386SOL    HW121620   0.235   0.446  12.705  0.7063 -0.5428  1.1990
 3386SOL    HW221621   0.118   0.365  12.736 -0.5592 -0.4026 -0.3886
 3387SOL     OW21622   0.564   3.628   4.478  0.1167  0.1679 -0.6744
 3387SOL    HW121623   0.567   3.535   4.500 -0.3515  0.5180  0.8765
 3387SOL    HW221624   0.582   3.612   4.385 -1.9800  2.2042 -1.4292
 3388SOL     OW21625   1.664   3.342  13.530 -0.6824  0.6473 -0.1577
 3388SOL    HW121626   1.667   3.392  13.448 -0.6239  3.3020  1.4791
 3388SOL    HW221627   1.593   3.382  13.579  0.8415  2.9267  0.1516
 3389SOL     OW21628   1.691   2.888  13.999 -0.3779  0.5399 -0.2591
 3389SOL    HW121629   1.739   2.888  14.081  0.7814  0.0917 -0.9395
 3389SOL    HW221630   1.762   2.857  13.942 -0.6188  0.1829 -0.3643
 3390SOL     OW21631   0.261   0.769   5.198  0.3906 -0.1236 -0.0963
 3390SOL    HW121632   0.182   0.723   5.170  0.6085  0.4262 -1.5897
 3390SOL    HW221633   0.336   0.739   5.148 -0.7834 -2.9498 -0.1313
 3391SOL     OW21634   3.943   0.484   5.157 -0.2596  0.5481  0.5250
 3391SOL    HW121635   3.941   0.458   5.250  1.1066  0.6756  0.5991
 3391SOL    HW221636   3.955   0.579   5.165  1.8399  0.2171  1.5600
 3392SOL     OW21637   0.614   0.750   7.592 -0.7970  0.1140  0.0563
 3392SOL    HW121638   0.598   0.838   7.558 -0.5396  0.1523  0.0326
 3392SOL    HW221639   0.645   0.767   7.681  1.6283 -0.7150 -0.6498
 3393SOL     OW21640   2.148   3.734  12.793  0.0725  0.4221 -0.1356
 3393SOL    HW121641   2.231   3.763  12.757  1.6685 -2.4170  1.2745
 3393SOL    HW221642   2.113   3.806  12.845 -2.0066 -0.2602 -0.5855
 3394SOL     OW21643   0.715   3.224   8.914  0.5057  0.0956  0.0690
 3394SOL    HW121644   0.762   3.267   8.843 -0.5049  0.0679 -0.6066
 3394SOL    HW221645   0.777   3.152   8.929 -0.0164 -0.1450  1.1410
 3395SOL     OW21646   3.888   1.732   3.363  0.0835  0.0289 -1.1046
 3395SOL    HW121647   3.925   1.806   3.411  0.7651 -1.0867  0.0794
 3395SOL    HW221648   3.821   1.776   3.312 -1.7668 -0.3733  0.9972
 3396SOL     OW21649   2.678   2.417   7.786  0.0440  0.5944 -0.2593
 3396SOL    HW121650   2.655   2.509   7.794 -1.3506 -0.1945  4.3754
 3396SOL    HW221651   2.774   2.414   7.790 -0.0458 -0.1285  1.1649
 3397SOL     OW21652   3.350   1.259   2.633  0.1939  0.1429 -0.1122
 3397SOL    HW121653   3.274   1.260   2.691 -0.1057 -0.6771 -0.4874
 3397SOL    HW221654   3.363   1.166   2.615  1.2743  0.4807 -1.1153
 3398SOL     OW21655   1.825   3.118   5.480  0.4885 -0.2936  0.2104
 3398SOL    HW121656   1.820   3.094   5.388  2.5233 -0.0973  0.0552
 3398SOL    HW221657   1.917   3.110   5.503  0.9972  0.8215 -1.4325
 3399SOL     OW21658   3.554   0.229   4.884 -0.7622 -0.4458 -0.6002
 3399SOL    HW121659   3.565   0.323   4.875  1.2597 -0.6315  0.0705
 3399SOL    HW221660   3.599   0.211   4.966  0.7680  0.3640 -1.2717
 3400SOL     OW21661   2.645   4.469  11.200 -0.3433  0.5950 -0.1717
 3400SOL    HW121662   2.612   4.414  11.129 -0.5903  0.9584 -0.3365
 3400SOL    HW221663   2.723   4.424  11.232  1.5942  1.5945 -3.5524
 3401SOL     OW21664   3.200   1.042   0.298  0.1633 -0.3707  0.0308
 3401SOL    HW121665   3.116   1.053   0.255  0.1323 -2.7488 -0.5339
 3401SOL    HW221666   3.231   0.955   0.271 -1.8143 -0.9316 -0.3914
 3402SOL     OW21667   3.407   4.561   8.701 -0.8252  0.3737 -0.4528
 3402SOL    HW121668   3.318   4.541   8.731 -0.3179 -2.2744 -0.7580
 3402SOL    HW221669   3.383   4.607   8.620 -1.6765 -0.0792 -0.4641
 3403SOL     OW21670   1.220   2.234   6.696 -0.2014  0.0997  0.1655
 3403SOL    HW121671   1.207   2.151   6.648  0.6942  0.6488 -1.0192
 3403SOL    HW221672   1.306   2.258   6.663 -0.0684  0.3686  0.7145
 3404SOL     OW21673   0.744   0.959   0.759  0.1645 -0.1786  0.5893
 3404SOL    HW121674   0.808   0.986   0.692 -1.0069 -1.7781 -1.1763
 3404SOL    HW221675   0.791   0.985   0.838 -0.3953 -0.7953  1.1155
 3405SOL     OW21676   1.523   2.497   3.374  0.1717 -0.1333 -0.7534
 3405SOL    HW121677   1.480   2.458   3.451  2.5677 -2.5050 -0.6013
 3405SOL    HW221678   1.463   2.485   3.301 -0.6799 -1.3968  0.1656
 3406SOL     OW21679   0.066   3.529   1.872 -0.0795  0.0655 -0.0518
 3406SOL    HW121680   0.030   3.594   1.933 -2.3262  0.3239 -1.6348
 3406SOL    HW221681   0.113   3.475   1.936  1.5523 -0.1771 -1.4634
 3407SOL     OW21682   3.815   3.587  15.296  0.0948 -0.4461 -0.2227
 3407SOL    HW121683   3.858   3.541  15.369 -4.1881 -2.0277  1.3119
 3407SOL    HW221684   3.736   3.611  15.344  0.7071 -0.0592  0.5982
 3408SOL     OW21685   4.419   0.786   3.096  0.2298 -0.1189 -0.4606
 3408SOL    HW121686   4.434   0.804   3.189  1.9588 -2.3972 -0.3248
 3408SOL    HW221687   4.490   0.844   3.069  0.4377  0.0230  0.3872
 3409SOL     OW21688   2.139   3.213  13.673  0.4012  0.2866 -0.1076
 3409SOL    HW121689   2.067   3.270  13.645  0.1668 -0.6970 -1.4912
 3409SOL    HW221690   2.108   3.172  13.753  0.4848 -1.5240 -1.0166
 3410SOL     OW21691   2.605   1.119  15.812 -0.1678 -0.1567  0.3104
 3410SOL    HW121692   2.658   1.087  15.885  2.1754  0.0677 -1.2738
 3410SOL    HW221693   2.579   1.205  15.846 -1.1903  0.1502 -1.2400
 3411SOL     OW21694   1.776   0.222   8.551  0.0190 -0.0811 -0.2760
 3411SOL    HW121695   1.843   0.280   8.514  1.4363 -1.3109  0.3229
 3411SOL    HW221696   1.815   0.134   8.557  0.8096  0.0289 -3.9299
 3412SOL     OW21697   3.727   2.637  10.354  1.0132 -0.0177  0.4022
 3412SOL    HW121698   3.725   2.542  10.347 -1.0063  0.1408 -1.1248
 3412SOL    HW221699   3.732   2.656  10.448  1.6716 -1.2852  0.6172
 3413SOL     OW21700   4.555   1.082   3.623 -0.4410  0.4406  0.2131
 3413SOL    HW121701   4.620   1.075   3.693 -0.0690  1.6382 -0.0221
 3413SOL    HW221702   4.492   1.147   3.653  0.2414  0.5978  1.2877
 3414SOL     OW21703   2.309   1.795   4.991  0.0222  0.6020  0.3454
 3414SOL    HW121704   2.347   1.875   5.028  1.2449 -1.1559  2.8398
 3414SOL    HW221705   2.280   1.742   5.065 -0.8985 -0.0838 -0.5052
 3415SOL     OW21706   3.858   3.610   5.328  0.6437  0.0748 -0.2384
 3415SOL    HW121707   3.807   3.631   5.405  1.3434 -0.5794  0.4038
 3415SOL    HW221708   3.947   3.598   5.361  0.8420  1.9864 -0.1121
 3416SOL     OW21709   3.970   1.169   3.910 -0.4871 -0.4736  0.0299
 3416SOL    HW121710   3.878   1.167   3.936 -0.5657 -1.1562 -0.2893
 3416SOL    HW221711   3.989   1.262   3.926 -1.5795 -0.1672 -0.4850
 3417SOL     OW21712   3.206   3.589   8.480  0.4116  0.2480  0.2066
 3417SOL    HW121713   3.183   3.526   8.548  3.3803 -0.6375  0.3664
 3417SOL    HW221714   3.138   3.564   8.417  0.0699  1.6923  0.0109
 3418SOL     OW21715   1.027   0.745  10.126  0.1126  0.8814  0.6258
 3418SOL    HW121716   1.020   0.751  10.031 -3.1702  0.2535  0.8526
 3418SOL    HW221717   1.087   0.672  10.141 -0.5861  0.4936  1.5134
 3419SOL     OW21718   0.841   3.909  13.313  0.0378 -0.1210  0.4619
 3419SOL    HW121719   0.788   3.989  13.308  0.5825  0.2046 -0.0876
 3419SOL    HW221720   0.823   3.870  13.228 -2.0119  1.2810  0.2596
 3420SOL     OW21721   4.049   1.694   5.451 -0.4984  0.4372 -0.0028
 3420SOL    HW121722   4.004   1.773   5.421 -2.1764 -1.7667 -3.2964
 3420SOL    HW221723   4.069   1.654   5.366  0.4358  0.4906  0.1878
 3421SOL     OW21724   1.066   4.675   9.157  0.4064  0.0295  0.6651
 3421SOL    HW121725   1.002   4.653   9.225  0.0890  0.3021  0.4538
 3421SOL    HW221726   1.036   4.623   9.083 -0.9095  0.1130  1.1391
 3422SOL     OW21727   1.162   3.118   8.857  0.0311 -0.0244 -0.6018
 3422SOL    HW121728   1.215   3.157   8.926 -0.3015 -1.7528  0.6366
 3422SOL    HW221729   1.160   3.188   8.792  1.2745  1.6932  1.2414
 3423SOL     OW21730   0.091   1.470   6.148  0.1811 -0.5598  0.4609
 3423SOL    HW121731   0.054   1.544   6.196  1.3617 -1.3334  2.5797
 3423SOL    HW221732   0.116   1.411   6.219  2.4440  1.8177  1.6129
 3424SOL     OW21733   0.352   4.540   2.896 -0.0763  0.1940 -0.2122
 3424SOL    HW121734   0.432   4.501   2.861  0.2670 -0.6195  1.4663
 3424SOL    HW221735   0.361   4.624   2.852 -3.2160  1.0704  0.8009
 3425SOL     OW21736   1.534   0.744  16.982 -0.5479 -0.6941  0.3396
 3425SOL    HW121737   1.510   0.837  16.979  0.6092 -0.4076  0.0348
 3425SOL    HW221738   1.579   0.747  17.067 -1.5539  0.8196  0.8201
 3426SOL     OW21739   1.230   1.329   7.487 -0.8128  0.4937  0.6963
 3426SOL    HW121740   1.156   1.390   7.495 -0.3889  1.1633 -0.5255
 3426SOL    HW221741   1.173   1.252   7.478 -0.4430  0.2963  0.0578
 3427SOL     OW21742   0.846   0.828  16.992  1.1572  0.1014 -0.2258
 3427SOL    HW121743   0.917   0.776  16.955 -0.1859 -1.6419 -0.3844
 3427SOL    HW221744   0.885   0.828  17.080 -1.0557  1.5165  0.7710
 3428SOL     OW21745   1.646   4.561   6.669 -0.0222 -1.1761 -0.3081
 3428SOL    HW121746   1.699   4.641   6.673  0.7059 -1.6653 -0.1561
 3428SOL    HW221747   1.704   4.486   6.660  1.4039 -0.0102 -0.8761
 3429SOL     OW21748   0.800   2.064  17.673  0.1010 -0.3362 -0.8212
 3429SOL    HW121749   0.721   2.013   0.000  0.2564  0.7996  2.2466
 3429SOL    HW221750   0.768   2.133  17.615 -0.0624  1.2144  1.1002
 3430SOL     OW21751   4.235   2.638  15.952  0.8327 -0.7563 -0.2765
 3430SOL    HW121752   4.197   2.686  16.026  3.7027  1.1402 -0.0591
 3430SOL    HW221753   4.311   2.690  15.926  2.3160 -1.9873  1.5773
 3431SOL     OW21754   3.692   3.695  17.296  0.0596 -0.1822  0.1742
 3431SOL    HW121755   3.620   3.633  17.287  0.0677 -0.5127  2.3653
 3431SOL    HW221756   3.675   3.752  17.371 -1.9818 -0.3063 -0.1989
 3432SOL     OW21757   4.339   3.297   7.750  0.0315 -0.1250  0.4222
 3432SOL    HW121758   4.431   3.321   7.760  0.1115 -0.7287  1.1001
 3432SOL    HW221759   4.319   3.319   7.659  0.2759 -0.3504  0.3155
 3433SOL     OW21760   0.966   0.531   5.208  0.1216 -0.1929  0.1045
 3433SOL    HW121761   0.885   0.498   5.169 -1.0163 -0.7146  2.8507
 3433SOL    HW221762   1.016   0.562   5.133 -0.8119  0.1393 -0.3688
 3434SOL     OW21763   2.431   0.702   6.074  0.0518  0.4065  0.2277
 3434SOL    HW121764   2.351   0.739   6.036  0.5614 -3.5263 -4.7115
 3434SOL    HW221765   2.402   0.694   6.165 -1.0825 -1.3788 -0.2802
 3435SOL     OW21766   2.319   3.635   8.486 -0.3271 -0.1211 -0.1235
 3435SOL    HW121767   2.241   3.611   8.435  0.3428  1.0838 -1.7123
 3435SOL    HW221768   2.354   3.550   8.514  1.1834  0.8433  0.9004
 3436SOL     OW21769   3.486   3.895   1.100 -0.3156  0.4041  0.5861
 3436SOL    HW121770   3.398   3.900   1.063 -0.9946 -1.6295  1.9624
 3436SOL    HW221771   3.468   3.920   1.190 -2.0627 -0.9598  0.6049
 3437SOL     OW21772   2.878   0.177   7.905  0.0213  0.4185 -0.4589
 3437SOL    HW121773   2.866   0.228   7.825  2.6380  0.4063 -0.8670
 3437SOL    HW221774   2.796   0.130   7.918  0.3107  0.5848  2.1597
 3438SOL     OW21775   1.640   3.915   3.728 -0.2199 -0.0869 -0.3009
 3438SOL    HW121776   1.582   3.896   3.801  0.9732 -0.3213  0.5786
 3438SOL    HW221777   1.716   3.859   3.745 -0.1793 -0.6148 -2.2107
 3439SOL     OW21778   4.070   1.348   4.517  0.2486 -0.3823  0.3249
 3439SOL    HW121779   4.127   1.423   4.504  0.3704 -0.6804 -0.8852
 3439SOL    HW221780   4.030   1.380   4.597 -0.7833  0.5787 -0.5876
 3440SOL     OW21781   2.816   2.504   3.019  0.0730  0.0438  0.0303
 3440SOL    HW121782   2.883   2.572   3.017 -0.1094  0.2119 -0.4271
 3440SOL    HW221783   2.790   2.503   3.111  0.4913 -0.1589  0.1490
 3441SOL     OW21784   2.087   4.623   5.117  0.6369  0.0789  0.1091
 3441SOL    HW121785   2.121   4.584   5.198  1.1405  0.6442  0.1668
 3441SOL    HW221786   2.143   4.583   5.051 -0.0938 -0.1874 -0.3570
 3442SOL     OW21787   2.958   3.815   3.828  0.6644  0.2906 -0.7010
 3442SOL    HW121788   3.009   3.742   3.793  0.5183 -0.0021 -0.3079
 3442SOL    HW221789   3.016   3.891   3.827 -0.5657  1.2408  0.5137
 3443SOL     OW21790   4.154   0.065   0.074 -0.5865  0.4085  0.5897
 3443SOL    HW121791   4.167   0.122  17.695 -0.6057 -1.0443 -0.5184
 3443SOL    HW221792   4.160   0.122   0.151  2.0516  0.1522  0.6041
 3444SOL     OW21793   3.950   1.142   9.088 -0.2646 -0.0427 -0.2863
 3444SOL    HW121794   3.945   1.208   9.018  2.4759  1.4792  0.9710
 3444SOL    HW221795   3.967   1.202   9.161 -1.7602  0.9347 -0.7273
 3445SOL     OW21796   0.391   3.716  10.773 -0.4309  0.2604  0.4471
 3445SOL    HW121797   0.342   3.643  10.734 -0.6772  0.5989  0.1170
 3445SOL    HW221798   0.464   3.661  10.802 -1.6981  0.0062  3.1523
 3446SOL     OW21799   2.430   4.501  10.062 -0.0579  0.7558  0.1052
 3446SOL    HW121800   2.453   4.431  10.000 -0.5953 -0.8777  1.7288
 3446SOL    HW221801   2.515   4.537  10.086  1.1130 -1.0346 -1.3641
 3447SOL     OW21802   4.621   1.411   6.828  0.0192  0.4348  0.2197
 3447SOL    HW121803   4.547   1.351   6.830 -1.3454  2.0656 -1.3933
 3447SOL    HW221804   4.624   1.430   6.734  1.5875 -0.0168  0.1693
 3448SOL     OW21805   1.680   4.606  13.422 -0.2013 -0.3395  0.2136
 3448SOL    HW121806   1.740   4.534  13.441 -2.4882 -2.5485 -1.0220
 3448SOL    HW221807   1.609   4.582  13.481 -0.3597 -2.0274 -0.6873
 3449SOL     OW21808   3.306   1.887   4.680  0.2686 -0.3632 -0.2885
 3449SOL    HW121809   3.224   1.936   4.674 -0.3387 -1.5000 -1.4889
 3449SOL    HW221810   3.365   1.961   4.666  0.0671 -0.1061  0.2209
 3450SOL     OW21811   0.675   0.043   6.283 -0.0209  0.0517  0.4492
 3450SOL    HW121812   0.748   4.717   6.322 -0.2931 -0.0572  0.8196
 3450SOL    HW221813   0.681   0.005   6.195 -1.2964 -0.1356  0.4471
 3451SOL     OW21814   4.456   1.506   3.802 -0.4509  0.2789  0.2624
 3451SOL    HW121815   4.508   1.548   3.734 -0.6420 -1.9706 -1.2656
 3451SOL    HW221816   4.382   1.567   3.807  1.4960  2.6290  0.2826
 3452SOL     OW21817   2.228   0.330   1.752 -0.2570 -0.3779  0.4396
 3452SOL    HW121818   2.135   0.353   1.740 -0.1858 -0.3910 -0.1278
 3452SOL    HW221819   2.228   0.241   1.717 -1.1400  0.1787 -0.9585
 3453SOL     OW21820   1.134   1.600   2.650  0.1373  0.2067  0.0357
 3453SOL    HW121821   1.127   1.610   2.745 -0.2154 -1.4404  0.1827
 3453SOL    HW221822   1.187   1.680   2.645  0.6169  0.0072  2.2161
 3454SOL     OW21823   4.207   0.446   8.872  0.3043  0.6858 -0.1752
 3454SOL    HW121824   4.120   0.437   8.911  0.2508  2.1415  0.0498
 3454SOL    HW221825   4.248   0.442   8.958 -2.5256 -0.2227  1.1275
 3455SOL     OW21826   0.551   3.900   3.692  0.1128  0.5950 -0.4094
 3455SOL    HW121827   0.635   3.912   3.737 -0.7902 -1.1130  1.7594
 3455SOL    HW221828   0.565   3.810   3.662 -1.5219  0.2679 -0.2011
 3456SOL     OW21829   2.157   4.343   5.834  0.1046 -0.8864 -0.0789
 3456SOL    HW121830   2.181   4.367   5.923 -0.7254 -0.0061 -0.0964
 3456SOL    HW221831   2.070   4.304   5.841 -0.8388  0.9780 -1.3102
 3457SOL     OW21832   2.706   4.475   3.531  0.3860  0.0199 -0.5441
 3457SOL    HW121833   2.765   4.545   3.558 -4.1904  3.6422  0.0533
 3457SOL    HW221834   2.763   4.445   3.461 -0.0236  0.1165 -0.9184
 3458SOL     OW21835   1.166   0.760   7.372  0.8804  0.6780 -0.2370
 3458SOL    HW121836   1.205   0.767   7.460  0.7436 -0.9356 -0.0552
 3458SOL    HW221837   1.075   0.787   7.388  0.0788 -1.8993 -0.5048
 3459SOL     OW21838   0.603   1.301  13.101  0.1247  0.7700  0.4815
 3459SOL    HW121839   0.540   1.263  13.163 -1.1728 -1.0141 -1.9640
 3459SOL    HW221840   0.561   1.291  13.016 -0.3752  1.4547  0.6434
 3460SOL     OW21841   3.832   2.504   3.215 -0.1475 -0.0058  0.1754
 3460SOL    HW121842   3.841   2.599   3.226  0.0480 -0.0855  0.6875
 3460SOL    HW221843   3.910   2.487   3.163  0.7934  0.2630  1.5070
 3461SOL     OW21844   2.778   1.155   7.383  0.0718 -0.1272  0.2792
 3461SOL    HW121845   2.809   1.202   7.305 -1.9875  1.9713  0.7180
 3461SOL    HW221846   2.718   1.096   7.338 -0.4186 -0.1788  0.9948
 3462SOL     OW21847   4.441   3.908   2.655  0.3006 -0.5906  0.4641
 3462SOL    HW121848   4.522   3.945   2.623 -0.1086  0.2186  0.3666
 3462SOL    HW221849   4.379   3.980   2.643  0.5228 -0.7784 -1.6481
 3463SOL     OW21850   1.398   3.569   0.390 -0.0704 -0.6097  0.2178
 3463SOL    HW121851   1.352   3.521   0.321 -0.4413  1.0572 -0.6800
 3463SOL    HW221852   1.383   3.662   0.374 -2.9255 -0.9550  0.9808
 3464SOL     OW21853   2.584   3.778   0.500 -0.1889  0.0692 -0.0327
 3464SOL    HW121854   2.548   3.719   0.434  1.5476  0.7535 -1.5939
 3464SOL    HW221855   2.654   3.721   0.531  0.4821  0.5390 -0.6733
 3465SOL     OW21856   0.712   1.756   3.522  0.7886  0.4027  0.0303
 3465SOL    HW121857   0.758   1.754   3.438 -0.6427  0.4991 -0.7608
 3465SOL    HW221858   0.698   1.850   3.528  0.0734  0.2553  0.7322
 3466SOL     OW21859   1.133   1.665   9.076  0.1262  0.4761 -0.3196
 3466SOL    HW121860   1.049   1.711   9.075  0.6506  1.4259 -0.6490
 3466SOL    HW221861   1.151   1.658   9.170 -1.3954 -1.4897 -0.1831
 3467SOL     OW21862   3.908   0.016   1.836  0.2511 -0.4935  0.3674
 3467SOL    HW121863   3.858   0.074   1.893 -0.3228 -1.3790  0.7700
 3467SOL    HW221864   3.893   0.049   1.748 -1.9146  1.5369  1.5090
 3468SOL     OW21865   3.688   3.691   3.794  0.4638  0.5856  0.6270
 3468SOL    HW121866   3.764   3.667   3.742  0.3205  0.0059  0.6871
 3468SOL    HW221867   3.723   3.773   3.829 -0.8126  2.0335 -1.4889
 3469SOL     OW21868   1.658   3.705   1.230 -0.5273 -0.6753 -0.4136
 3469SOL    HW121869   1.739   3.701   1.281 -0.1161  0.9810 -0.9361
 3469SOL    HW221870   1.631   3.791   1.264 -2.8701 -1.3447 -0.6307
 3470SOL     OW21871   3.669   0.123  11.185  0.0243  0.2649  0.0249
 3470SOL    HW121872   3.755   0.159  11.209 -0.0393  1.1058 -1.0173
 3470SOL    HW221873   3.608   0.192  11.212 -2.1662 -1.5445 -0.3959
 3471SOL     OW21874   4.379   2.741  16.740  0.3713  0.3954 -0.7626
 3471SOL    HW121875   4.295   2.772  16.705 -0.9312 -2.9367 -0.6189
 3471SOL    HW221876   4.435   2.814  16.714  0.7346 -0.1290 -1.4521
 3472SOL     OW21877   0.342   2.278   9.388 -0.3677  0.0573 -0.2617
 3472SOL    HW121878   0.339   2.184   9.406 -1.9948  0.6386  2.6097
 3472SOL    HW221879   0.426   2.282   9.342 -0.4716  0.2559 -0.4325
 3473SOL     OW21880   1.485   2.541   7.484  0.2482 -0.6828  0.4236
 3473SOL    HW121881   1.491   2.445   7.477  2.5030 -0.4564 -0.7348
 3473SOL    HW221882   1.579   2.551   7.500  0.3241 -1.8098  0.7402
 3474SOL     OW21883   1.726   3.126   2.226 -0.1493 -0.7007 -0.5263
 3474SOL    HW121884   1.798   3.189   2.223  0.1395 -0.9820  0.4911
 3474SOL    HW221885   1.650   3.181   2.204  1.2860  1.9682  1.1382
 3475SOL     OW21886   4.326   2.837   7.009  0.0335  0.1358  0.4289
 3475SOL    HW121887   4.262   2.906   7.023  0.5560  0.5027  1.0103
 3475SOL    HW221888   4.282   2.776   6.950 -2.3474  3.3413 -1.0763
 3476SOL     OW21889   0.156   2.829   3.082 -0.2894  0.3961 -0.0047
 3476SOL    HW121890   0.116   2.748   3.049  5.8459 -2.0937 -1.3001
 3476SOL    HW221891   0.085   2.892   3.073  0.7237  1.2852 -1.9557
 3477SOL     OW21892   1.913   3.972  16.831 -0.7764 -0.1035 -0.1760
 3477SOL    HW121893   1.879   4.017  16.754 -2.0324 -0.5662  0.1111
 3477SOL    HW221894   1.933   3.890  16.786 -1.7243  0.1105 -0.9712
 3478SOL     OW21895   2.703   4.098   8.543  0.2172 -0.7380  0.1807
 3478SOL    HW121896   2.696   4.125   8.635  1.7444  1.2505 -0.2859
 3478SOL    HW221897   2.646   4.158   8.495  1.4116  0.3944  0.1881
 3479SOL     OW21898   2.188   3.477  15.025 -0.1734 -0.0365 -0.0333
 3479SOL    HW121899   2.257   3.525  15.070 -0.2708 -0.8600  1.0080
 3479SOL    HW221900   2.241   3.442  14.954 -0.0518  1.9349 -0.8999
 3480SOL     OW21901   3.139   3.773  14.464  0.4984 -0.3398 -0.3615
 3480SOL    HW121902   3.210   3.837  14.457  0.1961  0.1002  0.7307
 3480SOL    HW221903   3.194   3.705  14.503  0.6654  0.9160  1.5567
 3481SOL     OW21904   1.888   3.309   7.640  0.3684 -0.2683  0.3623
 3481SOL    HW121905   1.793   3.306   7.653  0.1435  1.0800 -0.9762
 3481SOL    HW221906   1.895   3.300   7.545 -2.0625 -2.4381  0.3794
 3482SOL     OW21907   3.455   2.196  10.088  0.0286 -0.2708 -0.0723
 3482SOL    HW121908   3.447   2.219   9.995  0.0865  1.0316  0.2338
 3482SOL    HW221909   3.494   2.277  10.121 -1.0297 -0.2713  1.1565
 3483SOL     OW21910   4.240   3.018   7.722  0.3905  0.2060  0.0492
 3483SOL    HW121911   4.246   3.003   7.817 -1.8938 -2.2405 -0.1904
 3483SOL    HW221912   4.276   3.106   7.731  0.3782 -0.0846  3.2365
 3484SOL     OW21913   3.578   0.276  16.434  0.0036 -0.3832  0.2106
 3484SOL    HW121914   3.508   0.217  16.462 -0.8553  1.4086  1.8548
 3484SOL    HW221915   3.638   0.278  16.509 -0.1977 -1.4083  0.4009
 3485SOL     OW21916   0.328   0.206  14.387  0.1532 -0.4508 -0.6028
 3485SOL    HW121917   0.322   0.227  14.481  1.5902 -0.7960 -0.4433
 3485SOL    HW221918   0.236   0.183  14.374  0.0805 -0.5781  0.1278
 3486SOL     OW21919   4.656   0.519  13.649  1.0040 -0.0328  0.6603
 3486SOL    HW121920   4.580   0.516  13.707  1.3477 -3.8180  0.9578
 3486SOL    HW221921   4.623   0.561  13.569  0.6943  1.5959  1.6450
 3487SOL     OW21922   4.196   0.253   1.901  0.1490  0.2862  0.4719
 3487SOL    HW121923   4.226   0.171   1.863  0.4458  0.9373 -0.7143
 3487SOL    HW221924   4.229   0.309   1.831 -1.1309 -1.0243 -1.1868
 3488SOL     OW21925   2.037   0.373   7.154  0.0375  0.0364 -0.3907
 3488SOL    HW121926   2.066   0.459   7.184  0.0889 -0.5275  1.1662
 3488SOL    HW221927   1.946   0.366   7.184  0.2789  0.2606  0.3858
 3489SOL     OW21928   1.745   0.194   7.816 -0.3286 -0.3660  0.2644
 3489SOL    HW121929   1.834   0.158   7.821  0.1578  0.8124  0.1046
 3489SOL    HW221930   1.693   0.122   7.852 -0.3750 -0.9857 -1.0153
 3490SOL     OW21931   4.248   1.005   5.032 -0.1234  0.2783 -0.6364
 3490SOL    HW121932   4.297   0.949   4.972  1.3504  1.3968 -0.4951
 3490SOL    HW221933   4.284   0.976   5.116  0.5010  0.9057 -0.6807
 3491SOL     OW21934   3.747   0.932  11.023 -0.2890  0.2736 -0.0051
 3491SOL    HW121935   3.688   0.878  10.970  1.8788  0.0416 -2.2013
 3491SOL    HW221936   3.686   0.997  11.057 -0.2547 -0.7022  1.9013
 3492SOL     OW21937   2.119   1.688  14.535 -0.1399  0.1664 -0.6597
 3492SOL    HW121938   2.096   1.623  14.602  2.4984  1.6575  1.6777
 3492SOL    HW221939   2.141   1.633  14.460  3.5409  0.2817  0.3376
 3493SOL     OW21940   2.755   1.509   1.349 -0.4113  0.3937 -0.6793
 3493SOL    HW121941   2.664   1.493   1.323 -0.9391 -0.0730  1.4576
 3493SOL    HW221942   2.755   1.604   1.340  1.0668  0.5689  1.3916
 3494SOL     OW21943   3.365   0.615   3.780 -0.0467  0.1337  0.2539
 3494SOL    HW121944   3.342   0.526   3.755  0.3976  1.1782 -3.8470
 3494SOL    HW221945   3.303   0.668   3.730  0.6916  0.0009 -0.7930
 3495SOL     OW21946   1.049   4.269   2.375  0.1079  0.4132  0.1348
 3495SOL    HW121947   1.059   4.279   2.470  1.9756  0.7105 -0.0809
 3495SOL    HW221948   0.954   4.256   2.375  0.6246 -3.2386 -1.2301
 3496SOL     OW21949   4.549   3.921   4.759 -0.1393 -0.5866  0.0833
 3496SOL    HW121950   4.600   3.867   4.698 -0.5206 -1.2119  0.3279
 3496SOL    HW221951   4.514   3.852   4.814  0.6721 -1.1073 -0.0573
 3497SOL     OW21952   0.924   2.531  16.086 -0.1016  0.2385  0.0217
 3497SOL    HW121953   0.828   2.534  16.089 -0.1187 -2.2324  1.9337
 3497SOL    HW221954   0.942   2.472  16.013  0.0403  0.2273  0.0668
 3498SOL     OW21955   3.320   2.470   5.767  0.7624 -0.2488 -0.5188
 3498SOL    HW121956   3.389   2.509   5.714 -0.3489 -1.5349 -2.9162
 3498SOL    HW221957   3.349   2.379   5.777 -0.8203 -0.5599  1.3631
 3499SOL     OW21958   3.677   1.895  11.260  0.5617  0.2371  0.1439
 3499SOL    HW121959   3.665   1.850  11.176 -1.3108 -0.4860  0.7860
 3499SOL    HW221960   3.593   1.872  11.301  0.8334  0.3117  0.7467
 3500SOL     OW21961   2.318   3.898   2.509  0.6725 -0.2533  0.2211
 3500SOL    HW121962   2.307   3.971   2.448 -2.5916 -0.3924  0.6180
 3500SOL    HW221963   2.407   3.864   2.498  0.5705 -0.7566  0.9493
 3501SOL     OW21964   0.598   2.621  14.753 -0.4845  0.3116 -1.2795
 3501SOL    HW121965   0.613   2.532  14.722  0.8630 -0.0055  0.2976
 3501SOL    HW221966   0.635   2.681  14.689  1.3856 -1.0047 -1.4301
 3502SOL     OW21967   3.991   3.730   6.660  0.1561 -0.8290  0.3618
 3502SOL    HW121968   3.955   3.734   6.749 -1.9425  1.2663 -0.5828
 3502SOL    HW221969   4.074   3.771   6.684  1.0738 -2.0902 -0.6476
 3503SOL     OW21970   3.736   0.647   9.234  0.7062 -0.7185  0.2915
 3503SOL    HW121971   3.733   0.720   9.297 -3.2566  1.5933 -2.6074
 3503SOL    HW221972   3.822   0.609   9.255 -0.2219 -1.2479  3.1001
 3504SOL     OW21973   0.626   3.146   2.564  0.0949 -0.5116 -0.3468
 3504SOL    HW121974   0.648   3.054   2.550 -1.3530 -0.8064 -0.7324
 3504SOL    HW221975   0.645   3.186   2.479 -1.2746 -1.0611 -0.9198
 3505SOL     OW21976   4.518   2.709   7.860 -0.0307  0.1437  0.3097
 3505SOL    HW121977   4.513   2.803   7.880  0.0565  0.0381  0.8334
 3505SOL    HW221978   4.453   2.692   7.793  0.8395  0.2634 -0.5634
 3506SOL     OW21979   3.966   1.469  11.873 -0.2065  0.5493 -0.1557
 3506SOL    HW121980   3.986   1.453  11.966  0.6210 -1.0561 -0.6049
 3506SOL    HW221981   3.879   1.429  11.868 -0.2803  0.8404 -1.1413
 3507SOL     OW21982   2.991   0.531   5.727 -0.1096 -0.0637  0.3554
 3507SOL    HW121983   2.978   0.588   5.651 -0.6785 -0.1670  0.3816
 3507SOL    HW221984   3.077   0.493   5.709  0.0361  0.4101  0.0614
 3508SOL     OW21985   0.515   1.134  13.388 -0.0654  0.3855  0.1081
 3508SOL    HW121986   0.467   1.205  13.344 -0.7326 -0.7532 -1.0109
 3508SOL    HW221987   0.517   1.062  13.325  0.9939  1.7915 -1.4642
 3509SOL     OW21988   1.408   4.218   7.895 -0.1025  0.0439  0.6503
 3509SOL    HW121989   1.346   4.232   7.966  1.6840  1.0702  2.0154
 3509SOL    HW221990   1.447   4.138   7.930  2.2294  0.2229 -1.5203
 3510SOL     OW21991   1.931   3.511   4.826  0.5283 -0.3738 -0.5344
 3510SOL    HW121992   1.893   3.459   4.898 -0.2219  0.8777 -0.0242
 3510SOL    HW221993   1.988   3.573   4.871  1.7384 -1.2086 -0.9174
 3511SOL     OW21994   0.680   2.084   9.976 -0.3232 -0.4265  0.1025
 3511SOL    HW121995   0.684   2.176  10.001  2.1384 -0.4021 -0.3865
 3511SOL    HW221996   0.637   2.042  10.051  0.1688 -0.5788  0.3046
 3512SOL     OW21997   3.309   1.335   4.063  0.3926  0.1466 -0.0521
 3512SOL    HW121998   3.225   1.353   4.105 -0.4476 -0.7157 -1.3974
 3512SOL    HW221999   3.366   1.314   4.137  0.0979  0.6751  0.3272
 3513SOL     OW22000   1.020   1.823   9.787  0.2631 -0.0720 -0.2427
 3513SOL    HW122001   0.952   1.830   9.854  1.6219 -2.2292  1.3371
 3513SOL    HW222002   1.075   1.898   9.811 -0.3285  0.2546  0.1006
 3514SOL     OW22003   0.637   1.223   6.336 -0.1844  0.1181  0.4252
 3514SOL    HW122004   0.559   1.190   6.383 -1.9250  2.7288 -0.6641
 3514SOL    HW222005   0.662   1.287   6.402  0.7815  0.1747 -0.0009
 3515SOL     OW22006   2.909   2.330  13.571 -0.2660 -0.5114  0.4718
 3515SOL    HW122007   2.989   2.380  13.589  0.2452 -0.9753 -0.4801
 3515SOL    HW222008   2.923   2.245  13.612  0.5054 -1.0425 -0.8701
 3516SOL     OW22009   1.747   2.884   3.181  0.1138 -0.1276  0.2346
 3516SOL    HW122010   1.842   2.888   3.195 -0.1065  1.1209  1.4261
 3516SOL    HW222011   1.717   2.925   3.263  1.0056  1.8347 -0.4040
 3517SOL     OW22012   4.429   1.923   9.831 -0.3408  0.1724 -0.0378
 3517SOL    HW122013   4.483   1.866   9.776  1.2177 -1.1862  2.9290
 3517SOL    HW222014   4.349   1.913   9.779 -0.4219  4.2422 -0.6686
 3518SOL     OW22015   2.725   0.866   6.378  0.0106 -0.7353 -0.0626
 3518SOL    HW122016   2.688   0.850   6.291 -1.4723  0.8329  0.2928
 3518SOL    HW222017   2.809   0.906   6.356  1.0839 -1.8805  1.9886
 3519SOL     OW22018   3.826   3.785   8.673  0.1593  0.3261 -0.3375
 3519SOL    HW122019   3.894   3.805   8.737 -1.5007  1.4509  1.0738
 3519SOL    HW222020   3.759   3.832   8.722 -0.5857  0.9758 -1.9495
 3520SOL     OW22021   0.904   2.588   2.766  0.2746 -0.2284 -0.2702
 3520SOL    HW122022   0.880   2.547   2.849 -0.6587 -0.2443 -0.5388
 3520SOL    HW222023   0.860   2.535   2.699 -0.8013  1.6336 -1.0279
 3521SOL     OW22024   1.070   0.976   3.335 -1.0153  0.5477  0.3989
 3521SOL    HW122025   1.069   0.908   3.403 -0.7448 -0.3078 -0.4403
 3521SOL    HW222026   1.069   0.920   3.257 -2.5560 -0.3274  1.0440
 3522SOL     OW22027   4.599   3.396   4.289  0.0951  0.3192 -0.1701
 3522SOL    HW122028   4.595   3.462   4.219  0.3676 -0.4581 -0.9116
 3522SOL    HW222029   4.543   3.443   4.351  0.0271 -1.8212  1.3954
 3523SOL     OW22030   1.327   2.856   4.532  0.9147 -0.1327  0.3642
 3523SOL    HW122031   1.353   2.799   4.460  1.6991 -0.8328  1.2087
 3523SOL    HW222032   1.392   2.925   4.518  0.0316 -0.1586 -3.9571
 3524SOL     OW22033   0.297   3.655  11.803  0.3494 -0.0082 -0.0244
 3524SOL    HW122034   0.314   3.642  11.709  0.1614 -2.4718  0.2778
 3524SOL    HW222035   0.202   3.651  11.815  0.1942 -2.6322 -1.9600
 3525SOL     OW22036   0.690   3.347  13.734  0.7411 -0.4550  0.6388
 3525SOL    HW122037   0.604   3.327  13.771  1.1390 -0.3906  1.6122
 3525SOL    HW222038   0.706   3.269  13.680 -0.8689  1.1961 -2.1594
 3526SOL     OW22039   3.359   1.222   4.986 -0.0343  0.5900 -0.0180
 3526SOL    HW122040   3.388   1.211   4.895 -0.1112 -1.8338  0.2328
 3526SOL    HW222041   3.357   1.316   4.999  0.6799  0.1093  3.6447
 3527SOL     OW22042   1.903   3.494  13.898 -0.1625 -0.2495 -0.5198
 3527SOL    HW122043   1.891   3.521  13.990 -0.5501 -0.9258 -0.3782
 3527SOL    HW222044   1.991   3.522  13.871 -0.4323 -0.3916 -1.5509
 3528SOL     OW22045   4.596   4.223  12.672 -0.0912  0.5137 -0.5752
 3528SOL    HW122046   4.591   4.177  12.588  2.6987 -0.7404 -0.0358
 3528SOL    HW222047   4.674   4.277  12.661 -0.0657  0.4807 -0.5521
 3529SOL     OW22048   1.187   1.565  10.192 -0.1509 -0.3014 -0.3826
 3529SOL    HW122049   1.208   1.625  10.121 -1.9679  0.6259 -0.1379
 3529SOL    HW222050   1.273   1.556  10.234  0.1070 -0.7575 -1.0093
 3530SOL     OW22051   1.794   4.056   1.330  0.0132 -0.4247  0.0958
 3530SOL    HW122052   1.845   4.137   1.328 -0.7014  0.0044 -0.8355
 3530SOL    HW222053   1.825   4.012   1.251 -0.1490 -2.7829  1.3576
 3531SOL     OW22054   1.165   2.482   8.663  0.0418 -0.2063 -0.4624
 3531SOL    HW122055   1.208   2.546   8.720  1.2434  0.5280 -2.1950
 3531SOL    HW222056   1.145   2.407   8.719  0.4885 -1.3981 -1.8856
 3532SOL     OW22057   0.042   0.970  12.067  0.2957 -0.2008  0.9021
 3532SOL    HW122058   0.041   0.875  12.079 -0.7804 -0.2916  0.0670
 3532SOL    HW222059   0.135   0.982  12.082  0.5003 -0.8298  0.1666
 3533SOL     OW22060   0.050   1.887  10.803  0.4124  0.5236 -0.5164
 3533SOL    HW122061   0.052   1.978  10.772 -2.4876  0.8797  0.4000
 3533SOL    HW222062   0.115   1.886  10.873  0.2503 -1.7750 -0.3987
 3534SOL     OW22063   2.022   0.216   0.679  0.1036  0.0061  0.2277
 3534SOL    HW122064   2.012   0.263   0.596  0.9557 -1.5345 -0.7427
 3534SOL    HW222065   2.112   0.240   0.700 -0.1731 -0.5543  1.9981
 3535SOL     OW22066   4.319   3.372  15.393 -0.6701  1.4513 -0.4209
 3535SOL    HW122067   4.347   3.354  15.483 -0.4600  0.3988 -0.6930
 3535SOL    HW222068   4.294   3.287  15.356 -0.0989  1.5170 -0.9530
 3536SOL     OW22069   0.783   4.006  12.848 -0.1580  0.2270 -0.4067
 3536SOL    HW122070   0.848   4.075  12.861 -0.8886  1.0532 -1.1137
 3536SOL    HW222071   0.696   4.037  12.874 -0.2672  2.0583 -2.9708
 3537SOL     OW22072   3.630   0.123   8.422  0.3895  0.2030 -0.2226
 3537SOL    HW122073   3.714   0.079   8.413  0.5178  0.2015  1.0503
 3537SOL    HW222074   3.592   0.057   8.364 -2.6336  0.6332  1.2619
 3538SOL     OW22075   3.513   0.789   4.783  0.5861  0.0198  0.1947
 3538SOL    HW122076   3.594   0.789   4.835  1.1546  0.1756 -0.6856
 3538SOL    HW222077   3.498   0.882   4.768 -0.9154 -0.3293 -0.4176
 3539SOL     OW22078   3.004   1.337  14.132  0.0635 -0.1101  0.4812
 3539SOL    HW122079   3.087   1.290  14.121 -0.3962 -0.2431 -2.4125
 3539SOL    HW222080   2.956   1.268  14.178 -0.0239  1.3362  2.5777
 3540SOL     OW22081   2.056   1.026   9.457 -0.4479  0.2158  0.1760
 3540SOL    HW122082   2.092   0.951   9.503  0.8436 -0.3723 -1.8235
 3540SOL    HW222083   2.023   0.973   9.384 -1.0864  2.0237 -0.8510
 3541SOL     OW22084   0.054   2.045   9.398 -0.5591 -0.2359 -0.2762
 3541SOL    HW122085   0.099   2.002   9.325  1.7164  0.9138  0.4354
 3541SOL    HW222086   4.693   2.062   9.358  0.0930  1.7304 -0.8253
 3542SOL     OW22087   4.333   1.266   7.550 -0.2296 -0.8951 -0.3501
 3542SOL    HW122088   4.416   1.218   7.547  0.0234 -0.3690 -1.7430
 3542SOL    HW222089   4.341   1.345   7.496  0.9441 -0.6251  0.2192
 3543SOL     OW22090   0.957   2.941   4.880  0.0264  0.1914 -0.0288
 3543SOL    HW122091   0.862   2.942   4.890  0.0368 -1.8508  0.3448
 3543SOL    HW222092   0.966   2.858   4.926  0.0174  0.7233  0.9283
 3544SOL     OW22093   2.744   4.334   2.134 -0.1613  0.4514  0.0638
 3544SOL    HW122094   2.684   4.378   2.194 -0.3228 -0.0543  0.2738
 3544SOL    HW222095   2.744   4.399   2.063 -0.3600  2.7760  2.2146
 3545SOL     OW22096   0.737   4.211   5.380  0.5914 -0.8075 -0.4437
 3545SOL    HW122097   0.753   4.118   5.398  0.2661 -0.6470  0.6387
 3545SOL    HW222098   0.662   4.205   5.321  0.0017 -0.5803  0.2843
 3546SOL     OW22099   2.727   1.235   9.897 -0.5794 -0.6368  0.1348
 3546SOL    HW122100   2.800   1.175   9.881  1.3987  1.5039  1.0547
 3546SOL    HW222101   2.656   1.173   9.914 -0.8628 -0.6858 -1.2387
 3547SOL     OW22102   1.723   2.345   0.941 -0.5374  0.2273  0.4071
 3547SOL    HW122103   1.743   2.303   0.857 -0.2782 -1.1104  1.1426
 3547SOL    HW222104   1.749   2.281   1.007 -0.9836 -0.6928 -0.3139
 3548SOL     OW22105   3.966   1.109  11.935  0.2680 -0.2980 -0.1829
 3548SOL    HW122106   3.888   1.119  11.990 -0.5062 -1.1492 -1.1307
 3548SOL    HW222107   4.025   1.169  11.981 -0.3401 -0.2487  0.5561
 3549SOL     OW22108   4.668   4.506  10.245 -0.9886 -0.5710  0.6692
 3549SOL    HW122109   4.623   4.536  10.167 -1.6177  0.6442  1.5000
 3549SOL    HW222110   4.595   4.450  10.272 -1.6199 -0.2176 -0.3008
 3550SOL     OW22111   2.506   1.351   2.071  0.2845 -0.3540 -0.4159
 3550SOL    HW122112   2.595   1.347   2.104  1.5425 -0.9877 -3.8776
 3550SOL    HW222113   2.510   1.443   2.045 -0.0117  0.2753  1.7848
 3551SOL     OW22114   1.377   1.135   4.154 -0.5369 -0.6880 -0.0972
 3551SOL    HW122115   1.454   1.105   4.105 -0.8263 -1.8675  0.1648
 3551SOL    HW222116   1.323   1.106   4.081 -0.8667  0.0726 -0.1549
 3552SOL     OW22117   0.625   3.380   4.723  0.0487  0.7934 -0.0676
 3552SOL    HW122118   0.662   3.455   4.770 -1.4215  0.5164  1.5458
 3552SOL    HW222119   0.704   3.339   4.687 -0.5911 -1.9446  1.6262
 3553SOL     OW22120   1.661   3.638   7.464  0.4580  0.0362 -0.0045
 3553SOL    HW122121   1.728   3.667   7.403  0.9956 -2.3073 -0.5312
 3553SOL    HW222122   1.634   3.714   7.515 -1.2298  0.2580 -1.2221
 3554SOL     OW22123   4.573   2.637   0.213  0.1346  0.3996 -0.2580
 3554SOL    HW122124   4.596   2.711   0.269  1.1412 -0.0324 -0.1156
 3554SOL    HW222125   4.585   2.678   0.127 -1.1587 -1.0890 -1.1409
 3555SOL     OW22126   3.539   3.105   5.966  0.0774  0.3313  0.3621
 3555SOL    HW122127   3.544   3.052   6.046  2.1382 -2.6800 -1.7528
 3555SOL    HW222128   3.445   3.112   5.949  0.2347 -0.5506 -0.7998
 3556SOL     OW22129   1.813   1.805  10.354  0.1002  0.3606  0.1670
 3556SOL    HW122130   1.748   1.873  10.373  0.5293  0.8416 -0.1168
 3556SOL    HW222131   1.759   1.753  10.294 -0.1140 -0.1292  0.7772
 3557SOL     OW22132   0.469   4.530   9.273 -0.2866 -0.2879 -0.4450
 3557SOL    HW122133   0.441   4.619   9.253 -0.9112 -0.5082 -0.5602
 3557SOL    HW222134   0.533   4.527   9.202  0.6746 -0.8094  0.4517
 3558SOL     OW22135   3.132   4.439   9.629 -0.0385 -0.0907 -0.1979
 3558SOL    HW122136   3.054   4.495   9.625  0.0902 -0.0187 -1.7906
 3558SOL    HW222137   3.139   4.423   9.723 -0.2639  0.6267 -0.0581
 3559SOL     OW22138   1.375   0.104  15.227 -0.1517 -0.1019 -0.0778
 3559SOL    HW122139   1.388   0.018  15.267  1.0751 -0.4144 -1.1088
 3559SOL    HW222140   1.299   0.129  15.279 -0.9070 -1.8806 -0.3147
 3560SOL     OW22141   3.006   0.832   8.587 -0.3575 -0.2634 -0.5140
 3560SOL    HW122142   3.066   0.803   8.656  0.8630  1.5428 -0.8063
 3560SOL    HW222143   2.980   0.916   8.626  0.1126 -0.0298 -0.7107
 3561SOL     OW22144   1.983   3.198   0.981  0.3518 -0.0615 -0.0389
 3561SOL    HW122145   1.972   3.146   1.061  0.6624  1.4671  1.0007
 3561SOL    HW222146   2.049   3.263   1.006 -0.0588 -0.0324  0.9663
 3562SOL     OW22147   1.788   1.125   5.057  0.0368  0.4272 -0.3519
 3562SOL    HW122148   1.882   1.106   5.050 -0.0811  1.2976 -4.1751
 3562SOL    HW222149   1.782   1.205   5.005 -0.6249  1.9329  2.0682
 3563SOL     OW22150   0.351   3.403   1.148 -0.2639 -0.8428 -0.2054
 3563SOL    HW122151   0.430   3.454   1.165 -1.7152  1.2922  0.1555
 3563SOL    HW222152   0.277   3.460   1.168 -0.4818 -1.4442  0.7141
 3564SOL     OW22153   0.860   3.755  13.522  0.0126  0.4309 -0.8173
 3564SOL    HW122154   0.830   3.783  13.435  0.5506  1.1662 -0.7637
 3564SOL    HW222155   0.793   3.692  13.548  0.4058 -0.3038 -1.5742
 3565SOL     OW22156   2.803   3.271   3.979  0.0905  0.3827  0.2892
 3565SOL    HW122157   2.887   3.313   3.993  0.3958 -0.9291  2.4478
 3565SOL    HW222158   2.809   3.195   4.038  0.0480  0.5796  0.5498
 3566SOL     OW22159   0.733   0.739   4.216 -0.1217  0.0333 -0.2948
 3566SOL    HW122160   0.748   0.678   4.144  2.0860 -0.6763  0.7708
 3566SOL    HW222161   0.784   0.697   4.286 -1.3762 -0.9094  0.0484
 3567SOL     OW22162   3.864   0.038  13.911  0.1956 -0.0536 -0.3147
 3567SOL    HW122163   3.851   4.675  13.873 -0.9932 -0.6182  1.3894
 3567SOL    HW222164   3.926   0.019  13.981 -1.1433  3.0956  1.7311
 3568SOL     OW22165   1.039   0.030   5.604 -0.5279 -0.0539  0.3141
 3568SOL    HW122166   1.084   0.005   5.685  0.5751  0.8567 -0.0125
 3568SOL    HW222167   0.990   4.673   5.592  0.0866 -0.7366  2.4082
 3569SOL     OW22168   0.286   3.190   3.040  0.2128  0.1507  0.0533
 3569SOL    HW122169   0.215   3.233   2.991 -1.3263 -1.0165  1.2656
 3569SOL    HW222170   0.348   3.260   3.018  1.6169 -0.6029  1.6161
 3570SOL     OW22171   2.231   3.542  16.099 -0.2683  0.4075 -0.1706
 3570SOL    HW122172   2.284   3.478  16.146 -1.3914 -1.9646 -2.1407
 3570SOL    HW222173   2.149   3.493  16.093 -1.6868  2.7570 -0.1444
 3571SOL     OW22174   0.667   3.452   1.941  0.3605  0.2818  0.1223
 3571SOL    HW122175   0.596   3.449   2.005 -1.5706 -1.7605 -2.1026
 3571SOL    HW222176   0.657   3.370   1.893  0.7459  0.3798 -0.1289
 3572SOL     OW22177   1.156   0.126  11.053 -0.0346 -0.7183 -0.0549
 3572SOL    HW122178   1.130   0.038  11.081  0.1380 -0.1768  1.8499
 3572SOL    HW222179   1.072   0.152  11.016 -1.0913 -1.4668  1.7988
 3573SOL     OW22180   4.682   3.486   0.930 -1.0339  0.3055 -0.4380
 3573SOL    HW122181   4.608   3.506   0.988 -1.2978  2.6487 -1.5952
 3573SOL    HW222182   4.708   3.397   0.954 -0.4528  1.0852  1.8525
 3574SOL     OW22183   4.598   4.570   5.695 -0.4639 -0.0275 -0.2464
 3574SOL    HW122184   4.568   4.660   5.712  2.6089  1.3601 -2.3422
 3574SOL    HW222185   4.592   4.541   5.786  1.6784  0.4184  0.0432
 3575SOL     OW22186   2.209   1.938  13.202  0.0999  0.1264  0.4574
 3575SOL    HW122187   2.158   1.991  13.264 -0.8660  0.3420 -0.5084
 3575SOL    HW222188   2.192   1.980  13.117 -2.3833  0.5034  1.1298
 3576SOL     OW22189   3.831   0.337  15.526  0.1372  0.1992  0.2850
 3576SOL    HW122190   3.800   0.382  15.448  0.0979 -0.3979 -0.0381
 3576SOL    HW222191   3.751   0.308  15.569 -0.2102 -0.1031 -0.5809
 3577SOL     OW22192   3.470   2.013  16.895  0.4520 -0.0426  0.6687
 3577SOL    HW122193   3.410   2.080  16.863 -1.2531 -1.2398  1.3672
 3577SOL    HW222194   3.431   1.992  16.979 -1.1930  0.5551  0.0451
 3578SOL     OW22195   1.658   1.334   8.113 -0.6292  0.4680  0.5312
 3578SOL    HW122196   1.600   1.389   8.060 -0.0743 -0.0035 -0.5614
 3578SOL    HW222197   1.659   1.383   8.196 -1.1457 -0.9569  1.3700
 3579SOL     OW22198   0.759   0.755   6.661 -0.8391 -0.5221 -0.1064
 3579SOL    HW122199   0.804   0.840   6.662  0.3950 -1.1963  2.9926
 3579SOL    HW222200   0.707   0.763   6.581  0.4589 -0.8858 -0.9970
 3580SOL     OW22201   2.581   4.321   1.356 -0.0927  0.2785  0.3786
 3580SOL    HW122202   2.644   4.355   1.418  1.0059 -0.5752 -0.2707
 3580SOL    HW222203   2.559   4.235   1.391  0.3687  0.1081  0.2495
 3581SOL     OW22204   2.689   4.615   6.143 -0.6257 -0.2884  0.2862
 3581SOL    HW122205   2.705   4.698   6.188 -1.3508 -0.2697  0.5056
 3581SOL    HW222206   2.783   4.598   6.133 -0.9660 -1.1626 -1.4809
 3582SOL     OW22207   2.216   4.327  11.919 -0.1155 -0.1628 -0.0463
 3582SOL    HW122208   2.137   4.360  11.962  0.8411  0.8272  0.9595
 3582SOL    HW222209   2.232   4.402  11.861 -1.9584  1.0340  0.9778
 3583SOL     OW22210   0.851   4.514   5.201  0.5721 -0.1426 -0.1935
 3583SOL    HW122211   0.869   4.443   5.140  2.6169  0.3164 -0.1210
 3583SOL    HW222212   0.894   4.588   5.158  0.1803  0.1496 -0.0850
 3584SOL     OW22213   2.549   1.610   3.893  0.5661 -0.1106  0.1407
 3584SOL    HW122214   2.505   1.680   3.845  0.8927 -0.5612 -0.8335
 3584SOL    HW222215   2.608   1.658   3.950  1.1911 -1.0178  0.2669
 3585SOL     OW22216   3.844   2.298  15.895  0.0884  0.1416 -0.2953
 3585SOL    HW122217   3.911   2.254  15.844 -0.7644  1.2672 -2.4086
 3585SOL    HW222218   3.808   2.227  15.949  2.1614 -0.2826  0.5296
 3586SOL     OW22219   2.224   1.138   8.959 -0.0681 -0.1590 -0.2081
 3586SOL    HW122220   2.192   1.211   9.012  1.3810 -1.8481  2.9748
 3586SOL    HW222221   2.316   1.127   8.982 -0.0319  1.1523  0.2628
 3587SOL     OW22222   3.971   3.490   7.712 -0.1773  0.1341  0.0882
 3587SOL    HW122223   3.987   3.400   7.685 -3.0432 -0.5567  0.7065
 3587SOL    HW222224   3.957   3.470   7.805 -0.1668 -0.5026 -0.0462
 3588SOL     OW22225   2.334   3.898  16.546 -0.2281  0.5072  0.2140
 3588SOL    HW122226   2.423   3.865  16.533 -0.4685 -1.0000  2.4166
 3588SOL    HW222227   2.293   3.890  16.460  0.3261  0.0668 -0.0139
 3589SOL     OW22228   1.593   3.650   2.377 -0.0121 -0.1224 -0.9802
 3589SOL    HW122229   1.645   3.576   2.408  0.1823  0.4812  0.1374
 3589SOL    HW222230   1.533   3.595   2.326 -0.7647 -0.0030 -0.2300
 3590SOL     OW22231   2.544   0.902  11.731  0.7648  0.2949 -0.5603
 3590SOL    HW122232   2.585   0.823  11.765 -0.2302  0.5861  1.3364
 3590SOL    HW222233   2.451   0.892  11.753  0.9085 -0.4523 -0.2748
 3591SOL     OW22234   1.350   0.278   4.464  0.2600  0.2770 -0.0090
 3591SOL    HW122235   1.377   0.340   4.397 -0.3054 -3.1136 -3.3967
 3591SOL    HW222236   1.367   0.197   4.416  1.8040  0.0535  0.9210
 3592SOL     OW22237   0.054   1.354   1.264 -0.1135 -0.1804  0.6612
 3592SOL    HW122238   0.109   1.385   1.336  3.2516  0.2681 -2.1046
 3592SOL    HW222239   0.029   1.264   1.284  1.3289 -1.5858 -3.8374
 3593SOL     OW22240   2.157   0.180   6.460 -0.0696  0.5042  0.3029
 3593SOL    HW122241   2.184   0.094   6.493 -2.8017 -0.5156 -0.1287
 3593SOL    HW222242   2.087   0.205   6.521 -0.2124 -0.2236  0.4382
 3594SOL     OW22243   1.710   3.739   4.262 -0.2344  0.0068 -0.2732
 3594SOL    HW122244   1.718   3.831   4.236 -0.0097  0.0465 -0.0663
 3594SOL    HW222245   1.674   3.700   4.183 -1.6735 -0.3907  0.5806
 3595SOL     OW22246   4.657   2.077   5.035 -0.6168 -0.0199 -0.0739
 3595SOL    HW122247   4.708   2.005   5.072 -0.2814  0.5122  0.5072
 3595SOL    HW222248   4.578   2.060   5.085 -1.2969  1.8826 -0.4958
 3596SOL     OW22249   2.527   4.272   6.341  0.5463 -0.4132 -0.5150
 3596SOL    HW122250   2.515   4.268   6.436 -1.0725  0.1922 -0.6783
 3596SOL    HW222251   2.617   4.304   6.340  0.6801 -0.6365  2.9880
 3597SOL     OW22252   3.305   2.218  16.839 -0.7527 -0.6064 -0.0286
 3597SOL    HW122253   3.214   2.244  16.828 -0.5310 -0.3510 -1.3368
 3597SOL    HW222254   3.360   2.281  16.792 -0.6079  0.1210  1.1336
 3598SOL     OW22255   3.331   2.895   7.649 -0.1305  0.3484 -0.2840
 3598SOL    HW122256   3.326   2.808   7.609 -1.7328  0.8263 -1.1182
 3598SOL    HW222257   3.235   2.893   7.658  0.0928  0.2942  2.1458
 3599SOL     OW22258   3.180   1.178   1.497 -0.4710 -0.2231 -0.7547
 3599SOL    HW122259   3.197   1.272   1.501 -0.7938 -0.2035  0.1947
 3599SOL    HW222260   3.249   1.157   1.561 -1.0891  1.0310  0.3268
 3600SOL     OW22261   2.105   4.371   1.811  0.3773 -0.0149  0.6627
 3600SOL    HW122262   2.185   4.410   1.775  0.0417  0.0122 -0.0656
 3600SOL    HW222263   2.052   4.359   1.732 -2.9096  0.4532  2.8268
 3601SOL     OW22264   0.544   1.540  14.004 -0.4445 -0.1188 -0.4080
 3601SOL    HW122265   0.620   1.482  14.011 -0.1008  0.6298  2.1754
 3601SOL    HW222266   0.469   1.483  14.021  1.2208 -2.2414 -0.1636
 3602SOL     OW22267   2.064   3.559   6.183  0.3569 -0.1351  0.3635
 3602SOL    HW122268   2.090   3.570   6.091 -1.1258 -0.2756 -0.0751
 3602SOL    HW222269   2.056   3.648   6.215  0.1765 -0.6180  1.6632
 3603SOL     OW22270   3.690   1.217   2.294  0.2359 -0.1356 -0.1721
 3603SOL    HW122271   3.754   1.279   2.261  0.6108 -1.3628 -1.7322
 3603SOL    HW222272   3.656   1.270   2.366  0.2011 -0.9117  0.3837
 3604SOL     OW22273   2.751   0.289   0.811 -0.3944  0.3305  0.1792
 3604SOL    HW122274   2.831   0.340   0.813  0.0184 -0.3147  0.1126
 3604SOL    HW222275   2.742   0.269   0.717 -1.8965  0.9693  0.1807
 3605SOL     OW22276   2.442   0.125   5.400  0.8804  0.2659  0.1501
 3605SOL    HW122277   2.443   0.057   5.333 -1.1132  1.0522 -0.7035
 3605SOL    HW222278   2.445   0.196   5.335 -0.8936 -0.0930 -0.3318
 3606SOL     OW22279   0.295   3.919   3.685 -0.2952  0.7429 -0.3091
 3606SOL    HW122280   0.290   3.950   3.595 -0.0104 -0.3760 -0.7026
 3606SOL    HW222281   0.390   3.916   3.697 -0.5841 -2.7374  0.9717
 3607SOL     OW22282   4.475   4.467   6.314  0.4305  0.2186  0.1869
 3607SOL    HW122283   4.528   4.519   6.375  0.6337 -0.7093  0.7912
 3607SOL    HW222284   4.387   4.504   6.319 -0.3472 -1.2959 -2.3184
 3608SOL     OW22285   4.118   3.004   8.440 -0.0313  0.1818 -0.5203
 3608SOL    HW122286   4.151   2.916   8.425  1.1791  0.0412  2.8887
 3608SOL    HW222287   4.129   3.040   8.352  2.5631  1.2140  0.2281
 3609SOL     OW22288   0.625   1.919  17.438 -0.3341  0.1036 -0.0292
 3609SOL    HW122289   0.690   1.854  17.410 -0.1141 -1.2365  3.5549
 3609SOL    HW222290   0.629   1.981  17.366  1.4225 -0.0331 -0.0377
 3610SOL     OW22291   2.974   0.905  14.162 -0.0640 -0.2089 -0.5354
 3610SOL    HW122292   3.007   0.840  14.224 -1.6530  0.5413  1.0919
 3610SOL    HW222293   2.948   0.972  14.226  0.5735 -0.6360  0.1673
 3611SOL     OW22294   0.025   2.789  10.468  0.0740  0.1135  0.3417
 3611SOL    HW122295   0.097   2.842  10.501  0.0473  1.9995 -2.7100
 3611SOL    HW222296   4.677   2.844  10.500  0.0364 -0.2649  0.9159
 3612SOL     OW22297   1.459   3.182   2.160  0.0852  0.1667  0.0300
 3612SOL    HW122298   1.397   3.183   2.087  1.5640 -1.7654 -1.2727
 3612SOL    HW222299   1.437   3.097   2.198  1.0479 -0.4760 -0.8406
 3613SOL     OW22300   2.673   2.655   7.458  0.1235  0.5556  0.2871
 3613SOL    HW122301   2.652   2.565   7.483  0.6548  1.0088  2.3138
 3613SOL    HW222302   2.719   2.678   7.538 -0.9855 -2.1811  1.6926
 3614SOL     OW22303   2.246   3.212   2.083  0.2217 -0.5724  0.4956
 3614SOL    HW122304   2.179   3.198   2.016  0.8939 -1.8832  0.0900
 3614SOL    HW222305   2.200   3.184   2.162 -0.2664  0.3630  0.5424
 3615SOL     OW22306   0.555   3.381   4.006  0.6221  0.4514  0.0382
 3615SOL    HW122307   0.524   3.349   3.922 -1.0431  2.0317  0.0491
 3615SOL    HW222308   0.650   3.376   3.991  0.4502 -2.0877 -0.2422
 3616SOL     OW22309   2.275   4.463   7.210 -0.0271  0.3377 -0.1889
 3616SOL    HW122310   2.315   4.379   7.189 -0.8879  0.2981 -1.6102
 3616SOL    HW222311   2.237   4.491   7.127  1.1714 -2.6716 -1.7500
 3617SOL     OW22312   0.372   3.853   8.290  0.2812 -0.2024 -0.0618
 3617SOL    HW122313   0.389   3.920   8.224 -1.4020 -0.7737 -1.0594
 3617SOL    HW222314   0.288   3.887   8.323 -0.5490 -1.9511 -0.4104
 3618SOL     OW22315   2.819   1.223   8.243  0.0390  0.3445  0.1818
 3618SOL    HW122316   2.808   1.239   8.149  0.7083 -3.7706 -0.5966
 3618SOL    HW222317   2.733   1.234   8.284 -0.0066 -1.7947  0.6359
 3619SOL     OW22318   2.757   1.100   1.868  0.1599 -0.2001  0.6549
 3619SOL    HW122319   2.748   1.151   1.787 -0.4243 -1.3559 -0.0268
 3619SOL    HW222320   2.840   1.140   1.894 -0.9698  2.0998  0.7201
 3620SOL     OW22321   2.492   2.744  16.002 -0.1548  0.1822 -0.4119
 3620SOL    HW122322   2.586   2.726  16.002 -0.7756 -3.0281 -0.7111
 3620SOL    HW222323   2.464   2.730  16.092 -0.8469 -0.7101 -0.7701
 3621SOL     OW22324   0.633   3.174   7.373 -0.5373  0.7330 -0.2692
 3621SOL    HW122325   0.722   3.178   7.409 -0.1083  0.7947 -1.3240
 3621SOL    HW222326   0.644   3.088   7.334 -2.5672  0.6883 -0.7311
 3622SOL     OW22327   4.525   0.013   1.395  0.6244 -0.3215 -0.7557
 3622SOL    HW122328   4.460   0.083   1.394  1.8201  0.8331  0.5179
 3622SOL    HW222329   4.594   0.061   1.443  1.0758 -1.3055 -0.4169
 3623SOL     OW22330   2.717   1.628   4.368 -0.1780 -0.1119  0.0719
 3623SOL    HW122331   2.716   1.586   4.454  0.4162  1.6869  0.9479
 3623SOL    HW222332   2.762   1.708   4.394  2.1408 -2.5339  3.5200
 3624SOL     OW22333   2.459   4.565   4.266 -0.0645  0.2168 -0.1933
 3624SOL    HW122334   2.520   4.583   4.338 -0.6272  0.1169  0.3070
 3624SOL    HW222335   2.527   4.548   4.201  1.5863 -1.9853  2.0858
 3625SOL     OW22336   1.580   0.785   5.248 -0.6244  0.3319  0.0924
 3625SOL    HW122337   1.587   0.877   5.223 -1.3736 -0.1571 -1.9861
 3625SOL    HW222338   1.532   0.807   5.328  0.6197  0.8665  0.6836
 3626SOL     OW22339   3.958   0.885   4.985  0.6459  0.2138  0.0530
 3626SOL    HW122340   4.048   0.912   5.005  2.1680 -1.2213 -5.1267
 3626SOL    HW222341   3.966   0.833   4.905 -1.0570 -1.8002  1.1955
 3627SOL     OW22342   2.718   1.097  17.558 -0.2793 -0.3284 -0.6555
 3627SOL    HW122343   2.636   1.062  17.594 -0.1215 -1.2254 -1.1574
 3627SOL    HW222344   2.782   1.037  17.597  0.0140  1.5307  1.6786
 3628SOL     OW22345   3.205   4.548  11.717  0.2869  0.5249 -0.4478
 3628SOL    HW122346   3.159   4.474  11.756 -1.4689 -0.1975 -3.8992
 3628SOL    HW222347   3.297   4.537  11.739 -0.3667 -0.2524  1.9500
 3629SOL     OW22348   3.688   4.323   5.913 -0.3683 -0.6996  0.2071
 3629SOL    HW122349   3.673   4.297   6.004  1.9046  2.0177  1.3397
 3629SOL    HW222350   3.602   4.333   5.872  0.0255  0.6662 -0.2837
 3630SOL     OW22351   3.699   3.216  15.433  0.3660 -0.4645 -0.1279
 3630SOL    HW122352   3.640   3.231  15.359 -0.5896 -2.0992  0.3086
 3630SOL    HW222353   3.687   3.122  15.446  0.4191 -0.2456  1.4957
 3631SOL     OW22354   2.023   2.650   7.818  0.4285 -0.1933 -0.4820
 3631SOL    HW122355   1.985   2.693   7.895  2.3799 -2.6744  1.8480
 3631SOL    HW222356   2.051   2.563   7.847  1.9810  0.3471 -0.4007
 3632SOL     OW22357   2.578   4.388   1.069 -0.2023 -0.0748  0.4327
 3632SOL    HW122358   2.586   4.386   1.164  3.2297  0.0506  0.1417
 3632SOL    HW222359   2.554   4.479   1.050 -0.1182 -0.2476 -0.5372
 3633SOL     OW22360   4.405   1.798   3.245  0.0111  0.4295  0.1118
 3633SOL    HW122361   4.452   1.768   3.168 -1.7636  0.1132 -0.8337
 3633SOL    HW222362   4.321   1.755   3.229 -0.7470  2.5233 -1.5647
 3634SOL     OW22363   0.810   1.913   4.038 -0.0449 -0.1403  0.6485
 3634SOL    HW122364   0.842   1.964   4.113 -0.3691  0.3441  0.4573
 3634SOL    HW222365   0.882   1.912   3.975  2.3731 -0.6444  3.4189
 3635SOL     OW22366   0.808   1.383   6.867 -0.2957 -1.0842  0.5617
 3635SOL    HW122367   0.726   1.427   6.890  0.4273  1.1580 -1.2348
 3635SOL    HW222368   0.803   1.312   6.931  0.1194 -1.4716  0.1588
 3636SOL     OW22369   3.624   0.537   3.557  0.2492  0.0614 -0.1731
 3636SOL    HW122370   3.588   0.613   3.603 -0.8627 -0.4661 -0.1720
 3636SOL    HW222371   3.710   0.564   3.523 -0.0985  0.8306 -0.4491
 3637SOL     OW22372   4.540   3.407   6.624  0.4795  0.0273 -0.0347
 3637SOL    HW122373   4.465   3.390   6.568  1.7255  3.2594 -2.6578
 3637SOL    HW222374   4.604   3.426   6.556 -0.1743 -0.9020 -0.9081
 3638SOL     OW22375   2.274   2.125   2.241  0.3539 -0.1397  0.1000
 3638SOL    HW122376   2.337   2.061   2.207  0.4289 -0.7609  1.3890
 3638SOL    HW222377   2.317   2.209   2.226 -1.0655  0.7657  1.1330
 3639SOL     OW22378   0.238   0.506   7.036 -0.2792  0.5555  0.0571
 3639SOL    HW122379   0.158   0.458   7.056 -0.6431  0.4683 -1.5669
 3639SOL    HW222380   0.205   0.564   6.967  0.2429  1.4335  0.5546
 3640SOL     OW22381   1.793   4.437   5.075 -0.3760  0.6673 -0.1718
 3640SOL    HW122382   1.744   4.445   5.157  0.1700  3.2115 -0.0915
 3640SOL    HW222383   1.750   4.366   5.030  0.0296  1.2153 -1.4111
 3641SOL     OW22384   2.837   0.640   2.785  0.1136  0.2975 -0.0046
 3641SOL    HW122385   2.826   0.733   2.804  0.5614  0.0904  1.2962
 3641SOL    HW222386   2.859   0.605   2.872  1.6283 -0.8132 -0.8316
 3642SOL     OW22387   3.377   3.069   8.429 -0.9547 -0.7279 -0.0440
 3642SOL    HW122388   3.455   3.013   8.428  0.9352  1.9292 -1.4463
 3642SOL    HW222389   3.318   3.011   8.477 -0.3788 -1.3194 -0.0497
 3643SOL     OW22390   2.021   2.908   5.497  0.4369  0.7045 -0.4423
 3643SOL    HW122391   2.108   2.947   5.513  0.9182 -0.7015  0.3570
 3643SOL    HW222392   2.036   2.849   5.424 -0.7653 -0.9756  0.6859
 3644SOL     OW22393   0.658   3.328  12.923 -0.3319 -0.0806  0.0272
 3644SOL    HW122394   0.652   3.308  12.830  2.2777  0.5221 -0.2946
 3644SOL    HW222395   0.717   3.404  12.918 -2.3992  1.5754  0.9109
 3645SOL     OW22396   0.812   0.307  15.897  0.3117  0.2018  0.6516
 3645SOL    HW122397   0.753   0.309  15.821 -0.2529  0.8782  1.1066
 3645SOL    HW222398   0.890   0.342  15.853 -0.2594 -0.6643 -1.0309
 3646SOL     OW22399   3.959   2.955   7.794 -0.1404 -0.2302  0.1281
 3646SOL    HW122400   4.002   2.875   7.823 -0.1621 -0.4726 -0.5181
 3646SOL    HW222401   4.023   2.998   7.738  0.7194 -0.2479  1.1026
 3647SOL     OW22402   4.597   1.728   9.238  0.7117 -0.1031  0.0967
 3647SOL    HW122403   4.673   1.716   9.182 -0.9148 -0.8820 -1.9827
 3647SOL    HW222404   4.554   1.799   9.189 -0.0875  1.3811  2.9620
 3648SOL     OW22405   3.355   2.717   1.181 -0.0183 -0.4421 -0.4380
 3648SOL    HW122406   3.415   2.690   1.251  2.7768 -0.2755 -2.7385
 3648SOL    HW222407   3.419   2.695   1.113  1.1350 -1.1862  0.8863
 3649SOL     OW22408   4.156   0.188   1.312  0.1858  0.6968  0.2445
 3649SOL    HW122409   4.166   0.095   1.291  1.2627  0.4003  2.1006
 3649SOL    HW222410   4.126   0.223   1.228 -1.6963  2.6612  1.7324
 3650SOL     OW22411   0.946   3.828   3.022 -0.1635 -0.0852 -0.3480
 3650SOL    HW122412   1.027   3.880   3.031 -1.1615  0.9397  2.6558
 3650SOL    HW222413   0.929   3.800   3.112  2.5452 -2.6185 -0.6284
 3651SOL     OW22414   2.772   1.647   8.527 -0.0736  0.2183 -0.0698
 3651SOL    HW122415   2.837   1.593   8.483 -1.5174  1.4480 -3.6855
 3651SOL    HW222416   2.766   1.597   8.608  0.6086 -0.7544 -0.6204
 3652SOL     OW22417   3.576   1.997   6.503  0.2767  0.6759 -0.1365
 3652SOL    HW122418   3.534   2.075   6.540  2.0576  1.6552 -0.1422
 3652SOL    HW222419   3.501   1.948   6.471 -0.7537  3.0537 -1.3901
 3653SOL     OW22420   0.981   3.762  11.303  0.1379 -0.2422 -1.1574
 3653SOL    HW122421   1.033   3.681  11.307  2.7235  1.6036  3.1076
 3653SOL    HW222422   0.894   3.723  11.307  1.6071 -3.5855 -1.2937
 3654SOL     OW22423   0.332   2.157   1.115 -0.1852  0.3087  0.2176
 3654SOL    HW122424   0.354   2.196   1.199 -0.6967 -0.8633  0.9033
 3654SOL    HW222425   0.238   2.148   1.130 -0.3795  0.0923 -1.0825
 3655SOL     OW22426   4.679   4.021  13.266 -0.0302 -0.2831  0.2250
 3655SOL    HW122427   0.015   4.066  13.206  2.5834 -1.7535  1.6796
 3655SOL    HW222428   4.695   4.063  13.351 -0.7067  1.1211 -0.3409
 3656SOL     OW22429   1.578   3.393  11.119  0.0148  0.6926 -0.4706
 3656SOL    HW122430   1.568   3.403  11.214  1.1772  2.4927 -0.5342
 3656SOL    HW222431   1.503   3.337  11.098  0.3645 -0.7764  2.1771
 3657SOL     OW22432   3.211   4.359   5.521  0.2891 -0.0817 -0.4418
 3657SOL    HW122433   3.194   4.394   5.609 -0.2799  0.0947 -0.6207
 3657SOL    HW222434   3.306   4.352   5.521  0.2963  0.0144 -0.5199
 3658SOL     OW22435   2.909   1.886   8.272  0.3775  0.3442  0.1660
 3658SOL    HW122436   2.959   1.888   8.353  0.5563 -0.8676  0.0918
 3658SOL    HW222437   2.921   1.977   8.246  0.1470 -0.1014 -1.4761
 3659SOL     OW22438   4.626   2.774   9.985 -0.2228  0.4211  0.0553
 3659SOL    HW122439   4.584   2.718   9.920 -0.0059  2.2886 -1.7046
 3659SOL    HW222440   4.626   2.716  10.061 -1.2740  1.0832  0.5516
 3660SOL     OW22441   1.791   2.802   5.017 -0.1599  0.1090  0.1222
 3660SOL    HW122442   1.790   2.853   5.098  1.4191  0.2159  0.0600
 3660SOL    HW222443   1.883   2.807   4.994 -0.3585  0.0538 -0.6897
 3661SOL     OW22444   3.374   1.951  10.178 -0.3010 -0.8896 -0.1881
 3661SOL    HW122445   3.454   1.899  10.173 -0.0019 -0.7691  3.5292
 3661SOL    HW222446   3.404   2.039  10.154 -1.4140 -1.2178 -2.7580
 3662SOL     OW22447   3.745   3.230  16.315 -0.0290  0.0403 -0.0934
 3662SOL    HW122448   3.725   3.187  16.398 -0.0929  0.6849  0.2228
 3662SOL    HW222449   3.829   3.268  16.342  0.1871 -1.4637  1.3661
 3663SOL     OW22450   2.882   0.599   8.544  0.4386 -0.5100 -0.2524
 3663SOL    HW122451   2.913   0.683   8.577 -1.7459  0.5884 -0.9565
 3663SOL    HW222452   2.799   0.633   8.509  0.7251 -1.1353 -1.5339
 3664SOL     OW22453   1.494   0.741   0.871 -0.4095 -0.0226 -0.8230
 3664SOL    HW122454   1.458   0.660   0.908  0.4529  0.4088  0.9200
 3664SOL    HW222455   1.416   0.783   0.834 -1.0491  1.3525  2.1424
 3665SOL     OW22456   3.460   2.841   1.509 -0.1718 -0.3341 -0.6009
 3665SOL    HW122457   3.436   2.863   1.599 -1.0592 -0.6402 -0.7651
 3665SOL    HW222458   3.434   2.922   1.466  0.8328 -1.1078 -2.6463
 3666SOL     OW22459   0.969   2.580  12.390  0.2774  0.2034  0.2186
 3666SOL    HW122460   0.921   2.616  12.316  0.7796  1.9620  0.7551
 3666SOL    HW222461   0.934   2.491  12.399  0.8280  0.1342  1.7648
 3667SOL     OW22462   0.581   0.880   3.352 -0.0097 -0.3716 -0.3663
 3667SOL    HW122463   0.620   0.961   3.319  0.5965  0.5803  2.7339
 3667SOL    HW222464   0.656   0.823   3.340  0.7120 -0.0322  2.5430
 3668SOL     OW22465   1.654   3.329  14.093  0.7643 -0.2105 -0.4193
 3668SOL    HW122466   1.741   3.298  14.117 -0.7300 -3.5272  0.8722
 3668SOL    HW222467   1.598   3.289  14.161 -1.3338  2.0366 -0.8126
 3669SOL     OW22468   3.871   0.330   4.657 -0.0543  0.4148 -0.0100
 3669SOL    HW122469   3.888   0.360   4.568  0.0518  2.5126  0.7112
 3669SOL    HW222470   3.876   0.235   4.657  0.8205  0.4677 -1.6796
 3670SOL     OW22471   4.682   4.212   9.151 -0.3377  0.2205  0.1624
 3670SOL    HW122472   4.634   4.253   9.079 -1.8739 -2.0450 -0.0710
 3670SOL    HW222473   4.689   4.281   9.218  0.5634 -0.4999  0.8054
 3671SOL     OW22474   1.128   4.504   3.198  0.1799  0.1673 -0.2015
 3671SOL    HW122475   1.081   4.514   3.280  1.0583 -0.5683  0.4018
 3671SOL    HW222476   1.077   4.563   3.143 -2.0556 -2.0568 -0.4962
 3672SOL     OW22477   0.493   3.819   5.796  0.6230  0.0306 -0.1361
 3672SOL    HW122478   0.546   3.892   5.764  0.2262  0.0959 -0.6463
 3672SOL    HW222479   0.408   3.857   5.821  0.4802 -0.8768  0.7815
 3673SOL     OW22480   4.015   0.507   5.948 -0.6848  0.0332  0.2503
 3673SOL    HW122481   4.068   0.507   5.868 -0.0337  0.1262  0.6814
 3673SOL    HW222482   4.063   0.452   6.010  0.3419 -2.6773 -2.9356
 3674SOL     OW22483   3.463   2.531   5.111 -0.0419 -0.8700  0.5708
 3674SOL    HW122484   3.457   2.492   5.024 -1.1867  0.1336  0.2026
 3674SOL    HW222485   3.416   2.613   5.096 -1.8793 -2.2042 -0.9776
 3675SOL     OW22486   2.141   1.367   7.808 -0.6637  0.2018 -0.5207
 3675SOL    HW122487   2.229   1.362   7.844 -0.4950  0.5540 -0.8866
 3675SOL    HW222488   2.080   1.341   7.877 -0.9011 -1.0149 -1.1922
 3676SOL     OW22489   1.455   4.309   0.756 -0.3858 -0.0374  0.2961
 3676SOL    HW122490   1.460   4.264   0.840  2.5188 -1.6662 -0.7790
 3676SOL    HW222491   1.442   4.401   0.780 -1.1253 -0.1643  0.3925
 3677SOL     OW22492   1.167   4.281  10.125  0.5234  0.2159  0.1219
 3677SOL    HW122493   1.207   4.196  10.110 -1.0514 -0.4709 -0.0872
 3677SOL    HW222494   1.078   4.252  10.141  0.2434  0.1428 -1.6504
 3678SOL     OW22495   3.379   2.749   8.531 -0.4201  0.1361 -0.1952
 3678SOL    HW122496   3.464   2.743   8.486 -0.7734 -0.3303 -0.7990
 3678SOL    HW222497   3.399   2.771   8.622 -0.0962 -1.4623  0.1195
 3679SOL     OW22498   2.506   1.749   3.068 -0.1211  0.4188 -0.0271
 3679SOL    HW122499   2.492   1.792   2.984  0.1212 -0.8675 -0.7231
 3679SOL    HW222500   2.436   1.684   3.059  0.1735  0.5844 -3.5858
 3680SOL     OW22501   3.714   0.219   1.904 -0.0493  0.0276 -0.4725
 3680SOL    HW122502   3.652   0.193   1.973  0.3503  1.1404  0.3061
 3680SOL    HW222503   3.789   0.268   1.938  0.1252 -0.3908 -0.2412
 3681SOL     OW22504   4.664   4.076   5.477  0.2302 -0.1326  0.0519
 3681SOL    HW122505   4.616   4.038   5.551 -0.9665 -1.8036 -1.5706
 3681SOL    HW222506   4.631   4.012   5.414  2.1433 -1.7922  0.7274
 3682SOL     OW22507   2.717   1.681   5.862 -0.4487  0.8438 -0.7934
 3682SOL    HW122508   2.633   1.643   5.835  1.1101 -2.5775 -0.8295
 3682SOL    HW222509   2.681   1.713   5.945 -1.3291 -1.4014 -0.3120
 3683SOL     OW22510   1.240   0.687   8.005 -0.6823  0.9154  0.1861
 3683SOL    HW122511   1.267   0.636   8.081  0.4437 -1.0260 -1.5250
 3683SOL    HW222512   1.309   0.752   8.001 -1.0349  1.4334  2.3159
 3684SOL     OW22513   4.222   3.047   3.508 -0.6894 -0.2121  0.6687
 3684SOL    HW122514   4.156   3.014   3.448 -0.3560  1.8817 -0.8355
 3684SOL    HW222515   4.292   3.047   3.443 -1.4558  0.7381 -0.1649
 3685SOL     OW22516   2.920   0.168   7.218 -0.1477 -0.1782  0.5769
 3685SOL    HW122517   2.882   0.102   7.276 -0.6425  1.7993  2.4973
 3685SOL    HW222518   2.845   0.225   7.205 -0.1644  0.1029  1.8464
 3686SOL     OW22519   0.405   2.803   3.744  0.5452  0.2813 -0.2839
 3686SOL    HW122520   0.356   2.875   3.783  0.4530  0.9460 -1.6246
 3686SOL    HW222521   0.325   2.750   3.739  0.8973 -0.4089  1.2922
 3687SOL     OW22522   3.448   1.244   2.999  0.0145  0.0670  0.3340
 3687SOL    HW122523   3.360   1.247   3.037 -0.5113 -0.9707 -0.8362
 3687SOL    HW222524   3.477   1.334   3.014 -0.9061  0.4316 -0.1319
 3688SOL     OW22525   3.930   1.917   5.351 -0.7003  0.1765  0.7921
 3688SOL    HW122526   3.837   1.939   5.350 -0.6267  0.5582  2.5718
 3688SOL    HW222527   3.959   1.997   5.393 -0.6602  1.6349 -2.0366
 3689SOL     OW22528   3.043   0.004  11.592 -0.3265 -0.1212 -0.6506
 3689SOL    HW122529   3.103   4.663  11.630  1.0538  1.2290 -0.5268
 3689SOL    HW222530   3.094   0.085  11.593  0.7979 -0.8661  0.9448
 3690SOL     OW22531   2.145   4.098  11.773  0.3233 -0.0558 -0.5129
 3690SOL    HW122532   2.176   4.182  11.806 -3.9026  1.2052  0.3100
 3690SOL    HW222533   2.055   4.124  11.754  1.1424  1.2957 -2.5257
 3691SOL     OW22534   1.114   4.473   7.036 -0.0959 -0.3596  0.4118
 3691SOL    HW122535   1.082   4.384   7.024  0.7143 -0.7602  1.2021
 3691SOL    HW222536   1.208   4.467   7.051 -0.1023 -2.3283 -0.3237
 3692SOL     OW22537   0.016   1.096   0.581  0.4472  0.0886 -0.0413
 3692SOL    HW122538   0.018   1.001   0.582 -3.0526  0.0277  0.9661
 3692SOL    HW222539   0.063   1.131   0.506  1.3691  0.5190  0.7494
 3693SOL     OW22540   0.032   0.419  16.960  0.0797  0.3656  0.1772
 3693SOL    HW122541   0.018   0.336  17.006  0.5978 -0.1172 -0.5263
 3693SOL    HW222542   0.008   0.399  16.869  1.7236 -0.4950 -0.0687
 3694SOL     OW22543   3.737   4.044   3.305 -0.1630 -0.4634 -0.4097
 3694SOL    HW122544   3.813   3.987   3.317 -0.6540 -1.9491 -4.3445
 3694SOL    HW222545   3.724   4.024   3.213 -1.7629 -1.8703  0.1211
 3695SOL     OW22546   2.026   1.645   2.945  0.4283 -0.4199 -0.1482
 3695SOL    HW122547   2.026   1.576   2.878  1.0680  0.0589 -0.6437
 3695SOL    HW222548   1.964   1.703   2.901  0.9048 -0.5403 -0.9773
 3696SOL     OW22549   1.682   1.907   9.218 -0.1548  0.0547 -0.3175
 3696SOL    HW122550   1.603   1.930   9.168 -0.3715  1.2187  0.5463
 3696SOL    HW222551   1.657   1.815   9.207 -0.1207  0.0441 -0.3056
 3697SOL     OW22552   0.125   2.222   4.473 -0.0117 -0.2569  0.4164
 3697SOL    HW122553   0.134   2.277   4.550 -1.9539 -0.4562  0.7811
 3697SOL    HW222554   0.075   2.282   4.417  0.7653  0.1500  0.1590
 3698SOL     OW22555   1.979   2.523   6.169  0.1181  0.0901 -0.2349
 3698SOL    HW122556   1.946   2.457   6.231 -0.2731  0.6466  0.1503
 3698SOL    HW222557   1.947   2.599   6.218 -1.4333 -0.1553 -0.8673
 3699SOL     OW22558   2.173   3.713   9.672  0.0571 -0.0004  0.6432
 3699SOL    HW122559   2.176   3.749   9.761 -2.1191 -0.4873  0.9166
 3699SOL    HW222560   2.086   3.741   9.642 -0.1210 -0.5553  0.6470
 3700SOL     OW22561   4.507   2.793  11.643 -0.6915 -0.0391 -0.7341
 3700SOL    HW122562   4.565   2.787  11.567  0.8306  3.8709  0.1161
 3700SOL    HW222563   4.489   2.887  11.647 -0.2089  0.0018  0.5664
 3701SOL     OW22564   2.178   1.145   7.472 -0.1268  0.1020  0.1326
 3701SOL    HW122565   2.269   1.167   7.453  0.1267 -1.9410 -1.0056
 3701SOL    HW222566   2.152   1.207   7.540  2.8619  0.3498  1.0537
 3702SOL     OW22567   0.331   2.796   4.172  0.5335 -0.8442 -0.2465
 3702SOL    HW122568   0.375   2.862   4.119 -1.1839  0.5809  0.1049
 3702SOL    HW222569   0.243   2.833   4.182 -0.8684 -4.0455 -0.8371
 3703SOL     OW22570   0.056   0.504   1.993 -0.2861 -0.1200  0.8196
 3703SOL    HW122571   4.717   0.477   1.926  3.0534 -2.2957 -1.4430
 3703SOL    HW222572   0.053   0.431   2.055  2.5454 -1.1191 -0.2293
 3704SOL     OW22573   4.462   0.288   6.866 -0.5080 -0.3080 -0.1888
 3704SOL    HW122574   4.380   0.330   6.892 -1.7844 -1.4717 -2.4309
 3704SOL    HW222575   4.476   0.337   6.785  1.2093  0.4603  0.5609
 3705SOL     OW22576   2.373   0.695   2.611 -0.4153 -0.0509 -0.4462
 3705SOL    HW122577   2.412   0.647   2.685 -0.2704  0.8697  0.0689
 3705SOL    HW222578   2.398   0.785   2.630  1.6441 -0.8266  0.5749
 3706SOL     OW22579   2.734   3.526   3.473  0.2682 -0.3079 -0.5047
 3706SOL    HW122580   2.828   3.533   3.490 -0.2704  0.8198  1.9298
 3706SOL    HW222581   2.744   3.482   3.388  0.3940  1.3611 -1.3537
 3707SOL     OW22582   1.184   1.744   4.169 -0.2452 -0.8962 -0.0185
 3707SOL    HW122583   1.214   1.729   4.079  1.8843  2.5837  0.1232
 3707SOL    HW222584   1.269   1.731   4.211 -0.7318 -0.0059  1.2423
 3708SOL     OW22585   1.543   3.680  11.394 -0.1851 -0.0404  0.2485
 3708SOL    HW122586   1.630   3.716  11.408 -0.7590  0.7877  1.6106
 3708SOL    HW222587   1.493   3.746  11.442  0.5647  0.4392  0.3572
 3709SOL     OW22588   3.145   0.655   0.546 -0.6419 -0.4249 -0.3547
 3709SOL    HW122589   3.198   0.735   0.551 -0.1069 -1.0477  3.8808
 3709SOL    HW222590   3.140   0.632   0.638 -2.0540  1.3402  0.0073
 3710SOL     OW22591   3.189   3.382   6.969 -0.0425 -0.3349 -0.2600
 3710SOL    HW122592   3.161   3.395   7.059  0.2519 -1.1119 -0.0549
 3710SOL    HW222593   3.131   3.309   6.947 -0.6650 -0.0238  0.3757
 3711SOL     OW22594   4.636   1.942   2.548 -0.6921  0.1845  0.0773
 3711SOL    HW122595   0.005   1.921   2.561 -0.0521  1.6661 -2.1494
 3711SOL    HW222596   4.653   1.976   2.460  1.3883 -2.1883 -0.4361
 3712SOL     OW22597   1.621   3.483   3.587  0.1738 -0.2926 -0.1114
 3712SOL    HW122598   1.699   3.515   3.541 -1.5371  2.0234 -1.3972
 3712SOL    HW222599   1.549   3.467   3.526  0.5143  0.8043 -0.8014
 3713SOL     OW22600   0.595   0.856  11.395 -0.2203 -0.1291  0.1497
 3713SOL    HW122601   0.667   0.836  11.336  0.1893  1.4700  0.0993
 3713SOL    HW222602   0.612   0.947  11.418  1.7088 -0.2063 -1.0345
 3714SOL     OW22603   0.886   1.061   7.206  0.3318  0.5914  0.0311
 3714SOL    HW122604   0.911   1.000   7.275  2.3006 -0.2909 -1.4371
 3714SOL    HW222605   0.944   1.136   7.222  0.8971  0.4512 -1.3367
 3715SOL     OW22606   2.946   2.635   0.870  0.1656 -0.0733 -0.1370
 3715SOL    HW122607   3.033   2.616   0.835  0.8260 -1.1643  2.1399
 3715SOL    HW222608   2.894   2.571   0.821 -0.9935  1.6068 -1.0857
 3716SOL     OW22609   0.740   0.494   4.691 -0.0579 -0.1965 -0.0392
 3716SOL    HW122610   0.775   0.464   4.774  0.4732  0.5259  0.0024
 3716SOL    HW222611   0.816   0.467   4.640  1.6500  2.4100  1.1230
 3717SOL     OW22612   1.016   2.728  11.830 -0.1599 -0.6949  1.2919
 3717SOL    HW122613   1.053   2.817  11.834 -2.2827  0.1817  1.3421
 3717SOL    HW222614   1.065   2.675  11.892  2.4792 -1.1917 -1.2301
 3718SOL     OW22615   3.654   1.411   6.288 -0.0587 -0.2895 -0.4654
 3718SOL    HW122616   3.576   1.363   6.315  0.9466 -1.2571  0.7252
 3718SOL    HW222617   3.685   1.453   6.369  1.3708 -0.2323 -1.0447
 3719SOL     OW22618   4.241   3.804  12.690 -0.0231 -0.1728  0.1699
 3719SOL    HW122619   4.273   3.735  12.749 -1.7210 -0.0713  1.2030
 3719SOL    HW222620   4.146   3.801  12.701  0.2247  1.5587  2.9318
 3720SOL     OW22621   0.482   3.406  13.127  0.5609  0.2930  0.0146
 3720SOL    HW122622   0.560   3.374  13.082  0.8029  1.3639 -0.3338
 3720SOL    HW222623   0.467   3.480  13.068  1.0887 -0.4400 -1.0343
 3721SOL     OW22624   1.907   0.391   8.193  0.1173 -0.2462 -0.1875
 3721SOL    HW122625   1.992   0.429   8.219  0.0823  0.5042 -1.1773
 3721SOL    HW222626   1.893   0.424   8.104  2.4056  2.9360  0.6358
 3722SOL     OW22627   4.046   3.981   3.606  0.2854 -0.1820 -0.1901
 3722SOL    HW122628   4.098   4.032   3.668  2.1919 -1.4548 -0.7526
 3722SOL    HW222629   4.058   4.041   3.532 -1.0354 -1.9786 -1.8893
 3723SOL     OW22630   3.461   0.623   5.603  0.3506 -0.6342 -0.2714
 3723SOL    HW122631   3.509   0.674   5.538  0.5482 -0.3139  0.1226
 3723SOL    HW222632   3.442   0.701   5.655 -0.2948 -1.5767  0.9223
 3724SOL     OW22633   3.039   2.102   0.182 -0.0180 -0.0210 -0.1610
 3724SOL    HW122634   2.946   2.108   0.159 -0.0942  2.9483  0.8428
 3724SOL    HW222635   3.049   2.191   0.218  0.4284 -0.3012  0.4125
 3725SOL     OW22636   0.838   1.616   2.533 -0.1461  0.2331  0.3320
 3725SOL    HW122637   0.932   1.606   2.542  0.1075  1.1341 -1.3370
 3725SOL    HW222638   0.817   1.700   2.574 -0.1652 -0.5681  1.9609
 3726SOL     OW22639   0.037   0.457  14.862 -0.0654  0.1244 -0.1353
 3726SOL    HW122640   0.033   0.364  14.883 -1.1612  0.1001 -0.4412
 3726SOL    HW222641   4.707   0.501  14.927 -0.2658  1.3226 -1.1034
 3727SOL     OW22642   4.412   0.814   2.785  0.2200  0.9422 -0.0381
 3727SOL    HW122643   4.498   0.851   2.766  0.9323 -1.3310 -1.2902
 3727SOL    HW222644   4.419   0.793   2.878  0.1919  0.9851 -0.0265
 3728SOL     OW22645   3.626   3.678  15.548  0.4090  0.6907 -0.6023
 3728SOL    HW122646   3.625   3.586  15.574 -2.2633  0.5764 -1.0798
 3728SOL    HW222647   3.551   3.719  15.592 -1.0002 -2.1084 -0.4420
 3729SOL     OW22648   3.314   0.782  16.167 -0.2740  0.1063 -0.0774
 3729SOL    HW122649   3.235   0.836  16.176 -0.6983 -0.5736  0.2950
 3729SOL    HW222650   3.285   0.694  16.190 -1.6095  1.2875  2.8628
 3730SOL     OW22651   0.708   4.408  13.170  0.3155 -0.4610  0.3684
 3730SOL    HW122652   0.659   4.434  13.247 -1.1441  1.5949 -1.2617
 3730SOL    HW222653   0.653   4.426  13.094  2.4189 -0.8116 -1.2655
 3731SOL     OW22654   3.744   4.163   8.521  0.0034  0.1072 -0.3773
 3731SOL    HW122655   3.754   4.177   8.616 -0.8317  0.7665 -0.3861
 3731SOL    HW222656   3.693   4.239   8.494  1.2818  1.1776  0.2100
 3732SOL     OW22657   4.495   2.229   1.939 -0.0577 -0.3441 -0.4790
 3732SOL    HW122658   4.516   2.170   1.866  0.6058  0.1483 -0.6929
 3732SOL    HW222659   4.408   2.259   1.912 -1.1783 -1.6022  1.8064
 3733SOL     OW22660   3.956   1.117   2.622  0.1091  0.8104 -0.1599
 3733SOL    HW122661   4.038   1.089   2.664 -0.5384 -2.3069 -1.0242
 3733SOL    HW222662   3.985   1.200   2.583  1.0867  0.8292  0.5919
 3734SOL     OW22663   2.180   1.285   4.540  0.5101  0.5573 -0.5075
 3734SOL    HW122664   2.157   1.371   4.576 -1.3105  0.9253 -2.5017
 3734SOL    HW222665   2.109   1.271   4.477 -1.5846 -1.7765  2.4166
 3735SOL     OW22666   3.175   1.612  16.475 -0.1590 -0.3510 -0.5357
 3735SOL    HW122667   3.222   1.540  16.518  0.6892 -0.1029 -1.0583
 3735SOL    HW222668   3.085   1.596  16.505 -0.9771  0.6854 -2.4688
 3736SOL     OW22669   4.712   4.502  11.977 -0.3552  0.3227  0.1229
 3736SOL    HW122670   4.681   4.412  11.981 -5.1952  2.1078  2.6493
 3736SOL    HW222671   4.667   4.541  11.902  0.5826  1.8195  0.3368
 3737SOL     OW22672   2.419   1.559   0.920  0.0045  0.2572 -0.3929
 3737SOL    HW122673   2.406   1.543   0.827  2.0802  2.3518 -1.0283
 3737SOL    HW222674   2.512   1.536   0.929  0.3377  0.9906 -2.1332
 3738SOL     OW22675   2.078   0.667   2.213  0.6861 -0.0913  0.1304
 3738SOL    HW122676   2.018   0.690   2.284 -0.3686  0.9514 -1.0734
 3738SOL    HW222677   2.157   0.648   2.262 -0.5611  0.0406  2.2158
 3739SOL     OW22678   4.131   0.966   0.239  0.4549 -0.0861 -0.1401
 3739SOL    HW122679   4.127   0.908   0.316 -2.5718 -1.5700 -1.4213
 3739SOL    HW222680   4.193   1.035   0.263 -0.9842  0.9095  0.7776
 3740SOL     OW22681   0.349   3.791  15.967  0.4228  0.3162  0.1351
 3740SOL    HW122682   0.429   3.739  15.955  0.7923  0.5170  1.7468
 3740SOL    HW222683   0.295   3.762  15.894 -0.1208 -1.2047  1.1361
 3741SOL     OW22684   2.916   3.180   6.796  0.1269  0.1153 -0.6989
 3741SOL    HW122685   2.820   3.179   6.802  0.2602  0.6391  1.4972
 3741SOL    HW222686   2.940   3.154   6.885  2.2581 -0.4456 -1.4504
 3742SOL     OW22687   1.175   4.684  10.246  0.4707 -0.0181  1.1673
 3742SOL    HW122688   1.214   4.711  10.329  0.4622 -0.5905  1.3626
 3742SOL    HW222689   1.238   4.614  10.227  0.6321  0.3350  0.4082
 3743SOL     OW22690   2.443   1.895   3.525 -0.0691  0.2835  0.3515
 3743SOL    HW122691   2.514   1.864   3.581 -0.7734 -1.8332  0.0655
 3743SOL    HW222692   2.376   1.835   3.557  1.7692  0.3752  4.3285
 3744SOL     OW22693   4.050   4.330   5.722  0.7398 -0.1715  0.6804
 3744SOL    HW122694   4.138   4.297   5.702  0.3245 -0.8803  0.0414
 3744SOL    HW222695   4.068   4.372   5.806 -0.9603 -2.3973  2.1540
 3745SOL     OW22696   2.151   2.290   2.675 -0.4568 -0.1259 -0.2111
 3745SOL    HW122697   2.233   2.326   2.639 -1.9805  0.7079 -2.8819
 3745SOL    HW222698   2.144   2.209   2.623 -1.2989 -1.1794  1.5608
 3746SOL     OW22699   3.511   2.890   4.732 -0.3061 -0.0242  0.0387
 3746SOL    HW122700   3.553   2.930   4.809 -0.6940  0.7462 -0.1472
 3746SOL    HW222701   3.561   2.809   4.735 -1.4281 -0.7175 -0.2502
 3747SOL     OW22702   0.382   3.356   6.198 -0.0791 -0.3379 -0.3306
 3747SOL    HW122703   0.461   3.322   6.156 -0.5838 -1.9423  0.0326
 3747SOL    HW222704   0.330   3.397   6.129  0.0556  0.1615 -0.1325
 3748SOL     OW22705   4.448   0.859   6.956  0.1069  0.1562 -0.2958
 3748SOL    HW122706   4.454   0.952   6.978 -1.5323  0.5258 -1.4763
 3748SOL    HW222707   4.539   0.833   6.974  1.4298  3.3186 -2.5953
 3749SOL     OW22708   0.553   3.940   9.701 -0.1857  0.1027  0.4721
 3749SOL    HW122709   0.549   3.901   9.788  3.3213 -0.7035  0.2616
 3749SOL    HW222710   0.461   3.951   9.675 -0.1110  1.9876  0.9895
 3750SOL     OW22711   3.217   2.225   3.496  0.2111  0.0784 -0.8152
 3750SOL    HW122712   3.308   2.248   3.514  0.0944  0.4035 -0.6349
 3750SOL    HW222713   3.218   2.199   3.404 -0.0626  0.9963 -1.0762
 3751SOL     OW22714   4.428   1.506   8.721 -0.6009  0.0754 -0.0789
 3751SOL    HW122715   4.384   1.468   8.797 -1.1702 -1.0702 -0.9798
 3751SOL    HW222716   4.443   1.430   8.665 -2.5190  0.1584 -0.7139
 3752SOL     OW22717   3.635   1.255  13.239  0.4432  0.2857  0.1706
 3752SOL    HW122718   3.555   1.260  13.186  0.3586  1.7705  0.4447
 3752SOL    HW222719   3.638   1.162  13.263  3.1442 -0.3273 -2.6148
 3753SOL     OW22720   3.917   0.675   4.808 -0.2156 -0.1346  0.4042
 3753SOL    HW122721   3.966   0.595   4.824 -0.2646  0.2178  2.3427
 3753SOL    HW222722   3.912   0.669   4.713 -0.6238 -3.5950  0.6413
 3754SOL     OW22723   1.804   3.779  11.376  0.3139 -0.8770  0.7126
 3754SOL    HW122724   1.842   3.867  11.369  0.4087 -1.1053 -1.5771
 3754SOL    HW222725   1.880   3.722  11.366  0.6738 -0.3166  0.2460
 3755SOL     OW22726   2.489   4.079   1.928  0.2181 -0.0747 -0.1483
 3755SOL    HW122727   2.397   4.093   1.954  0.0965 -1.7728  0.3031
 3755SOL    HW222728   2.531   4.057   2.011  0.2260  1.5185  0.2699
 3756SOL     OW22729   4.653   2.624   5.255  0.5965 -0.0181  0.5480
 3756SOL    HW122730   4.610   2.575   5.185  1.0748  2.5621 -1.5404
 3756SOL    HW222731   0.015   2.623   5.214 -0.5930  1.2481 -1.9931
 3757SOL     OW22732   1.919   0.646   5.527  0.3894 -0.0937  0.2323
 3757SOL    HW122733   1.833   0.670   5.561  1.0325 -2.3149  3.3945
 3757SOL    HW222734   1.929   0.719   5.465  1.4402  0.8769  1.5371
 3758SOL     OW22735   0.071   4.227   2.947 -0.1934 -0.2162  0.1530
 3758SOL    HW122736   0.025   4.143   2.950  2.1101 -1.5154 -0.6017
 3758SOL    HW222737   0.157   4.188   2.965  0.3629 -0.0875 -2.2207
 3759SOL     OW22738   2.600   0.654   0.750  0.1378 -0.0120  0.5185
 3759SOL    HW122739   2.674   0.661   0.690  0.2023 -1.4067  0.4323
 3759SOL    HW222740   2.636   0.618   0.830 -1.6767 -0.6576  1.0366
 3760SOL     OW22741   3.677   3.734   5.556 -0.1317  0.8107 -0.0693
 3760SOL    HW122742   3.586   3.702   5.556  0.7031 -1.5850 -1.5017
 3760SOL    HW222743   3.677   3.802   5.489  0.8111  0.8012 -0.0819
 3761SOL     OW22744   3.648   0.974   3.701 -0.2386  0.5380 -0.8863
 3761SOL    HW122745   3.718   0.967   3.637 -1.1942 -1.6023 -1.6903
 3761SOL    HW222746   3.572   0.946   3.649  0.0603  0.6630 -1.3847
 3762SOL     OW22747   3.906   4.571   5.833 -0.1394 -0.0864  0.1849
 3762SOL    HW122748   3.959   4.651   5.825  1.2371 -1.0943 -0.7771
 3762SOL    HW222749   3.851   4.581   5.910  1.0574  1.5982  0.8332
 3763SOL     OW22750   0.568   0.455  11.046  0.5307 -0.0237 -0.4055
 3763SOL    HW122751   0.541   0.524  11.106  1.2696 -0.8347  0.8605
 3763SOL    HW222752   0.484   0.413  11.028  0.1910  1.2577 -1.7813
 3764SOL     OW22753   1.522   0.774   4.690  0.0366 -0.6704  0.3828
 3764SOL    HW122754   1.575   0.824   4.627 -0.4464 -0.1902  0.3523
 3764SOL    HW222755   1.551   0.687   4.663  0.3231 -0.4649  0.0354
 3765SOL     OW22756   2.186   3.218   2.918 -0.4224  0.0818  0.9306
 3765SOL    HW122757   2.268   3.264   2.902 -0.8615  0.7502  0.5946
 3765SOL    HW222758   2.120   3.256   2.860 -0.5206 -2.3505 -0.5573
 3766SOL     OW22759   3.810   2.331   7.891  0.3534 -0.3025  0.3287
 3766SOL    HW122760   3.905   2.318   7.900  0.5883 -0.0713 -1.9169
 3766SOL    HW222761   3.806   2.426   7.903 -1.9668 -0.2808 -0.8003
 3767SOL     OW22762   0.760   4.041   4.599  0.2475 -0.1783  0.1792
 3767SOL    HW122763   0.836   4.093   4.625  1.2706 -1.5928 -0.0221
 3767SOL    HW222764   0.789   3.988   4.526  0.1273 -0.5827  0.4247
 3768SOL     OW22765   3.550   0.202  15.344 -0.2870  0.4846 -0.0583
 3768SOL    HW122766   3.489   0.186  15.272 -0.3433 -1.2449  0.3792
 3768SOL    HW222767   3.494   0.194  15.422 -0.2116  1.9605  0.1615
 3769SOL     OW22768   3.603   1.385  10.142 -0.5768  0.2819  0.1250
 3769SOL    HW122769   3.633   1.361  10.055 -0.5866  1.1420 -0.1129
 3769SOL    HW222770   3.581   1.478  10.134 -1.9855 -0.0222  0.4649
 3770SOL     OW22771   3.227   4.587   6.237 -0.5679  0.2668 -0.1108
 3770SOL    HW122772   3.182   4.509   6.270  2.4106 -1.0658  0.7484
 3770SOL    HW222773   3.261   4.624   6.319 -0.5284  2.4331 -1.1065
 3771SOL     OW22774   3.508   4.196   2.801  0.0062  0.0354 -0.2942
 3771SOL    HW122775   3.429   4.220   2.849  0.7210  2.2651 -0.2214
 3771SOL    HW222776   3.469   4.133   2.740 -0.5462  0.0541  0.0443
 3772SOL     OW22777   0.061   2.441  16.198  0.0221 -0.5787 -0.2643
 3772SOL    HW122778   0.068   2.355  16.241  1.6498  0.8568  2.3588
 3772SOL    HW222779   0.058   2.414  16.107  0.7770 -0.2037 -0.4021
 3773SOL     OW22780   1.181   4.639   4.641  0.1843 -0.1885  0.1045
 3773SOL    HW122781   1.163   4.639   4.735  1.0549  2.5927  0.2736
 3773SOL    HW222782   1.276   4.632   4.632  0.2901  0.4499  0.7749
 3774SOL     OW22783   2.908   2.108   7.138  0.1144  0.5197 -0.5974
 3774SOL    HW122784   2.941   2.027   7.179  0.5994 -0.9458 -3.8052
 3774SOL    HW222785   2.820   2.080   7.112  0.0213  1.7162 -1.5552
 3775SOL     OW22786   0.167   0.007  10.539  0.3627  0.3151 -0.3138
 3775SOL    HW122787   0.133   4.688  10.617 -0.5838  1.6098 -0.0359
 3775SOL    HW222788   0.249   4.682  10.549 -0.0822 -1.0702 -3.3200
 3776SOL     OW22789   1.837   3.679  15.845  0.6538  0.1494  0.2430
 3776SOL    HW122790   1.743   3.663  15.834  1.0990 -1.7272 -0.7726
 3776SOL    HW222791   1.844   3.727  15.763 -1.7119 -2.6742 -1.6154
 3777SOL     OW22792   2.335   3.552  13.919 -0.2824  0.7388 -0.1544
 3777SOL    HW122793   2.405   3.571  13.982  0.0395  0.3947 -0.4058
 3777SOL    HW222794   2.387   3.517  13.847  1.2316 -0.8643  1.7046
 3778SOL     OW22795   1.660   2.673   9.985  0.1859 -0.1645 -0.7875
 3778SOL    HW122796   1.687   2.632  10.067  1.1657  2.6342  0.2991
 3778SOL    HW222797   1.684   2.606   9.922  0.6220  0.2010 -1.0109
 3779SOL     OW22798   4.264   3.823   5.985 -0.1065 -0.4299  0.4232
 3779SOL    HW122799   4.174   3.820   5.953  0.3432  2.6939 -1.1197
 3779SOL    HW222800   4.248   3.865   6.070 -0.8940 -1.1190  0.6204
 3780SOL     OW22801   3.962   4.211   5.159 -0.1388  0.2777  0.3884
 3780SOL    HW122802   3.988   4.212   5.252  2.1072 -0.3489 -0.2328
 3780SOL    HW222803   4.037   4.258   5.125  0.7628 -1.5375 -0.1293
 3781SOL     OW22804   2.613   1.433  11.979 -0.3219  0.2329  0.3740
 3781SOL    HW122805   2.649   1.446  12.067  0.7630 -0.2549  0.0000
 3781SOL    HW222806   2.668   1.359  11.955  0.4260 -0.0504  2.9726
 3782SOL     OW22807   0.957   3.613   5.756  0.3075 -0.0202  0.8135
 3782SOL    HW122808   0.903   3.681   5.717  0.0245 -1.0714 -0.6325
 3782SOL    HW222809   0.960   3.554   5.680 -0.5108  0.4917  0.3823
 3783SOL     OW22810   1.035   0.407  12.683  0.1679 -0.0772 -0.3713
 3783SOL    HW122811   1.056   0.421  12.775  0.5405 -2.8813 -0.0188
 3783SOL    HW222812   1.069   0.318  12.681  0.1546 -0.0651 -1.1443
 3784SOL     OW22813   4.454   0.721  11.919 -0.3616 -0.5580 -0.4679
 3784SOL    HW122814   4.544   0.742  11.895  0.1074 -1.8168  0.1618
 3784SOL    HW222815   4.431   0.801  11.965  0.8585 -1.3965  1.5951
 3785SOL     OW22816   2.382   1.368   2.738  0.3682 -0.6528  0.2658
 3785SOL    HW122817   2.358   1.280   2.764  0.8355 -1.3485 -1.6371
 3785SOL    HW222818   2.298   1.389   2.696  0.8294  0.8802  0.0966
 3786SOL     OW22819   2.266   1.621   8.118  0.1700  0.0364  0.1142
 3786SOL    HW122820   2.264   1.587   8.029 -2.3525 -0.1135  0.2318
 3786SOL    HW222821   2.196   1.576   8.165 -0.6835  1.7288  0.4537
 3787SOL     OW22822   1.907   1.458   4.423 -0.0641 -0.4552  0.2748
 3787SOL    HW122823   1.956   1.383   4.389 -2.5840 -1.3528 -1.3996
 3787SOL    HW222824   1.925   1.471   4.516 -2.4422 -0.0151  0.6764
 3788SOL     OW22825   2.625   2.281  17.384  0.3796 -0.0824  0.8504
 3788SOL    HW122826   2.542   2.314  17.418  0.0787 -1.3881  1.3962
 3788SOL    HW222827   2.680   2.354  17.411  1.9596 -0.8515 -0.3030
 3789SOL     OW22828   0.171   3.554   7.462  0.6433  0.2174  0.0315
 3789SOL    HW122829   0.192   3.464   7.484 -2.3903 -0.6119 -0.4084
 3789SOL    HW222830   0.164   3.593   7.549 -0.9207  1.2591 -0.5536
 3790SOL     OW22831   2.261   4.189   8.524 -0.3653  0.0417  0.5492
 3790SOL    HW122832   2.177   4.233   8.508 -0.6832 -1.5453 -2.1197
 3790SOL    HW222833   2.305   4.203   8.440 -0.8075 -0.2211  0.2731
 3791SOL     OW22834   3.786   0.768   0.949 -0.2069 -0.9314 -0.9059
 3791SOL    HW122835   3.771   0.712   0.873 -0.4388 -0.3359 -1.2901
 3791SOL    HW222836   3.698   0.780   0.985  0.8201  1.0786  0.9456
 3792SOL     OW22837   0.965   3.940  11.520  0.1095  0.0024  0.1729
 3792SOL    HW122838   1.010   4.023  11.503 -0.7099  0.1587 -1.2601
 3792SOL    HW222839   0.984   3.883  11.445  2.5535  1.6868 -0.4986
 3793SOL     OW22840   4.135   4.031   4.310  1.0349  0.1805  0.0478
 3793SOL    HW122841   4.113   4.054   4.219  0.4667 -1.6334 -0.2704
 3793SOL    HW222842   4.046   4.027   4.345  1.2180 -1.7650  0.2534
 3794SOL     OW22843   1.390   3.970   5.548 -0.3090  0.3877 -0.0875
 3794SOL    HW122844   1.375   4.036   5.481  1.9612 -0.2893 -1.2892
 3794SOL    HW222845   1.408   4.016   5.629 -1.0841 -1.8541  1.3675
 3795SOL     OW22846   2.987   0.477   7.352 -0.7002  1.0985 -0.1982
 3795SOL    HW122847   3.069   0.454   7.306  0.7623  1.1755  2.3803
 3795SOL    HW222848   2.924   0.426   7.301 -0.4091 -0.2823  0.8289
 3796SOL     OW22849   2.702   3.880   1.611  0.3704 -0.5633 -0.4312
 3796SOL    HW122850   2.628   3.820   1.601  1.3066 -1.4757 -1.9067
 3796SOL    HW222851   2.758   3.831   1.670 -1.8762 -2.0204  0.5081
 3797SOL     OW22852   2.631   2.785   6.886 -0.0647 -0.4782 -0.2080
 3797SOL    HW122853   2.576   2.853   6.847  0.1258 -0.3884 -0.3233
 3797SOL    HW222854   2.568   2.736   6.937  2.5636 -0.5262  2.9811
 3798SOL     OW22855   1.106   3.291  16.876 -0.6645  0.6505 -0.5593
 3798SOL    HW122856   1.018   3.258  16.893 -0.3772  0.2005  0.0626
 3798SOL    HW222857   1.095   3.382  16.903  0.4777  0.8561 -0.7650
 3799SOL     OW22858   1.365   1.636   0.525 -0.4152 -0.1361 -0.2267
 3799SOL    HW122859   1.357   1.726   0.555  0.3026  0.1674 -0.9541
 3799SOL    HW222860   1.282   1.617   0.482 -1.3768  0.1105  1.5043
 3800SOL     OW22861   3.921   4.664  10.522  0.1144 -0.0739  0.7855
 3800SOL    HW122862   3.991   4.678  10.457 -1.2946 -0.7120 -0.8786
 3800SOL    HW222863   3.952   4.593  10.578 -1.4281 -0.8408  0.6530
 3801SOL     OW22864   4.285   3.171   5.499  0.3686  0.1138 -0.1723
 3801SOL    HW122865   4.243   3.195   5.582 -0.5856  0.6676 -0.8178
 3801SOL    HW222866   4.297   3.257   5.459 -0.7756  1.5353  2.5451
 3802SOL     OW22867   4.494   0.979   9.551  0.1962 -0.0414  0.1735
 3802SOL    HW122868   4.448   0.971   9.468 -1.7074 -0.5409  1.2650
 3802SOL    HW222869   4.431   0.936   9.609  2.1287 -1.2344  1.3982
 3803SOL     OW22870   3.180   2.244   4.832  0.0737  0.0093  0.3234
 3803SOL    HW122871   3.153   2.270   4.744 -0.2457 -0.3132  0.3259
 3803SOL    HW222872   3.100   2.209   4.872  0.3276 -3.5879 -2.3031
 3804SOL     OW22873   4.145   2.768   1.699 -0.2500  0.1074 -0.1450
 3804SOL    HW122874   4.223   2.786   1.647 -1.6201  0.9706 -1.9176
 3804SOL    HW222875   4.072   2.807   1.651 -1.5487 -1.7205  0.3178
 3805SOL     OW22876   4.068   2.311   7.966 -0.2884 -0.4218  0.4773
 3805SOL    HW122877   4.137   2.373   7.990  0.6237  0.2596 -3.9441
 3805SOL    HW222878   4.121   2.232   7.949 -0.5824 -0.2900 -1.0016
 3806SOL     OW22879   3.388   0.034   5.385 -0.7512  0.1439 -0.3129
 3806SOL    HW122880   3.322   4.699   5.348 -0.0212 -0.7249 -0.2435
 3806SOL    HW222881   3.404   4.717   5.470  1.8030  0.1154 -0.7908
 3807SOL     OW22882   1.280   1.342  10.884 -0.6645 -0.1139 -0.1997
 3807SOL    HW122883   1.282   1.329  10.979 -0.0797 -0.8077 -0.3066
 3807SOL    HW222884   1.266   1.257  10.841  3.2557 -0.9157  0.0221
 3808SOL     OW22885   2.359   4.168   5.066  0.2589  0.2516  0.4221
 3808SOL    HW122886   2.444   4.166   5.021 -1.1920  0.7157 -2.3391
 3808SOL    HW222887   2.371   4.104   5.135 -0.0356 -1.8211 -1.4510
 3809SOL     OW22888   3.428   3.980  11.253  0.0820 -0.0992  0.1891
 3809SOL    HW122889   3.480   4.029  11.317 -1.3219  1.9935 -0.2329
 3809SOL    HW222890   3.431   3.894  11.294  0.6422  0.4350  1.2775
 3810SOL     OW22891   1.327   3.435   5.493  0.6307 -0.1443  0.1751
 3810SOL    HW122892   1.383   3.422   5.569 -0.4390 -0.9598  0.8254
 3810SOL    HW222893   1.335   3.530   5.497 -0.4441  0.0374 -2.0099
 3811SOL     OW22894   1.244   2.462   8.059 -0.1783 -0.3020 -0.9724
 3811SOL    HW122895   1.288   2.438   8.140  0.4179 -0.2920 -1.2929
 3811SOL    HW222896   1.270   2.554   8.060 -4.5074  0.9144 -0.0709
 3812SOL     OW22897   3.062   1.800   7.912  0.0807 -0.1681  0.4935
 3812SOL    HW122898   3.122   1.841   7.975  0.9914 -1.1406  0.2577
 3812SOL    HW222899   3.111   1.791   7.830 -1.8669  3.3077 -1.0511
 3813SOL     OW22900   2.447   2.393   5.572  0.2387  0.3912 -0.0387
 3813SOL    HW122901   2.449   2.468   5.631  1.3905  1.2460 -1.1656
 3813SOL    HW222902   2.428   2.323   5.635  0.7669  0.9918  0.7751
 3814SOL     OW22903   1.246   3.208   1.987  0.3376 -0.0377 -0.2058
 3814SOL    HW122904   1.187   3.147   2.031  2.1599 -1.6042  0.0619
 3814SOL    HW222905   1.185   3.280   1.970  2.5764  1.9567  0.0488
 3815SOL     OW22906   1.391   0.942   5.400 -0.0920 -0.0549  0.0570
 3815SOL    HW122907   1.380   1.005   5.330 -1.9187 -0.4067  0.0163
 3815SOL    HW222908   1.408   0.994   5.478  0.3331 -0.2324  0.0826
 3816SOL     OW22909   4.458   4.486   4.596  0.5578 -0.3074  0.0904
 3816SOL    HW122910   4.429   4.468   4.506 -1.9021 -1.0713  1.0334
 3816SOL    HW222911   4.470   4.581   4.598 -1.3052 -0.1256  2.4214
 3817SOL     OW22912   2.737   1.687   4.092 -0.7207  0.3328 -0.2526
 3817SOL    HW122913   2.727   1.661   4.183 -1.4699 -0.7746 -0.6434
 3817SOL    HW222914   2.739   1.782   4.104  3.2330  0.2353 -0.0176
 3818SOL     OW22915   1.906   2.571   1.120  0.8867  0.0197 -0.4755
 3818SOL    HW122916   1.983   2.621   1.096  0.4718  0.9310  0.0878
 3818SOL    HW222917   1.891   2.530   1.035  0.9463  0.0120 -0.4817
 3819SOL     OW22918   4.550   0.371   8.726  0.3814  0.0990 -0.1017
 3819SOL    HW122919   4.635   0.410   8.745  0.3700  0.5495 -0.9541
 3819SOL    HW222920   4.515   0.349   8.812  1.5398 -3.1844 -0.4524
 3820SOL     OW22921   1.297   3.282   1.654  0.0094  0.1930 -0.2781
 3820SOL    HW122922   1.279   3.362   1.705 -1.4935 -0.3323  0.0203
 3820SOL    HW222923   1.265   3.303   1.567  0.0420 -0.4433 -0.4411
 3821SOL     OW22924   0.867   4.246  10.814  0.4980 -0.0994 -0.0488
 3821SOL    HW122925   0.849   4.256  10.907 -0.0348 -0.2418 -0.1377
 3821SOL    HW222926   0.910   4.328  10.792  2.1101 -0.7329  0.7693
 3822SOL     OW22927   3.051   1.407   0.563 -0.6687  0.1350  0.3151
 3822SOL    HW122928   3.011   1.372   0.643  0.6622 -0.5566  0.6805
 3822SOL    HW222929   3.132   1.356   0.560 -1.6061 -1.5408  3.0820
 3823SOL     OW22930   0.578   1.149   6.746  0.6806 -0.9342 -0.0294
 3823SOL    HW122931   0.653   1.096   6.773  1.6128 -0.2353 -1.2271
 3823SOL    HW222932   0.517   1.076   6.738 -0.0340 -0.3071 -0.3033
 3824SOL     OW22933   3.271   1.123   8.116 -0.2003  0.3052 -0.0700
 3824SOL    HW122934   3.236   1.207   8.143  0.5588  0.4381  0.5115
 3824SOL    HW222935   3.213   1.064   8.164 -0.2353 -1.6253 -2.4705
 3825SOL     OW22936   4.308   3.797   8.813 -0.1322 -0.1334 -0.2447
 3825SOL    HW122937   4.247   3.724   8.801  0.0570 -0.2197 -0.6901
 3825SOL    HW222938   4.356   3.762   8.889  0.6370  0.3617 -0.4932
 3826SOL     OW22939   0.400   2.233   6.299  0.5942  0.0616 -0.2096
 3826SOL    HW122940   0.384   2.147   6.260  1.0939 -1.2985  2.5470
 3826SOL    HW222941   0.427   2.213   6.388  0.3419  0.3673 -0.0625
 3827SOL     OW22942   2.280   3.216   6.389  0.1733 -0.2288 -0.3041
 3827SOL    HW122943   2.363   3.169   6.394  1.0553  1.4396  0.6205
 3827SOL    HW222944   2.225   3.171   6.454  0.6000 -0.6796 -0.2564
 3828SOL     OW22945   1.137   3.852   2.584 -0.5382 -0.0604  0.1657
 3828SOL    HW122946   1.174   3.771   2.617 -2.8503  0.0976  3.2319
 3828SOL    HW222947   1.198   3.879   2.516 -0.4016  0.1435  0.3665
 3829SOL     OW22948   0.223   4.329   5.722 -0.0317 -0.3876 -0.1564
 3829SOL    HW122949   0.187   4.414   5.749  0.6802 -0.2371  0.3443
 3829SOL    HW222950   0.278   4.310   5.799  0.3978 -1.4785 -0.7397
 3830SOL     OW22951   3.927   3.784   6.964 -0.2609  0.4725  0.2338
 3830SOL    HW122952   3.920   3.871   6.924  0.6795  0.0993 -0.7144
 3830SOL    HW222953   3.981   3.789   7.043 -1.2668 -2.5702  1.1191
 3831SOL     OW22954   3.633   2.728   5.856 -0.1481  0.2943 -0.3211
 3831SOL    HW122955   3.714   2.691   5.891 -0.2845 -0.7223 -1.0940
 3831SOL    HW222956   3.672   2.758   5.774 -0.4626 -2.3453 -1.4257
 3832SOL     OW22957   3.942   2.112   9.361 -0.2637 -0.0570  0.6525
 3832SOL    HW122958   3.915   2.127   9.452  2.1866  0.2102  1.3459
 3832SOL    HW222959   3.860   2.117   9.312 -1.2546 -0.2855  2.2576
 3833SOL     OW22960   2.674   1.196   4.557  0.5696  0.6727 -0.3881
 3833SOL    HW122961   2.670   1.191   4.462  1.6900 -3.1318 -0.2214
 3833SOL    HW222962   2.684   1.103   4.577 -0.6842  0.7371  0.5523
 3834SOL     OW22963   0.155   1.628  11.285  0.1821 -0.1276 -0.3044
 3834SOL    HW122964   0.122   1.623  11.195 -0.1719  3.0328 -0.3534
 3834SOL    HW222965   0.172   1.540  11.319  0.6559 -0.0762 -0.4124
 3835SOL     OW22966   2.072   3.534   8.370  0.2053  0.8120  0.4435
 3835SOL    HW122967   2.079   3.473   8.296  0.0807  2.2077 -0.7211
 3835SOL    HW222968   1.999   3.577   8.327  1.5929  0.5845 -2.1478
 3836SOL     OW22969   0.078   4.699   0.325  0.2764 -0.1268  0.2442
 3836SOL    HW122970   0.138   0.022   0.382 -0.7216  1.6825 -0.1910
 3836SOL    HW222971   0.124   4.616   0.311  0.5780  0.0945 -0.0573
 3837SOL     OW22972   2.769   0.811   6.652  0.0945  0.0051 -0.4739
 3837SOL    HW122973   2.781   0.887   6.709  1.0674 -2.3916  2.5220
 3837SOL    HW222974   2.754   0.846   6.564 -1.0541 -1.5450 -0.9056
 3838SOL     OW22975   3.365   2.485   6.606 -0.0114  0.0894 -0.3333
 3838SOL    HW122976   3.441   2.445   6.648  0.2321 -0.6253 -1.4468
 3838SOL    HW222977   3.300   2.417   6.617  2.4436 -2.3768 -1.0328
 3839SOL     OW22978   0.569   1.627   2.990  0.0806  0.5625  0.2389
 3839SOL    HW122979   0.542   1.546   2.946  1.3588  0.0594  0.3824
 3839SOL    HW222980   0.655   1.642   2.951  0.5730  1.4098  1.6528
 3840SOL     OW22981   2.367   1.212  14.095 -0.0531  0.2148  0.2966
 3840SOL    HW122982   2.455   1.196  14.128 -0.9294 -1.4382  1.8022
 3840SOL    HW222983   2.325   1.272  14.156  1.0602  0.9727  0.3250
 3841SOL     OW22984   0.943   3.938   1.228 -0.1449  0.5662 -0.3266
 3841SOL    HW122985   1.010   3.916   1.293 -1.1830 -0.2365  0.4769
 3841SOL    HW222986   0.999   3.993   1.174  1.0983  0.5031  0.8826
 3842SOL     OW22987   2.776   2.703   2.319  0.1711 -0.3564 -0.1977
 3842SOL    HW122988   2.870   2.721   2.325  0.0575  0.8618 -1.9402
 3842SOL    HW222989   2.742   2.791   2.301 -1.0446 -1.0912 -1.4873
 3843SOL     OW22990   0.954   0.578   1.929  0.2378  0.4850 -0.0541
 3843SOL    HW122991   0.956   0.564   2.024  3.0312  1.4732  0.0111
 3843SOL    HW222992   0.873   0.629   1.930  0.5129  0.9099  0.8598
 3844SOL     OW22993   1.369   1.363   6.106 -0.1265 -0.1345  0.2630
 3844SOL    HW122994   1.339   1.315   6.184  1.7256  0.1104  1.1317
 3844SOL    HW222995   1.312   1.439   6.098 -0.6752 -0.9273 -3.4374
 3845SOL     OW22996   4.703   0.946   3.843 -0.6806  0.1564 -0.2874
 3845SOL    HW122997   0.016   1.034   3.844 -1.1909  0.3651 -0.6828
 3845SOL    HW222998   0.056   0.893   3.869 -0.6408  1.2263  1.7631
 3846SOL     OW22999   3.920   3.589   4.589 -0.1327  0.3788 -0.4578
 3846SOL    HW123000   3.871   3.584   4.507 -0.9240  1.9680 -0.0850
 3846SOL    HW223001   4.011   3.582   4.561 -0.0540  0.5435 -0.2356
 3847SOL     OW23002   3.886   2.199  16.936 -0.2441  1.0063 -0.8765
 3847SOL    HW123003   3.915   2.178  17.025  0.3250 -0.8061 -1.4934
 3847SOL    HW223004   3.969   2.241  16.914  0.6779 -0.5300 -0.3454
 3848SOL     OW23005   3.557   2.281   5.323  0.1015 -0.1802  0.2907
 3848SOL    HW123006   3.469   2.267   5.358  1.5644 -0.8440  3.6781
 3848SOL    HW223007   3.592   2.359   5.366 -1.4027  0.4123  0.4601
 3849SOL     OW23008   3.658   3.835   4.619 -0.0562  0.3171 -0.1616
 3849SOL    HW123009   3.651   3.792   4.533  1.0309  0.6517 -0.4200
 3849SOL    HW223010   3.749   3.866   4.616  0.0999 -0.0869  0.4956
 3850SOL     OW23011   3.036   4.666   6.651 -0.3055 -0.2799  0.6518
 3850SOL    HW123012   3.038   4.585   6.702  0.3111 -1.4723 -1.2565
 3850SOL    HW223013   3.121   4.709   6.659  1.4246 -3.2935 -1.5293
 3851SOL     OW23014   3.845   3.037   5.239 -0.0374 -0.2664 -0.5892
 3851SOL    HW123015   3.752   3.016   5.235  0.1611 -1.0485 -1.0984
 3851SOL    HW223016   3.879   2.949   5.224  1.3805 -0.1521  1.9888
 3852SOL     OW23017   2.204   4.394   0.614  0.2198  0.2355 -0.0786
 3852SOL    HW123018   2.209   4.387   0.709  0.7425 -1.6948 -0.2388
 3852SOL    HW223019   2.140   4.465   0.614  2.9696  2.6997  0.3176
 3853SOL     OW23020   2.549   0.284   8.494  0.3836 -0.4696 -0.2662
 3853SOL    HW123021   2.638   0.286   8.461  0.8285  0.3640  0.9672
 3853SOL    HW223022   2.556   0.213   8.558 -3.1084 -1.6236 -1.1137
 3854SOL     OW23023   3.526   1.548   3.451  0.9574  0.2497 -0.3557
 3854SOL    HW123024   3.442   1.582   3.418  0.3156 -3.7192 -2.7843
 3854SOL    HW223025   3.502   1.461   3.483 -0.1302  0.1569 -1.3951
 3855SOL     OW23026   0.662   1.030   9.020 -0.2360 -0.2858 -0.5424
 3855SOL    HW123027   0.654   1.023   8.925 -1.1200 -1.2181 -0.3950
 3855SOL    HW223028   0.719   1.105   9.034 -1.0100  0.4908 -1.5876
 3856SOL     OW23029   0.878   3.879   2.571  0.3651  0.3624 -0.4158
 3856SOL    HW123030   0.852   3.787   2.574 -0.4536  0.6022 -0.3198
 3856SOL    HW223031   0.973   3.864   2.568  0.1642 -1.3584  1.7412
 3857SOL     OW23032   2.518   1.842  15.968 -0.0051 -0.1173 -0.6257
 3857SOL    HW123033   2.516   1.868  15.876 -0.3345  0.4439 -0.4653
 3857SOL    HW223034   2.509   1.932  15.999 -1.8070 -0.7624  0.7205
 3858SOL     OW23035   4.045   3.884   0.241  0.2281  0.0008  0.2558
 3858SOL    HW123036   3.998   3.958   0.201  1.8093  1.7455  1.6477
 3858SOL    HW223037   4.018   3.893   0.332  0.0341  0.8262  0.1164
 3859SOL     OW23038   3.138   2.230  12.778 -0.0034 -0.0597 -0.4266
 3859SOL    HW123039   3.120   2.298  12.844 -1.3101 -1.2963  0.4750
 3859SOL    HW223040   3.089   2.156  12.814  0.3027  1.0003  2.2375
 3860SOL     OW23041   2.522   3.316   4.075 -0.6550  0.6929  0.1890
 3860SOL    HW123042   2.579   3.387   4.104 -0.2761  0.4238  0.1119
 3860SOL    HW223043   2.570   3.292   3.996 -1.9360  1.1147 -0.7191
 3861SOL     OW23044   0.408   3.909  10.958  0.0457 -0.3375 -0.2733
 3861SOL    HW123045   0.378   3.853  10.886  1.3268 -2.1260  0.5844
 3861SOL    HW223046   0.327   3.956  10.980 -0.1670 -0.4340 -0.8434
 3862SOL     OW23047   2.748   1.583   2.858 -0.4245  0.0963 -0.3374
 3862SOL    HW123048   2.791   1.510   2.813 -3.4150 -0.0957 -2.8547
 3862SOL    HW223049   2.675   1.542   2.904  0.3743  0.3016  1.1116
 3863SOL     OW23050   4.630   0.517   6.184 -0.1664 -0.8818 -0.1328
 3863SOL    HW123051   4.692   0.552   6.120  1.7127 -4.0054 -0.0143
 3863SOL    HW223052   4.671   0.433   6.205 -0.1301 -0.9311 -0.3947
 3864SOL     OW23053   1.347   1.735  13.401  0.0649 -0.0608 -0.2233
 3864SOL    HW123054   1.306   1.811  13.360 -0.1816 -0.0146  0.1090
 3864SOL    HW223055   1.412   1.715  13.335 -0.3222 -1.5967 -0.1294
 3865SOL     OW23056   0.066   3.330   8.181 -0.1196 -0.3830  0.0654
 3865SOL    HW123057   0.084   3.400   8.245 -3.3661  0.0274  0.4935
 3865SOL    HW223058   0.127   3.361   8.114 -0.9865 -2.1580 -1.5142
 3866SOL     OW23059   4.126   2.620  16.325 -0.4587 -0.1883  0.2357
 3866SOL    HW123060   4.213   2.656  16.341  0.2809 -1.4974 -0.8288
 3866SOL    HW223061   4.078   2.698  16.298  2.0955  1.6003  0.8014
 3867SOL     OW23062   2.495   4.552   0.746  0.0812 -0.5472 -0.0660
 3867SOL    HW123063   2.533   4.564   0.833  1.9455  1.1429 -1.1228
 3867SOL    HW223064   2.408   4.592   0.754  0.7526  0.7482  0.6994
 3868SOL     OW23065   1.922   4.185   5.849  0.2564 -0.2951  0.0539
 3868SOL    HW123066   1.845   4.185   5.906  0.2016 -2.5691 -0.0324
 3868SOL    HW223067   1.896   4.199   5.759 -1.8749  2.2742  1.0913
 3869SOL     OW23068   4.139   3.781   5.664  0.3206 -0.5423 -0.9423
 3869SOL    HW123069   4.061   3.803   5.715 -0.5538  1.9865 -3.3886
 3869SOL    HW223070   4.162   3.709   5.723  0.5198  1.8196  1.8988
 3870SOL     OW23071   4.513   2.621   9.780 -0.1675  0.0304  0.2434
 3870SOL    HW123072   4.469   2.553   9.730 -0.8671  0.7262 -0.0852
 3870SOL    HW223073   4.589   2.640   9.724 -0.4355  1.0495  0.2261
 3871SOL     OW23074   3.266   0.550   7.053 -0.3728  0.0706  0.2038
 3871SOL    HW123075   3.171   0.549   7.047 -0.1527 -0.3518 -3.5305
 3871SOL    HW223076   3.293   0.591   6.970 -0.3442 -1.7118 -0.6597
 3872SOL     OW23077   0.315   2.792  13.046  0.1926 -0.7506  0.7254
 3872SOL    HW123078   0.388   2.853  13.046 -0.8690  0.5104 -0.6641
 3872SOL    HW223079   0.289   2.800  13.138 -1.6520  0.4085  0.1042
 3873SOL     OW23080   0.937   3.303   2.722  0.1402 -0.3595 -0.3683
 3873SOL    HW123081   1.016   3.330   2.676 -0.4438 -1.1440 -1.8248
 3873SOL    HW223082   0.862   3.304   2.663 -1.2057 -0.6232  1.3099
 3874SOL     OW23083   1.784   4.585   2.006 -0.9715  0.2618 -0.4348
 3874SOL    HW123084   1.821   4.608   2.091 -1.3685 -0.1986 -0.1355
 3874SOL    HW223085   1.861   4.610   1.956 -1.3769  0.0068 -1.1879
 3875SOL     OW23086   4.209   3.097  16.455  0.3420 -0.0393 -0.2097
 3875SOL    HW123087   4.187   3.183  16.489  1.0436  0.1998 -0.3461
 3875SOL    HW223088   4.298   3.116  16.425  1.1384 -0.0055  2.1536
 3876SOL     OW23089   1.154   2.630   3.761  0.2858 -0.2954 -0.1050
 3876SOL    HW123090   1.107   2.562   3.713 -2.1128  1.3629 -0.0901
 3876SOL    HW223091   1.175   2.701   3.701 -0.2614  0.9547  1.1952
 3877SOL     OW23092   1.407   2.244   2.821  0.2295 -0.2002  0.0934
 3877SOL    HW123093   1.327   2.209   2.861  0.5332  1.4834  2.1778
 3877SOL    HW223094   1.408   2.325   2.872  3.2647  1.2125 -2.1693
 3878SOL     OW23095   2.239   1.117   5.172  0.6019  0.3089  0.4138
 3878SOL    HW123096   2.193   1.034   5.168 -0.8004  1.0763  0.4600
 3878SOL    HW223097   2.279   1.118   5.259  0.7632  0.4666  0.3393
 3879SOL     OW23098   1.851   3.577   3.440  0.3798 -0.7803 -0.1580
 3879SOL    HW123099   1.935   3.553   3.479  1.4924  2.1346 -0.7626
 3879SOL    HW223100   1.848   3.673   3.446 -0.1062 -0.7240 -1.2845
 3880SOL     OW23101   4.638   0.856  16.614  0.0792  0.1561 -0.1805
 3880SOL    HW123102   4.584   0.784  16.648  0.2648  0.3959  0.6251
 3880SOL    HW223103   4.577   0.928  16.630  0.2391  0.4871 -1.1072
 3881SOL     OW23104   1.774   2.582   6.646 -0.0826 -0.3605 -0.0177
 3881SOL    HW123105   1.849   2.524   6.655 -0.3846 -0.8665 -0.7159
 3881SOL    HW223106   1.796   2.650   6.710 -1.4794 -1.7897  1.9569
 3882SOL     OW23107   2.053   2.569  16.577  0.1718 -0.2865 -0.2814
 3882SOL    HW123108   2.015   2.624  16.646  0.4505 -1.1319  0.5453
 3882SOL    HW223109   2.128   2.528  16.618  0.5014  3.7176  3.1622
 3883SOL     OW23110   2.446   0.131   7.353 -0.2425  0.1248  0.3002
 3883SOL    HW123111   2.426   0.038   7.339  2.2603 -0.5297  1.0710
 3883SOL    HW223112   2.448   0.162   7.262 -0.2969 -0.2881  0.1556
 3884SOL     OW23113   4.457   2.218   7.582 -0.2720 -0.2995  0.0087
 3884SOL    HW123114   4.452   2.191   7.673 -1.0661  1.7331  0.5831
 3884SOL    HW223115   4.494   2.141   7.540 -4.1411 -1.8153 -0.5712
 3885SOL     OW23116   1.079   2.920   3.756 -1.0278 -0.4712  0.0982
 3885SOL    HW123117   1.083   2.913   3.851 -1.1493 -0.6978  0.0856
 3885SOL    HW223118   0.996   2.965   3.739 -1.2590 -0.3671  1.4596
 3886SOL     OW23119   1.858   4.500  17.614 -0.0415 -0.3509  0.2590
 3886SOL    HW123120   1.921   4.434  17.586 -0.4573  0.0834 -1.6971
 3886SOL    HW223121   1.810   4.454  17.682  1.7995 -1.2901  0.9145
 3887SOL     OW23122   4.289   1.350   4.220  0.1675  0.0885  0.6739
 3887SOL    HW123123   4.215   1.375   4.164  0.0631 -0.1542  0.7048
 3887SOL    HW223124   4.341   1.431   4.219 -1.4709  1.1532  2.0309
 3888SOL     OW23125   1.754   4.479   0.922  0.5320 -0.2601  0.4938
 3888SOL    HW123126   1.694   4.553   0.911 -1.0198 -1.3127  1.8315
 3888SOL    HW223127   1.819   4.486   0.852  1.1338 -0.0769  1.0678
 3889SOL     OW23128   2.558   1.280  16.163 -0.5497 -0.2494 -0.2955
 3889SOL    HW123129   2.495   1.294  16.092 -1.2407  0.6089  0.4874
 3889SOL    HW223130   2.528   1.351  16.220  0.6801 -0.6533  0.8512
 3890SOL     OW23131   0.100   4.616   4.111  0.3383 -0.2959 -0.1445
 3890SOL    HW123132   0.109   4.586   4.021  1.4674 -0.4895  0.0404
 3890SOL    HW223133   0.011   4.652   4.114  0.2923 -0.5309  1.1871
 3891SOL     OW23134   1.412   2.692   6.226  0.4016  1.0497 -0.1772
 3891SOL    HW123135   1.500   2.699   6.189  0.3231 -1.8242 -0.9306
 3891SOL    HW223136   1.410   2.781   6.260 -0.6257  1.2072 -0.6638
 3892SOL     OW23137   0.631   4.393   2.836 -0.2012  0.4918 -0.7697
 3892SOL    HW123138   0.714   4.440   2.835 -0.3025  0.6748 -0.5872
 3892SOL    HW223139   0.626   4.354   2.748  0.4773 -0.2617 -0.4740
 3893SOL     OW23140   2.728   2.707   4.726  0.2776 -0.3229 -0.1259
 3893SOL    HW123141   2.765   2.786   4.687 -0.2123 -0.0902 -0.1193
 3893SOL    HW223142   2.804   2.669   4.770  0.1761  1.7835  1.8883
 3894SOL     OW23143   3.816   0.586   8.228  0.1050 -0.1004  0.1595
 3894SOL    HW123144   3.793   0.496   8.253 -2.4521  0.0256 -1.7241
 3894SOL    HW223145   3.782   0.586   8.139  1.3961 -0.4378 -0.3313
 3895SOL     OW23146   2.497   3.162  16.107 -0.1548  0.5313 -0.0453
 3895SOL    HW123147   2.425   3.190  16.163 -0.5620 -0.1063 -0.2425
 3895SOL    HW223148   2.556   3.123  16.171 -2.7257 -1.2423  1.2363
 3896SOL     OW23149   0.295   0.615   4.541  0.2619 -0.1873  0.0537
 3896SOL    HW123150   0.377   0.657   4.517  1.1968 -1.0896  1.7200
 3896SOL    HW223151   0.286   0.576   4.454  0.2868 -2.3640  1.0292
 3897SOL     OW23152   2.017   3.944   3.203  1.2159  0.2606  0.4149
 3897SOL    HW123153   1.970   3.993   3.135 -1.0453 -1.5256  0.6867
 3897SOL    HW223154   2.066   4.016   3.241  2.5528 -1.2079  1.4580
 3898SOL     OW23155   1.891   4.164   7.382 -0.5381 -0.1648 -0.4904
 3898SOL    HW123156   1.796   4.179   7.384 -0.2838  1.8020 -2.7068
 3898SOL    HW223157   1.929   4.222   7.448 -0.7104  0.0637 -0.5898
 3899SOL     OW23158   1.086   0.524   2.298 -0.9480  0.0964  0.7046
 3899SOL    HW123159   1.117   0.497   2.385 -0.8802  0.2661  0.7314
 3899SOL    HW223160   1.098   0.617   2.315  0.8998  0.0240 -0.1943
 3900SOL     OW23161   0.690   2.034  12.577 -0.2709  0.4113 -0.3268
 3900SOL    HW123162   0.778   2.033  12.614  0.6001 -3.4005 -2.4973
 3900SOL    HW223163   0.703   2.081  12.494 -1.6147  2.5441  0.6853
 3901SOL     OW23164   3.845   2.243   0.248  0.1278  0.0321  0.0517
 3901SOL    HW123165   3.858   2.225   0.341  0.3965  1.0286  0.1999
 3901SOL    HW223166   3.835   2.338   0.250  1.9676  0.3042 -3.4611
 3902SOL     OW23167   3.275   3.081   5.940  0.1923 -0.1356  0.5994
 3902SOL    HW123168   3.218   3.105   6.013  1.0123  1.9481  0.5487
 3902SOL    HW223169   3.218   3.018   5.895  0.4528 -0.0496  0.1577
 3903SOL     OW23170   3.869   3.931   3.803 -0.3115  0.0342 -0.5236
 3903SOL    HW123171   3.902   3.904   3.717 -0.4591 -0.6746 -0.3566
 3903SOL    HW223172   3.950   3.899   3.842  0.1425  1.7443 -0.0755
 3904SOL     OW23173   0.230   2.719  12.005  1.0109  0.1157  0.3010
 3904SOL    HW123174   0.282   2.770  11.944 -1.7378  0.9961 -1.3213
 3904SOL    HW223175   0.145   2.702  11.963  1.4688 -0.1548 -0.5052
 3905SOL     OW23176   0.824   3.312   1.638 -0.1198  0.0124  0.6496
 3905SOL    HW123177   0.765   3.378   1.600 -1.2345  0.5901  3.3423
 3905SOL    HW223178   0.760   3.272   1.698  1.0042 -0.3012  1.6355
 3906SOL     OW23179   3.548   2.632   1.004  0.6409 -0.5313  0.1202
 3906SOL    HW123180   3.566   2.709   0.950 -2.5686 -0.8727 -1.4630
 3906SOL    HW223181   3.638   2.600   1.010  1.1407  0.9484  0.3398
 3907SOL     OW23182   2.402   1.151  14.896 -0.0328  0.1938 -0.7407
 3907SOL    HW123183   2.353   1.155  14.814 -1.1332 -0.9865 -0.1380
 3907SOL    HW223184   2.362   1.223  14.946  0.0653  0.4441 -1.0181
 3908SOL     OW23185   1.735   2.341   7.243  0.0512  0.6363  0.2913
 3908SOL    HW123186   1.662   2.402   7.248 -0.6258 -0.0297 -1.4509
 3908SOL    HW223187   1.684   2.272   7.200  0.6600  0.9981 -1.0079
 3909SOL     OW23188   0.335   1.363   3.735  0.0181  0.0424  0.1379
 3909SOL    HW123189   0.317   1.422   3.808  2.1721  0.5243  0.2813
 3909SOL    HW223190   0.392   1.308   3.788 -1.8021 -0.9533  1.0887
 3910SOL     OW23191   1.972   3.201   3.690 -0.0405 -0.1180  0.0125
 3910SOL    HW123192   2.054   3.196   3.739  1.6383  0.1367 -2.7835
 3910SOL    HW223193   2.002   3.248   3.612 -0.7719  0.9802  0.3913
 3911SOL     OW23194   0.437   2.725   7.784 -0.0822  0.4753  0.3580
 3911SOL    HW123195   0.369   2.765   7.839  0.8370 -1.4410  2.8891
 3911SOL    HW223196   0.492   2.802   7.766 -0.3057  1.3610  3.4100
 3912SOL     OW23197   0.856   4.100   8.774  0.0594 -0.9950  0.1017
 3912SOL    HW123198   0.805   4.157   8.716 -0.2188  0.6346  1.9312
 3912SOL    HW223199   0.820   4.126   8.859 -1.2264 -0.5010 -0.5874
 3913SOL     OW23200   0.834   4.262  14.535 -0.0584  0.2444  0.1838
 3913SOL    HW123201   0.841   4.285  14.628  1.8591  1.7196 -0.3132
 3913SOL    HW223202   0.755   4.314  14.517 -0.6088 -0.2985  1.0653
 3914SOL     OW23203   4.686   1.121  11.719 -0.1215 -0.3190  0.4767
 3914SOL    HW123204   0.045   1.152  11.756 -0.8634  1.8527  0.3215
 3914SOL    HW223205   4.636   1.161  11.790 -0.6638  1.9510 -1.1808
 3915SOL     OW23206   1.451   2.632  15.459  0.0524  0.2031 -0.0420
 3915SOL    HW123207   1.397   2.605  15.384 -1.4825  0.7304  0.8720
 3915SOL    HW223208   1.512   2.558  15.458  1.1537  1.0906  1.9076
 3916SOL     OW23209   1.076   3.274  12.301  0.5449 -0.0835 -0.1944
 3916SOL    HW123210   1.009   3.312  12.358 -0.4279 -1.1256 -0.6473
 3916SOL    HW223211   1.067   3.333  12.226  1.8299 -0.6016 -0.7518
 3917SOL     OW23212   3.784   0.806   4.058  0.0571  0.1810 -0.6793
 3917SOL    HW123213   3.811   0.734   4.001 -0.3480 -2.1819  2.1426
 3917SOL    HW223214   3.689   0.800   4.047  0.2187  0.7917 -2.4382
 3918SOL     OW23215   0.555   2.935   8.917  0.7617 -0.7358 -0.5624
 3918SOL    HW123216   0.487   2.998   8.940 -0.1504 -2.2112  0.7502
 3918SOL    HW223217   0.542   2.916   8.825  1.0194  1.2489 -1.0161
 3919SOL     OW23218   4.057   4.135  16.643  0.6709  0.1032 -0.5842
 3919SOL    HW123219   4.113   4.061  16.666  0.8289 -0.6504 -3.4460
 3919SOL    HW223220   3.988   4.122  16.708  2.2932 -2.8156  0.5719
 3920SOL     OW23221   0.020   4.689   6.987 -0.0545  0.2545  0.3868
 3920SOL    HW123222   4.717   0.007   7.068  0.3418 -1.4172  1.3794
 3920SOL    HW223223   0.112   4.715   6.992  0.5186 -1.3817 -1.6217
 3921SOL     OW23224   0.761   3.596   7.823 -0.0782 -0.2996  0.2470
 3921SOL    HW123225   0.842   3.646   7.831  2.1554 -3.8540 -0.2545
 3921SOL    HW223226   0.692   3.661   7.810  1.2534  0.9106 -0.7650
 3922SOL     OW23227   3.034   0.208   7.596  0.7397 -0.5657  0.0431
 3922SOL    HW123228   2.974   0.226   7.524  1.0277  1.3976  0.2931
 3922SOL    HW223229   3.115   0.229   7.550  0.6979 -0.2315  0.1215
 3923SOL     OW23230   1.472   2.927  11.795  0.5463 -0.4308  0.9345
 3923SOL    HW123231   1.405   2.866  11.762  0.1351 -0.5550  2.0214
 3923SOL    HW223232   1.416   2.999  11.823  0.4698 -0.7082  1.4944
 3924SOL     OW23233   1.089   2.439   3.015  0.2776  0.2513 -0.2586
 3924SOL    HW123234   0.995   2.455   3.015  0.1688 -0.3624  0.8289
 3924SOL    HW223235   1.089   2.351   2.977 -0.7128  0.3267 -0.4330
 3925SOL     OW23236   1.812   1.561  17.138  0.1401  0.6070  0.3653
 3925SOL    HW123237   1.814   1.473  17.101  0.4330  1.7142 -2.2791
 3925SOL    HW223238   1.858   1.611  17.070  0.5813 -0.4624 -0.1162
 3926SOL     OW23239   1.171   4.502   2.260  0.2975  0.1286 -0.2934
 3926SOL    HW123240   1.141   4.416   2.290 -1.7518  0.3783 -1.5781
 3926SOL    HW223241   1.135   4.491   2.172 -0.7137  1.0305  0.0088
 3927SOL     OW23242   1.401   1.775   9.100 -0.5870 -0.0299 -0.2410
 3927SOL    HW123243   1.330   1.820   9.054 -1.2430  0.5415  1.3580
 3927SOL    HW223244   1.350   1.709   9.147 -0.1238 -0.1700  0.0637
 3928SOL     OW23245   2.634   2.949   2.218  0.2600  0.3343  0.2858
 3928SOL    HW123246   2.545   2.917   2.229  0.3198  0.1869  0.3480
 3928SOL    HW223247   2.618   3.036   2.182 -1.4938  0.6676  1.8502
 3929SOL     OW23248   0.106   0.411   3.331  0.4337 -0.0863 -0.1072
 3929SOL    HW123249   0.024   0.460   3.324  0.0843 -0.7174 -0.4530
 3929SOL    HW223250   0.076   0.356   3.404 -1.1217 -0.9962 -1.4283
 3930SOL     OW23251   4.559   2.048   8.548  0.2849 -0.4465  0.2492
 3930SOL    HW123252   4.610   2.087   8.619 -1.0529  0.4601  0.7115
 3930SOL    HW223253   4.484   2.108   8.551 -0.1759 -1.0325  0.2863
 3931SOL     OW23254   0.152   4.035  10.972 -0.4346 -0.1670  0.8913
 3931SOL    HW123255   0.078   4.083  11.007  0.2093  2.0582 -0.7962
 3931SOL    HW223256   0.181   4.095  10.903  0.4000 -2.6681 -0.9425
 3932SOL     OW23257   1.760   4.344   0.113  0.1429  0.8549 -0.3442
 3932SOL    HW123258   1.708   4.305   0.183  1.8164 -1.3444 -0.3161
 3932SOL    HW223259   1.825   4.397   0.159  0.4874 -0.3599  0.6046
 3933SOL     OW23260   0.334   4.322   4.790 -0.3959 -0.2795  0.0228
 3933SOL    HW123261   0.339   4.243   4.736 -0.6451  1.7703 -3.0049
 3933SOL    HW223262   0.251   4.300   4.832 -2.2920  0.6502 -3.2319
 3934SOL     OW23263   4.589   0.988  17.655 -0.0330 -0.4348 -0.3697
 3934SOL    HW123264   4.588   0.921   0.027  0.1315  0.5805  0.6562
 3934SOL    HW223265   4.628   1.059   0.011 -1.0491 -1.6128  2.0029
 3935SOL     OW23266   4.189   1.193   8.704  0.0940  0.3993  0.0839
 3935SOL    HW123267   4.142   1.188   8.787  3.1762 -1.4157  1.7061
 3935SOL    HW223268   4.275   1.194   8.746 -0.4450  1.9164  1.1561
 3936SOL     OW23269   1.088   0.862   0.350  0.0049 -0.8587 -0.5528
 3936SOL    HW123270   1.151   0.901   0.289 -0.1660 -0.5255 -0.5126
 3936SOL    HW223271   1.064   0.943   0.394  0.9086 -1.5411  1.2059
 3937SOL     OW23272   1.467   1.495   1.468  0.1428 -0.7212 -0.1754
 3937SOL    HW123273   1.447   1.421   1.526 -2.1044  0.5727  0.7133
 3937SOL    HW223274   1.459   1.573   1.524  0.9726  0.0446 -1.1122
 3938SOL     OW23275   3.423   4.417   3.675  0.2216 -0.2133  0.1283
 3938SOL    HW123276   3.370   4.387   3.601  2.3500 -1.8867 -0.7080
 3938SOL    HW223277   3.508   4.394   3.637  0.5394 -0.4120  0.9693
 3939SOL     OW23278   2.166   3.312   2.448 -0.0759  0.0947 -0.4730
 3939SOL    HW123279   2.150   3.331   2.356  0.5156 -2.5886 -1.1435
 3939SOL    HW223280   2.213   3.393   2.467 -1.6479  0.5143  1.6601
 3940SOL     OW23281   2.552   0.798   3.326 -0.4196 -0.2978  0.4925
 3940SOL    HW123282   2.461   0.800   3.297  0.1014 -1.8039 -1.3019
 3940SOL    HW223283   2.596   0.877   3.295 -0.1199  0.2340  2.3072
 3941SOL     OW23284   4.362   1.887  14.845  0.6495 -0.1052 -0.2089
 3941SOL    HW123285   4.318   1.944  14.783  0.1797  1.3456  1.4423
 3941SOL    HW223286   4.332   1.914  14.932  1.2679 -1.2500  0.3627
 3942SOL     OW23287   1.375   1.309   5.847  0.0423  0.0593  0.1277
 3942SOL    HW123288   1.370   1.324   5.942  0.7666 -3.1000  0.6428
 3942SOL    HW223289   1.289   1.338   5.818  0.4885  1.7184  0.4064
 3943SOL     OW23290   3.854   0.697  14.167  0.0531 -0.1110  0.0413
 3943SOL    HW123291   3.786   0.629  14.158  0.3557 -0.2716 -1.0065
 3943SOL    HW223292   3.796   0.773  14.164 -0.3619 -0.3714  1.1466
 3944SOL     OW23293   1.797   1.879   7.480  0.0187 -0.2211  0.3703
 3944SOL    HW123294   1.744   1.947   7.440  1.1058  1.1459  1.2749
 3944SOL    HW223295   1.874   1.924   7.516  0.8938 -1.3466 -0.0839
 3945SOL     OW23296   1.668   0.459   6.492  0.3749  0.1338  0.0701
 3945SOL    HW123297   1.722   0.524   6.447  1.9010 -0.4570  1.0642
 3945SOL    HW223298   1.702   0.469   6.581 -1.4609  2.8340  0.4464
 3946SOL     OW23299   2.066   2.913   2.697 -0.4863  0.1288 -0.0115
 3946SOL    HW123300   2.131   2.936   2.631  0.7688  0.6532  1.3970
 3946SOL    HW223301   2.005   2.858   2.649 -0.1700 -0.3893  0.1790
 3947SOL     OW23302   0.724   4.650   9.816  0.0560 -0.1030  0.2714
 3947SOL    HW123303   0.723   4.632   9.909 -0.9137 -1.0470  0.0658
 3947SOL    HW223304   0.645   4.605   9.785  0.5870 -0.5037 -0.5145
 3948SOL     OW23305   2.147   2.456   3.350  0.2828 -0.1252  0.1503
 3948SOL    HW123306   2.229   2.447   3.398 -0.8746  0.7021  2.2771
 3948SOL    HW223307   2.105   2.537   3.379  1.1748  0.0283  0.9861
 3949SOL     OW23308   3.851   1.034   0.903  0.5325  0.0398 -0.0359
 3949SOL    HW123309   3.924   1.029   0.841 -0.7840 -0.9247 -1.5008
 3949SOL    HW223310   3.825   0.942   0.907  3.2902 -0.7122  0.7434
 3950SOL     OW23311   0.154   1.314  17.639  0.4971  0.4470  0.1577
 3950SOL    HW123312   0.082   1.272  17.685  1.9203 -3.1621 -0.8418
 3950SOL    HW223313   0.108   1.341  17.559 -1.5501 -0.7884  0.9400
 3951SOL     OW23314   0.907   4.588   1.341 -0.4220  0.0059 -0.7743
 3951SOL    HW123315   0.959   4.601   1.262 -1.9591  1.3018 -1.5828
 3951SOL    HW223316   0.914   4.674   1.382 -0.0987 -1.0472  1.3432
 3952SOL     OW23317   0.134   4.300   5.203  0.2292 -0.1879 -0.1197
 3952SOL    HW123318   0.132   4.293   5.299  0.1621  0.8140 -0.0508
 3952SOL    HW223319   0.077   4.377   5.197 -0.2074 -0.5958 -1.0788
 3953SOL     OW23320   2.697   3.426   7.946 -0.8791 -0.4650 -0.3444
 3953SOL    HW123321   2.781   3.385   7.924 -0.8196  1.0441 -2.8823
 3953SOL    HW223322   2.663   3.347   7.988  2.2025 -1.1133  0.9627
 3954SOL     OW23323   0.984   3.882   5.635 -0.4571  0.3355 -0.3714
 3954SOL    HW123324   1.041   3.919   5.703 -0.1310 -0.4107 -0.2396
 3954SOL    HW223325   0.997   3.942   5.562 -0.5334 -0.9909 -1.4670
 3955SOL     OW23326   2.350   3.757   6.438 -0.4174  0.0422 -0.8769
 3955SOL    HW123327   2.319   3.671   6.409  0.7056 -1.0929  1.3338
 3955SOL    HW223328   2.436   3.733   6.475 -0.2815 -1.3147 -2.0589
 3956SOL     OW23329   3.418   2.363   4.526  0.2708  0.3750 -0.2248
 3956SOL    HW123330   3.457   2.408   4.601 -0.2371 -0.0138  0.2787
 3956SOL    HW223331   3.442   2.422   4.455 -0.1660  1.3286  0.4234
 3957SOL     OW23332   3.064   3.536   2.309  0.5651  0.3133 -0.3826
 3957SOL    HW123333   2.978   3.535   2.266  1.9952  0.5953 -3.2618
 3957SOL    HW223334   3.076   3.631   2.311 -2.3926  0.6758  0.2460
 3958SOL     OW23335   2.250   2.535   0.481 -0.7306  0.0778  0.6236
 3958SOL    HW123336   2.222   2.610   0.533 -1.1113 -1.0789  2.0698
 3958SOL    HW223337   2.176   2.479   0.501 -1.1697  1.1017  1.8470
 3959SOL     OW23338   1.072   2.419   3.591  0.2398  0.1911 -0.1840
 3959SOL    HW123339   1.032   2.371   3.519 -0.2623 -0.9429  0.8592
 3959SOL    HW223340   1.006   2.394   3.656  0.3790  0.5870  0.1061
 3960SOL     OW23341   1.999   3.317   2.713  0.3358 -0.0159  0.1206
 3960SOL    HW123342   2.032   3.249   2.654  1.7425  0.5702  0.2425
 3960SOL    HW223343   2.026   3.401   2.676 -0.3703  1.1065  2.1634
 3961SOL     OW23344   1.174   1.605  15.044  0.1061 -0.3056 -0.2862
 3961SOL    HW123345   1.180   1.522  14.995  0.6652 -2.1834  2.9743
 3961SOL    HW223346   1.162   1.665  14.971 -0.7226  1.3754  1.2460
 3962SOL     OW23347   0.698   0.828   0.441 -0.1916 -0.1618 -0.4656
 3962SOL    HW123348   0.773   0.879   0.468 -1.0351  0.4642  0.6831
 3962SOL    HW223349   0.707   0.762   0.510  2.3432  1.5576  0.8240
 3963SOL     OW23350   3.157   2.321   4.565 -0.8369  0.0294 -0.2225
 3963SOL    HW123351   3.245   2.349   4.538 -0.3065  0.1509  1.6362
 3963SOL    HW223352   3.156   2.242   4.510 -0.2144 -0.0322 -0.1470
 3964SOL     OW23353   2.684   4.066  16.555  0.1595  0.0789  0.6349
 3964SOL    HW123354   2.674   4.122  16.478 -0.4830 -0.1964  0.5152
 3964SOL    HW223355   2.666   3.981  16.514  1.9787  0.3783 -0.7780
 3965SOL     OW23356   4.113   4.548   4.721 -0.2298  0.3636 -0.2811
 3965SOL    HW123357   4.140   4.637   4.740 -0.3785 -0.0492  1.8377
 3965SOL    HW223358   4.043   4.532   4.784  0.1616  1.1615  0.3511
 3966SOL     OW23359   3.501   3.642   4.878  0.1874  0.3849  0.6633
 3966SOL    HW123360   3.522   3.695   4.955  0.5648  1.0983  0.0602
 3966SOL    HW223361   3.584   3.660   4.836 -0.2934 -0.0292 -0.4537
 3967SOL     OW23362   4.392   1.945   2.243  0.0663  0.0005  0.0387
 3967SOL    HW123363   4.481   1.981   2.239 -0.5971  1.7458  0.7803
 3967SOL    HW223364   4.353   2.019   2.289  1.0405  1.3719 -1.3499
 3968SOL     OW23365   0.208   1.696   7.365 -0.0272  0.0977 -0.1101
 3968SOL    HW123366   0.296   1.698   7.327 -0.3100  0.0067 -0.7771
 3968SOL    HW223367   0.217   1.687   7.459 -0.3917  1.2438  0.0338
 3969SOL     OW23368   1.146   4.159   8.478 -0.1377 -0.6741  0.0885
 3969SOL    HW123369   1.218   4.113   8.436  0.0683  0.0466 -0.3405
 3969SOL    HW223370   1.156   4.153   8.573 -0.9286  2.8251  0.4054
 3970SOL     OW23371   0.702   3.716   1.300 -0.6589  0.0150 -0.2572
 3970SOL    HW123372   0.657   3.632   1.289 -1.8326  0.4082  1.4841
 3970SOL    HW223373   0.627   3.776   1.307 -0.8933 -0.4254  1.0276
 3971SOL     OW23374   3.609   4.680   8.012  0.1400  0.5340 -0.0124
 3971SOL    HW123375   3.639   4.719   7.930  2.2350  1.1646  1.0515
 3971SOL    HW223376   3.556   0.028   8.048 -1.1901 -1.3416  1.8095
 3972SOL     OW23377   1.184   4.429  13.503 -0.0503 -0.3405  0.0193
 3972SOL    HW123378   1.257   4.372  13.478  0.5563  0.8525 -0.9347
 3972SOL    HW223379   1.108   4.384  13.466 -1.4385 -1.7696  4.5463
 3973SOL     OW23380   3.144   3.832  15.824 -0.0567 -0.3044 -0.1823
 3973SOL    HW123381   3.081   3.902  15.837 -1.5436 -1.6006 -0.3359
 3973SOL    HW223382   3.090   3.762  15.786  1.3838  0.4289 -3.6151
 3974SOL     OW23383   1.947   2.457  13.369 -0.3767 -0.0937 -0.3751
 3974SOL    HW123384   2.007   2.522  13.405 -1.9997  0.6447  0.9904
 3974SOL    HW223385   1.991   2.429  13.289  0.9726  1.1373 -0.0576
 3975SOL     OW23386   2.735   2.394  13.364  0.0527  0.1893 -0.2463
 3975SOL    HW123387   2.784   2.377  13.284 -0.5443  1.3520 -0.8620
 3975SOL    HW223388   2.792   2.372  13.438  2.4083  2.0902 -1.4762
 3976SOL     OW23389   1.044   3.437   1.740 -0.4029 -0.1885 -0.3572
 3976SOL    HW123390   0.986   3.504   1.775 -0.3754 -0.2949 -0.1072
 3976SOL    HW223391   0.979   3.371   1.717  0.0243 -1.2266  1.3937
 3977SOL     OW23392   0.692   4.010   4.895 -0.2045 -0.7256 -0.8062
 3977SOL    HW123393   0.678   4.104   4.896  0.7491 -0.5721 -2.6706
 3977SOL    HW223394   0.694   3.997   4.800 -1.1973 -1.8812 -0.6702
 3978SOL     OW23395   3.887   2.274   5.441 -0.5482  0.1805  0.0067
 3978SOL    HW123396   3.972   2.318   5.435 -0.9975  0.7846 -2.0232
 3978SOL    HW223397   3.826   2.329   5.392 -0.1321 -1.0407 -1.8780
 3979SOL     OW23398   3.440   3.983   4.376  0.4225  0.2131 -0.0430
 3979SOL    HW123399   3.370   4.048   4.370  0.2173  0.1077  1.2782
 3979SOL    HW223400   3.441   3.979   4.471  0.2284 -0.6057 -0.0704
 3980SOL     OW23401   3.835   0.010   7.336 -0.2512  0.0794  0.6245
 3980SOL    HW123402   3.776   0.000   7.261  0.0703 -0.3150  0.4250
 3980SOL    HW223403   3.798   0.095   7.361 -1.0396  0.4491 -1.7440
 3981SOL     OW23404   0.915   0.464  14.180  0.7306 -0.1264 -0.0279
 3981SOL    HW123405   0.919   0.465  14.085  1.3088 -0.1455 -0.0010
 3981SOL    HW223406   0.896   0.556  14.200  2.2427  0.3846 -0.9743
 3982SOL     OW23407   0.074   3.182   8.438  0.3401  0.2181  0.2392
 3982SOL    HW123408   0.105   3.265   8.473  1.7835 -0.1263 -0.2132
 3982SOL    HW223409   0.036   3.199   8.351 -0.1793 -2.8881 -0.1659
 3983SOL     OW23410   3.727   0.065   5.664 -0.0888  0.0861  0.1511
 3983SOL    HW123411   3.790   4.720   5.688  1.0331  0.1345 -2.7118
 3983SOL    HW223412   3.770   0.134   5.714 -0.3322  1.1220 -1.0978
 3984SOL     OW23413   3.978   0.086   3.154 -0.1601  0.4392  0.4060
 3984SOL    HW123414   4.069   0.088   3.182 -0.7735  0.4936  2.3598
 3984SOL    HW223415   3.941   0.132   3.229  0.3875 -1.6735  1.9757
 3985SOL     OW23416   3.600   4.185   7.114 -0.2297  0.0339 -0.0108
 3985SOL    HW123417   3.544   4.108   7.126 -3.5105  2.8376  2.4735
 3985SOL    HW223418   3.688   4.152   7.094  0.1367  0.8648  0.2131
 3986SOL     OW23419   3.687   3.992   3.033 -0.3585  0.2410 -0.4222
 3986SOL    HW123420   3.752   4.008   2.965  0.9663  1.4707  1.1379
 3986SOL    HW223421   3.624   3.944   2.978 -0.5839  1.1361 -0.9499
 3987SOL     OW23422   4.141   0.279   6.081 -0.2405  0.6369  0.2478
 3987SOL    HW123423   4.224   0.326   6.087  0.6140 -0.7074 -0.9066
 3987SOL    HW223424   4.175   0.191   6.100 -3.0665 -0.2972  1.0283
 3988SOL     OW23425   4.364   3.121   5.058  0.5651 -0.0446 -0.3387
 3988SOL    HW123426   4.402   3.185   5.117  1.3635 -2.9067  2.2711
 3988SOL    HW223427   4.407   3.042   5.091  0.4297 -0.0043 -0.0659
 3989SOL     OW23428   4.374   3.475  14.752 -0.0751  0.0573  0.2390
 3989SOL    HW123429   4.328   3.558  14.760  0.9332  0.7213 -0.7755
 3989SOL    HW223430   4.310   3.406  14.770 -5.2113  4.0811 -2.9078
 3990SOL     OW23431   3.047   2.650   2.947 -0.4370 -0.1010 -0.3416
 3990SOL    HW123432   3.068   2.573   2.895  1.4638  1.2665 -1.6047
 3990SOL    HW223433   3.106   2.711   2.903 -0.3955  1.5956  2.0515
 3991SOL     OW23434   0.594   0.127   4.699 -0.1113 -0.3386  0.1896
 3991SOL    HW123435   0.575   0.065   4.768  0.8378 -2.6084 -1.5911
 3991SOL    HW223436   0.534   0.101   4.629  1.0074  2.7812 -1.9499
 3992SOL     OW23437   4.189   0.828  16.789  0.7268  0.6902 -0.6634
 3992SOL    HW123438   4.158   0.809  16.700  0.8382 -0.0469 -0.5435
 3992SOL    HW223439   4.129   0.778  16.845  0.8840  0.7156 -0.4719
 3993SOL     OW23440   1.649   4.335   5.819 -0.6679 -0.4885  0.9489
 3993SOL    HW123441   1.674   4.286   5.740 -1.0906  0.1377  0.4202
 3993SOL    HW223442   1.670   4.421   5.784 -0.7510 -2.2203 -3.4096
 3994SOL     OW23443   0.026   3.547   1.517 -0.2636 -0.7328  0.0953
 3994SOL    HW123444   4.708   3.478   1.568 -1.8420 -0.5564 -0.9382
 3994SOL    HW223445   4.704   3.538   1.433  0.2268 -0.8287 -0.1585
 3995SOL     OW23446   0.303   3.797  13.933  0.5120 -0.0940 -0.5538
 3995SOL    HW123447   0.272   3.841  13.854 -2.7617 -0.0004  0.8127
 3995SOL    HW223448   0.284   3.862  14.000  1.0587  0.9379 -1.3993
 3996SOL     OW23449   1.100   2.373  15.187  0.5311 -0.4928  0.0961
 3996SOL    HW123450   1.021   2.324  15.165  0.4314 -0.9198  1.3702
 3996SOL    HW223451   1.157   2.307  15.228  0.3596 -1.3565 -1.0766
 3997SOL     OW23452   0.578   0.395  15.227 -0.3080  0.9567  0.2307
 3997SOL    HW123453   0.518   0.328  15.257  1.5970 -0.7989  0.1076
 3997SOL    HW223454   0.523   0.472  15.212 -0.5664  0.9912  1.3358
 3998SOL     OW23455   1.677   3.492   8.625 -0.2004 -0.3919  0.0453
 3998SOL    HW123456   1.771   3.494   8.643 -0.5279  3.8539  1.3516
 3998SOL    HW223457   1.638   3.449   8.701  1.0849 -1.9419 -0.1699
 3999SOL     OW23458   2.029   4.657   7.604  0.4670  0.3926  0.3196
 3999SOL    HW123459   2.032   4.615   7.518  1.5855  0.6638  0.2242
 3999SOL    HW223460   2.121   4.680   7.615  0.1031  1.7979  0.5501
 4000SOL     OW23461   4.155   1.120  10.507  0.1478 -0.4849 -0.1773
 4000SOL    HW123462   4.101   1.061  10.455  0.4012 -0.1169 -0.8463
 4000SOL    HW223463   4.168   1.192  10.446 -0.4649 -1.5162 -1.5301
 4001SOL     OW23464   4.667   4.525   5.197 -0.0429  0.4580 -0.0618
 4001SOL    HW123465   4.572   4.528   5.212  0.2885 -1.0122  2.3984
 4001SOL    HW223466   4.691   4.587   5.266 -2.0713 -1.5451  2.4388
 4002SOL     OW23467   1.358   2.843   0.964 -0.3296 -0.1276  0.1484
 4002SOL    HW123468   1.330   2.908   1.029 -1.8628 -0.5600 -0.0712
 4002SOL    HW223469   1.452   2.837   0.977  0.1172  0.2914 -2.8649
 4003SOL     OW23470   1.270   4.222  11.761 -0.0552 -0.4234  0.4087
 4003SOL    HW123471   1.302   4.312  11.763 -0.4788 -0.2849  0.9367
 4003SOL    HW223472   1.268   4.203  11.854  0.7491  0.4588  0.5981
 4004SOL     OW23473   1.190   3.147   6.816  0.2121 -0.1273 -0.1267
 4004SOL    HW123474   1.121   3.163   6.880  0.2855 -1.9428  0.4158
 4004SOL    HW223475   1.255   3.202   6.861 -0.2254 -0.3467  0.7756
 4005SOL     OW23476   0.289   1.549  10.841  0.2603 -0.1765  0.0561
 4005SOL    HW123477   0.254   1.635  10.861 -0.6355 -0.2096 -1.3791
 4005SOL    HW223478   0.373   1.571  10.881  0.3091  0.0223 -0.1561
 4006SOL     OW23479   4.107   4.332   7.932  0.0503 -0.6545 -0.1349
 4006SOL    HW123480   4.035   4.323   7.994  0.4493 -2.6492  0.0355
 4006SOL    HW223481   4.129   4.424   7.951 -1.3403  0.2546 -2.8824
 4007SOL     OW23482   1.990   1.717   1.454  0.2962 -0.4701  0.2965
 4007SOL    HW123483   1.913   1.759   1.416  1.7567  1.1452 -0.8154
 4007SOL    HW223484   1.952   1.631   1.472 -0.8460  0.0492  0.3596
 4008SOL     OW23485   3.830   3.458   5.819 -0.6072 -0.4169  0.5665
 4008SOL    HW123486   3.818   3.363   5.828  1.9119 -0.8648 -0.9526
 4008SOL    HW223487   3.822   3.462   5.914 -2.4006 -1.8806  0.4888
 4009SOL     OW23488   0.696   1.063  15.441 -0.2444  0.3189  0.0544
 4009SOL    HW123489   0.611   1.052  15.397  1.0623 -1.3494 -2.0507
 4009SOL    HW223490   0.678   1.033  15.530  1.9387  3.8095  1.6858
 4010SOL     OW23491   1.552   0.181  11.973  0.9490  0.7978 -0.1290
 4010SOL    HW123492   1.512   0.142  11.895  0.6973 -0.1208  0.4620
 4010SOL    HW223493   1.494   0.146  12.040  1.1006  1.0661  0.1400
 4011SOL     OW23494   4.078   3.618  16.520  0.3035  0.3358  0.1639
 4011SOL    HW123495   4.166   3.651  16.503  0.5205 -1.3972 -2.1264
 4011SOL    HW223496   4.061   3.657  16.606  1.5485  1.5567 -0.1538
 4012SOL     OW23497   3.792   1.243   3.413 -0.7551  0.0493  0.0253
 4012SOL    HW123498   3.794   1.282   3.501 -2.1685 -0.5389  0.3190
 4012SOL    HW223499   3.719   1.289   3.371  0.2744  1.4920 -0.2108
 4013SOL     OW23500   2.156   2.733   7.051  0.4589 -0.0719  0.3406
 4013SOL    HW123501   2.167   2.723   7.146  2.0068 -0.4843  0.1295
 4013SOL    HW223502   2.091   2.665   7.035 -0.9824  1.5924 -0.8030
 4014SOL     OW23503   0.855   2.459  12.900  0.1804 -0.2374 -0.5323
 4014SOL    HW123504   0.896   2.374  12.914 -0.3449 -0.2680  0.7734
 4014SOL    HW223505   0.927   2.501  12.852  0.4813 -2.1438 -1.7598
 4015SOL     OW23506   2.002   0.303   4.684  0.3610  0.1839 -0.2312
 4015SOL    HW123507   2.092   0.285   4.708  0.2279 -2.8657 -1.9590
 4015SOL    HW223508   2.006   0.397   4.668  3.1544  0.2869  1.2673
 4016SOL     OW23509   0.047   3.217   2.667 -0.0203 -0.1251 -0.1469
 4016SOL    HW123510   0.030   3.128   2.696  1.1930  0.1130  1.2712
 4016SOL    HW223511   0.054   3.201   2.572 -3.7497 -0.6636 -0.3220
 4017SOL     OW23512   2.377   2.803   6.254 -0.7229  0.0556  0.0265
 4017SOL    HW123513   2.351   2.718   6.218 -0.7842  0.5985 -1.1881
 4017SOL    HW223514   2.425   2.778   6.333 -1.7204 -0.4400  0.4800
 4018SOL     OW23515   3.641   3.920   5.358 -0.1736  0.2734 -0.2329
 4018SOL    HW123516   3.588   3.982   5.407  0.1641  0.5001 -0.1537
 4018SOL    HW223517   3.731   3.948   5.373 -0.4108  0.8111  0.1721
 4019SOL     OW23518   4.591   3.256   7.596 -0.1759 -0.1515  0.1791
 4019SOL    HW123519   4.613   3.179   7.543 -0.1906 -0.4058  0.5389
 4019SOL    HW223520   4.664   3.261   7.657 -0.1454  0.9228  0.0476
 4020SOL     OW23521   3.268   3.124  14.576  0.3971 -0.5246 -0.6012
 4020SOL    HW123522   3.342   3.077  14.614  1.3074  0.4086 -1.2046
 4020SOL    HW223523   3.294   3.216  14.584  0.4532 -0.7860  1.9782
 4021SOL     OW23524   0.061   0.095   4.884  0.7149  0.0301 -1.0681
 4021SOL    HW123525   4.715   0.126   4.827  0.3378  0.2929 -0.4581
 4021SOL    HW223526   0.136   0.116   4.828  2.4105  0.0111  1.1730
 4022SOL     OW23527   3.218   3.220  11.287  0.4372  0.3076 -0.0124
 4022SOL    HW123528   3.295   3.198  11.235  2.6734  3.8556  1.7900
 4022SOL    HW223529   3.255   3.230  11.374  1.6224 -2.5167 -0.1929
 4023SOL     OW23530   4.678   2.972   4.457 -0.0915 -0.4838 -0.3032
 4023SOL    HW123531   4.588   2.979   4.425 -0.0304  1.0016 -0.1659
 4023SOL    HW223532   4.660   3.012   4.542  0.0574 -2.9690  0.8874
 4024SOL     OW23533   2.226   0.997   0.561 -0.1833  0.0976 -0.0682
 4024SOL    HW123534   2.149   1.008   0.616  1.0583 -0.7230  1.8561
 4024SOL    HW223535   2.200   0.928   0.500  1.4638 -2.5448  2.2077
 4025SOL     OW23536   1.088   1.229   7.231  0.2312 -0.0194 -0.3640
 4025SOL    HW123537   1.146   1.237   7.155  1.8035  1.8797  1.0459
 4025SOL    HW223538   1.105   1.317   7.263 -1.7139  1.0434 -2.1975
 4026SOL     OW23539   1.871   4.603   5.956 -0.2470 -0.2359 -0.0844
 4026SOL    HW123540   1.959   4.602   5.919 -0.9039 -1.4000 -1.6024
 4026SOL    HW223541   1.818   4.597   5.877  0.9741  2.7796 -1.1253
 4027SOL     OW23542   4.379   1.289  14.542  0.2856  0.0028  0.3153
 4027SOL    HW123543   4.414   1.332  14.464  2.0940 -0.9902  0.5779
 4027SOL    HW223544   4.451   1.285  14.605  0.9393  2.9015 -0.2823
 4028SOL     OW23545   4.374   0.437  15.559 -0.0646 -0.0932 -0.5747
 4028SOL    HW123546   4.444   0.406  15.501  0.7402 -0.6198  0.6720
 4028SOL    HW223547   4.290   0.449  15.516 -1.1672 -2.6998  0.9005
 4029SOL     OW23548   1.677   0.246   2.891  0.4873 -0.1594 -0.1351
 4029SOL    HW123549   1.615   0.183   2.853 -0.3282 -0.4722  1.7236
 4029SOL    HW223550   1.761   0.204   2.875  0.8105  1.5989 -3.0045
 4030SOL     OW23551   0.754   2.617   3.984  0.3101 -0.6307  0.1655
 4030SOL    HW123552   0.780   2.639   4.073 -0.9970 -1.6905  0.8120
 4030SOL    HW223553   0.769   2.704   3.947  0.7923 -0.9008 -0.2858
 4031SOL     OW23554   0.740   1.019  15.138  0.1851 -0.1967  0.1704
 4031SOL    HW123555   0.647   1.033  15.155  0.3352 -0.2149  1.0265
 4031SOL    HW223556   0.741   0.985  15.049 -1.2866  0.3886 -0.0629
 4032SOL     OW23557   3.464   2.148   3.203 -0.6797  0.1067 -0.2338
 4032SOL    HW123558   3.514   2.230   3.208 -0.6522  0.1180 -0.7426
 4032SOL    HW223559   3.488   2.119   3.115  0.2525  0.9475 -0.2567
 4033SOL     OW23560   1.102   4.055   2.207 -0.0960  0.3243  0.3080
 4033SOL    HW123561   1.080   4.133   2.258  0.4885  1.4655 -1.1938
 4033SOL    HW223562   1.024   4.050   2.153 -1.3834  3.1451  1.9176
 4034SOL     OW23563   1.141   3.722   9.618 -0.1264 -0.4654  0.0091
 4034SOL    HW123564   1.143   3.721   9.714  0.4665  1.1540 -0.0016
 4034SOL    HW223565   1.074   3.788   9.599 -0.0292 -0.3025  0.2405
 4035SOL     OW23566   1.511   3.594   5.251 -0.2528 -0.4249 -0.2177
 4035SOL    HW123567   1.458   3.527   5.209 -1.0025  0.4104 -0.5928
 4035SOL    HW223568   1.571   3.534   5.295  0.1693 -0.2976 -0.6230
 4036SOL     OW23569   0.644   4.506   9.048 -0.4748  0.9657 -0.1643
 4036SOL    HW123570   0.715   4.450   9.080  0.0859  0.9984 -1.3813
 4036SOL    HW223571   0.613   4.455   8.974  0.5715  1.4071 -0.8942
 4037SOL     OW23572   0.080   1.478   0.272  0.2848  0.7192  0.2249
 4037SOL    HW123573   4.716   1.487   0.308  0.9838 -0.6878  2.2191
 4037SOL    HW223574   0.063   1.516   0.186 -0.0275  1.9824  0.8467
 4038SOL     OW23575   2.473   1.638   8.749  0.0912  0.1277 -0.0127
 4038SOL    HW123576   2.421   1.628   8.828  0.2920  0.3549  0.1472
 4038SOL    HW223577   2.404   1.626   8.684 -0.5843 -1.6296  1.0252
 4039SOL     OW23578   1.717   1.627   4.345 -0.0232 -0.3740  0.8106
 4039SOL    HW123579   1.642   1.588   4.300  0.2796 -1.0429  0.8787
 4039SOL    HW223580   1.775   1.552   4.355  1.1014  0.6013  1.5128
 4040SOL     OW23581   0.124   2.064   1.903 -0.1047  0.3937  0.4090
 4040SOL    HW123582   0.097   2.142   1.951  1.3382  0.6267  0.8359
 4040SOL    HW223583   0.195   2.037   1.961  1.8319  0.7008 -1.8177
 4041SOL     OW23584   3.921   4.664   8.059  0.6218 -0.7786 -0.0051
 4041SOL    HW123585   3.913   4.669   8.155 -0.8328 -2.5516 -0.0407
 4041SOL    HW223586   3.979   0.014   8.037  0.8279 -1.8468 -3.0294
 4042SOL     OW23587   2.594   0.073   9.737  0.2500 -0.1347  0.0806
 4042SOL    HW123588   2.510   0.031   9.726 -1.1928  1.8651  3.3455
 4042SOL    HW223589   2.637   0.044   9.656 -1.9314  0.6379 -1.3556
 4043SOL     OW23590   2.282   4.624  14.348  0.1297  0.2683  0.3428
 4043SOL    HW123591   2.234   4.699  14.382 -0.8202  0.3956 -1.2592
 4043SOL    HW223592   2.368   4.665  14.337 -0.5856  1.7189  0.1006
 4044SOL     OW23593   2.792   2.717   3.671 -0.1659  0.0773 -0.2565
 4044SOL    HW123594   2.815   2.721   3.578 -1.0889 -1.4345 -0.5504
 4044SOL    HW223595   2.700   2.736   3.653 -0.8480 -0.9074  2.2344
 4045SOL     OW23596   2.565   2.175   7.827 -0.0491  0.5893  0.1782
 4045SOL    HW123597   2.644   2.147   7.873  0.9650 -1.4384 -2.8524
 4045SOL    HW223598   2.579   2.270   7.828  1.7620  0.3162  0.4626
 4046SOL     OW23599   0.073   1.929   9.139 -0.1725  0.2080 -0.0521
 4046SOL    HW123600   4.707   1.908   9.166 -0.0385 -1.0459 -0.5620
 4046SOL    HW223601   0.058   1.987   9.065 -0.3050  0.2921  0.0414
 4047SOL     OW23602   4.606   2.962   7.877  0.4142  0.1714 -0.0847
 4047SOL    HW123603   4.569   3.033   7.824 -0.9714 -0.3909  0.1315
 4047SOL    HW223604   4.616   3.010   7.959  0.2730  1.0303 -0.5660
 4048SOL     OW23605   3.032   0.507   8.793 -0.2717 -0.5555  0.9001
 4048SOL    HW123606   3.039   0.571   8.864  0.4495 -0.1205  0.4399
 4048SOL    HW223607   2.965   0.452   8.833 -0.1148 -0.1242  1.7577
 4049SOL     OW23608   3.327   0.469  10.202  0.1896 -0.2767  0.5485
 4049SOL    HW123609   3.397   0.514  10.249  0.6672 -0.7968  0.3499
 4049SOL    HW223610   3.256   0.526  10.230  1.9804  2.7472 -1.0996
 4050SOL     OW23611   4.439   0.486   6.641  0.4669  0.5963 -0.2815
 4050SOL    HW123612   4.530   0.473   6.667  0.1409  0.0652  0.6073
 4050SOL    HW223613   4.434   0.577   6.613  0.2830  1.0849  1.3243
 4051SOL     OW23614   0.868   0.464  12.490 -0.2162 -0.6451 -0.0261
 4051SOL    HW123615   0.942   0.468  12.429 -0.5303 -0.7763 -0.4130
 4051SOL    HW223616   0.911   0.447  12.574  3.1866 -1.8402 -1.9759
 4052SOL     OW23617   0.990   4.469   2.045  0.0670  0.2244 -0.0190
 4052SOL    HW123618   1.018   4.527   1.974  0.7598 -0.7839 -0.5710
 4052SOL    HW223619   0.949   4.402   1.990 -0.6310  0.7135 -0.0917
 4053SOL     OW23620   3.605   2.997   7.147  0.3205  0.0289 -0.4828
 4053SOL    HW123621   3.608   2.904   7.124  2.2621 -0.0459  0.0654
 4053SOL    HW223622   3.698   3.014   7.134  0.5858 -1.3848 -0.4524
 4054SOL     OW23623   3.432   0.455   8.072  0.5153  0.7402  0.3024
 4054SOL    HW123624   3.353   0.441   8.019 -0.0944 -0.4818  1.5102
 4054SOL    HW223625   3.413   0.409   8.154 -0.8303  0.2540 -0.2682
 4055SOL     OW23626   0.957   4.259  15.621  0.4342 -0.7367 -0.3474
 4055SOL    HW123627   0.874   4.245  15.575  0.6416 -0.5709 -0.7696
 4055SOL    HW223628   0.934   4.321  15.690  1.8986 -0.3779 -0.1820
 4056SOL     OW23629   2.342   0.698   4.472  0.6313  0.0112 -0.9907
 4056SOL    HW123630   2.431   0.722   4.497  0.5232  0.0495 -0.6505
 4056SOL    HW223631   2.302   0.686   4.558 -1.6491 -1.1747 -2.2104
 4057SOL     OW23632   1.396   4.347   6.389  0.3106 -0.1715 -0.2001
 4057SOL    HW123633   1.339   4.354   6.312  0.7051  3.0818 -0.2216
 4057SOL    HW223634   1.331   4.301   6.441  0.8698  0.1496  0.7649
 4058SOL     OW23635   0.297   3.605   6.324 -0.1555 -0.0241 -0.9536
 4058SOL    HW123636   0.307   3.515   6.294  1.6080 -0.6591  1.5351
 4058SOL    HW223637   0.293   3.596   6.420 -1.2438 -0.2939 -1.0247
 4059SOL     OW23638   1.623   0.517   2.921 -0.0583  0.4340 -0.1315
 4059SOL    HW123639   1.626   0.423   2.907  1.7862  0.7004 -1.4700
 4059SOL    HW223640   1.554   0.515   2.987  0.5279  0.7954  0.5013
 4060SOL     OW23641   2.444   0.145  10.138  0.0496  0.2325  0.1447
 4060SOL    HW123642   2.417   0.234  10.161 -0.5289  0.1747 -0.3051
 4060SOL    HW223643   2.366   0.090  10.141 -0.0186  0.1712 -2.4390
 4061SOL     OW23644   0.933   1.535   3.055  0.0056 -0.1591  0.1764
 4061SOL    HW123645   0.990   1.518   3.130 -0.5451  1.5276  0.9886
 4061SOL    HW223646   0.893   1.449   3.046 -0.7104  0.1133  0.7470
 4062SOL     OW23647   3.301   1.477   6.287 -0.4637 -0.7135 -0.3435
 4062SOL    HW123648   3.232   1.483   6.353 -2.3252 -0.5502 -2.3025
 4062SOL    HW223649   3.350   1.400   6.317 -1.1387 -0.0912  2.3929
 4063SOL     OW23650   4.308   4.401   7.098  0.3374  0.3087  0.2080
 4063SOL    HW123651   4.364   4.404   7.176 -0.0319 -0.5510  0.5117
 4063SOL    HW223652   4.288   4.494   7.104  0.4624  0.4739 -1.9452
 4064SOL     OW23653   0.224   2.016   9.876  0.1629 -0.5286  0.5749
 4064SOL    HW123654   0.184   2.102   9.867 -1.4346 -1.3617 -0.3981
 4064SOL    HW223655   0.313   2.038   9.848  0.3696 -1.1394  0.7588
 4065SOL     OW23656   3.258   2.050   0.060 -0.6285 -0.3341  0.3337
 4065SOL    HW123657   3.212   1.984   0.008 -0.7850 -0.4714  0.6478
 4065SOL    HW223658   3.187   2.084   0.114 -1.7503  1.4798 -2.3279
 4066SOL     OW23659   2.597   0.042   3.194  0.0857  0.6025  0.0987
 4066SOL    HW123660   2.564   4.711   3.123 -3.5963  2.9341 -0.0231
 4066SOL    HW223661   2.528   0.109   3.191  0.0066  0.5154 -0.0110
 4067SOL     OW23662   4.573   2.895  12.332 -0.5266 -0.3897 -0.0382
 4067SOL    HW123663   4.668   2.884  12.335 -0.5922 -0.5584  1.2313
 4067SOL    HW223664   4.552   2.833  12.261 -0.6447 -0.8841  0.4300
 4068SOL     OW23665   0.390   1.817  10.581 -0.0492 -0.2048  0.7897
 4068SOL    HW123666   0.404   1.871  10.659  0.4097 -1.4860  1.5982
 4068SOL    HW223667   0.466   1.759  10.581 -0.7112 -1.0769  0.6015
 4069SOL     OW23668   3.604   0.790   2.452  0.4029  0.0696  0.4278
 4069SOL    HW123669   3.637   0.877   2.477 -0.4835  0.4274  0.3356
 4069SOL    HW223670   3.641   0.732   2.518  1.2293 -1.5875 -1.5099
 4070SOL     OW23671   3.790   3.554  15.801  0.8358  0.4229  0.1289
 4070SOL    HW123672   3.865   3.495  15.806  1.0999  0.9149  2.1603
 4070SOL    HW223673   3.728   3.503  15.749 -1.4574  1.9020  1.4210
 4071SOL     OW23674   1.509   0.933   6.829  0.2166 -0.5403 -0.1853
 4071SOL    HW123675   1.552   0.863   6.878  0.0396  0.7933  1.8627
 4071SOL    HW223676   1.418   0.906   6.837 -0.3236  0.5310 -2.7271
 4072SOL     OW23677   2.467   1.804  10.254 -0.1508 -0.2273 -0.2265
 4072SOL    HW123678   2.557   1.813  10.285 -0.2282 -0.9599  0.2085
 4072SOL    HW223679   2.435   1.883  10.297 -1.9646 -0.1389 -1.7281
 4073SOL     OW23680   0.428   2.091  11.408 -0.0482 -0.1339 -0.0515
 4073SOL    HW123681   0.373   2.157  11.366  0.6055  0.2739 -0.2710
 4073SOL    HW223682   0.403   2.007  11.371  0.8664 -0.8057  0.8630
 4074SOL     OW23683   1.257   3.633   2.706 -0.3844 -0.4768  0.3071
 4074SOL    HW123684   1.293   3.657   2.791 -1.2442  0.4052  0.4176
 4074SOL    HW223685   1.332   3.659   2.652  0.2941 -2.3173  0.3618
 4075SOL     OW23686   2.640   3.464   9.742  0.4816  0.4071 -0.0563
 4075SOL    HW123687   2.661   3.547   9.786 -2.3470 -1.3606  4.6045
 4075SOL    HW223688   2.723   3.446   9.697 -0.3641  0.7446 -1.7555
 4076SOL     OW23689   4.010   1.383   2.579  0.2300 -0.1783  0.2200
 4076SOL    HW123690   4.072   1.433   2.632  0.7570 -2.6459  1.9000
 4076SOL    HW223691   3.933   1.437   2.595  1.0909  1.0343  0.2973
 4077SOL     OW23692   3.207   0.103   4.836 -0.2661  0.2801  0.1917
 4077SOL    HW123693   3.225   0.019   4.878  1.6314  1.1186  1.0312
 4077SOL    HW223694   3.194   0.160   4.911  0.0391  1.0316 -0.3236
 4078SOL     OW23695   1.004   4.406   3.856 -0.0858 -0.1287 -0.4068
 4078SOL    HW123696   0.979   4.498   3.865  0.3648  0.1141 -1.6220
 4078SOL    HW223697   0.918   4.364   3.852 -0.0390 -0.3609  0.8961
 4079SOL     OW23698   2.588   3.776   2.065 -0.1664 -0.1235  0.1396
 4079SOL    HW123699   2.597   3.700   2.123  0.8772 -0.5195 -0.5524
 4079SOL    HW223700   2.619   3.846   2.122 -1.6702  0.5078  0.1858
 4080SOL     OW23701   3.669   2.894   3.644 -0.1508 -0.4446  0.1592
 4080SOL    HW123702   3.728   2.969   3.654 -1.0891  0.3911 -0.6046
 4080SOL    HW223703   3.733   2.824   3.661  0.3758 -0.4462 -1.7774
 4081SOL     OW23704   0.644   4.382   1.141 -0.1280 -0.1708 -0.3420
 4081SOL    HW123705   0.716   4.357   1.199  1.5193 -0.3436 -2.4485
 4081SOL    HW223706   0.663   4.474   1.125 -0.2874 -0.3651 -1.7040
 4082SOL     OW23707   0.203   4.308   6.497 -0.2588  0.1624 -0.2200
 4082SOL    HW123708   0.275   4.355   6.454 -0.0063  1.6622  1.8365
 4082SOL    HW223709   0.144   4.300   6.422 -0.0340 -2.4829 -0.1386
 4083SOL     OW23710   4.590   2.979   0.184  0.6870 -0.3973 -0.9552
 4083SOL    HW123711   4.517   3.004   0.240 -0.0587 -1.2866 -1.5137
 4083SOL    HW223712   4.631   2.919   0.245  1.3067 -0.9641 -1.9315
 4084SOL     OW23713   3.713   4.487   7.437  0.0133 -0.1761 -0.5856
 4084SOL    HW123714   3.750   4.467   7.523 -0.1717  0.8915 -0.2527
 4084SOL    HW223715   3.762   4.566   7.417 -0.1196 -0.1102 -0.6548
 4085SOL     OW23716   2.273   0.134   1.086 -0.2365  0.3518 -0.6640
 4085SOL    HW123717   2.279   0.185   1.167 -0.4273  0.5934 -0.8032
 4085SOL    HW223718   2.264   0.209   1.027  2.3537  0.4145 -0.9836
 4086SOL     OW23719   2.644   0.103  16.109 -0.5808 -0.2429  0.1714
 4086SOL    HW123720   2.690   0.020  16.118 -1.9514 -1.1960 -1.6143
 4086SOL    HW223721   2.599   0.091  16.025 -1.0949  0.6921  0.3171
 4087SOL     OW23722   2.227   4.079  11.470 -0.0009  0.5797  0.0582
 4087SOL    HW123723   2.259   4.029  11.545  3.5274  1.2189 -1.0222
 4087SOL    HW223724   2.285   4.151  11.494 -1.1907  1.5977 -0.1496
 4088SOL     OW23725   3.485   2.694   7.478 -0.5824 -0.4372  0.3356
 4088SOL    HW123726   3.491   2.614   7.529  4.0156 -0.6771 -0.5508
 4088SOL    HW223727   3.576   2.720   7.489 -0.2927 -2.0324  1.6671
 4089SOL     OW23728   0.503   0.690   3.567  0.1529  0.3646 -0.3262
 4089SOL    HW123729   0.532   0.764   3.514  3.2863 -0.2090  0.5722
 4089SOL    HW223730   0.413   0.679   3.537  0.5912  1.5782 -2.0510
 4090SOL     OW23731   2.215   2.231   4.274 -0.1295 -0.0634  0.2043
 4090SOL    HW123732   2.145   2.248   4.336 -0.2069  2.9999 -0.7257
 4090SOL    HW223733   2.234   2.139   4.293  0.5616  0.4123  1.8627
 4091SOL     OW23734   2.984   1.850   0.359  0.1680  0.2718  0.4088
 4091SOL    HW123735   2.925   1.922   0.337 -2.2823 -1.7951  0.0842
 4091SOL    HW223736   2.939   1.789   0.300  0.2881  0.1991  0.3911
 4092SOL     OW23737   1.203   0.084   1.335 -0.1107  0.2902  0.2886
 4092SOL    HW123738   1.130   0.070   1.395 -0.7288 -4.1723 -1.5098
 4092SOL    HW223739   1.171   0.032   1.261  1.0647  0.1235 -0.0905
 4093SOL     OW23740   2.323   2.910   2.878  0.6013 -0.3767  0.1337
 4093SOL    HW123741   2.246   2.925   2.823 -1.3009 -0.1999  2.8208
 4093SOL    HW223742   2.341   2.997   2.914 -1.0551  0.0664 -0.0863
 4094SOL     OW23743   1.586   1.192   6.221  0.0798  0.3540  0.0207
 4094SOL    HW123744   1.662   1.247   6.243  0.8939 -0.1772 -1.4078
 4094SOL    HW223745   1.513   1.251   6.204 -0.3647  0.4913  2.4922
 4095SOL     OW23746   4.415   2.440   3.065  0.1760  0.3911  0.1444
 4095SOL    HW123747   4.380   2.428   2.977  0.0806  0.6267  0.1509
 4095SOL    HW223748   4.422   2.349   3.096  1.0946 -0.0635 -1.4073
 4096SOL     OW23749   3.058   0.545   3.710  0.1112  0.3663 -0.3795
 4096SOL    HW123750   3.090   0.476   3.767 -0.2961  1.3588  1.0565
 4096SOL    HW223751   2.968   0.517   3.695 -0.0855 -0.2702  2.0097
 4097SOL     OW23752   3.672   2.855  11.912  0.5074 -0.6142  0.4542
 4097SOL    HW123753   3.644   2.923  11.973 -1.6727  1.2452 -2.6146
 4097SOL    HW223754   3.644   2.888  11.827 -1.5972  1.9788  2.1485
 4098SOL     OW23755   3.937   2.061   7.318  0.0089  0.0333  0.0570
 4098SOL    HW123756   3.912   2.147   7.284 -0.0325  0.1041  0.2605
 4098SOL    HW223757   4.005   2.032   7.257 -2.3029  0.2794 -2.6350
 4099SOL     OW23758   2.976   2.418   7.818 -0.5402 -0.0105 -0.0144
 4099SOL    HW123759   2.988   2.350   7.752  0.5998 -1.6387  1.8928
 4099SOL    HW223760   3.001   2.495   7.767  1.6091  0.0122  1.0905
 4100SOL     OW23761   2.581   4.226   4.630 -0.0410  0.3524  0.9561
 4100SOL    HW123762   2.577   4.185   4.544  0.1486  0.8530  0.7080
 4100SOL    HW223763   2.509   4.289   4.627  1.9833  2.6032 -0.4307
 4101SOL     OW23764   2.125   0.313   4.062  0.2113 -0.6407 -0.2209
 4101SOL    HW123765   2.217   0.322   4.088 -0.1232 -0.0564  0.7867
 4101SOL    HW223766   2.131   0.385   4.000  0.2446 -0.3541  0.1128
 4102SOL     OW23767   1.179   1.044   7.423  0.0749 -0.3777  1.1639
 4102SOL    HW123768   1.263   0.998   7.433  0.5444  0.2210 -0.0635
 4102SOL    HW223769   1.177   1.077   7.333  0.2365  1.3280  1.7850
 4103SOL     OW23770   2.575   2.540   2.729 -0.0368  0.1385  0.0322
 4103SOL    HW123771   2.610   2.590   2.655 -3.1519  0.7749 -1.0085
 4103SOL    HW223772   2.489   2.580   2.738  0.8154  2.4959 -2.1774
 4104SOL     OW23773   1.880   3.732   7.345  0.8946  0.3061  0.1009
 4104SOL    HW123774   1.929   3.811   7.366  0.9977  0.1434  0.4655
 4104SOL    HW223775   1.935   3.654   7.349  1.4468  0.7247  0.5827
 4105SOL     OW23776   1.416   0.665   5.060  0.0819 -0.0930 -0.4066
 4105SOL    HW123777   1.481   0.674   5.130 -1.0599  3.6050  0.1880
 4105SOL    HW223778   1.372   0.584   5.085 -1.0979  1.0435  1.2350
 4106SOL     OW23779   3.954   1.023   3.353  0.4097  0.0590 -0.2815
 4106SOL    HW123780   3.909   0.990   3.275  0.4956  1.1935 -0.7996
 4106SOL    HW223781   3.907   1.105   3.368  1.6172  1.0373 -1.9044
 4107SOL     OW23782   4.361   1.172   8.927  0.0704 -0.0842  0.0444
 4107SOL    HW123783   4.400   1.215   9.003  2.1239  1.3966 -1.8322
 4107SOL    HW223784   4.430   1.162   8.861  0.8099 -2.6202  1.2148
 4108SOL     OW23785   1.762   1.076   9.765  0.1723 -0.0497 -0.6999
 4108SOL    HW123786   1.778   1.086   9.859  1.3189  1.5918 -1.0664
 4108SOL    HW223787   1.694   1.143   9.753 -0.3347 -0.3101  0.6884
 4109SOL     OW23788   3.093   3.858   3.402  0.4008 -0.9126 -0.1746
 4109SOL    HW123789   3.050   3.852   3.317 -0.6574 -0.2138  0.3142
 4109SOL    HW223790   3.068   3.776   3.445  0.4407 -0.4595  0.7114
 4110SOL     OW23791   2.568   4.117  17.615 -0.0076 -0.4729  0.4673
 4110SOL    HW123792   2.520   4.041  17.583  2.0807 -3.1728  3.8574
 4110SOL    HW223793   2.490   4.156  17.657  0.7047  0.7004  0.7065
 4111SOL     OW23794   0.953   0.330   4.540  0.0519  0.0330 -0.3375
 4111SOL    HW123795   1.023   0.375   4.588  0.0093  0.3716 -0.5905
 4111SOL    HW223796   0.989   0.241   4.546  0.4485  0.2474  0.5701
 4112SOL     OW23797   0.161   4.062   7.609  0.3479  0.0514 -0.0346
 4112SOL    HW123798   0.194   3.986   7.657  1.1200  1.5256  1.8272
 4112SOL    HW223799   0.117   4.014   7.540  0.7241 -1.6971  0.9540
 4113SOL     OW23800   3.716   2.056   0.094  0.6536 -0.3009  0.4048
 4113SOL    HW123801   3.789   2.048   0.033  0.6879  0.8574  0.2823
 4113SOL    HW223802   3.743   2.132   0.146  0.1785  2.1539 -2.9501
 4114SOL     OW23803   4.272   3.322  10.391  0.2598 -0.1025  0.4081
 4114SOL    HW123804   4.219   3.347  10.316  1.0133 -1.1819 -0.4813
 4114SOL    HW223805   4.232   3.375  10.460  0.4414  0.6630 -0.0762
 4115SOL     OW23806   1.940   0.859   9.215  0.2338  0.2510 -0.5386
 4115SOL    HW123807   1.931   0.943   9.170 -1.2572 -0.5078 -1.6468
 4115SOL    HW223808   1.852   0.823   9.205 -0.5295  1.7230  0.9177
 4116SOL     OW23809   0.207   1.990   7.936 -0.4228 -0.1360 -0.4985
 4116SOL    HW123810   0.268   2.021   8.003 -1.8000 -0.0346  0.7138
 4116SOL    HW223811   0.186   1.903   7.971 -1.0415  0.9119  1.8029
 4117SOL     OW23812   0.561   1.471  16.054  0.2851 -0.5360 -0.3737
 4117SOL    HW123813   0.526   1.483  15.965 -1.4645  1.0080  0.5078
 4117SOL    HW223814   0.650   1.443  16.035  0.6190 -0.3288  0.9114
 4118SOL     OW23815   2.976   0.105   1.576 -0.3411  0.2759  0.2069
 4118SOL    HW123816   2.905   0.107   1.512  0.1585  1.5915 -0.3009
 4118SOL    HW223817   3.055   0.114   1.522 -0.6961 -0.7605 -0.4712
 4119SOL     OW23818   0.461   4.050  16.886 -0.1452 -0.0856  0.1028
 4119SOL    HW123819   0.472   3.956  16.880 -1.2647 -0.2503  0.6556
 4119SOL    HW223820   0.384   4.056  16.943 -0.4577  0.8371 -0.4152
 4120SOL     OW23821   0.442   0.923   5.355  0.4618  0.4010 -0.6046
 4120SOL    HW123822   0.475   0.846   5.402 -0.2383  1.9364  2.3931
 4120SOL    HW223823   0.387   0.873   5.295  2.9047 -1.9344 -0.9035
 4121SOL     OW23824   4.619   1.049  17.383 -0.5277  0.0011 -0.3878
 4121SOL    HW123825   4.595   0.962  17.351 -1.6649  0.2868 -0.3112
 4121SOL    HW223826   4.593   1.048  17.475 -1.3231 -0.8808 -0.6220
 4122SOL     OW23827   4.006   0.321  12.484 -1.0840 -0.0575  0.3659
 4122SOL    HW123828   4.010   0.306  12.578  3.5468 -1.2168 -0.0207
 4122SOL    HW223829   4.031   0.413  12.479  2.8822 -1.0993  0.4003
 4123SOL     OW23830   2.280   1.909  14.083 -0.0322  0.4267 -0.2766
 4123SOL    HW123831   2.242   1.937  14.167 -0.8066  0.8222 -0.7691
 4123SOL    HW223832   2.231   1.828  14.070  2.4818 -1.2639  0.7908
 4124SOL     OW23833   1.761   0.680   1.340  0.5839 -0.9033  0.0074
 4124SOL    HW123834   1.801   0.594   1.345  1.2566 -0.4578  2.0724
 4124SOL    HW223835   1.744   0.682   1.434  1.6280 -5.5931  0.2820
 4125SOL     OW23836   4.595   1.941   7.616 -0.0143  0.2853 -0.0252
 4125SOL    HW123837   4.610   1.881   7.689  0.8131 -0.4264 -0.7877
 4125SOL    HW223838   4.685   1.973   7.614 -0.0180  0.3398  0.6022
 4126SOL     OW23839   3.780   0.673   0.612 -0.3848  0.2603  0.1248
 4126SOL    HW123840   3.775   0.610   0.539  0.0867 -0.1915  0.4879
 4126SOL    HW223841   3.689   0.689   0.638 -0.7929  1.0883 -1.7398
 4127SOL     OW23842   4.068   4.568   2.929 -0.3531 -1.2462  0.1588
 4127SOL    HW123843   4.022   4.632   2.984  0.5176 -1.5832  1.2774
 4127SOL    HW223844   4.159   4.596   2.937 -0.4797 -0.8697  0.2961
 4128SOL     OW23845   4.596   1.529   3.298 -0.0833  0.2314 -0.2977
 4128SOL    HW123846   4.503   1.508   3.288 -0.5255  1.2721  1.4404
 4128SOL    HW223847   4.622   1.498   3.212  0.5131  1.6130 -0.6208
 4129SOL     OW23848   2.797   3.153   7.836  0.2149 -0.0773  0.1331
 4129SOL    HW123849   2.855   3.078   7.819 -0.7382 -1.1790  1.6833
 4129SOL    HW223850   2.733   3.119   7.899 -0.3842  1.0029  0.0964
 4130SOL     OW23851   0.393   0.566   2.933  0.0444 -0.5399  0.2751
 4130SOL    HW123852   0.333   0.639   2.918  1.7523  0.6865 -0.5152
 4130SOL    HW223853   0.339   0.499   2.975 -0.9452 -0.0552 -0.2237
 4131SOL     OW23854   1.024   1.410   6.126 -0.1108 -0.0084  0.2523
 4131SOL    HW123855   1.052   1.333   6.076 -1.3639 -0.5137  0.3294
 4131SOL    HW223856   1.107   1.459   6.125  0.1863 -0.5463 -1.5236
 4132SOL     OW23857   4.317   4.278   7.504 -0.1758  0.2155  0.2351
 4132SOL    HW123858   4.245   4.336   7.530 -0.2299  1.3486 -2.5321
 4132SOL    HW223859   4.358   4.259   7.589 -0.6960  0.2514  0.4980
 4133SOL     OW23860   1.265   1.665  14.311 -0.2807 -0.1921 -0.0019
 4133SOL    HW123861   1.308   1.711  14.239  1.7735 -0.1762  1.2512
 4133SOL    HW223862   1.241   1.742  14.363  2.1027  1.2147 -0.9908
 4134SOL     OW23863   3.091   2.415  12.988 -0.0036  0.1439 -0.0182
 4134SOL    HW123864   3.049   2.472  12.923  0.0527 -1.0834 -1.1232
 4134SOL    HW223865   3.170   2.468  13.007 -0.2178 -0.0981  1.5332
 4135SOL     OW23866   0.388   2.171   3.413 -0.1333  0.2900 -0.1503
 4135SOL    HW123867   0.329   2.226   3.465  0.8661 -0.7216  2.0500
 4135SOL    HW223868   0.350   2.191   3.327 -1.9791 -0.3565  0.5247
 4136SOL     OW23869   0.363   3.831   1.865  0.4176  0.0271 -0.6846
 4136SOL    HW123870   0.311   3.790   1.795  1.3287  0.0067 -1.3550
 4136SOL    HW223871   0.298   3.889   1.904 -1.1819 -0.2719 -2.8404
 4137SOL     OW23872   2.807   2.110   7.971  0.2177 -0.1476  0.0610
 4137SOL    HW123873   2.836   2.055   7.898 -2.8478  0.7223 -1.8143
 4137SOL    HW223874   2.879   2.094   8.032 -2.5872  0.6307  3.6121
 4138SOL     OW23875   0.906   3.031  16.459 -0.1144  0.2467  0.3808
 4138SOL    HW123876   0.838   2.997  16.401 -0.7364 -0.8996  1.7991
 4138SOL    HW223877   0.951   3.093  16.401 -2.2087  1.7786  0.3671
 4139SOL     OW23878   2.651   3.014   2.835 -0.1806 -0.0201  0.1097
 4139SOL    HW123879   2.607   3.085   2.881 -1.5562  0.4242 -1.9204
 4139SOL    HW223880   2.736   3.034   2.874 -1.1511 -1.0440  2.7585
 4140SOL     OW23881   3.783   1.394   3.668  0.8693 -0.3675  0.4067
 4140SOL    HW123882   3.697   1.424   3.700  0.8144 -1.8583  1.6620
 4140SOL    HW223883   3.839   1.471   3.671 -0.0663  0.2898  1.0420
 4141SOL     OW23884   3.363   3.563   5.242  0.2026  0.5731  0.3515
 4141SOL    HW123885   3.425   3.490   5.245 -0.1752  0.3384  2.3373
 4141SOL    HW223886   3.419   3.632   5.207 -0.1971  0.5599 -0.3220
 4142SOL     OW23887   2.019   3.612  15.212 -0.0112 -0.0668  0.0754
 4142SOL    HW123888   2.015   3.677  15.142 -0.9895  1.1196  1.2328
 4142SOL    HW223889   2.064   3.547  15.158 -1.0362  0.2079 -1.1213
 4143SOL     OW23890   3.218   2.729   7.169  0.3811 -0.1586  0.5640
 4143SOL    HW123891   3.292   2.726   7.109 -0.9652 -0.0814 -1.1038
 4143SOL    HW223892   3.202   2.638   7.193  2.5304 -0.5644  0.4788
 4144SOL     OW23893   3.197   0.781   9.542 -0.4557 -0.6904  0.8427
 4144SOL    HW123894   3.207   0.686   9.544  2.0813 -0.4209  1.6850
 4144SOL    HW223895   3.231   0.797   9.630  1.8848 -2.3054  0.2254
 4145SOL     OW23896   2.604   1.358   5.574  0.2087  0.2892  0.1739
 4145SOL    HW123897   2.515   1.354   5.608 -0.0392  0.1957 -0.5045
 4145SOL    HW223898   2.652   1.317   5.647 -1.5253 -0.6841  0.7624
 4146SOL     OW23899   1.855   0.462  11.290 -0.1584  0.1742  0.1888
 4146SOL    HW123900   1.875   0.368  11.285 -2.5785 -0.3702  0.5606
 4146SOL    HW223901   1.875   0.488  11.200 -0.2482 -0.9178 -0.1563
 4147SOL     OW23902   0.839   2.339   5.203  0.6904 -0.0152  0.9694
 4147SOL    HW123903   0.773   2.307   5.143  0.7006  0.0776  0.9092
 4147SOL    HW223904   0.797   2.332   5.289 -1.0641 -3.1832 -0.1325
 4148SOL     OW23905   0.614   1.010   5.006 -0.7007 -0.4371  0.5757
 4148SOL    HW123906   0.703   1.042   4.989 -0.5820 -1.2372 -0.2690
 4148SOL    HW223907   0.560   1.088   5.020  1.9455  1.6948 -1.2876
 4149SOL     OW23908   4.329   0.809  14.109  0.0958 -0.3680  0.7425
 4149SOL    HW123909   4.275   0.788  14.185  1.1429  0.7916  1.7970
 4149SOL    HW223910   4.262   0.851  14.055 -1.1406 -1.3618  1.5117
 4150SOL     OW23911   4.232   1.629   6.359 -0.8356 -0.0085  0.4929
 4150SOL    HW123912   4.229   1.625   6.264  0.3200 -0.8259  0.4876
 4150SOL    HW223913   4.149   1.588   6.380 -0.2126 -1.0433  0.9339
 4151SOL     OW23914   3.548   3.387   8.555  0.0066 -0.9605 -0.0024
 4151SOL    HW123915   3.471   3.425   8.597  0.4205  0.8549 -0.8547
 4151SOL    HW223916   3.590   3.468   8.525 -1.3248 -1.3369 -2.9323
 4152SOL     OW23917   3.909   4.362   3.974  0.3732  0.2430 -0.1650
 4152SOL    HW123918   3.819   4.363   3.941  0.3643  0.6189 -0.1334
 4152SOL    HW223919   3.899   4.407   4.058 -0.9560  0.8298 -0.6359
 4153SOL     OW23920   4.444   1.720  13.075 -0.7893 -0.1981 -0.3550
 4153SOL    HW123921   4.455   1.625  13.066  2.3945  0.1838 -0.5158
 4153SOL    HW223922   4.511   1.726  13.143 -0.9151  0.5141 -0.2941
 4154SOL     OW23923   1.807   1.147   7.849  0.1358  0.2668 -0.0786
 4154SOL    HW123924   1.870   1.185   7.910 -0.4756  2.9077 -1.1031
 4154SOL    HW223925   1.766   1.221   7.805  1.6226 -0.5316 -2.8103
 4155SOL     OW23926   1.272   4.493   3.852 -0.6342  0.4203  0.0245
 4155SOL    HW123927   1.263   4.568   3.910 -0.9249  1.9704 -2.0004
 4155SOL    HW223928   1.183   4.462   3.834 -0.4460  0.0750 -0.3258
 4156SOL     OW23929   0.685   2.561   0.653  0.2897  0.4926  0.6234
 4156SOL    HW123930   0.726   2.495   0.708  0.3477  0.2726  0.3161
 4156SOL    HW223931   0.597   2.525   0.646 -0.8029  3.5246 -1.1019
 4157SOL     OW23932   1.118   4.389   2.879 -0.3560  0.5374 -0.6846
 4157SOL    HW123933   1.083   4.472   2.911 -0.2105  0.4995 -0.4309
 4157SOL    HW223934   1.175   4.351   2.946  0.7046  0.7013 -1.4893
 4158SOL     OW23935   1.294   2.173   4.225  0.1245 -0.4546  0.0447
 4158SOL    HW123936   1.378   2.142   4.193  0.6741 -0.4855  1.5298
 4158SOL    HW223937   1.300   2.264   4.196  1.0734 -0.9974 -1.4083
 4159SOL     OW23938   1.873   2.455   5.216  0.0278 -0.1216  0.0452
 4159SOL    HW123939   1.884   2.440   5.122  1.8471  1.0940  0.0553
 4159SOL    HW223940   1.926   2.389   5.259 -1.4946 -1.9423 -0.8671
 4160SOL     OW23941   0.583   4.135   6.615 -0.5005  0.2952 -0.2999
 4160SOL    HW123942   0.533   4.072   6.564 -1.9879  1.1180  0.1685
 4160SOL    HW223943   0.533   4.129   6.696 -1.2046 -1.6063 -0.8750
 4161SOL     OW23944   3.915   1.133   5.964  0.2786 -0.2537  0.1554
 4161SOL    HW123945   3.984   1.166   5.906  3.2091 -1.5981  2.9031
 4161SOL    HW223946   3.957   1.144   6.049 -1.7463 -1.8785  1.3493
 4162SOL     OW23947   0.971   3.233   3.004 -0.7797  0.2848 -0.6931
 4162SOL    HW123948   1.067   3.240   2.999 -0.7277 -0.0969 -0.1927
 4162SOL    HW223949   0.949   3.249   2.913 -0.1497  1.6036 -0.6283
 4163SOL     OW23950   0.254   0.250  12.269 -0.2669  0.1849  0.1865
 4163SOL    HW123951   0.229   0.338  12.296 -0.2524  0.3386 -0.2916
 4163SOL    HW223952   0.217   0.200  12.342 -1.6309  0.9473  0.0283
 4164SOL     OW23953   4.199   1.358  14.745 -0.2405 -0.1372  0.4930
 4164SOL    HW123954   4.263   1.324  14.682 -0.8947 -1.2700  0.4390
 4164SOL    HW223955   4.248   1.409  14.810  0.1883 -0.3332  0.3274
 4165SOL     OW23956   0.300   1.873   5.032  0.1258  0.1104 -0.6350
 4165SOL    HW123957   0.391   1.847   5.046 -0.5586 -1.9004  0.1200
 4165SOL    HW223958   0.316   1.951   4.980  0.7968  0.8457  0.6686
 4166SOL     OW23959   4.219   3.844   4.706  0.1707  0.6199  0.2960
 4166SOL    HW123960   4.290   3.821   4.765 -1.0559 -0.4948  1.3538
 4166SOL    HW223961   4.215   3.939   4.722 -2.6466  0.4947  0.4052
 4167SOL     OW23962   4.325   2.647   3.491  0.0102  0.0367 -0.9692
 4167SOL    HW123963   4.397   2.706   3.512  0.1142 -0.6336  0.5851
 4167SOL    HW223964   4.341   2.579   3.557 -0.2139  0.5976 -0.3349
 4168SOL     OW23965   4.436   1.227   4.460 -0.9133 -0.4028  0.5359
 4168SOL    HW123966   4.408   1.250   4.549  0.0009 -3.5630  1.6293
 4168SOL    HW223967   4.516   1.279   4.456 -1.1617  0.2074  3.4892
 4169SOL     OW23968   1.264   3.431   7.552  0.3921  0.5594 -0.6803
 4169SOL    HW123969   1.212   3.408   7.475  0.4478 -1.0944 -0.2305
 4169SOL    HW223970   1.208   3.386   7.616  0.4865  0.1781 -0.8661
 4170SOL     OW23971   3.783   0.925  11.718 -0.1127 -0.3417  0.2804
 4170SOL    HW123972   3.776   0.833  11.695  1.5564  0.0991 -1.9405
 4170SOL    HW223973   3.709   0.929  11.778  0.0427 -0.5764  0.4859
 4171SOL     OW23974   2.800   2.357   4.615  0.2794  0.1967  0.3741
 4171SOL    HW123975   2.723   2.413   4.603 -0.0674 -0.6114 -1.1112
 4171SOL    HW223976   2.869   2.421   4.634  0.9391 -0.6939  0.9546
 4172SOL     OW23977   2.555   2.315   2.311 -0.3195 -0.0177  0.2920
 4172SOL    HW123978   2.627   2.260   2.341 -0.2685  0.0420  0.2811
 4172SOL    HW223979   2.584   2.360   2.231  1.7444 -0.6106  0.7270
 4173SOL     OW23980   4.089   4.186   5.397 -0.3404 -0.4263  0.5716
 4173SOL    HW123981   4.148   4.248   5.355 -0.8554 -0.8371 -0.7482
 4173SOL    HW223982   4.147   4.117   5.428 -0.4447  0.1712  2.0914
 4174SOL     OW23983   0.323   4.021   8.905 -0.0278 -0.2798 -0.0416
 4174SOL    HW123984   0.250   4.032   8.965  0.1521  0.0837  0.1129
 4174SOL    HW223985   0.397   4.052   8.958  0.6319 -3.7668  1.1347
 4175SOL     OW23986   1.457   4.241   1.737  0.3493 -0.4619  0.4104
 4175SOL    HW123987   1.441   4.171   1.801  1.2534 -1.1099 -0.0772
 4175SOL    HW223988   1.505   4.313   1.778 -0.0449 -0.6679  1.2399
 4176SOL     OW23989   3.135   2.197   3.236  0.4240 -0.1576 -0.0881
 4176SOL    HW123990   3.171   2.175   3.150 -1.9725 -1.6377 -0.7151
 4176SOL    HW223991   3.147   2.292   3.234  1.1360 -0.2842 -1.9018
 4177SOL     OW23992   1.031   4.009  10.934 -0.1958  0.0394 -0.4789
 4177SOL    HW123993   0.976   4.005  11.012 -0.2576 -0.2973 -0.5376
 4177SOL    HW223994   1.069   3.922  10.950  0.6625  0.8039  1.5995
 4178SOL     OW23995   2.245   4.243   8.929 -0.2878  1.0362 -0.3924
 4178SOL    HW123996   2.161   4.197   8.929  1.0242 -1.3727 -1.8097
 4178SOL    HW223997   2.263   4.250   9.023 -0.3915  0.7329 -0.3516
 4179SOL     OW23998   4.270   1.291  16.124  0.5604  0.5967  0.3919
 4179SOL    HW123999   4.233   1.223  16.068 -0.7622  0.6149  1.2558
 4179SOL    HW224000   4.205   1.361  16.117 -2.1513 -1.7018  2.5862
 4180SOL     OW24001   2.634   0.584   7.158  0.0114  0.0059 -0.1236
 4180SOL    HW124002   2.602   0.634   7.233  2.5581  0.0719  0.9453
 4180SOL    HW224003   2.593   0.634   7.088 -1.8091  0.1966  1.0904
 4181SOL     OW24004   0.800   4.303   5.642 -0.2015 -0.5937 -0.0373
 4181SOL    HW124005   0.737   4.365   5.679  0.0182 -0.6143  0.3780
 4181SOL    HW224006   0.764   4.287   5.555 -2.8255  1.4095  0.6877
 4182SOL     OW24007   1.258   0.998   3.914 -0.1160  0.2606  0.5087
 4182SOL    HW124008   1.279   0.959   3.829  2.5486  2.8172 -0.0030
 4182SOL    HW224009   1.217   1.077   3.880  1.9960  0.6557 -1.1184
 4183SOL     OW24010   2.425   1.764  10.604 -0.2987 -0.1768  0.1741
 4183SOL    HW124011   2.485   1.807  10.543 -2.5161  1.1135 -1.1030
 4183SOL    HW224012   2.475   1.788  10.682  1.6201 -0.3722 -1.0138
 4184SOL     OW24013   1.686   4.240   4.877  0.4276  0.0727 -0.6255
 4184SOL    HW124014   1.686   4.162   4.932  0.5082  0.6880  0.2422
 4184SOL    HW224015   1.764   4.223   4.823  0.9941  0.2616  0.1405
 4185SOL     OW24016   2.756   3.542  17.300  0.5508  0.2287  0.6427
 4185SOL    HW124017   2.756   3.481  17.225  0.4152  2.1962 -0.9510
 4185SOL    HW224018   2.790   3.620  17.256 -0.1520  0.3681  0.3385
 4186SOL     OW24019   2.612   3.149   5.457 -0.6681  0.0752  0.6837
 4186SOL    HW124020   2.541   3.203   5.422 -0.7251 -1.9127 -2.2968
 4186SOL    HW224021   2.552   3.076   5.476  1.0378 -1.8951 -1.5670
 4187SOL     OW24022   3.624   4.435   0.305  0.1893 -0.2203 -0.4324
 4187SOL    HW124023   3.561   4.418   0.235  0.5356  0.3650 -0.8893
 4187SOL    HW224024   3.704   4.443   0.252  0.2086 -1.8990 -0.6484
 4188SOL     OW24025   1.878   3.755   8.364 -0.6856  0.5773  0.6662
 4188SOL    HW124026   1.791   3.738   8.399 -0.5772  0.6158  0.9516
 4188SOL    HW224027   1.902   3.838   8.405 -1.3934  0.7744  0.6691
 4189SOL     OW24028   2.305   0.974   3.948 -0.0985 -0.3269 -0.0857
 4189SOL    HW124029   2.381   0.926   3.914 -0.6243  0.0918 -1.8355
 4189SOL    HW224030   2.339   1.063   3.964 -0.0655 -0.8913  2.9305
 4190SOL     OW24031   1.630   0.929  12.865  0.7065 -0.3040  0.0896
 4190SOL    HW124032   1.675   0.854  12.903  2.1847  0.9086  0.7640
 4190SOL    HW224033   1.569   0.949  12.935  1.6361  1.5860  0.3621
 4191SOL     OW24034   0.108   2.738   7.107  1.0666 -0.2977 -0.6093
 4191SOL    HW124035   0.201   2.720   7.096  1.0482 -0.3178 -0.7310
 4191SOL    HW224036   0.107   2.818   7.160  3.2662 -0.8778  0.3024
 4192SOL     OW24037   3.651   0.595  15.739 -0.0850 -0.3090  0.5986
 4192SOL    HW124038   3.683   0.633  15.821  1.2048  2.1299 -1.0350
 4192SOL    HW224039   3.619   0.515  15.780 -1.8286  0.2944  0.4430
 4193SOL     OW24040   3.632   1.144   7.528 -0.1418  0.8927  0.2619
 4193SOL    HW124041   3.632   1.057   7.488 -1.6089  1.3940 -0.7993
 4193SOL    HW224042   3.654   1.206   7.459 -0.1238 -1.1041 -1.5419
 4194SOL     OW24043   2.163   3.834   2.296  0.1359  0.5634  1.0192
 4194SOL    HW124044   2.176   3.808   2.205 -0.1929 -0.3226  1.2210
 4194SOL    HW224045   2.101   3.907   2.287  0.4326  0.7298  0.3327
 4195SOL     OW24046   3.896   4.504   5.537  0.3405  0.3431  0.1002
 4195SOL    HW124047   3.902   4.515   5.632 -1.5056  2.0039  0.0395
 4195SOL    HW224048   3.942   4.421   5.524  0.3639  0.6948 -2.1260
 4196SOL     OW24049   3.222   0.157  17.667 -0.2325 -0.2453 -0.2552
 4196SOL    HW124050   3.302   0.168   0.021 -1.2936 -0.1506  1.4287
 4196SOL    HW224051   3.167   0.100   0.025  0.9499 -1.5128 -0.3795
 4197SOL     OW24052   3.176   0.485   9.578  0.0850 -0.0666 -0.2802
 4197SOL    HW124053   3.144   0.403   9.540  0.9887 -0.4320 -0.2406
 4197SOL    HW224054   3.176   0.460   9.670 -0.2650 -0.9377 -0.5139
 4198SOL     OW24055   0.223   3.803   7.702  0.1167  0.3228  0.0955
 4198SOL    HW124056   0.289   3.762   7.646 -2.1206  1.0579 -3.0711
 4198SOL    HW224057   0.139   3.774   7.669 -0.0175  1.6665 -0.7612
 4199SOL     OW24058   1.000   1.820   8.508 -0.0415  0.3952 -0.4636
 4199SOL    HW124059   1.042   1.801   8.424  0.2041 -0.5048 -0.1322
 4199SOL    HW224060   1.024   1.913   8.515  0.4339  0.2089  0.4040
 4200SOL     OW24061   3.774   2.447  16.849  0.4258 -0.5745  0.1973
 4200SOL    HW124062   3.832   2.457  16.773 -1.6963 -0.5492 -1.4341
 4200SOL    HW224063   3.802   2.373  16.902 -1.7275 -1.6620 -0.1459
 4201SOL     OW24064   3.779   2.530   2.508  0.0067 -0.5539 -0.5992
 4201SOL    HW124065   3.835   2.572   2.572  1.9646  0.2563 -2.8594
 4201SOL    HW224066   3.765   2.439   2.534  3.5858 -1.6571 -2.5075
 4202SOL     OW24067   2.885   1.465   8.049  0.3919 -0.5201  0.6231
 4202SOL    HW124068   2.861   1.533   8.112 -1.7123  0.6610 -1.4590
 4202SOL    HW224069   2.970   1.493   8.015  0.5267 -0.8728  0.6654
 4203SOL     OW24070   2.984   2.954   8.965  0.2218  0.4572  0.2335
 4203SOL    HW124071   3.058   2.955   9.026  0.9731 -0.3130 -0.6442
 4203SOL    HW224072   2.945   2.873   8.994 -0.4916  0.9110  0.5346
 4204SOL     OW24073   3.848   4.669   6.272 -0.0703  0.2648  0.0484
 4204SOL    HW124074   3.930   4.696   6.314 -0.8551 -1.5721  2.7358
 4204SOL    HW224075   3.805   0.028   6.250 -1.1992 -0.0259  1.1766
 4205SOL     OW24076   2.243   2.656   1.871  0.3623  0.0046  0.3347
 4205SOL    HW124077   2.149   2.654   1.856  0.7613  0.4907 -2.2869
 4205SOL    HW224078   2.269   2.573   1.830 -2.0020 -0.9426  0.7771
 4206SOL     OW24079   2.827   2.533   7.207  0.5238 -0.1753  0.3047
 4206SOL    HW124080   2.807   2.612   7.155 -2.3792 -2.4045 -1.9475
 4206SOL    HW224081   2.787   2.553   7.292  2.0728 -0.4105  1.0855
 4207SOL     OW24082   0.898   3.706   6.703  0.5707  0.2584  0.4767
 4207SOL    HW124083   0.968   3.655   6.662  0.7976  1.1779 -0.2893
 4207SOL    HW224084   0.880   3.766   6.630  0.1158 -0.9599 -0.4043
 4208SOL     OW24085   3.248   1.413   0.916  0.3623 -0.7097  0.2255
 4208SOL    HW124086   3.335   1.426   0.878  0.5424 -0.8647  0.5801
 4208SOL    HW224087   3.243   1.480   0.984 -0.8241  0.0301 -0.5906
 4209SOL     OW24088   1.038   0.472   3.306  0.2643  0.5600 -0.0474
 4209SOL    HW124089   1.041   0.377   3.313 -1.9694  0.5669  1.0154
 4209SOL    HW224090   1.008   0.493   3.394 -1.1075  2.1984 -0.9040
 4210SOL     OW24091   0.538   0.259   6.147 -0.5558  0.3231  0.1475
 4210SOL    HW124092   0.584   0.197   6.203  0.2149  1.2029  0.4973
 4210SOL    HW224093   0.459   0.243   6.197 -0.0646 -1.1285  0.4683
 4211SOL     OW24094   4.441   4.449  10.403 -0.3996  0.2053  0.3252
 4211SOL    HW124095   4.483   4.529  10.432  0.6646 -0.2688  0.0895
 4211SOL    HW224096   4.351   4.481  10.391 -0.3900  0.3345  0.6119
 4212SOL     OW24097   0.467   4.077  13.099  0.8440 -0.0911  0.3149
 4212SOL    HW124098   0.428   4.160  13.073 -0.2820 -0.1569  1.8299
 4212SOL    HW224099   0.442   4.009  13.035  2.4029 -0.0009 -0.3942
 4213SOL     OW24100   0.116   1.674   9.445 -0.3419 -0.0258 -0.2810
 4213SOL    HW124101   0.029   1.711   9.430 -0.2953  0.2998  0.2419
 4213SOL    HW224102   0.148   1.753   9.488 -1.1665  0.1236  0.0657
 4214SOL     OW24103   4.407   0.707  14.963  0.0371 -0.1755  0.3073
 4214SOL    HW124104   4.451   0.785  14.999 -0.8133  0.6689 -0.4636
 4214SOL    HW224105   4.316   0.733  14.980 -0.5879 -4.0655  2.9071
 4215SOL     OW24106   3.348   1.635   8.213 -0.3747  0.0204  0.3878
 4215SOL    HW124107   3.350   1.540   8.227  1.0619  0.2708  1.8728
 4215SOL    HW224108   3.252   1.643   8.210 -0.4052  0.0293  1.3642
 4216SOL     OW24109   4.297   2.424   2.148  0.2122 -0.6162 -0.0982
 4216SOL    HW124110   4.281   2.407   2.055  0.2311  3.5148 -0.8590
 4216SOL    HW224111   4.207   2.426   2.180  0.2872  2.9305 -0.0779
 4217SOL     OW24112   1.309   2.033  16.382  0.2271 -0.1434 -0.2351
 4217SOL    HW124113   1.331   1.951  16.427 -1.7606 -0.8188 -0.4955
 4217SOL    HW224114   1.230   2.060  16.427 -0.2130  1.5159 -2.0105
 4218SOL     OW24115   2.557   4.051   2.392 -0.0788  0.3470 -0.2181
 4218SOL    HW124116   2.528   4.131   2.436 -0.7911  0.9343 -1.7789
 4218SOL    HW224117   2.592   4.012   2.473 -0.9023  0.2033  0.0708
 4219SOL     OW24118   2.021   3.563  10.265 -0.2673 -0.5890  0.0669
 4219SOL    HW124119   2.067   3.617  10.201 -1.8108 -2.1390 -2.3287
 4219SOL    HW224120   1.929   3.559  10.240  0.0351  0.1019 -1.1165
 4220SOL     OW24121   2.523   2.934   9.372  0.1028  1.0488  0.2436
 4220SOL    HW124122   2.503   3.017   9.417 -4.2435  0.0195  0.2216
 4220SOL    HW224123   2.448   2.884   9.403  0.7380 -0.6112 -0.9265
 4221SOL     OW24124   0.335   3.835   7.971 -0.0877  0.6705 -0.1702
 4221SOL    HW124125   0.290   3.913   8.003 -1.1201 -0.7019  1.7158
 4221SOL    HW224126   0.280   3.811   7.897  0.9430 -1.3466 -0.2860
 4222SOL     OW24127   0.533   3.712  13.503  0.3728 -0.9873  0.3143
 4222SOL    HW124128   0.512   3.794  13.459  0.0053 -1.4536 -0.3824
 4222SOL    HW224129   0.474   3.722  13.578 -0.5887  0.6581 -0.6734
 4223SOL     OW24130   4.119   2.988   3.251  0.6302 -0.3014  0.0680
 4223SOL    HW124131   4.188   3.046   3.217 -1.0615  1.7522  0.1643
 4223SOL    HW224132   4.055   3.058   3.243  0.8488 -0.3669 -2.3498
 4224SOL     OW24133   4.128   1.863  11.524  0.0923  0.5629  0.0077
 4224SOL    HW124134   4.043   1.864  11.479  0.2708  0.6394 -0.3320
 4224SOL    HW224135   4.163   1.787  11.478 -0.9137  0.3993 -0.5017
 4225SOL     OW24136   2.359   0.312   8.304  0.1399  0.4830 -0.0775
 4225SOL    HW124137   2.430   0.296   8.366 -0.3372 -0.9748  0.0959
 4225SOL    HW224138   2.288   0.294   8.366 -0.3438 -0.8141 -1.0186
 4226SOL     OW24139   3.006   3.528   4.663  0.1745 -1.1862 -0.6327
 4226SOL    HW124140   2.937   3.483   4.614 -0.5658 -0.9150  0.1470
 4226SOL    HW224141   3.000   3.613   4.621 -1.0713 -1.0923 -0.2763
 4227SOL     OW24142   2.176   3.280   3.169  0.3535  0.6031 -0.4312
 4227SOL    HW124143   2.169   3.242   3.082  3.9591  0.4738 -0.6899
 4227SOL    HW224144   2.234   3.355   3.155  1.0370  0.4356  1.3924
 4228SOL     OW24145   1.639   0.743   6.975 -0.2985 -0.3765  0.3361
 4228SOL    HW124146   1.592   0.705   7.049  1.9839 -1.9510  0.9592
 4228SOL    HW224147   1.723   0.697   6.982 -1.4213 -2.4681  0.2507
 4229SOL     OW24148   1.139   0.095   3.587  0.4419  0.4617  0.1222
 4229SOL    HW124149   1.233   0.082   3.588  0.2931 -0.6476 -0.8850
 4229SOL    HW224150   1.127   0.172   3.643  0.6297  0.7494 -0.2342
 4230SOL     OW24151   0.681   2.858   6.006  0.4902  0.1106  0.2271
 4230SOL    HW124152   0.702   2.906   6.087 -1.9762 -1.0031  1.5393
 4230SOL    HW224153   0.736   2.782   6.027  0.3892 -0.3609 -1.2536
 4231SOL     OW24154   0.818   3.278   6.271 -0.0294  0.5394 -0.1349
 4231SOL    HW124155   0.911   3.297   6.260  0.1186  0.0951  0.3939
 4231SOL    HW224156   0.785   3.359   6.310  2.2095  0.0603  2.6993
 4232SOL     OW24157   1.682   3.354  16.438 -0.4758 -0.7424 -0.2190
 4232SOL    HW124158   1.762   3.377  16.485  0.1440 -0.3489 -1.4853
 4232SOL    HW224159   1.698   3.394  16.353 -1.1723  0.8234  0.3637
 4233SOL     OW24160   0.970   1.569   4.211  0.2228 -0.6219  0.2647
 4233SOL    HW124161   0.923   1.572   4.128  2.2333 -1.1628 -0.8984
 4233SOL    HW224162   1.049   1.618   4.189 -0.2860  0.2707  0.4577
 4234SOL     OW24163   1.091   1.444   4.704 -0.0027  0.1296 -0.2005
 4234SOL    HW124164   1.045   1.431   4.622  2.0306 -0.9713 -1.1698
 4234SOL    HW224165   1.161   1.380   4.693  2.2677  2.0502  2.9106
 4235SOL     OW24166   2.756   2.932   7.463 -0.3933  0.3595 -0.4209
 4235SOL    HW124167   2.696   3.005   7.447 -0.5918  0.3725  0.4173
 4235SOL    HW224168   2.706   2.854   7.439  1.6376 -0.2673 -2.6232
 4236SOL     OW24169   3.767   0.737   6.544 -0.1340 -0.1593  0.6013
 4236SOL    HW124170   3.736   0.765   6.458  0.6109  0.8048  0.6441
 4236SOL    HW224171   3.863   0.738   6.545 -0.1339 -0.0717  0.5194
 4237SOL     OW24172   2.569   2.847  17.330  0.1217 -0.2188 -0.5623
 4237SOL    HW124173   2.594   2.776  17.390 -0.7899 -0.6802 -0.7356
 4237SOL    HW224174   2.642   2.903  17.355 -1.7350  0.6966  2.8282
 4238SOL     OW24175   2.039   4.230  12.162  0.2665 -0.0543 -0.0497
 4238SOL    HW124176   2.104   4.256  12.227 -2.4261  3.8399  1.0850
 4238SOL    HW224177   2.033   4.309  12.108 -0.9276 -1.5653 -2.1391
 4239SOL     OW24178   4.675   0.409   5.878  0.1805  0.3733  0.7525
 4239SOL    HW124179   0.022   0.387   5.816  0.9148  1.6125  1.1564
 4239SOL    HW224180   4.699   0.360   5.957  0.7729 -1.1095 -0.3158
 4240SOL     OW24181   2.823   0.926   2.743 -0.9007 -0.3989  0.2026
 4240SOL    HW124182   2.877   0.964   2.813  0.1465  0.2261 -0.9472
 4240SOL    HW224183   2.838   0.974   2.661  0.3886  0.1769  0.7658
 4241SOL     OW24184   4.130   4.217   6.347 -0.0665 -0.4222 -0.1008
 4241SOL    HW124185   4.069   4.169   6.291  0.6667 -0.3949 -0.9290
 4241SOL    HW224186   4.071   4.272   6.399  1.4393 -0.6159  1.8011
 4242SOL     OW24187   1.301   2.442   3.212 -0.2304  0.2565  0.2472
 4242SOL    HW124188   1.257   2.455   3.128  0.6404  0.0411 -0.2456
 4242SOL    HW224189   1.243   2.489   3.272  0.4774  0.9960  0.3638
 4243SOL     OW24190   4.204   2.875  16.141 -0.0435 -0.2844  0.2555
 4243SOL    HW124191   4.260   2.928  16.083  0.1946  1.1757  1.8054
 4243SOL    HW224192   4.134   2.940  16.140  0.7416  0.5361 -3.5410
 4244SOL     OW24193   2.065   0.572  13.633  0.1674 -0.1323 -0.0167
 4244SOL    HW124194   2.074   0.578  13.728 -0.1070 -1.5543  0.1000
 4244SOL    HW224195   1.984   0.521  13.632  0.5371 -0.7180  0.7639
 4245SOL     OW24196   3.321   1.407   1.518 -0.3881 -0.2752  0.1254
 4245SOL    HW124197   3.398   1.459   1.541 -0.4152 -0.9473  1.7183
 4245SOL    HW224198   3.317   1.414   1.422 -0.1886 -2.5435 -0.0304
 4246SOL     OW24199   0.371   3.881   7.140  0.5121  0.0551  0.1398
 4246SOL    HW124200   0.317   3.958   7.123  2.9424  1.6361 -0.5810
 4246SOL    HW224201   0.306   3.815   7.162  0.2401  1.1424  2.6407
 4247SOL     OW24202   1.787   0.736   4.371  0.2693  0.3690  0.0310
 4247SOL    HW124203   1.815   0.825   4.390 -3.1811  1.5901 -0.6172
 4247SOL    HW224204   1.702   0.754   4.332  1.1132  0.7260 -1.6792
 4248SOL     OW24205   1.168   2.874   8.739 -0.0556 -0.3198 -0.3089
 4248SOL    HW124206   1.190   2.944   8.800  0.1847 -0.0170 -0.7479
 4248SOL    HW224207   1.180   2.931   8.663 -1.3780 -0.6854 -0.7984
 4249SOL     OW24208   3.188   2.156   5.191  0.0154 -0.6569 -0.5307
 4249SOL    HW124209   3.187   2.237   5.138 -2.2719 -1.6285 -2.0051
 4249SOL    HW224210   3.239   2.172   5.270  2.1380 -1.5883 -1.7333
 4250SOL     OW24211   1.426   4.425   7.044  0.5767 -0.0869 -0.6213
 4250SOL    HW124212   1.423   4.514   7.079 -0.4298  0.0763 -1.1273
 4250SOL    HW224213   1.409   4.383   7.128 -0.3264 -0.7300 -1.1239
 4251SOL     OW24214   4.289   0.653   9.592 -0.7431  0.5752 -0.0376
 4251SOL    HW124215   4.312   0.712   9.663  2.9729 -1.7689  0.7165
 4251SOL    HW224216   4.362   0.650   9.530 -0.8060 -1.1083 -0.0489
 4252SOL     OW24217   4.464   4.242  13.631  0.3572  0.2612 -0.3171
 4252SOL    HW124218   4.490   4.152  13.612  3.8390  1.5933 -1.7370
 4252SOL    HW224219   4.380   4.234  13.678  1.4169 -0.0369  1.5459
 4253SOL     OW24220   1.745   3.483   4.632 -0.6291  0.4181 -0.3518
 4253SOL    HW124221   1.695   3.551   4.677 -0.5981 -0.0079  0.3166
 4253SOL    HW224222   1.824   3.475   4.684  1.0554  1.3883 -2.7396
 4254SOL     OW24223   4.703   0.383  10.730  0.7426 -0.0805  0.1540
 4254SOL    HW124224   4.652   0.304  10.711  0.8591 -0.7298  2.5341
 4254SOL    HW224225   0.070   0.361  10.708  0.3161 -0.0969 -1.5590
 4255SOL     OW24226   2.015   4.602   1.254 -0.7700 -0.1220  0.0132
 4255SOL    HW124227   2.061   4.575   1.174 -1.0740  0.9474 -0.5335
 4255SOL    HW224228   2.046   4.692   1.265  1.7017 -1.1433  1.2716
 4256SOL     OW24229   1.587   1.267   9.749 -0.3063  0.6417 -0.1615
 4256SOL    HW124230   1.510   1.285   9.802 -0.2350 -1.3088  0.6102
 4256SOL    HW224231   1.631   1.352   9.755  1.3463 -0.0832 -1.7745
 4257SOL     OW24232   1.425   4.353   5.645 -0.7698  0.5399  0.1870
 4257SOL    HW124233   1.410   4.272   5.694  1.1739  0.4887  0.7012
 4257SOL    HW224234   1.497   4.339   5.583 -0.5228  0.0619  0.5851
 4258SOL     OW24235   0.762   3.937   5.449 -0.0182 -0.1631 -0.2715
 4258SOL    HW124236   0.689   3.945   5.510  1.2328 -0.2946  1.2591
 4258SOL    HW224237   0.812   3.875   5.502  0.2384  0.1228 -0.1775
 4259SOL     OW24238   2.112   0.495   7.915  0.2484  0.4739 -0.1748
 4259SOL    HW124239   2.054   0.570   7.914  0.4872  0.6341 -1.2754
 4259SOL    HW224240   2.135   0.498   8.008 -1.5352 -2.5345  0.3596
 4260SOL     OW24241   3.311   3.293   7.879  0.2911 -0.3851 -0.3066
 4260SOL    HW124242   3.303   3.214   7.932  0.8703  0.1221  0.5284
 4260SOL    HW224243   3.312   3.366   7.941  1.0127 -0.0595 -0.7086
 4261SOL     OW24244   1.274   4.215   8.120 -0.2899  0.1510 -0.8235
 4261SOL    HW124245   1.188   4.188   8.088 -1.2885  2.7103 -0.3085
 4261SOL    HW224246   1.301   4.145   8.178 -0.6941  1.5611  1.0783
 4262SOL     OW24247   3.982   1.906   1.214  0.5498  0.7091 -0.4090
 4262SOL    HW124248   4.024   1.863   1.289 -0.2053  1.4094  0.4199
 4262SOL    HW224249   4.053   1.953   1.170  0.2806 -0.6799 -2.3322
 4263SOL     OW24250   1.386   0.474   8.148 -0.0439 -0.4519  0.0200
 4263SOL    HW124251   1.360   0.393   8.104  1.6228 -0.8739 -0.1843
 4263SOL    HW224252   1.479   0.465   8.130  0.2387  0.2397  1.1106
 4264SOL     OW24253   1.982   2.004   5.627  0.1624  0.0217  0.2547
 4264SOL    HW124254   1.962   1.913   5.607  0.6781 -0.5997  2.5002
 4264SOL    HW224255   2.056   2.030   5.572  1.1223 -2.3697  0.4358
 4265SOL     OW24256   0.347   4.565   7.969  0.1079 -0.0641 -0.4984
 4265SOL    HW124257   0.255   4.545   7.954  0.4708 -2.5863  0.5987
 4265SOL    HW224258   0.384   4.592   7.884  1.4633 -0.2158  0.0395
 4266SOL     OW24259   1.991   0.275   6.670  0.1999  0.6858  0.6282
 4266SOL    HW124260   1.896   0.277   6.684 -0.2727 -1.0880 -2.3906
 4266SOL    HW224261   2.030   0.292   6.756 -2.4274  1.1150  1.7204
 4267SOL     OW24262   2.372   4.231   1.010  0.1647  0.4600  0.0048
 4267SOL    HW124263   2.409   4.151   0.973 -1.4366  1.3676 -3.5094
 4267SOL    HW224264   2.456   4.274   1.026 -0.2791  1.2496  0.1878
 4268SOL     OW24265   3.444   3.311   9.842  0.3304  0.2872  0.0351
 4268SOL    HW124266   3.448   3.398   9.804 -0.7262  0.4361  0.2509
 4268SOL    HW224267   3.536   3.285   9.842  0.3790  0.4840 -1.6255
 4269SOL     OW24268   0.805   4.562  11.620 -0.1737  0.1122  0.1837
 4269SOL    HW124269   0.869   4.567  11.691 -2.2204  1.0958  1.9577
 4269SOL    HW224270   0.793   4.469  11.599 -0.4191 -0.1645  1.5230
 4270SOL     OW24271   2.697   1.080  15.568  0.2261 -0.0488  0.1839
 4270SOL    HW124272   2.661   1.072  15.657 -1.4938 -0.0203 -0.5107
 4270SOL    HW224273   2.636   1.037  15.508  0.9122 -3.7582  2.1120
 4271SOL     OW24274   2.462   2.256  13.136  0.0867 -0.4420 -0.0621
 4271SOL    HW124275   2.498   2.195  13.200  0.6064  0.8665  0.8750
 4271SOL    HW224276   2.439   2.324  13.199 -3.2827 -2.0849  0.4985
 4272SOL     OW24277   1.671   1.717   3.453 -0.1693 -0.4332  0.1822
 4272SOL    HW124278   1.755   1.707   3.409  0.4256 -0.0101  1.2014
 4272SOL    HW224279   1.607   1.733   3.384 -0.9939 -3.6680  0.1994
 4273SOL     OW24280   2.864   2.644   2.635 -0.3749  0.6403  0.0969
 4273SOL    HW124281   2.855   2.698   2.557  1.5099 -1.7948 -1.7875
 4273SOL    HW224282   2.954   2.659   2.666  0.2190  1.8354 -2.2407
 4274SOL     OW24283   3.920   1.486  13.834  0.2570 -0.8986 -0.0161
 4274SOL    HW124284   3.927   1.432  13.912 -3.0436 -4.0655 -1.9259
 4274SOL    HW224285   3.994   1.450  13.785  0.0476 -0.9727 -0.2812
 4275SOL     OW24286   3.270   4.237  10.028  0.7682  0.1472 -0.1853
 4275SOL    HW124287   3.283   4.143  10.030 -0.9613 -0.0757  0.6804
 4275SOL    HW224288   3.291   4.267  10.117  2.2144  2.6268 -1.3570
 4276SOL     OW24289   0.521   1.027   8.232  0.1292  0.1844 -0.1924
 4276SOL    HW124290   0.556   1.040   8.320 -1.3410  0.1082  0.3933
 4276SOL    HW224291   0.602   1.050   8.185 -1.7520  2.7043 -2.2021
 4277SOL     OW24292   2.126   3.510   6.614  0.1584 -0.0365  0.1632
 4277SOL    HW124293   2.046   3.508   6.560  0.6252 -1.3160 -0.4793
 4277SOL    HW224294   2.191   3.543   6.552  2.0721 -0.6701  1.8351
 4278SOL     OW24295   2.251   2.528   5.345 -0.4375 -0.2142  0.6496
 4278SOL    HW124296   2.193   2.492   5.412 -1.2013  1.1828  0.7422
 4278SOL    HW224297   2.337   2.514   5.386 -1.0540 -2.4559  1.2102
 4279SOL     OW24298   4.222   3.386   8.045  0.5660  0.1557  0.1738
 4279SOL    HW124299   4.217   3.347   7.957 -1.4833  0.8087 -0.0108
 4279SOL    HW224300   4.291   3.449   8.029 -1.0032  1.3545 -1.9686
 4280SOL     OW24301   3.879   3.828  16.885 -0.3322 -0.5668 -0.0057
 4280SOL    HW124302   3.833   3.780  16.817 -1.7868  0.0549  0.5423
 4280SOL    HW224303   3.843   3.916  16.875 -0.8939 -1.0369 -2.1354
 4281SOL     OW24304   0.223   0.876   7.795 -0.5900 -0.2901 -0.3111
 4281SOL    HW124305   0.181   0.915   7.871 -2.0767  0.2387 -1.4081
 4281SOL    HW224306   0.299   0.838   7.839 -0.4647  0.7516  0.3746
 4282SOL     OW24307   4.300   1.845   1.416  0.0376 -0.2309  0.5685
 4282SOL    HW124308   4.217   1.817   1.455  0.8371 -1.8551  1.1021
 4282SOL    HW224309   4.329   1.911   1.480 -0.6661  0.0027  0.6481
 4283SOL     OW24310   2.109   1.407   8.728  0.0472 -0.3354  0.0399
 4283SOL    HW124311   2.131   1.314   8.719 -0.9668 -0.7038  1.2470
 4283SOL    HW224312   2.016   1.399   8.705  0.4882 -0.7079 -1.6282
 4284SOL     OW24313   3.920   0.464   3.146 -0.1518 -0.3125  0.5215
 4284SOL    HW124314   4.011   0.440   3.130  0.6162  1.6382  1.8708
 4284SOL    HW224315   3.920   0.532   3.079  0.0943 -0.2603  0.5741
 4285SOL     OW24316   0.764   1.622   4.367  0.1262 -0.5561 -0.8528
 4285SOL    HW124317   0.845   1.601   4.319  0.7688 -0.8947  0.3977
 4285SOL    HW224318   0.796   1.712   4.380  0.2041 -0.8265  0.7915
 4286SOL     OW24319   0.959   0.025   8.100 -0.2085  0.1809 -0.2349
 4286SOL    HW124320   0.978   0.098   8.041 -0.9673  0.2337 -0.4131
 4286SOL    HW224321   1.022   0.048   8.169 -1.4161 -0.5168  1.1164
 4287SOL     OW24322   0.389   0.248  16.668  1.0204 -0.8445  0.6055
 4287SOL    HW124323   0.346   0.311  16.725 -0.0621 -1.6541  0.6786
 4287SOL    HW224324   0.326   0.250  16.596  1.2184 -1.2352  0.4236
 4288SOL     OW24325   0.023   4.497   4.799  0.1778 -0.3330 -0.4514
 4288SOL    HW124326   0.015   4.566   4.865 -1.7702 -2.2950  1.3353
 4288SOL    HW224327   4.683   4.434   4.833  0.3608  1.0461  2.4022
 4289SOL     OW24328   1.698   0.006  11.647 -0.3338 -0.5471  0.1067
 4289SOL    HW124329   1.702   0.032  11.555  1.0317 -1.3720 -0.0613
 4289SOL    HW224330   1.616   0.051  11.669 -0.3056 -0.0722 -0.7901
 4290SOL     OW24331   2.223   3.742  17.574 -0.5338  0.2174 -0.2035
 4290SOL    HW124332   2.278   3.676  17.532 -0.0080  0.6294 -0.1615
 4290SOL    HW224333   2.146   3.745  17.516  0.4218  1.6032 -1.3916
 4291SOL     OW24334   1.145   1.022   4.850 -0.2774 -0.6506  0.1089
 4291SOL    HW124335   1.135   0.982   4.764  1.7091 -1.3472  0.2046
 4291SOL    HW224336   1.231   0.999   4.884 -0.1499 -1.5369 -0.7972
 4292SOL     OW24337   4.112   3.145   0.285  0.7163  0.0244  0.1523
 4292SOL    HW124338   4.061   3.225   0.302 -0.7027 -1.1217  1.2216
 4292SOL    HW224339   4.147   3.176   0.201 -1.1048  1.1175 -0.1984
 4293SOL     OW24340   0.033   1.435   8.935 -0.0981  0.0925  0.3949
 4293SOL    HW124341   0.085   1.355   8.941 -1.3751 -0.8498 -1.0730
 4293SOL    HW224342   0.063   1.482   9.012 -0.6490  0.1898  0.5543
 4294SOL     OW24343   3.630   3.664   1.401 -0.1522  0.0792  0.6134
 4294SOL    HW124344   3.629   3.576   1.438 -1.0409  0.1201  0.6861
 4294SOL    HW224345   3.576   3.649   1.323  0.6390 -3.0794  0.6888
 4295SOL     OW24346   3.759   0.832   9.436 -0.4394  0.6165 -0.2129
 4295SOL    HW124347   3.814   0.901   9.475  1.8650 -1.6220  0.5086
 4295SOL    HW224348   3.703   0.810   9.510  0.0781 -0.9723 -0.2936
 4296SOL     OW24349   2.169   1.015  14.037  0.7451  0.4291  0.2081
 4296SOL    HW124350   2.226   1.076  14.083 -0.4582  1.3269  0.5013
 4296SOL    HW224351   2.096   1.027  14.098 -1.5340 -0.2268 -2.4115
 4297SOL     OW24352   0.482   1.519  15.797 -0.3399  0.0745  0.1619
 4297SOL    HW124353   0.390   1.542  15.811 -1.0379 -1.3117 -2.0489
 4297SOL    HW224354   0.504   1.563  15.715  1.8711  1.2423  1.3788
 4298SOL     OW24355   2.654   1.511   7.906  0.1364 -0.1508  0.1802
 4298SOL    HW124356   2.739   1.513   7.949  0.2462  1.6326 -0.1000
 4298SOL    HW224357   2.689   1.464   7.831  0.7454  2.0271 -0.9123
 4299SOL     OW24358   4.534   1.458   5.314  0.8239 -0.1975  0.4099
 4299SOL    HW124359   4.585   1.398   5.258 -2.2983  0.2227 -2.8923
 4299SOL    HW224360   4.448   1.418   5.306  0.8341 -0.0551 -0.4816
 4300SOL     OW24361   2.091   3.580   3.901 -0.0589  0.2702  0.4173
 4300SOL    HW124362   2.114   3.643   3.833  1.5409 -0.2192  0.5023
 4300SOL    HW224363   2.166   3.520   3.894  0.1694  0.6453 -0.4190
 4301SOL     OW24364   2.418   2.010  11.707 -0.5417  0.6089 -0.0969
 4301SOL    HW124365   2.478   2.045  11.640 -0.2215  1.1091  0.4529
 4301SOL    HW224366   2.332   2.036  11.676  0.2074 -0.1412 -2.9237
 4302SOL     OW24367   2.917   2.945   8.361  0.2727 -0.6431 -0.1923
 4302SOL    HW124368   2.949   2.973   8.275 -1.8991  0.9614 -0.4827
 4302SOL    HW224369   3.000   2.917   8.399  0.3810  0.6575  0.5180
 4303SOL     OW24370   2.080   1.612   2.202 -0.0770 -0.7083  0.2765
 4303SOL    HW124371   2.164   1.606   2.156  1.3425  1.0927  2.5997
 4303SOL    HW224372   2.089   1.703   2.229  0.0445 -0.7734  0.4582
 4304SOL     OW24373   3.723   1.090   9.851 -0.1911 -0.0664 -0.0099
 4304SOL    HW124374   3.777   1.105   9.773  0.8134 -1.9576  0.3244
 4304SOL    HW224375   3.686   1.177   9.864 -0.3863 -0.2802  0.8620
 4305SOL     OW24376   0.460   4.320  16.489  0.0650  0.3901 -0.0195
 4305SOL    HW124377   0.411   4.238  16.482 -2.3120  1.9975 -1.9525
 4305SOL    HW224378   0.456   4.342  16.582  1.5141  1.8469 -0.3083
 4306SOL     OW24379   0.589   1.500   9.711  0.1457  0.1278  0.5930
 4306SOL    HW124380   0.517   1.439   9.700 -0.7066  1.2798 -0.1683
 4306SOL    HW224381   0.649   1.470   9.642 -1.0408 -1.2015  0.1599
 4307SOL     OW24382   1.858   1.633   8.195 -0.0860 -0.1574  0.0952
 4307SOL    HW124383   1.873   1.706   8.255  0.8254  0.7356 -1.2219
 4307SOL    HW224384   1.866   1.673   8.108  1.3871  0.8169  0.6702
 4308SOL     OW24385   1.736   3.905   4.668 -0.5877  0.2446 -0.4702
 4308SOL    HW124386   1.823   3.894   4.630 -1.0938 -0.8197 -1.3132
 4308SOL    HW224387   1.725   4.000   4.676  3.3460  0.5927  0.8317
 4309SOL     OW24388   2.883   0.136   6.510 -0.1200 -0.0669 -0.1463
 4309SOL    HW124389   2.900   0.059   6.564  1.1272  0.3008 -0.0003
 4309SOL    HW224390   2.835   0.098   6.436 -0.7123  0.5545 -0.0795
 4310SOL     OW24391   2.184   4.389   0.897 -0.1982 -0.8200  0.9333
 4310SOL    HW124392   2.269   4.347   0.915  0.9488  1.7654  1.4312
 4310SOL    HW224393   2.187   4.467   0.952 -0.1788 -0.3769  0.3061
 4311SOL     OW24394   0.585   0.579   2.736 -0.8768 -0.2128  0.3547
 4311SOL    HW124395   0.531   0.628   2.675 -0.4308  0.2829  0.3617
 4311SOL    HW224396   0.516   0.564   2.801 -0.4056 -1.5555  0.5528
 4312SOL     OW24397   3.831   3.411   4.049  0.3335 -0.7649  1.0913
 4312SOL    HW124398   3.754   3.419   4.105 -0.7152 -3.7351  0.1137
 4312SOL    HW224399   3.798   3.392   3.961  1.7552  1.3724  0.0950
 4313SOL     OW24400   0.088   3.531  15.438 -0.2785  0.1614  0.2390
 4313SOL    HW124401   4.717   3.539  15.425 -0.2740  0.3752  0.3336
 4313SOL    HW224402   0.121   3.549  15.350 -0.4723 -3.7379 -0.6179
 4314SOL     OW24403   3.868   1.745   6.179  0.2139 -0.1120  0.2038
 4314SOL    HW124404   3.917   1.677   6.134 -1.4024 -0.4383 -1.0442
 4314SOL    HW224405   3.777   1.717   6.187  0.7718 -1.7188  0.8477
 4315SOL     OW24406   0.769   1.862  11.240  0.1110  0.2059 -0.2025
 4315SOL    HW124407   0.701   1.831  11.181 -1.4559 -0.2146  1.8265
 4315SOL    HW224408   0.721   1.934  11.282  0.9958 -0.8478  2.6175
 4316SOL     OW24409   3.929   0.400   8.932  0.6774 -0.2138  0.1566
 4316SOL    HW124410   3.844   0.440   8.913  1.4223  1.1388 -0.3455
 4316SOL    HW224411   3.901   0.315   8.896  0.2489 -0.4361  1.0263
 4317SOL     OW24412   2.470   4.251   6.088  0.1491 -0.0621  0.1256
 4317SOL    HW124413   2.491   4.252   6.182 -1.1748  1.9649  0.4084
 4317SOL    HW224414   2.480   4.157   6.075 -0.5005 -0.3428  1.5798
 4318SOL     OW24415   2.484   0.885  15.156 -0.2366 -0.0904 -0.2273
 4318SOL    HW124416   2.560   0.903  15.101 -0.2282  0.1628 -0.1360
 4318SOL    HW224417   2.422   0.935  15.102 -1.5693 -1.1697  0.3064
 4319SOL     OW24418   4.462   0.057   8.215  0.7049  0.4864  0.2991
 4319SOL    HW124419   4.484   0.003   8.290  1.9271 -0.1129 -0.4895
 4319SOL    HW224420   4.547   0.088   8.184  1.1538 -0.5543  0.5121
 4320SOL     OW24421   1.702   3.711  10.499 -0.4812  0.2094  0.1095
 4320SOL    HW124422   1.617   3.672  10.515  0.4082 -1.4409  0.7860
 4320SOL    HW224423   1.727   3.745  10.585  1.0638  0.3267 -0.3767
 4321SOL     OW24424   2.444   1.774  14.822 -0.3588  0.0894 -0.0617
 4321SOL    HW124425   2.386   1.786  14.747  0.1860  2.3231 -0.1080
 4321SOL    HW224426   2.466   1.862  14.852 -1.2945  0.5225 -0.6421
 4322SOL     OW24427   0.212   1.359   5.603 -0.5453 -0.3738 -0.3513
 4322SOL    HW124428   0.210   1.264   5.616  1.2822 -0.5745 -1.4840
 4322SOL    HW224429   0.118   1.362   5.588 -0.7555  1.2299  1.2855
 4323SOL     OW24430   0.678   4.030  14.900 -0.3096 -0.1871  0.3208
 4323SOL    HW124431   0.636   4.036  14.813  1.5778  0.0164 -0.5672
 4323SOL    HW224432   0.597   4.014  14.949 -1.6398  3.3232 -0.7135
 4324SOL     OW24433   1.392   4.207   5.065 -0.2006  0.5207  0.0545
 4324SOL    HW124434   1.326   4.277   5.057 -3.1302 -2.2159  0.5014
 4324SOL    HW224435   1.429   4.210   4.977  0.3977 -1.7117  0.2323
 4325SOL     OW24436   0.831   2.967   1.971  0.4003  0.0782 -0.1745
 4325SOL    HW124437   0.792   3.035   1.916 -1.7073 -2.0899 -1.3267
 4325SOL    HW224438   0.769   2.958   2.043  0.5644 -2.2611 -0.3348
 4326SOL     OW24439   2.846   3.212   4.665 -0.2716 -1.1571  0.2333
 4326SOL    HW124440   2.841   3.218   4.761  1.2576 -3.0386  0.4288
 4326SOL    HW224441   2.779   3.274   4.636 -1.3252 -2.7539 -0.7254
 4327SOL     OW24442   1.483   2.764   2.743  0.2858  0.8524  0.0284
 4327SOL    HW124443   1.495   2.852   2.780 -1.7315  2.2520 -2.6562
 4327SOL    HW224444   1.541   2.772   2.668  1.0028 -0.4888  0.4570
 4328SOL     OW24445   1.482   0.805   4.316 -0.5652  0.1734  0.2591
 4328SOL    HW124446   1.483   0.844   4.228  1.8194  1.8301  1.0346
 4328SOL    HW224447   1.406   0.747   4.305 -0.5844  0.8428 -3.1569
 4329SOL     OW24448   2.496   3.626  11.775  0.0113  0.1163 -0.8166
 4329SOL    HW124449   2.568   3.676  11.735 -0.4865  0.4972 -1.2367
 4329SOL    HW224450   2.540   3.552  11.817 -0.2040  0.2061 -0.4247
 4330SOL     OW24451   4.202   4.208   8.230  0.0261 -0.0449 -0.1533
 4330SOL    HW124452   4.178   4.288   8.277  3.1037  0.5048  0.5070
 4330SOL    HW224453   4.290   4.201   8.268  0.2181 -1.9262 -0.9473
 4331SOL     OW24454   4.437   3.636   5.334 -0.1262  0.1527  0.2859
 4331SOL    HW124455   4.413   3.698   5.404  0.5613 -1.6886  2.1352
 4331SOL    HW224456   4.425   3.703   5.266 -0.2498  0.6877  0.8264
 4332SOL     OW24457   4.585   2.373  16.503 -0.3534 -0.3652 -0.0763
 4332SOL    HW124458   4.549   2.461  16.518  0.6392  0.3272 -1.6782
 4332SOL    HW224459   4.567   2.337  16.589  0.6846 -0.6704  0.0144
 4333SOL     OW24460   0.753   1.671   7.916 -0.2366  0.2170  0.5361
 4333SOL    HW124461   0.779   1.742   7.974 -0.1136  0.3092  0.3678
 4333SOL    HW224462   0.839   1.630   7.907  0.2690  1.7351 -1.6952
 4334SOL     OW24463   3.384   3.398  10.999 -0.3290 -0.0403 -0.1651
 4334SOL    HW124464   3.377   3.398  10.904 -1.7846 -3.1847 -0.0348
 4334SOL    HW224465   3.395   3.305  11.019  1.0833  0.3754  1.0683
 4335SOL     OW24466   0.759   1.353   4.030  0.3908  0.8260  0.0272
 4335SOL    HW124467   0.834   1.305   3.994 -0.0277  2.9961 -3.7650
 4335SOL    HW224468   0.778   1.436   3.985  0.5671  0.8381  0.1245
 4336SOL     OW24469   3.139   1.101   7.298 -0.3128 -0.3870 -0.3768
 4336SOL    HW124470   3.144   1.164   7.225 -0.2989 -0.8843 -0.8053
 4336SOL    HW224471   3.231   1.095   7.322 -0.5079 -0.8029  0.2464
 4337SOL     OW24472   1.131   3.521  10.869 -0.1918  0.1320  0.1111
 4337SOL    HW124473   1.139   3.478  10.954  0.2396 -0.5353 -0.2700
 4337SOL    HW224474   1.220   3.543  10.844  0.2426 -1.4172  0.3402
 4338SOL     OW24475   0.293   3.437   5.597  0.2300  0.1798  0.0498
 4338SOL    HW124476   0.261   3.519   5.636 -1.5806 -1.4856  2.0548
 4338SOL    HW224477   0.286   3.449   5.502 -3.2144  0.9675  0.3982
 4339SOL     OW24478   3.821   1.849   8.713 -0.0056  0.3419  0.0618
 4339SOL    HW124479   3.731   1.845   8.745 -0.9820 -2.3312 -2.9877
 4339SOL    HW224480   3.808   1.851   8.618 -0.0456  2.2635  0.1019
 4340SOL     OW24481   3.722   3.886  12.144  0.3731 -0.0078 -0.0474
 4340SOL    HW124482   3.677   3.812  12.104  0.4806 -0.2005  0.1933
 4340SOL    HW224483   3.694   3.874  12.235 -1.4161 -1.5082 -0.7981
 4341SOL     OW24484   0.356   2.868  11.788  0.4117 -0.2517  0.7680
 4341SOL    HW124485   0.349   2.782  11.748 -0.5836  1.7750 -3.4470
 4341SOL    HW224486   0.368   2.917  11.706 -1.1860 -0.5944  0.3362
 4342SOL     OW24487   4.594   2.940   7.435  0.2125  0.2630 -0.3406
 4342SOL    HW124488   4.505   2.974   7.434 -0.7863 -2.4230 -0.3604
 4342SOL    HW224489   4.591   2.883   7.359  0.9239  0.7345 -0.7278
 4343SOL     OW24490   3.211   3.856   4.635  0.2986 -0.4742  0.6317
 4343SOL    HW124491   3.193   3.839   4.727 -0.9154 -1.4110  0.2241
 4343SOL    HW224492   3.292   3.907   4.630  0.4110 -0.7805 -0.7185
 4344SOL     OW24493   3.382   4.687  11.486  0.8376 -0.1554  0.3012
 4344SOL    HW124494   3.333   4.635  11.551 -0.5446  2.0423  1.0336
 4344SOL    HW224495   3.440   0.023  11.533  0.0682 -0.0340  1.1208
 4345SOL     OW24496   1.116   0.768  11.186 -0.5475  0.3109 -0.2731
 4345SOL    HW124497   1.152   0.729  11.106 -2.8035  1.8060 -2.0436
 4345SOL    HW224498   1.165   0.736  11.261 -1.3140  0.0583  0.1242
 4346SOL     OW24499   0.022   1.933  11.236  0.0900  0.9563  0.2171
 4346SOL    HW124500   4.668   1.960  11.286 -1.1511 -0.9708 -0.6719
 4346SOL    HW224501   4.710   1.876  11.168  0.6820 -0.3087  0.9546
 4347SOL     OW24502   1.111   0.519   7.266  0.2983  0.3837 -0.2815
 4347SOL    HW124503   1.136   0.605   7.299  1.4566 -0.5803  1.4286
 4347SOL    HW224504   1.120   0.482   7.354  0.8078 -0.2712 -0.6037
 4348SOL     OW24505   1.579   2.632   5.087  0.2362  0.6182  0.8024
 4348SOL    HW124506   1.663   2.667   5.055  1.2511 -0.1215  2.6510
 4348SOL    HW224507   1.552   2.706   5.143  0.8417 -0.1076  2.0651
 4349SOL     OW24508   2.586   3.912   8.158  0.3718  0.0827 -0.8356
 4349SOL    HW124509   2.519   3.888   8.221 -0.1984 -2.4952 -2.4635
 4349SOL    HW224510   2.523   3.939   8.092 -0.3352  0.8245  0.1481
 4350SOL     OW24511   2.845   0.863   1.736  0.1596  0.2655  0.5613
 4350SOL    HW124512   2.815   0.931   1.796  1.5573  0.7695  0.6936
 4350SOL    HW224513   2.882   0.919   1.668 -1.8452  1.7173  0.6892
 4351SOL     OW24514   2.521   0.274   8.837 -0.2179  0.4698  0.5437
 4351SOL    HW124515   2.473   0.356   8.848 -1.3351  0.0002 -0.8005
 4351SOL    HW224516   2.453   0.209   8.820  0.7186 -0.6455  1.1379
 4352SOL     OW24517   0.401   1.950   7.035 -0.6315  0.4568  0.3270
 4352SOL    HW124518   0.328   1.898   7.000  0.5169  1.2188 -3.1493
 4352SOL    HW224519   0.357   2.017   7.087  0.1733  0.9183  0.4052
 4353SOL     OW24520   0.808   2.114   6.371 -0.2707 -0.5600 -0.1284
 4353SOL    HW124521   0.717   2.119   6.400 -0.4549  0.8933 -0.9343
 4353SOL    HW224522   0.798   2.109   6.276  0.1539 -0.3982 -0.1804
 4354SOL     OW24523   3.934   2.546  17.679  0.7506  0.0378  0.0655
 4354SOL    HW124524   4.019   2.580  17.653  1.1587 -1.3547 -0.4375
 4354SOL    HW224525   3.908   2.613   0.046  1.0501 -2.2293  2.5933
 4355SOL     OW24526   1.674   1.449  12.165 -0.0661 -0.1045  0.0356
 4355SOL    HW124527   1.749   1.469  12.109  0.8317  0.2432  1.3668
 4355SOL    HW224528   1.654   1.357  12.143  1.3708  0.0146 -1.8397
 4356SOL     OW24529   1.562   3.514   2.687 -0.0546 -0.3324  0.7669
 4356SOL    HW124530   1.480   3.486   2.645 -0.5721  0.6065  1.1345
 4356SOL    HW224531   1.569   3.453   2.760 -0.3355 -2.7933 -1.2810
 4357SOL     OW24532   2.018   1.066   2.734 -0.0672 -0.0277  0.0402
 4357SOL    HW124533   2.033   0.972   2.742  1.5680  0.1038 -1.3822
 4357SOL    HW224534   1.925   1.073   2.757  0.5942 -0.6639  2.8647
 4358SOL     OW24535   1.863   4.240  14.139  0.0446  0.1963 -0.1214
 4358SOL    HW124536   1.807   4.280  14.072 -0.1872 -1.6228 -1.0289
 4358SOL    HW224537   1.893   4.328  14.159 -0.7776  0.4201  0.1553
 4359SOL     OW24538   0.841   3.270   7.734  0.3378 -0.0089 -0.1933
 4359SOL    HW124539   0.902   3.301   7.801 -0.6067  2.1404 -0.3335
 4359SOL    HW224540   0.824   3.182   7.768  1.6285  0.1284  0.8022
 4360SOL     OW24541   4.206   1.633   5.684 -0.4663 -0.0144  0.0560
 4360SOL    HW124542   4.292   1.674   5.694 -0.0751 -0.6961 -0.5812
 4360SOL    HW224543   4.182   1.657   5.595  0.4148 -1.3934 -0.5509
 4361SOL     OW24544   0.852   2.383   8.314 -0.2187 -0.2116  0.6290
 4361SOL    HW124545   0.866   2.423   8.400 -0.6681  1.8093 -0.2623
 4361SOL    HW224546   0.777   2.435   8.285 -1.0229 -1.2349  0.8447
 4362SOL     OW24547   3.296   3.979   3.524 -0.5812  0.3771 -0.1315
 4362SOL    HW124548   3.344   3.911   3.571  0.3692  1.5091  0.5410
 4362SOL    HW224549   3.221   3.935   3.483 -1.5696 -1.3294  3.5329
 4363SOL     OW24550   3.254   2.928   5.169 -0.5130  0.6519  0.6135
 4363SOL    HW124551   3.293   2.961   5.088 -0.9122 -2.3641 -0.8069
 4363SOL    HW224552   3.167   2.914   5.132  0.4010  0.4217 -1.4887
 4364SOL     OW24553   1.925   3.609   6.786  0.5197 -0.0378  0.7071
 4364SOL    HW124554   1.983   3.588   6.712 -0.6427 -2.1466  0.4039
 4364SOL    HW224555   1.982   3.633   6.859  1.5295 -0.4844  0.0677
 4365SOL     OW24556   0.979   1.612   9.977 -0.2875  0.0584  0.3647
 4365SOL    HW124557   1.015   1.684   9.927  1.7436 -2.2310 -1.4567
 4365SOL    HW224558   0.964   1.651  10.064  1.0532  0.0882  0.5834
 4366SOL     OW24559   4.468   4.425   3.946 -0.6878  0.1737  0.6989
 4366SOL    HW124560   4.433   4.419   4.035  1.0295 -1.7692  1.2584
 4366SOL    HW224561   4.496   4.337   3.920  1.6147  1.6291 -1.7684
 4367SOL     OW24562   2.111   3.889  15.308 -0.2377 -0.1841 -0.1990
 4367SOL    HW124563   2.091   3.927  15.223 -1.7090  1.3353  0.8303
 4367SOL    HW224564   2.096   3.797  15.284 -1.0485  0.3610 -1.7929
 4368SOL     OW24565   4.178   0.067   1.630  0.7127 -0.1939 -0.3856
 4368SOL    HW124566   4.092   0.110   1.624  0.0054 -1.5606 -0.0676
 4368SOL    HW224567   4.153   4.714   1.682 -0.8807  0.3317 -0.3707
 4369SOL     OW24568   2.311   2.841  15.186 -0.4477 -0.4933 -0.2420
 4369SOL    HW124569   2.356   2.915  15.145 -1.3464 -0.4628 -1.1662
 4369SOL    HW224570   2.384   2.779  15.186 -0.1175 -0.1177  1.5318
 4370SOL     OW24571   4.145   3.233   8.958  0.7370  0.2446  0.0409
 4370SOL    HW124572   4.070   3.283   8.925 -0.7449 -1.3864  0.9085
 4370SOL    HW224573   4.130   3.232   9.052  4.0432 -1.4861  0.5384
 4371SOL     OW24574   2.216   4.189   7.014 -0.1150 -0.3516  0.0651
 4371SOL    HW124575   2.129   4.179   7.054 -1.2528 -1.1862 -2.6143
 4371SOL    HW224576   2.198   4.241   6.936 -1.5452 -0.1528  0.5324
 4372SOL     OW24577   2.041   4.322   0.392  0.0227 -0.5114  0.0384
 4372SOL    HW124578   2.100   4.330   0.467 -0.3595 -0.8131  0.3705
 4372SOL    HW224579   2.082   4.248   0.348 -0.7521  0.3366 -2.1033
 4373SOL     OW24580   1.537   1.628   8.903 -0.4049 -0.0307  0.0791
 4373SOL    HW124581   1.489   1.638   8.985  0.4055 -1.1101  0.6975
 4373SOL    HW224582   1.585   1.711   8.901 -1.6311  0.7099  1.4519
 4374SOL     OW24583   3.828   2.552   6.870  0.3215  0.1487 -0.0981
 4374SOL    HW124584   3.814   2.460   6.848  1.9919  0.1901 -1.2694
 4374SOL    HW224585   3.909   2.553   6.921  0.6515 -0.8674 -0.6043
 4375SOL     OW24586   4.517   4.553   6.911  0.6377  0.0448 -0.0521
 4375SOL    HW124587   4.460   4.609   6.964  0.0252  0.0956 -0.7720
 4375SOL    HW224588   4.605   4.590   6.924 -0.0170  1.3187  0.7350
 4376SOL     OW24589   1.278   2.342  15.912 -0.1110  0.3056  0.4658
 4376SOL    HW124590   1.312   2.394  15.839  1.1508 -3.5832 -1.7069
 4376SOL    HW224591   1.260   2.415  15.971 -1.8159 -1.4985  2.1952
 4377SOL     OW24592   2.263   2.233  16.631 -0.3345  0.1207 -0.4274
 4377SOL    HW124593   2.285   2.325  16.649 -1.8484  0.8322 -2.1753
 4377SOL    HW224594   2.184   2.216  16.682  1.2339  1.4172  2.4134
 4378SOL     OW24595   0.262   3.805  13.617  0.7352 -0.2120  0.1327
 4378SOL    HW124596   0.217   3.861  13.680  1.4518 -0.5149  0.9102
 4378SOL    HW224597   0.196   3.738  13.602  0.3340 -0.5082  3.3375
 4379SOL     OW24598   4.592   0.365  15.414 -0.1737 -0.1512 -0.3624
 4379SOL    HW124599   4.687   0.373  15.401 -0.4066  0.4298 -1.7382
 4379SOL    HW224600   4.581   0.275  15.444 -3.5482  0.6741  0.8558
 4380SOL     OW24601   0.051   1.342   8.342 -0.7540 -0.1942 -0.0801
 4380SOL    HW124602   4.692   1.387   8.323  0.1621  0.1642 -3.3145
 4380SOL    HW224603   0.022   1.263   8.387 -1.5661  1.2858  1.9763
 4381SOL     OW24604   4.390   3.686   4.860  0.8283  0.5922 -0.1463
 4381SOL    HW124605   4.443   3.621   4.908 -2.7131 -0.1796  2.7791
 4381SOL    HW224606   4.362   3.619   4.798  2.8619 -1.6468  1.3218
 4382SOL     OW24607   4.654   0.720   2.391  0.4779 -0.1683 -0.3162
 4382SOL    HW124608   0.008   0.722   2.447  0.6717 -3.4845 -0.4971
 4382SOL    HW224609   4.602   0.797   2.415  1.5631  0.8849 -1.3950
 4383SOL     OW24610   4.478   0.759   7.641 -0.3518 -0.4782 -0.4059
 4383SOL    HW124611   4.394   0.757   7.687 -0.6708 -1.7158 -1.0582
 4383SOL    HW224612   4.513   0.840   7.677 -1.4670 -0.8683  1.5509
 4384SOL     OW24613   4.198   3.687  14.774  0.0951 -0.6332  0.1034
 4384SOL    HW124614   4.192   3.780  14.750 -3.3783 -0.1822  2.7390
 4384SOL    HW224615   4.106   3.668  14.793  0.6299 -2.4132  0.9675
 4385SOL     OW24616   0.391   2.431   5.260  0.5294  0.5152  0.1155
 4385SOL    HW124617   0.344   2.389   5.188  0.1796  0.3948  0.4140
 4385SOL    HW224618   0.437   2.500   5.211 -0.5805 -0.5352 -2.4260
 4386SOL     OW24619   1.798   0.332  13.369 -0.0357  0.1039 -0.2489
 4386SOL    HW124620   1.814   0.279  13.447  3.6573  2.7243  0.7707
 4386SOL    HW224621   1.704   0.317  13.357  0.2546  0.0102 -2.4604
 4387SOL     OW24622   3.240   1.869   2.938 -0.8691 -0.0858 -0.0106
 4387SOL    HW124623   3.184   1.882   3.015 -1.9009  0.3117 -0.8335
 4387SOL    HW224624   3.189   1.912   2.870  2.0758  0.5214 -1.8165
 4388SOL     OW24625   2.519   0.611  16.996 -0.5573  0.6374 -0.0174
 4388SOL    HW124626   2.549   0.552  16.926  0.4423 -0.0586  0.9904
 4388SOL    HW224627   2.572   0.687  16.973 -0.9547  0.0301 -2.9785
 4389SOL     OW24628   1.041   0.194   4.779  0.6379 -0.1824 -0.4402
 4389SOL    HW124629   1.033   0.285   4.805 -0.0893 -0.2756 -0.3475
 4389SOL    HW224630   1.125   0.165   4.815  0.2747  1.0394  1.3471
 4390SOL     OW24631   3.098   3.552   7.700 -0.4420 -0.2353  0.0575
 4390SOL    HW124632   3.193   3.555   7.705 -0.3359 -0.3605 -2.0096
 4390SOL    HW224633   3.073   3.550   7.793 -1.5287  1.4016 -0.1978
 4391SOL     OW24634   1.830   1.211  16.569  0.3221 -0.1216 -0.6323
 4391SOL    HW124635   1.881   1.285  16.535 -0.3480  0.4344 -0.4146
 4391SOL    HW224636   1.892   1.183  16.637 -0.0176 -1.5823 -0.9106
 4392SOL     OW24637   2.294   0.998   3.046 -0.0456 -0.6845 -0.1106
 4392SOL    HW124638   2.272   1.080   3.090 -1.5035 -0.2243 -1.6780
 4392SOL    HW224639   2.299   1.024   2.953 -1.7476 -0.9573 -0.2675
 4393SOL     OW24640   4.053   1.639   4.463  0.0936  0.0198 -0.3406
 4393SOL    HW124641   3.971   1.599   4.491 -0.2574  0.9717 -0.0165
 4393SOL    HW224642   4.026   1.684   4.383 -0.2836 -0.2758 -0.3771
 4394SOL     OW24643   2.100   1.887   8.190  0.1961 -0.0557 -0.4960
 4394SOL    HW124644   2.095   1.805   8.239 -0.7722  0.0254 -0.4636
 4394SOL    HW224645   2.168   1.926   8.245 -0.7115 -1.6132  1.7492
 4395SOL     OW24646   4.104   0.372   3.433  0.6743  0.0786 -1.2339
 4395SOL    HW124647   4.113   0.395   3.341  1.5473  0.5092 -1.0368
 4395SOL    HW224648   4.052   0.292   3.431 -0.7493  0.9573  0.0627
 4396SOL     OW24649   3.332   1.059   5.913  0.0716  0.1578  0.6137
 4396SOL    HW124650   3.251   1.106   5.892 -0.2295 -0.7705 -0.3053
 4396SOL    HW224651   3.380   1.078   5.833 -0.3425 -1.2407  0.0360
 4397SOL     OW24652   4.181   1.288   8.433  0.2394  0.1702 -0.2299
 4397SOL    HW124653   4.250   1.230   8.401 -0.0644  0.0359 -0.6366
 4397SOL    HW224654   4.172   1.255   8.523 -1.4388  1.2012 -0.0165
 4398SOL     OW24655   1.327   0.540  17.363  0.4211 -0.0699 -0.0829
 4398SOL    HW124656   1.414   0.504  17.349  0.2448  0.2686 -2.0702
 4398SOL    HW224657   1.333   0.582  17.448  1.6108 -1.1781  0.3670
 4399SOL     OW24658   0.322   0.230   5.827 -0.5640  0.2801 -0.4208
 4399SOL    HW124659   0.318   0.170   5.901  1.1733  1.2831  0.4864
 4399SOL    HW224660   0.363   0.177   5.759 -1.8757  0.1032 -1.0796
 4400SOL     OW24661   1.346   1.544   4.493  0.0604  0.0157  0.0700
 4400SOL    HW124662   1.341   1.455   4.459  2.3955 -0.0617 -0.0922
 4400SOL    HW224663   1.390   1.583   4.418 -1.0304  3.5607  1.2874
 4401SOL     OW24664   1.865   4.444   6.187 -0.0299 -0.3936  0.2419
 4401SOL    HW124665   1.772   4.460   6.172  0.6138  2.1526 -1.0602
 4401SOL    HW224666   1.915   4.500   6.128  0.1284 -0.7215  0.0632
 4402SOL     OW24667   3.155   0.101  13.442  0.0124 -0.0420  0.1338
 4402SOL    HW124668   3.136   0.180  13.493  0.9760  0.5338 -0.4053
 4402SOL    HW224669   3.132   0.031  13.504 -1.8178 -0.7101 -1.2787
 4403SOL     OW24670   1.532   0.419   1.740  0.3004  0.0078 -0.6372
 4403SOL    HW124671   1.442   0.446   1.755  0.6507  0.5100  0.5228
 4403SOL    HW224672   1.583   0.492   1.775  0.8798 -0.5059 -0.4018
 4404SOL     OW24673   0.959   2.172   6.827  0.1139  0.1673 -0.0816
 4404SOL    HW124674   1.050   2.201   6.817  0.2199 -0.4272 -0.8925
 4404SOL    HW224675   0.961   2.109   6.899 -2.0503 -1.7612 -1.6851
 4405SOL     OW24676   1.922   3.560   8.630 -0.2543 -0.2121 -0.4576
 4405SOL    HW124677   1.969   3.625   8.682 -0.4448 -2.6011  2.6989
 4405SOL    HW224678   1.963   3.557   8.544  0.7301 -0.5418  0.0231
 4406SOL     OW24679   4.651   1.873  17.388  0.0964  0.7148  0.0327
 4406SOL    HW124680   4.714   1.916  17.445  1.4272 -0.6298 -0.4224
 4406SOL    HW224681   4.679   1.782  17.399 -1.0343  0.5932  1.8275
 4407SOL     OW24682   1.792   3.229   4.570 -0.2840 -0.6430  0.0944
 4407SOL    HW124683   1.758   3.229   4.480 -1.5630  1.2642  0.5781
 4407SOL    HW224684   1.761   3.317   4.593 -1.0730 -0.0762 -3.0646
 4408SOL     OW24685   3.560   2.468   6.251  0.6362  0.3391  0.2675
 4408SOL    HW124686   3.600   2.457   6.165 -2.2985  0.1569 -1.0666
 4408SOL    HW224687   3.586   2.387   6.295 -1.4890 -0.0875  0.7029
 4409SOL     OW24688   1.028   2.195  17.624  0.0549  0.9028 -0.4931
 4409SOL    HW124689   0.939   2.161  17.623  0.7807 -1.0419 -0.2604
 4409SOL    HW224690   1.068   2.129  17.681 -0.8475  2.1021  1.5376
 4410SOL     OW24691   0.279   2.824  10.185  0.5805  0.1964 -0.0394
 4410SOL    HW124692   0.222   2.748  10.194  0.0256  0.7239  0.8337
 4410SOL    HW224693   0.267   2.876  10.264  1.8898 -0.4952  0.6097
 4411SOL     OW24694   0.151   1.259   0.420 -0.5040  0.2629 -0.8461
 4411SOL    HW124695   0.135   1.340   0.370  0.7498  1.1594  0.1955
 4411SOL    HW224696   0.208   1.291   0.490  1.6718  0.1996 -2.6055
 4412SOL     OW24697   0.675   2.971  11.432 -0.0924  0.1624 -0.5077
 4412SOL    HW124698   0.751   3.026  11.410  1.1278 -0.8875  1.1387
 4412SOL    HW224699   0.649   2.935  11.347  1.4120  0.1478 -0.9654
 4413SOL     OW24700   1.614   2.795   8.177 -0.1405 -0.1462  0.2491
 4413SOL    HW124701   1.595   2.758   8.263 -2.6315  0.7600  0.0780
 4413SOL    HW224702   1.584   2.720   8.126  0.3079  0.2243 -0.5549
 4414SOL     OW24703   1.720   3.897   6.120 -0.4392  0.1564 -0.0162
 4414SOL    HW124704   1.699   3.816   6.073  1.4006  0.6635 -1.6731
 4414SOL    HW224705   1.703   3.875   6.212 -0.8475  0.0432 -0.1187
 4415SOL     OW24706   1.401   4.470   6.760 -0.2596  0.2402 -0.5825
 4415SOL    HW124707   1.408   4.434   6.849  0.4220 -1.4945 -1.3517
 4415SOL    HW224708   1.481   4.516   6.736  1.2210 -0.5060  2.8810
 4416SOL     OW24709   3.701   0.818   4.972  0.2672  0.2353  0.2093
 4416SOL    HW124710   3.673   0.847   5.059 -0.8315  1.8205 -0.6822
 4416SOL    HW224711   3.794   0.838   4.973  0.3219  0.0476 -0.8796
 4417SOL     OW24712   0.287   0.328  16.334  0.0032  0.2438  0.5809
 4417SOL    HW124713   0.356   0.299  16.274 -2.0104 -2.2046 -0.5487
 4417SOL    HW224714   0.249   0.396  16.278  2.3520  2.2367  1.4336
 4418SOL     OW24715   1.055   2.826  12.462 -0.4176 -0.3308 -0.7241
 4418SOL    HW124716   1.109   2.801  12.537  0.6851  2.4637 -0.5986
 4418SOL    HW224717   1.020   2.739  12.441  1.3657 -1.0776 -0.6047
 4419SOL     OW24718   1.535   0.689  14.139 -0.1958 -0.2318 -0.7493
 4419SOL    HW124719   1.598   0.623  14.111  0.8169  0.0406  0.8799
 4419SOL    HW224720   1.565   0.723  14.223  0.3220 -0.7854 -0.7130
 4420SOL     OW24721   0.462   2.299   9.708 -0.1001  0.3129  0.4155
 4420SOL    HW124722   0.472   2.363   9.779  1.2964 -1.3932  1.7512
 4420SOL    HW224723   0.467   2.354   9.630  2.4168 -3.4387 -2.0566
 4421SOL     OW24724   0.990   2.459   5.503 -0.5470  0.3399  0.6259
 4421SOL    HW124725   0.915   2.500   5.545 -1.1152 -0.6946  0.6197
 4421SOL    HW224726   1.053   2.472   5.574  0.5201  1.6168 -0.5529
 4422SOL     OW24727   0.045   4.386  13.573 -0.0591 -0.0832 -0.7391
 4422SOL    HW124728   4.719   4.405  13.494  2.0009 -0.9274 -2.2330
 4422SOL    HW224729   0.131   4.369  13.533  0.1185 -1.7192  0.3286
 4423SOL     OW24730   2.351   2.334   4.573  0.3428 -0.3254 -0.1671
 4423SOL    HW124731   2.337   2.314   4.481 -0.0261 -0.1697 -0.1440
 4423SOL    HW224732   2.423   2.397   4.571 -0.0635  0.0937 -1.5451
 4424SOL     OW24733   3.044   0.983  12.980  0.0086  0.0057 -0.2348
 4424SOL    HW124734   3.122   0.939  13.015  0.5335  3.1163  2.4431
 4424SOL    HW224735   3.023   1.037  13.056 -0.2022 -1.5044  0.7789
 4425SOL     OW24736   0.706   3.758  17.386 -0.2903  0.0613  0.4894
 4425SOL    HW124737   0.708   3.773  17.481 -0.1274  2.5323  0.0926
 4425SOL    HW224738   0.712   3.852  17.365 -0.9642  0.6010  2.7227
 4426SOL     OW24739   3.899   1.876   2.727 -0.3016  0.0122  0.4626
 4426SOL    HW124740   3.947   1.804   2.686  1.0594  1.0444  0.2605
 4426SOL    HW224741   3.903   1.854   2.820  2.2709 -3.1128 -0.3807
 4427SOL     OW24742   2.490   1.386   8.428 -0.4488  0.2763  0.4838
 4427SOL    HW124743   2.452   1.326   8.365 -1.0287  0.7250  0.4094
 4427SOL    HW224744   2.418   1.417   8.482 -2.4422  1.2377 -2.7341
 4428SOL     OW24745   1.667   3.586   0.471  0.0040 -0.3914 -0.3996
 4428SOL    HW124746   1.573   3.589   0.455  0.1214 -2.5219 -1.5247
 4428SOL    HW224747   1.681   3.664   0.524  0.0242  0.4298 -1.6419
 4429SOL     OW24748   2.225   4.691  10.099  0.6458 -0.0421  0.1195
 4429SOL    HW124749   2.284   4.621  10.071  1.6860  1.3543 -1.2455
 4429SOL    HW224750   2.151   4.649  10.142  0.0808  3.2089  2.3595
 4430SOL     OW24751   3.101   3.376   3.591 -0.0972 -0.4036 -0.0092
 4430SOL    HW124752   3.097   3.281   3.582 -0.2528 -0.4043  0.0757
 4430SOL    HW224753   3.145   3.402   3.510  1.0140 -2.6702 -0.1407
 4431SOL     OW24754   2.906   2.329   6.564 -0.1488 -0.1143  0.2435
 4431SOL    HW124755   2.924   2.310   6.657 -0.3749 -0.4426  0.2192
 4431SOL    HW224756   2.822   2.285   6.557  0.8796 -1.6423 -2.2796
 4432SOL     OW24757   2.199   4.352   2.634  0.4749  0.1046  0.6183
 4432SOL    HW124758   2.278   4.315   2.674  1.9402 -0.9753 -3.2340
 4432SOL    HW224759   2.196   4.293   2.559 -1.4992 -1.5109  2.0077
 4433SOL     OW24760   3.054   0.143   1.312  0.5255 -0.6767 -0.9688
 4433SOL    HW124761   2.964   0.173   1.319 -0.2198 -3.0810 -0.5359
 4433SOL    HW224762   3.106   0.223   1.302  0.0447 -0.1941  0.4676
 4434SOL     OW24763   3.358   2.217   7.525 -0.1853 -0.2364  0.1063
 4434SOL    HW124764   3.301   2.286   7.559  0.7820  0.6881 -0.1378
 4434SOL    HW224765   3.328   2.138   7.571 -0.3873  0.1131  0.5786
 4435SOL     OW24766   0.763   2.776   4.929 -0.0884 -0.0793 -0.1200
 4435SOL    HW124767   0.787   2.691   4.965  1.7054  0.5699  0.2040
 4435SOL    HW224768   0.677   2.753   4.894  0.4920  0.5588 -1.9724
 4436SOL     OW24769   1.961   4.442  15.606 -0.0390 -0.0577  0.1789
 4436SOL    HW124770   1.999   4.354  15.606 -0.5433 -0.2728 -2.6526
 4436SOL    HW224771   1.927   4.448  15.695  1.2459 -0.0050  0.6586
 4437SOL     OW24772   3.536   0.977   5.412 -0.4143  0.5232 -0.1725
 4437SOL    HW124773   3.519   0.976   5.507 -3.3419 -3.5011 -0.7544
 4437SOL    HW224774   3.543   0.882   5.400 -0.1111  0.7522 -1.8186
 4438SOL     OW24775   4.177   3.531  10.918  0.4346 -0.7487 -0.0379
 4438SOL    HW124776   4.260   3.578  10.922  0.9725 -1.6573 -0.4747
 4438SOL    HW224777   4.154   3.534  11.011  0.0312 -2.1495 -0.0897
 4439SOL     OW24778   2.572   0.919   1.716  0.2489  0.0558 -0.1725
 4439SOL    HW124779   2.636   0.932   1.646  2.7027  2.3159  2.4785
 4439SOL    HW224780   2.626   0.861   1.769  0.9282  1.0081  0.1809
 4440SOL     OW24781   3.169   0.236   3.503  0.1390 -0.3938  0.2270
 4440SOL    HW124782   3.146   0.174   3.571 -0.0057 -0.1487  0.4011
 4440SOL    HW224783   3.177   0.319   3.551 -0.3753  0.4302 -1.0932
 4441SOL     OW24784   1.652   0.754   0.626  0.4468 -0.2262  0.8525
 4441SOL    HW124785   1.625   0.779   0.714 -3.3481  1.2443 -0.7235
 4441SOL    HW224786   1.621   0.827   0.572 -0.6346 -1.1423  0.2258
 4442SOL     OW24787   4.277   1.307   6.968 -0.5133  0.0398  0.6305
 4442SOL    HW124788   4.292   1.388   7.018 -0.7812  0.5806 -0.1597
 4442SOL    HW224789   4.184   1.315   6.950 -0.0741 -0.0260 -1.7788
 4443SOL     OW24790   2.793   3.682   5.514 -0.0215 -0.4927 -0.1585
 4443SOL    HW124791   2.768   3.590   5.527 -0.2536 -0.6775 -1.8649
 4443SOL    HW224792   2.822   3.698   5.603  0.9947  0.0050 -0.5811
 4444SOL     OW24793   0.257   1.391  11.275  0.0335 -0.3604 -0.4814
 4444SOL    HW124794   0.324   1.333  11.238  1.9724  1.3007  0.4681
 4444SOL    HW224795   0.172   1.353  11.253  0.6106 -2.6928  1.3346
 4445SOL     OW24796   1.157   0.955   0.999 -0.1738  0.0919 -0.0647
 4445SOL    HW124797   1.084   0.988   0.946  0.7678 -0.0712 -1.4368
 4445SOL    HW224798   1.233   0.956   0.942 -0.2287 -1.4858 -0.1736
 4446SOL     OW24799   4.288   2.427   2.795  0.1219  0.1631 -0.1044
 4446SOL    HW124800   4.291   2.508   2.743 -0.5832  0.1576 -0.1585
 4446SOL    HW224801   4.193   2.414   2.800  0.2778 -0.7765  0.4490
 4447SOL     OW24802   2.077   1.294   5.037  0.0124  0.0119 -0.3768
 4447SOL    HW124803   2.101   1.248   4.957 -0.2795 -1.7090  0.5194
 4447SOL    HW224804   2.139   1.263   5.102  0.8799  1.7557 -0.3568
 4448SOL     OW24805   4.315   0.787   1.388  0.1990 -0.0827 -0.1805
 4448SOL    HW124806   4.245   0.764   1.328  0.0584 -1.1676  0.3933
 4448SOL    HW224807   4.264   0.825   1.459  2.8775 -0.9715  2.2240
 4449SOL     OW24808   1.958   0.463   1.365  0.4493 -0.5128 -0.7429
 4449SOL    HW124809   2.051   0.455   1.343  0.2250 -3.0435 -0.8506
 4449SOL    HW224810   1.915   0.414   1.295  0.0001  2.0346 -2.2357
 4450SOL     OW24811   3.281   1.398   8.414 -0.3133 -0.5425 -0.7948
 4450SOL    HW124812   3.318   1.317   8.450 -1.1432 -0.2035  0.8166
 4450SOL    HW224813   3.251   1.362   8.330  1.7175  0.8684 -2.1341
 4451SOL     OW24814   3.396   2.898   0.299  0.2723  0.0587 -0.0010
 4451SOL    HW124815   3.357   2.957   0.363 -0.4140 -1.6039  1.1092
 4451SOL    HW224816   3.331   2.908   0.230  0.4183  1.2764  0.0309
 4452SOL     OW24817   1.259   2.230   5.630  0.3183  0.0018 -0.0712
 4452SOL    HW124818   1.215   2.309   5.663 -0.5788  0.1044 -1.4982
 4452SOL    HW224819   1.349   2.260   5.636 -0.3157  1.7354  0.7221
 4453SOL     OW24820   1.744   3.790  14.948 -0.0499 -0.1582  0.1242
 4453SOL    HW124821   1.768   3.876  14.982  2.1314 -1.1004  0.9178
 4453SOL    HW224822   1.677   3.756  15.007 -1.6878  0.8697 -1.1195
 4454SOL     OW24823   1.418   2.330  11.821 -0.2164  0.4735 -0.2350
 4454SOL    HW124824   1.452   2.338  11.911 -1.0195  0.3376  0.0798
 4454SOL    HW224825   1.478   2.265  11.785 -2.2953 -0.4415 -2.0176
 4455SOL     OW24826   1.771   1.488   9.801 -0.4138 -0.1430 -0.0633
 4455SOL    HW124827   1.844   1.502   9.740  0.5875 -3.0229  0.4464
 4455SOL    HW224828   1.812   1.500   9.887  2.4147  2.5931 -1.7755
 4456SOL     OW24829   1.842   4.534  15.824 -0.2576 -0.5821  0.4364
 4456SOL    HW124830   1.920   4.496  15.864  0.5798  0.8338  0.1364
 4456SOL    HW224831   1.770   4.498  15.875 -0.9131  0.3160  0.1433
 4457SOL     OW24832   3.878   1.891  11.446 -0.1389 -0.2590  0.3906
 4457SOL    HW124833   3.832   1.933  11.519 -0.5187 -0.9683  0.5588
 4457SOL    HW224834   3.805   1.886  11.386 -0.8264 -0.4420  1.2415
 4458SOL     OW24835   1.043   2.646  15.030  0.0931  0.5289  0.2960
 4458SOL    HW124836   1.075   2.567  15.074  0.9969  0.9794  0.4460
 4458SOL    HW224837   0.951   2.627  15.010 -0.1156  1.3807  0.4359
 4459SOL     OW24838   0.930   1.569   8.189  0.4131 -0.1846  0.2875
 4459SOL    HW124839   0.943   1.660   8.163  2.8037  0.2598  3.0545
 4459SOL    HW224840   0.878   1.581   8.269  1.4932  1.2542  0.7755
 4460SOL     OW24841   1.343   3.054   1.782 -0.4859 -0.8836 -0.2541
 4460SOL    HW124842   1.315   3.115   1.714  0.3850  1.0016  1.0669
 4460SOL    HW224843   1.322   3.097   1.866 -0.6545 -0.1353 -0.6827
 4461SOL     OW24844   1.672   1.120   5.454 -0.6224 -0.3400  0.0486
 4461SOL    HW124845   1.654   1.060   5.526  1.9359  0.4206  1.3059
 4461SOL    HW224846   1.756   1.080   5.433 -0.9084 -0.3859 -1.0482
 4462SOL     OW24847   0.898   0.497  14.640 -0.5041  1.0948  0.2193
 4462SOL    HW124848   0.893   0.403  14.655  1.8359  0.8624 -0.4684
 4462SOL    HW224849   0.967   0.491  14.573  0.8208 -0.1713  1.6964
 4463SOL     OW24850   1.373   3.404  13.331 -0.6327 -0.3779  0.5055
 4463SOL    HW124851   1.340   3.458  13.403 -0.6574 -0.1282  0.3096
 4463SOL    HW224852   1.360   3.462  13.256 -0.7620 -0.7227  0.2605
 4464SOL     OW24853   4.563   0.573   0.704  0.6615 -0.2506  0.0589
 4464SOL    HW124854   4.626   0.560   0.775 -0.8815 -2.4673  1.0150
 4464SOL    HW224855   4.533   0.483   0.693 -2.1805  0.5935  0.8664
 4465SOL     OW24856   3.192   2.549   0.751 -0.2033  0.4064  0.3705
 4465SOL    HW124857   3.251   2.493   0.801  0.5930  0.7228 -0.2061
 4465SOL    HW224858   3.205   2.529   0.658 -0.1358 -1.4739  0.7852
 4466SOL     OW24859   2.439   3.193   3.268 -0.2207 -0.2101 -0.0382
 4466SOL    HW124860   2.394   3.163   3.347 -1.5828  0.6761 -0.4729
 4466SOL    HW224861   2.366   3.243   3.232  0.0592  0.1653 -0.0815
 4467SOL     OW24862   2.863   0.702  16.159 -0.3612 -0.6367 -0.0707
 4467SOL    HW124863   2.872   0.790  16.122  1.1561 -0.2520  1.2367
 4467SOL    HW224864   2.791   0.668  16.105 -2.7471  1.5263  1.7209
 4468SOL     OW24865   0.453   2.594  10.773  0.4010 -0.5906  0.2630
 4468SOL    HW124866   0.473   2.575  10.681  3.1809  1.3518  0.4836
 4468SOL    HW224867   0.376   2.647  10.752  1.7880  1.1926 -0.2726
 4469SOL     OW24868   0.387   3.937  10.602  0.5137 -0.0571  0.5163
 4469SOL    HW124869   0.341   3.917  10.520  2.9931 -2.3615 -0.3004
 4469SOL    HW224870   0.391   3.851  10.643 -2.6219  0.2782  1.5328
 4470SOL     OW24871   2.203   0.215   9.941 -0.0928  0.3570 -0.5485
 4470SOL    HW124872   2.182   0.147  10.005 -1.8672  0.4770 -1.0011
 4470SOL    HW224873   2.255   0.163   9.881  1.5101  1.0440  0.2354
 4471SOL     OW24874   2.989   4.484   5.212 -0.0056 -0.6603 -0.0111
 4471SOL    HW124875   3.038   4.566   5.221  0.3053 -0.7948 -0.4789
 4471SOL    HW224876   3.050   4.436   5.157  0.2583  1.9919 -2.0355
 4472SOL     OW24877   3.629   0.912   2.062  0.0629 -0.9560  0.2640
 4472SOL    HW124878   3.655   0.934   1.973  0.0496  2.2248  1.0684
 4472SOL    HW224879   3.591   0.825   2.049 -3.0004  0.4951 -0.6191
 4473SOL     OW24880   0.394   2.307   3.809 -0.0398  0.0328 -0.4432
 4473SOL    HW124881   0.460   2.238   3.817  0.2211  0.1325 -1.8661
 4473SOL    HW224882   0.444   2.387   3.822 -0.2034  0.0686 -0.0360
 4474SOL     OW24883   1.201   1.378   5.335  0.1547  0.5949 -0.3151
 4474SOL    HW124884   1.139   1.333   5.393 -1.1443 -0.0473 -2.2406
 4474SOL    HW224885   1.263   1.307   5.316 -0.4711 -0.1804  0.5333
 4475SOL     OW24886   0.524   2.623   8.962 -0.0427 -0.2430  0.0665
 4475SOL    HW124887   0.518   2.662   9.050 -2.3922  2.2097 -1.1927
 4475SOL    HW224888   0.433   2.643   8.938  0.9089  0.7433 -2.7572
 4476SOL     OW24889   0.437   0.422   8.701 -0.1750  0.2518  0.4218
 4476SOL    HW124890   0.478   0.458   8.780 -0.1930  1.0880  0.0466
 4476SOL    HW224891   0.445   0.328   8.712  1.3408  0.2641 -0.6595
 4477SOL     OW24892   1.277   0.117   8.780  0.0137  0.3557 -0.1640
 4477SOL    HW124893   1.335   0.049   8.814 -0.4881 -0.9562 -1.8955
 4477SOL    HW224894   1.339   0.182   8.745  0.1623 -0.8842 -2.2321
 4478SOL     OW24895   2.827   4.611  11.467  0.5973  0.5050 -0.3783
 4478SOL    HW124896   2.898   4.628  11.529  0.7299 -0.1643 -0.3435
 4478SOL    HW224897   2.879   4.578  11.395  0.0824  0.1651 -0.5967
 4479SOL     OW24898   0.386   4.229   3.722  0.2736 -0.5208  0.2427
 4479SOL    HW124899   0.449   4.251   3.790  1.3555 -1.7059 -0.3919
 4479SOL    HW224900   0.438   4.199   3.647 -0.4283  0.5336 -0.6788
 4480SOL     OW24901   4.474   3.376   2.795 -0.9230  0.2092 -0.2560
 4480SOL    HW124902   4.399   3.436   2.794 -1.5616 -0.5816  1.1324
 4480SOL    HW224903   4.440   3.306   2.739  3.2431 -1.3421 -0.8601
 4481SOL     OW24904   0.757   1.718  17.300  0.0857 -0.0389 -0.0238
 4481SOL    HW124905   0.777   1.627  17.322  1.7586  0.6422  1.2830
 4481SOL    HW224906   0.674   1.698  17.257 -0.8453  1.6628  0.9950
 4482SOL     OW24907   4.444   2.649  15.323 -0.5358  0.2803  0.0918
 4482SOL    HW124908   4.478   2.737  15.336 -0.2684  0.4389 -1.8253
 4482SOL    HW224909   4.483   2.619  15.241 -0.4824  0.6541 -0.0153
 4483SOL     OW24910   3.124   2.161  17.109 -0.3672  0.1541  0.2931
 4483SOL    HW124911   3.163   2.074  17.095 -2.4573 -0.6902 -0.3348
 4483SOL    HW224912   3.040   2.137  17.148  0.8822  0.3042  3.0670
 4484SOL     OW24913   1.129   1.745   7.418  0.4229 -0.9936  0.0807
 4484SOL    HW124914   1.085   1.667   7.385 -0.1083 -1.3868  1.7677
 4484SOL    HW224915   1.083   1.774   7.497  3.9614  0.0466  1.7538
 4485SOL     OW24916   0.150   0.112   3.149  0.1945  0.0152  0.2789
 4485SOL    HW124917   0.226   0.136   3.096  0.3976 -0.4531  0.3601
 4485SOL    HW224918   0.191   0.041   3.198  1.2145  1.2455  1.2402
 4486SOL     OW24919   0.892   3.770   8.488 -0.0862  0.4923 -0.0938
 4486SOL    HW124920   0.823   3.831   8.516 -2.1868 -2.3800  0.9570
 4486SOL    HW224921   0.967   3.810   8.531  1.0996  0.3701 -2.0805
 4487SOL     OW24922   0.231   4.060  14.045  0.3134 -0.2167 -0.0522
 4487SOL    HW124923   0.319   4.098  14.049 -0.0331  0.5392  0.6009
 4487SOL    HW224924   0.188   4.125  14.101 -0.9740 -1.7552  0.7202
 4488SOL     OW24925   2.853   3.715   7.410  0.1950  0.4273 -0.0053
 4488SOL    HW124926   2.839   3.676   7.324 -2.0305 -0.7883  0.9252
 4488SOL    HW224927   2.930   3.663   7.436 -1.0437 -0.4889  1.8293
 4489SOL     OW24928   0.161   3.695   0.184  0.0026  0.3092 -0.5209
 4489SOL    HW124929   0.125   3.612   0.154  0.4403  1.0190 -3.0281
 4489SOL    HW224930   0.218   3.711   0.108  0.8134 -1.9454 -0.3801
 4490SOL     OW24931   3.801   1.942   4.836 -0.2938 -0.1039 -0.0520
 4490SOL    HW124932   3.743   1.866   4.829  1.8173 -1.5425 -1.9733
 4490SOL    HW224933   3.771   1.977   4.920 -0.2447  1.0696 -0.5122
 4491SOL     OW24934   2.014   2.291  11.676 -0.6369 -0.1680  0.1546
 4491SOL    HW124935   1.997   2.274  11.768 -0.2904  0.4087  0.3203
 4491SOL    HW224936   2.029   2.203  11.640  0.7951  0.9848 -2.0816
 4492SOL     OW24937   4.100   1.947   7.125 -0.0823 -0.0375  0.1846
 4492SOL    HW124938   4.184   1.941   7.170 -0.0208  1.1969  0.2515
 4492SOL    HW224939   4.140   1.976   7.043 -2.2462 -0.6637 -1.0806
 4493SOL     OW24940   3.609   1.494  17.637 -0.2013 -0.2084 -0.1567
 4493SOL    HW124941   3.698   1.522  17.618 -0.5937 -0.8433 -2.9714
 4493SOL    HW224942   3.556   1.568  17.667  0.5367  0.0024  0.6091
 4494SOL     OW24943   4.186   1.499   8.906  0.3740 -0.8953  0.1231
 4494SOL    HW124944   4.106   1.449   8.891 -0.2790  1.3582 -3.8734
 4494SOL    HW224945   4.159   1.549   8.983 -0.9738  0.3245 -1.1547
 4495SOL     OW24946   3.291   3.009   6.556  0.3450  0.4135 -0.1926
 4495SOL    HW124947   3.351   2.970   6.620 -0.1106  0.2436  0.1304
 4495SOL    HW224948   3.298   2.945   6.485 -1.1268  2.2357 -1.9556
 4496SOL     OW24949   0.213   2.680   5.244  0.2458  0.4362  0.3653
 4496SOL    HW124950   0.289   2.624   5.229  0.4616  0.9023 -0.2999
 4496SOL    HW224951   0.254   2.764   5.266 -0.3961  0.4359  1.5317
 4497SOL     OW24952   3.216   1.202   0.551  0.4313 -1.0158  0.2492
 4497SOL    HW124953   3.165   1.128   0.584  2.5097 -2.5037  0.0827
 4497SOL    HW224954   3.216   1.179   0.458  1.8853  0.4034 -0.0823
 4498SOL     OW24955   4.408   0.993  16.454 -0.4569 -0.0894  0.2347
 4498SOL    HW124956   4.428   0.986  16.547 -1.2317 -1.8940  0.2785
 4498SOL    HW224957   4.369   0.905  16.446 -0.1235 -0.3889  2.0318
 4499SOL     OW24958   0.235   2.902   4.525  0.1877  0.1718  0.2718
 4499SOL    HW124959   0.148   2.915   4.487  0.8341  0.1717 -1.1989
 4499SOL    HW224960   0.230   2.827   4.584 -2.9763  0.1327 -0.0320
 4500SOL     OW24961   0.184   1.193  11.863  0.1833  0.3659 -0.1861
 4500SOL    HW124962   0.225   1.122  11.912  0.0330  1.2165  1.1710
 4500SOL    HW224963   0.229   1.266  11.906  0.2264 -0.3501  0.9799
 4501SOL     OW24964   1.425   4.541   2.897  0.0013 -0.5492  0.5111
 4501SOL    HW124965   1.488   4.471   2.881 -1.2130 -1.5523  0.0842
 4501SOL    HW224966   1.362   4.482   2.940 -2.4106  2.6542  1.3274
 4502SOL     OW24967   0.256   1.614  14.181 -0.6446  0.3013 -0.4177
 4502SOL    HW124968   0.328   1.671  14.153  0.6449 -0.5145  1.2327
 4502SOL    HW224969   0.202   1.631  14.104 -2.2533 -1.8062  0.2574
 4503SOL     OW24970   2.721   0.519   5.742 -0.5693 -0.6370 -0.3452
 4503SOL    HW124971   2.814   0.539   5.749 -0.8334  0.4083  0.1329
 4503SOL    HW224972   2.726   0.461   5.666 -0.2269 -2.4857  1.0737
 4504SOL     OW24973   3.654   4.172   2.078 -0.2456 -0.3144 -0.2434
 4504SOL    HW124974   3.659   4.199   2.170 -1.6636  2.6072 -1.0266
 4504SOL    HW224975   3.617   4.248   2.033 -2.4904 -1.1776  0.1722
 4505SOL     OW24976   3.240   3.105   3.354  0.1909 -0.5353  0.2141
 4505SOL    HW124977   3.335   3.107   3.361  0.1491 -2.6011  1.3601
 4505SOL    HW224978   3.236   3.019   3.310  0.8367 -0.6115  0.3156
 4506SOL     OW24979   0.361   1.777   4.153  0.4277 -0.2545 -0.1922
 4506SOL    HW124980   0.397   1.821   4.076  1.4562 -1.9610 -0.6907
 4506SOL    HW224981   0.433   1.714   4.163 -1.8159 -2.8710 -0.2895
 4507SOL     OW24982   1.847   2.425   8.401 -0.3495 -0.2919 -0.0286
 4507SOL    HW124983   1.922   2.398   8.348 -0.9130  0.3608 -1.1490
 4507SOL    HW224984   1.887   2.434   8.487  1.3626  1.6249 -1.0379
 4508SOL     OW24985   4.716   1.700   6.228  0.1063 -0.3462  0.0163
 4508SOL    HW124986   4.653   1.770   6.210 -0.2557 -1.2614 -2.2808
 4508SOL    HW224987   0.060   1.755   6.267 -0.4806 -0.4953  1.2448
 4509SOL     OW24988   1.145   3.241   8.192 -0.3700 -0.0428  0.0441
 4509SOL    HW124989   1.076   3.244   8.258 -0.7393  2.2681 -0.4259
 4509SOL    HW224990   1.222   3.233   8.248 -0.4579 -0.1504  0.1476
 4510SOL     OW24991   4.632   3.156   4.037 -0.0243 -0.2568 -0.7484
 4510SOL    HW124992   4.676   3.073   4.020 -1.0228 -1.1941  1.3362
 4510SOL    HW224993   4.548   3.128   4.072 -0.6321  0.0355 -1.9628
 4511SOL     OW24994   3.362   3.257   7.617 -0.5878  0.2856  0.2289
 4511SOL    HW124995   3.346   3.266   7.711 -0.0751 -1.1061  0.4479
 4511SOL    HW224996   3.362   3.350   7.596  0.6871  0.4956  1.1747
 4512SOL     OW24997   1.841   0.985   3.689  0.4017 -0.3627  0.2543
 4512SOL    HW124998   1.835   1.077   3.714  0.3889 -0.3199  0.0949
 4512SOL    HW224999   1.930   0.967   3.720 -0.1940  0.6921  2.5594
 4513SOL     OW25000   2.562   3.601  14.080  0.3381  0.2291 -0.3003
 4513SOL    HW125001   2.546   3.683  14.126 -1.0162  0.6324 -1.4973
 4513SOL    HW225002   2.620   3.644  14.017  1.8664 -0.7143  0.4674
 4514SOL     OW25003   0.073   2.752   2.384 -0.1724  0.4468 -0.4038
 4514SOL    HW125004   0.115   2.763   2.298 -0.1312  2.0271 -0.1877
 4514SOL    HW225005   0.119   2.817   2.438 -0.7145 -0.3956  1.0802
 4515SOL     OW25006   1.890   0.206   4.110  0.2776  0.1016 -0.1753
 4515SOL    HW125007   1.967   0.259   4.088 -0.5153  1.5966  0.5994
 4515SOL    HW225008   1.891   0.215   4.205 -0.4933  1.7422 -0.3111
 4516SOL     OW25009   2.838   1.422   4.028  0.3452  0.1101 -0.1739
 4516SOL    HW125010   2.754   1.403   4.070 -0.9128  1.3872 -2.1427
 4516SOL    HW225011   2.834   1.516   4.046 -2.6141  0.4960 -2.9996
 4517SOL     OW25012   0.741   1.338   1.434  0.7821  0.3419 -0.3345
 4517SOL    HW125013   0.788   1.415   1.468  0.7903 -1.2405  3.2495
 4517SOL    HW225014   0.816   1.279   1.422  0.7878  0.2379  0.2160
 4518SOL     OW25015   4.543   3.809  14.177 -0.4517 -0.3305 -0.4652
 4518SOL    HW125016   4.635   3.812  14.152 -0.2368  0.9725  0.4788
 4518SOL    HW225017   4.531   3.727  14.225  0.2080 -1.2983 -1.9732
 4519SOL     OW25018   3.417   1.586  15.220 -0.1358 -0.2179 -0.1744
 4519SOL    HW125019   3.442   1.664  15.171  3.1425 -0.4325  1.1435
 4519SOL    HW225020   3.464   1.604  15.302 -1.0572  0.8833  0.1073
 4520SOL     OW25021   4.017   0.702   8.970  0.0714 -0.1509  0.7698
 4520SOL    HW125022   4.030   0.725   9.062  2.0994  0.0824  0.4241
 4520SOL    HW225023   3.988   0.611   8.974 -0.6966 -0.0857 -2.8929
 4521SOL     OW25024   2.149   2.225   8.551 -1.2156 -0.0392  0.1750
 4521SOL    HW125025   2.202   2.187   8.481 -0.3278  0.5939  0.5056
 4521SOL    HW225026   2.183   2.315   8.560 -0.0388 -0.4429 -0.2000
 4522SOL     OW25027   0.614   2.552   8.701  0.0942  0.0200 -0.8854
 4522SOL    HW125028   0.697   2.505   8.692 -0.1864 -0.2398 -2.0652
 4522SOL    HW225029   0.605   2.568   8.795 -0.5343 -0.8840 -0.8012
 4523SOL     OW25030   2.046   4.626  15.427 -0.7874 -0.6300 -0.3700
 4523SOL    HW125031   2.044   4.563  15.499 -0.6268  0.9355  1.0004
 4523SOL    HW225032   1.958   4.617  15.391 -0.2631  3.0498 -2.5531
 4524SOL     OW25033   3.297   2.731  10.722  0.2765 -0.2517 -0.0926
 4524SOL    HW125034   3.286   2.767  10.810 -0.6203 -0.6056 -0.0567
 4524SOL    HW225035   3.236   2.788  10.675  0.0481  0.3795  0.9778
 4525SOL     OW25036   1.032   2.968   4.018 -0.1360 -0.4927 -0.1272
 4525SOL    HW125037   1.083   2.893   4.047  0.8468 -0.5657 -2.0665
 4525SOL    HW225038   1.075   3.036   4.069 -1.1968 -1.9482  2.6925
 4526SOL     OW25039   0.661   0.998   8.716 -0.4117 -0.0351  0.2418
 4526SOL    HW125040   0.713   0.918   8.721 -0.3384 -0.0225 -0.3006
 4526SOL    HW225041   0.688   1.023   8.627  0.5548 -1.9900 -0.0139
 4527SOL     OW25042   2.332   1.289   6.503  0.4018  0.2715 -0.3718
 4527SOL    HW125043   2.344   1.261   6.594 -3.2679  0.8429  0.2832
 4527SOL    HW225044   2.373   1.207   6.475  1.2025  1.1332 -1.7069
 4528SOL     OW25045   0.946   1.079   7.886 -0.2920 -0.0246 -0.1998
 4528SOL    HW125046   0.994   1.057   7.965 -1.1383 -0.5473  0.1756
 4528SOL    HW225047   0.991   1.030   7.817 -2.2217 -1.5922 -0.3527
 4529SOL     OW25048   2.057   3.135  10.381 -0.1116  0.1322 -0.0280
 4529SOL    HW125049   2.066   3.050  10.336 -0.7718 -0.6648  1.3307
 4529SOL    HW225050   2.095   3.106  10.464  2.3069 -0.6442 -1.4064
 4530SOL     OW25051   2.772   0.281  17.543 -0.1320 -0.0612 -0.3051
 4530SOL    HW125052   2.703   0.323  17.492  0.4162  1.9425  0.5863
 4530SOL    HW225053   2.727   0.205  17.579 -1.2848 -0.3806 -2.4399
 4531SOL     OW25054   0.657   4.691   7.229  0.1232 -0.2356  1.0611
 4531SOL    HW125055   0.672   4.602   7.199  0.6441 -0.0755  0.8466
 4531SOL    HW225056   0.728   0.014   7.184 -1.6919  1.0999 -0.4115
 4532SOL     OW25057   3.177   2.034   7.637  0.3882  0.2553  0.0983
 4532SOL    HW125058   3.129   1.952   7.648 -1.5621  1.4174  0.2472
 4532SOL    HW225059   3.110   2.100   7.656  0.7758 -0.3443  3.5754
 4533SOL     OW25060   4.588   0.270   5.319 -0.3607  0.1192 -0.2629
 4533SOL    HW125061   4.586   0.352   5.369 -1.5604  1.1580 -2.0464
 4533SOL    HW225062   4.634   0.291   5.239 -1.0196 -0.5480 -0.8191
 4534SOL     OW25063   1.028   4.136   8.027 -0.6569  0.0189 -0.2296
 4534SOL    HW125064   0.978   4.118   8.106 -0.9022  1.4963 -0.0479
 4534SOL    HW225065   0.976   4.100   7.955 -0.8407  0.0854 -0.1293
 4535SOL     OW25066   2.718   0.511  13.218  0.7522 -0.2469  0.1929
 4535SOL    HW125067   2.726   0.511  13.313  0.6277  1.9027  0.1832
 4535SOL    HW225068   2.630   0.479  13.200  0.4764 -0.0581  1.2193
 4536SOL     OW25069   0.681   3.095  12.265 -0.5870  0.1811  0.4502
 4536SOL    HW125070   0.754   3.114  12.207 -0.3972  0.7616  0.8780
 4536SOL    HW225071   0.624   3.052  12.202  0.5045 -0.9912  0.2803
 4537SOL     OW25072   4.113   4.171   2.033 -0.1279 -0.0454  0.4517
 4537SOL    HW125073   4.031   4.122   2.024 -0.2320  0.3367 -0.6901
 4537SOL    HW225074   4.170   4.095   2.041  0.6507  0.6822  1.7203
 4538SOL     OW25075   1.209   4.287   4.596 -0.3137  0.7526 -0.3637
 4538SOL    HW125076   1.278   4.229   4.565  1.0681  4.1244 -3.5898
 4538SOL    HW225077   1.195   4.351   4.526 -0.2860  1.0261 -0.1163
 4539SOL     OW25078   1.829   3.937   9.966  0.1448  0.2867  0.4183
 4539SOL    HW125079   1.843   3.881   9.890  0.1973  0.6306  0.1779
 4539SOL    HW225080   1.738   3.916   9.988  0.4403 -0.9160  0.4566
 4540SOL     OW25081   0.546   4.641   4.850  0.2704  0.3716 -0.4041
 4540SOL    HW125082   0.562   4.573   4.785  0.1371  1.1005 -1.2010
 4540SOL    HW225083   0.568   4.597   4.932 -2.3943 -1.0991 -0.4911
 4541SOL     OW25084   1.494   4.427   8.142  0.0098  0.5730  0.1675
 4541SOL    HW125085   1.514   4.429   8.048  2.2972 -0.2473  0.6275
 4541SOL    HW225086   1.411   4.380   8.144  0.6929 -0.6782 -0.6953
 4542SOL     OW25087   3.217   3.971   9.918 -0.1003  0.1460  0.1925
 4542SOL    HW125088   3.199   3.935   9.831  1.0102 -2.1162  0.8749
 4542SOL    HW225089   3.131   3.976   9.959 -0.0756  1.6126  0.0305
 4543SOL     OW25090   3.782   3.217   6.921  0.2162 -0.3389  0.1997
 4543SOL    HW125091   3.831   3.135   6.923 -3.2140 -2.4586 -1.8682
 4543SOL    HW225092   3.853   3.275   6.949  0.8127 -1.5523  1.1970
 4544SOL     OW25093   4.379   2.775  16.319  0.2188 -0.1422 -0.0642
 4544SOL    HW125094   4.309   2.818  16.270 -0.4431 -1.1063  0.0319
 4544SOL    HW225095   4.459   2.815  16.286  2.6021 -3.8572  1.2157
 4545SOL     OW25096   4.504   4.537  11.779 -0.4016  0.0271  0.2536
 4545SOL    HW125097   4.512   4.538  11.683  3.0932  0.9392  0.5514
 4545SOL    HW225098   4.438   4.470  11.794 -1.1212  0.2053 -1.9959
 4546SOL     OW25099   3.277   4.655   2.544  0.0814  0.2217 -0.0293
 4546SOL    HW125100   3.198   4.696   2.580 -0.5646 -0.3926 -0.7512
 4546SOL    HW225101   3.277   4.702   2.461 -1.8917  0.2117 -0.0281
 4547SOL     OW25102   3.918   2.175   8.783 -0.5988 -0.1700 -0.2578
 4547SOL    HW125103   3.956   2.101   8.735  0.4601  0.3013 -0.1474
 4547SOL    HW225104   3.843   2.197   8.728 -0.3301 -1.2423 -1.0413
 4548SOL     OW25105   1.010   0.475   2.791 -0.4020 -0.6888  0.5193
 4548SOL    HW125106   1.053   0.509   2.869 -0.1862 -2.1483  1.0373
 4548SOL    HW225107   0.939   0.538   2.779 -0.4952 -0.1000  4.1753
 4549SOL     OW25108   2.662   1.108   0.336  0.0130  0.2011  0.3303
 4549SOL    HW125109   2.652   1.189   0.286  1.7882  0.0359 -0.2989
 4549SOL    HW225110   2.572   1.085   0.355 -0.7343  2.3191 -0.6771
 4550SOL     OW25111   3.073   4.549   4.210  0.0022  0.0621  0.8108
 4550SOL    HW125112   3.099   4.557   4.302 -2.9696  0.5402  1.6216
 4550SOL    HW225113   3.015   4.473   4.213 -1.9446  1.6065  2.1862
 4551SOL     OW25114   1.625   1.479   3.803  0.2097  0.4050 -0.4478
 4551SOL    HW125115   1.700   1.521   3.762 -0.4059  0.4338 -1.5417
 4551SOL    HW225116   1.546   1.533   3.800 -1.1845 -1.5923  0.1766
 4552SOL     OW25117   4.637   1.012  10.868 -0.4491  0.0078  0.0442
 4552SOL    HW125118   4.706   0.990  10.806  1.7693  0.4385  2.3940
 4552SOL    HW225119   4.645   0.942  10.933  0.3058  0.4330  0.4015
 4553SOL     OW25120   3.207   2.010   8.854  0.0083  0.5796 -0.2263
 4553SOL    HW125121   3.301   2.025   8.859  0.5000 -2.2053 -0.9463
 4553SOL    HW225122   3.194   2.058   8.772  1.5801  1.1293 -0.1404
 4554SOL     OW25123   2.852   4.030   5.574  0.3554 -0.3030 -0.3932
 4554SOL    HW125124   2.840   3.991   5.661  2.8801  0.4464  0.2926
 4554SOL    HW225125   2.947   4.042   5.566  0.5956 -1.4057  0.7003
 4555SOL     OW25126   1.883   2.064   6.970  0.0799  0.0883 -0.1976
 4555SOL    HW125127   1.869   2.107   6.886 -0.5718  0.5579  0.1581
 4555SOL    HW225128   1.801   2.022   6.997  0.4915  1.0080  2.5315
 4556SOL     OW25129   4.496   0.622  16.703  0.4216  0.5821  0.2096
 4556SOL    HW125130   4.486   0.643  16.796  1.0656 -3.5124  1.2179
 4556SOL    HW225131   4.436   0.548  16.693 -1.1021  1.8525 -0.1637
 4557SOL     OW25132   0.668   4.400   7.560 -0.0883 -0.5284 -0.3519
 4557SOL    HW125133   0.746   4.420   7.508  1.0396  0.5095  1.7506
 4557SOL    HW225134   0.596   4.402   7.497  1.6638  0.2624 -2.3249
 4558SOL     OW25135   0.803   3.924   1.898 -0.5287 -0.0812  0.0121
 4558SOL    HW125136   0.777   3.899   1.810 -0.5578 -2.7885  0.7910
 4558SOL    HW225137   0.746   3.867   1.949 -0.8004  0.1127 -0.0765
 4559SOL     OW25138   3.209   3.515  12.528  0.1986  0.0075 -0.2427
 4559SOL    HW125139   3.158   3.501  12.448  1.0237 -0.1678 -0.7313
 4559SOL    HW225140   3.210   3.430  12.572 -0.2559 -0.1953 -0.6195
 4560SOL     OW25141   2.994   4.209   5.837 -0.1849  0.3678  0.1056
 4560SOL    HW125142   2.903   4.179   5.843  0.4124 -1.1260  1.4464
 4560SOL    HW225143   3.035   4.141   5.782  2.6490 -0.2322  2.9753
 4561SOL     OW25144   4.547   2.636   8.655 -0.1628 -0.1096 -0.0194
 4561SOL    HW125145   4.494   2.557   8.668  1.0817 -0.9737 -0.1934
 4561SOL    HW225146   4.629   2.599   8.623  0.7526  1.2996  0.7211
 4562SOL     OW25147   2.320   2.690   4.514  0.3972 -0.3372  0.3157
 4562SOL    HW125148   2.236   2.652   4.539 -0.1550  0.7140  0.0544
 4562SOL    HW225149   2.386   2.640   4.562  2.1713  1.8400  0.1188
 4563SOL     OW25150   2.225   4.134  12.366 -0.0369  0.2459 -0.5249
 4563SOL    HW125151   2.305   4.164  12.409  0.0508 -1.2513  0.3611
 4563SOL    HW225152   2.201   4.068  12.431 -0.9736 -0.4135 -1.5334
 4564SOL     OW25153   1.124   1.112   2.097 -0.1947  0.4671 -0.5208
 4564SOL    HW125154   1.169   1.195   2.113 -3.4228  2.2693 -0.6443
 4564SOL    HW225155   1.056   1.138   2.034 -0.1410  1.4584 -0.1753
 4565SOL     OW25156   3.434   3.783   6.109 -0.3707 -0.2699  0.1098
 4565SOL    HW125157   3.502   3.789   6.042 -1.9395 -1.5873 -1.5895
 4565SOL    HW225158   3.491   3.785   6.187 -2.3270  2.2068  1.4686
 4566SOL     OW25159   0.448   0.014   7.759  0.0078  0.3077 -0.4311
 4566SOL    HW125160   0.469   0.100   7.796 -0.3548  0.2160 -0.0095
 4566SOL    HW225161   0.398   0.034   7.680  3.3277  1.1788 -2.3079
 4567SOL     OW25162   3.126   0.528  17.672 -0.2712 -0.2112  0.0216
 4567SOL    HW125163   3.093   0.492  17.590  0.2930  1.4690 -0.9320
 4567SOL    HW225164   3.045   0.546   0.023 -0.4345 -0.6826 -0.0821
 4568SOL     OW25165   1.585   3.794   3.501  0.6229 -0.0184  0.1428
 4568SOL    HW125166   1.679   3.801   3.488  0.4811  2.3310  0.5104
 4568SOL    HW225167   1.572   3.860   3.569 -2.4522 -1.6441  1.1459
 4569SOL     OW25168   0.884   0.228   7.842  0.3000  0.2043 -0.3097
 4569SOL    HW125169   0.927   0.251   7.759  0.6474  0.3103 -0.1005
 4569SOL    HW225170   0.824   0.156   7.821  1.0494 -0.0066 -1.7250
 4570SOL     OW25171   4.023   1.625   9.212  0.3296 -0.1233 -0.4215
 4570SOL    HW125172   3.943   1.644   9.260  2.8365  0.5494  3.4468
 4570SOL    HW225173   4.045   1.716   9.191  0.5820 -0.4024 -1.3987
 4571SOL     OW25174   4.110   3.776   7.523  0.4503 -0.2601 -0.0164
 4571SOL    HW125175   4.101   3.756   7.617  0.0422 -0.1042 -0.0238
 4571SOL    HW225176   4.141   3.866   7.527 -1.6564  0.4111  1.0151
 4572SOL     OW25177   0.375   3.450   9.248  0.2112  0.1620 -0.5846
 4572SOL    HW125178   0.445   3.451   9.182 -0.1179  2.4105 -0.8978
 4572SOL    HW225179   0.435   3.483   9.315 -0.9283 -0.0366  0.5136
 4573SOL     OW25180   2.652   0.424   7.459  0.6927  0.0683 -0.8099
 4573SOL    HW125181   2.605   0.507   7.455 -0.0089 -0.2191  1.3807
 4573SOL    HW225182   2.695   0.420   7.373  2.0695  0.4956 -0.1420
 4574SOL     OW25183   4.403   2.849  15.858 -0.1752  0.8279 -0.6669
 4574SOL    HW125184   4.445   2.897  15.929  0.6316 -2.7350  1.2655
 4574SOL    HW225185   4.341   2.908  15.815  1.3615  2.1503 -1.0724
 4575SOL     OW25186   2.093   3.003   2.198 -0.8201  0.8518  0.1292
 4575SOL    HW125187   2.006   2.984   2.234 -0.0697 -1.1628  0.8926
 4575SOL    HW225188   2.076   2.983   2.106  0.4152 -0.3868  0.1691
 4576SOL     OW25189   0.602   3.400   5.088 -0.9395 -0.3442  0.6845
 4576SOL    HW125190   0.544   3.474   5.071 -0.2704 -0.3287 -1.5891
 4576SOL    HW225191   0.565   3.326   5.040 -1.7765 -1.0465  2.4339
 4577SOL     OW25192   4.516   4.496   7.848 -0.2207 -0.1437 -0.4570
 4577SOL    HW125193   4.452   4.428   7.827 -0.2283  0.1411 -1.3449
 4577SOL    HW225194   4.470   4.543   7.918 -2.5201  0.4793 -2.4046
 4578SOL     OW25195   2.293   3.979  10.356  0.0606  0.4228  0.5305
 4578SOL    HW125196   2.240   3.981  10.435 -0.1875  0.8931  0.3510
 4578SOL    HW225197   2.378   3.968  10.398  1.3085 -2.9991 -2.8434
 4579SOL     OW25198   3.280   2.071   8.254  0.3151 -0.0503 -0.5811
 4579SOL    HW125199   3.269   2.042   8.164 -2.1721 -0.0641 -0.2722
 4579SOL    HW225200   3.236   2.003   8.304  0.7336  0.7066  0.8368
 4580SOL     OW25201   3.886   0.846   8.779  0.2180  0.6102  0.5972
 4580SOL    HW125202   3.835   0.899   8.840 -0.5207  0.9375 -0.3070
 4580SOL    HW225203   3.943   0.791   8.833 -1.2765 -0.0007  1.5568
 4581SOL     OW25204   4.325   3.172   7.198  0.2714  0.3066 -0.2628
 4581SOL    HW125205   4.292   3.133   7.279 -0.4027 -0.8285 -1.0781
 4581SOL    HW225206   4.321   3.266   7.217 -1.4584  0.0502  0.6633
 4582SOL     OW25207   3.538   2.826   6.123 -0.1268  0.6765 -0.0114
 4582SOL    HW125208   3.497   2.758   6.176 -0.9960  1.0244 -0.2367
 4582SOL    HW225209   3.539   2.787   6.035  1.4517 -1.3686  0.9164
 4583SOL     OW25210   4.053   3.703  12.353  0.0398  0.5348 -0.0585
 4583SOL    HW125211   4.054   3.702  12.449  0.9248 -2.8904 -0.0814
 4583SOL    HW225212   4.147   3.701  12.335 -0.0212  2.0031 -0.5030
 4584SOL     OW25213   3.866   4.144   4.413 -0.5841 -0.2509  0.7835
 4584SOL    HW125214   3.900   4.231   4.395 -0.7206 -0.0129  1.6881
 4584SOL    HW225215   3.784   4.172   4.453 -1.2132  0.6766 -1.1587
 4585SOL     OW25216   2.040   1.450  14.666  0.2139  0.5997  0.1354
 4585SOL    HW125217   2.060   1.361  14.636  2.1646  1.0091  0.1659
 4585SOL    HW225218   2.088   1.453  14.749 -1.1946  1.3915  0.9232
 4586SOL     OW25219   1.250   3.231   3.657  0.0873  0.1325 -0.1702
 4586SOL    HW125220   1.229   3.299   3.720 -0.3509 -0.6142  0.4975
 4586SOL    HW225221   1.167   3.228   3.609 -1.9336  0.5400  3.3333
 4587SOL     OW25222   4.129   0.198   0.313 -0.1106  0.0368  0.4468
 4587SOL    HW125223   4.070   0.136   0.356 -1.7295  0.4643 -1.1987
 4587SOL    HW225224   4.189   0.227   0.382 -0.5564  0.8503  0.4880
 4588SOL     OW25225   1.641   2.678   1.167 -0.0382 -0.1172 -0.2434
 4588SOL    HW125226   1.735   2.679   1.152 -0.0477 -2.8509 -0.4566
 4588SOL    HW225227   1.603   2.645   1.086 -4.7671  1.6035  1.2417
 4589SOL     OW25228   1.379   0.004   8.136  0.8525 -0.0847 -0.5186
 4589SOL    HW125229   1.449   4.664   8.150 -1.2005 -2.5227 -1.2863
 4589SOL    HW225230   1.310   4.667   8.110  0.4046 -1.0799  2.9060
 4590SOL     OW25231   0.575   3.930  10.303  0.1084  0.3367  0.2678
 4590SOL    HW125232   0.641   3.879  10.349 -0.3980 -0.5265  0.0209
 4590SOL    HW225233   0.534   3.851  10.269  1.2147  0.9331 -2.4644
 4591SOL     OW25234   4.711   1.078   8.435  0.1924 -0.3088 -1.0704
 4591SOL    HW125235   4.697   1.023   8.512 -1.4771  0.4583 -0.8148
 4591SOL    HW225236   0.079   1.055   8.418  0.3824 -0.6497  0.3685
 4592SOL     OW25237   1.522   2.406  13.391  0.0138  0.4435 -0.1053
 4592SOL    HW125238   1.610   2.393  13.428  0.4323  1.6127 -0.6874
 4592SOL    HW225239   1.550   2.455  13.314 -0.8073  0.9784 -0.0644
 4593SOL     OW25240   0.548   2.975   1.652 -0.1697  0.3098 -0.0206
 4593SOL    HW125241   0.504   2.993   1.569  1.5749  0.8639 -0.8326
 4593SOL    HW225242   0.486   2.910   1.686  1.4440 -1.0747  0.2859
 4594SOL     OW25243   4.227   4.623   7.801  0.1918 -0.3262 -0.1119
 4594SOL    HW125244   4.170   4.694   7.832 -0.9176  0.2540 -3.4651
 4594SOL    HW225245   4.293   4.626   7.869  1.1914  0.2159 -1.1094
 4595SOL     OW25246   0.759   0.558   4.446  0.3502  0.2253  0.3319
 4595SOL    HW125247   0.699   0.522   4.512 -1.4653  2.0484 -0.3035
 4595SOL    HW225248   0.824   0.494   4.417  1.8598  2.7400 -1.7942
 4596SOL     OW25249   3.114   3.379   8.629 -0.2688  0.2840  0.3267
 4596SOL    HW125250   3.025   3.372   8.596  0.9216 -0.2502 -2.7350
 4596SOL    HW225251   3.122   3.301   8.684  1.4022  0.4497  0.3147
 4597SOL     OW25252   2.282   3.107   2.632 -0.3409 -0.0198  0.0982
 4597SOL    HW125253   2.278   3.167   2.557 -0.6097  0.2459  0.3228
 4597SOL    HW225254   2.310   3.169   2.699  2.7831 -1.7257  0.3467
 4598SOL     OW25255   4.349   2.575   0.632 -0.1419  0.1908 -0.4465
 4598SOL    HW125256   4.312   2.519   0.564  3.5968  0.3509 -2.6018
 4598SOL    HW225257   4.271   2.577   0.688 -1.0292  0.6691 -1.6878
 4599SOL     OW25258   0.069   1.294  10.141  0.2845 -0.0926 -0.2259
 4599SOL    HW125259   0.018   1.264  10.066 -2.1111  0.5954  1.1242
 4599SOL    HW225260   0.146   1.242  10.117  1.8452  2.2967 -0.3297
 4600SOL     OW25261   4.018   0.734   0.734  0.1218  0.1489 -0.5069
 4600SOL    HW125262   4.027   0.828   0.720  1.4185  0.5101  2.6526
 4600SOL    HW225263   3.938   0.719   0.685  0.4953  1.3005 -1.4598
 4601SOL     OW25264   2.021   0.615  13.934  0.1185  0.4561 -0.2915
 4601SOL    HW125265   2.094   0.615  13.996 -2.1139  1.9565  2.3196
 4601SOL    HW225266   2.016   0.704  13.900 -1.5105  1.4113  2.4905
 4602SOL     OW25267   2.847   1.421   1.581 -0.2900  0.0730 -0.2840
 4602SOL    HW125268   2.811   1.448   1.497  1.5229 -2.3396 -1.8242
 4602SOL    HW225269   2.941   1.435   1.568 -0.0434 -0.1025  1.2794
 4603SOL     OW25270   2.493   3.157   2.462  0.7095  0.1072 -0.1458
 4603SOL    HW125271   2.516   3.066   2.483  1.4736  0.3795  0.1969
 4603SOL    HW225272   2.514   3.163   2.369  1.5784  0.6795  0.0880
 4604SOL     OW25273   0.137   1.961  16.220 -0.0069 -0.0301  0.1679
 4604SOL    HW125274   0.079   1.937  16.293 -1.1559 -0.2309 -0.8200
 4604SOL    HW225275   0.135   2.056  16.229  2.0695  0.1334 -1.4039
 4605SOL     OW25276   1.457   4.623   4.645 -0.5045  0.6270 -0.3144
 4605SOL    HW125277   1.525   4.684   4.617 -0.2624 -0.2313 -1.5879
 4605SOL    HW225278   1.507   4.571   4.708 -2.5920  0.8979  1.5464
 4606SOL     OW25279   1.035   4.602   3.475 -0.3568  0.7461  0.2231
 4606SOL    HW125280   1.090   4.665   3.521 -0.9098  2.0648 -0.9283
 4606SOL    HW225281   0.955   4.652   3.456  0.5133  1.8411 -0.6154
 4607SOL     OW25282   4.225   1.052   2.422  0.1031  0.3489 -0.2969
 4607SOL    HW125283   4.183   1.137   2.409 -1.1129  0.0157  1.5517
 4607SOL    HW225284   4.161   0.991   2.384  0.5675  0.3753 -1.1313
 4608SOL     OW25285   0.437   0.458   9.947 -0.2804 -1.0548  0.4317
 4608SOL    HW125286   0.470   0.505  10.023 -2.4615  2.0211 -0.5306
 4608SOL    HW225287   0.491   0.379   9.956 -1.5207 -2.2070 -2.2192
 4609SOL     OW25288   0.123   1.734   5.335 -0.4360  0.2939 -0.5222
 4609SOL    HW125289   0.206   1.701   5.370 -1.9273 -0.6555  2.1585
 4609SOL    HW225290   0.129   1.828   5.350  0.8200  0.5055 -2.3492
 4610SOL     OW25291   3.331   0.405   7.525  0.0598  0.6330  0.6748
 4610SOL    HW125292   3.263   0.459   7.565 -0.1944  0.5367  0.3715
 4610SOL    HW225293   3.271   0.349   7.476 -0.3561 -0.9150  2.9592
 4611SOL     OW25294   0.905   0.689  12.160  0.5244 -0.5546 -0.1068
 4611SOL    HW125295   0.843   0.688  12.088  0.5609  3.1164 -0.1669
 4611SOL    HW225296   0.882   0.612  12.212 -3.5937  0.3419 -0.6077
 4612SOL     OW25297   2.169   3.770   7.141  0.3328 -0.6933  0.4717
 4612SOL    HW125298   2.099   3.819   7.098 -0.3569 -0.8931  1.3344
 4612SOL    HW225299   2.115   3.735   7.213 -2.5707 -1.1923 -1.9568
 4613SOL     OW25300   0.991   1.240   1.881  0.3930  0.7683  0.4519
 4613SOL    HW125301   0.908   1.217   1.838  0.7364  0.2608  0.0683
 4613SOL    HW225302   1.056   1.189   1.833 -0.6651  1.7567 -2.0555
 4614SOL     OW25303   0.152   3.986  13.807 -0.0081  0.0722  0.3063
 4614SOL    HW125304   0.167   4.037  13.887 -1.3943  0.2924  0.4312
 4614SOL    HW225305   0.087   4.040  13.762  0.6102 -1.4192 -2.4192
 4615SOL     OW25306   1.565   4.520   4.879  0.1405  0.1584  0.0498
 4615SOL    HW125307   1.627   4.520   4.951 -1.0171 -1.6012  1.0686
 4615SOL    HW225308   1.570   4.427   4.855 -0.2589  0.7320 -2.2286
 4616SOL     OW25309   0.291   4.346   8.709  0.2489  0.4170  0.1177
 4616SOL    HW125310   0.215   4.321   8.762  0.7374  1.4597  1.2924
 4616SOL    HW225311   0.251   4.414   8.655 -0.5728  0.1975  0.4436
 4617SOL     OW25312   3.486   3.633   6.813  0.0946  0.4194 -0.4128
 4617SOL    HW125313   3.581   3.643   6.810  0.0508  0.3513 -1.8016
 4617SOL    HW225314   3.482   3.543   6.846  2.6526  1.1859  1.9893
 4618SOL     OW25315   0.048   2.719  14.116 -0.1216 -0.1797 -0.5926
 4618SOL    HW125316   0.012   2.711  14.028 -2.2656  1.0289  0.1587
 4618SOL    HW225317   0.112   2.648  14.121 -0.2112 -0.3213 -1.5587
 4619SOL     OW25318   0.969   0.217   2.432  0.2617 -0.3632  0.0784
 4619SOL    HW125319   0.915   0.166   2.372  0.7282 -0.7768  0.0069
 4619SOL    HW225320   0.921   0.300   2.438 -1.0870 -1.0059 -1.9508
 4620SOL     OW25321   4.576   4.632   6.479  0.0539 -0.1569 -0.2083
 4620SOL    HW125322   4.616   4.709   6.521  0.2538 -0.1381 -0.4387
 4620SOL    HW225323   4.528   4.594   6.553 -2.5840  1.2941 -1.1500
 4621SOL     OW25324   4.652   3.646   7.980  0.4416 -0.4747 -0.0713
 4621SOL    HW125325   4.673   3.732   8.017 -1.0605 -0.4183  0.6163
 4621SOL    HW225326   4.607   3.611   8.057  1.5560  0.7184  1.1423
 4622SOL     OW25327   2.325   4.192  14.212 -0.0036  0.3317  0.3458
 4622SOL    HW125328   2.254   4.250  14.237  0.8367  1.5398 -0.0641
 4622SOL    HW225329   2.398   4.239  14.253  2.1876 -2.5138 -0.2610
 4623SOL     OW25330   0.801   1.779   5.162  0.0425  0.4004  0.6908
 4623SOL    HW125331   0.837   1.690   5.155 -0.7445  0.4004 -3.2605
 4623SOL    HW225332   0.803   1.805   5.254 -1.1522  1.2266  0.4833
 4624SOL     OW25333   0.664   3.081  17.064 -0.1185  0.1047 -0.4695
 4624SOL    HW125334   0.589   3.024  17.083 -1.8173  1.6633 -2.5452
 4624SOL    HW225335   0.723   3.046  17.132 -1.2182  0.9300  0.9070
 4625SOL     OW25336   0.954   0.246  10.930 -0.7468  0.6449  0.9197
 4625SOL    HW125337   0.862   0.217  10.931 -0.5416 -0.1288 -3.6418
 4625SOL    HW225338   0.934   0.339  10.944  0.8352  0.9005  1.4852
 4626SOL     OW25339   3.387   0.858  12.473  0.7966  0.2084 -0.4765
 4626SOL    HW125340   3.387   0.908  12.391  0.6142 -1.8899 -1.7394
 4626SOL    HW225341   3.481   0.858  12.489  0.3614 -1.2174  1.9856
 4627SOL     OW25342   2.978   3.849   3.152  0.5865  0.2912  0.4410
 4627SOL    HW125343   2.959   3.761   3.121  0.2015  0.0064  1.4901
 4627SOL    HW225344   2.946   3.908   3.084 -0.1116  0.1279  0.6290
 4628SOL     OW25345   2.472   4.630   3.000  0.2405  0.1912 -0.3500
 4628SOL    HW125346   2.495   4.608   2.910  1.0616  1.0425 -0.3442
 4628SOL    HW225347   2.406   4.561   3.014 -0.9168  1.2465 -0.6221
 4629SOL     OW25348   2.600   0.883   4.223 -0.5976 -0.2544  0.0976
 4629SOL    HW125349   2.543   0.851   4.153 -2.2912 -0.4949  1.5664
 4629SOL    HW225350   2.656   0.807   4.232 -0.0483  0.3777  1.9318
 4630SOL     OW25351   4.030   1.916   6.327 -0.2127 -0.0755  0.5849
 4630SOL    HW125352   3.948   1.965   6.318  0.2899  0.8504  0.9890
 4630SOL    HW225353   4.000   1.844   6.272  2.1269  0.0604 -0.8630
 4631SOL     OW25354   2.434   4.253   7.879  0.3315 -0.0149  0.5830
 4631SOL    HW125355   2.418   4.172   7.926 -1.1270 -1.2025 -1.9579
 4631SOL    HW225356   2.363   4.260   7.815  1.5833 -1.9424 -1.0594
 4632SOL     OW25357   1.451   2.492   2.531 -0.3733  0.0173 -0.1882
 4632SOL    HW125358   1.380   2.552   2.557 -1.3115 -1.1338 -0.0862
 4632SOL    HW225359   1.466   2.514   2.439 -1.7172 -0.4406 -0.5156
 4633SOL     OW25360   2.271   3.536  11.931 -0.2266  0.3981  0.2565
 4633SOL    HW125361   2.327   3.560  11.857 -1.1927  0.4728 -0.4521
 4633SOL    HW225362   2.208   3.607  11.939 -0.9108 -0.3176  1.1827
 4634SOL     OW25363   0.639   4.545   3.357  0.2962 -0.0907 -0.6656
 4634SOL    HW125364   0.689   4.539   3.276  2.2221  1.5429  0.4100
 4634SOL    HW225365   0.573   4.475   3.353  1.1699 -0.9954  1.2815
 4635SOL     OW25366   2.103   1.317   9.148 -0.0097  0.0938 -0.2263
 4635SOL    HW125367   2.027   1.375   9.155  0.5736  0.7697  0.4786
 4635SOL    HW225368   2.159   1.337   9.223  2.2259  0.1306 -1.9019
 4636SOL     OW25369   1.134   1.599   2.312  0.3852  0.0252 -0.0819
 4636SOL    HW125370   1.054   1.574   2.265  0.2954 -0.0564  0.1138
 4636SOL    HW225371   1.133   1.552   2.395 -2.1446  2.0512  1.0528
 4637SOL     OW25372   3.575   2.997   5.225  0.1087  0.7439 -0.0675
 4637SOL    HW125373   3.563   2.902   5.227  3.3547  0.4458  3.9265
 4637SOL    HW225374   3.491   3.036   5.248  1.3709  1.0572  4.0028
 4638SOL     OW25375   1.201   1.446   5.063  0.3659 -0.0684 -0.1913
 4638SOL    HW125376   1.208   1.425   5.156 -2.2508 -1.0760 -0.2029
 4638SOL    HW225377   1.259   1.522   5.065  0.7035 -0.3189 -0.4601
 4639SOL     OW25378   2.835   2.039   3.621 -0.3482  0.0824  0.1270
 4639SOL    HW125379   2.865   2.109   3.562 -0.3423 -0.9919 -1.1315
 4639SOL    HW225380   2.916   1.989   3.629 -1.2075 -1.2086  0.6816
 4640SOL     OW25381   0.878   1.849   2.652  0.2110 -0.2621  0.1247
 4640SOL    HW125382   0.917   1.883   2.572 -2.2965  0.6691 -0.7091
 4640SOL    HW225383   0.855   1.926   2.703  0.3584 -1.5696  2.1883
 4641SOL     OW25384   2.538   1.400   8.145 -0.2749 -0.4422 -0.1659
 4641SOL    HW125385   2.580   1.460   8.083  2.5864 -1.6958  0.5420
 4641SOL    HW225386   2.536   1.456   8.222 -0.1187 -1.2176  0.4012
 4642SOL     OW25387   2.379   3.988   6.304  0.3507 -0.0899 -0.0176
 4642SOL    HW125388   2.354   3.916   6.362 -0.0169 -0.0691 -0.1505
 4642SOL    HW225389   2.465   4.008   6.341  0.1894 -0.5450  0.6152
 4643SOL     OW25390   2.404   4.062   6.785 -0.6361  0.5296 -0.2976
 4643SOL    HW125391   2.327   4.090   6.834 -0.2512  2.2440 -0.6576
 4643SOL    HW225392   2.358   4.001   6.728 -2.2180  1.9693 -0.5528
 4644SOL     OW25393   0.242   1.001   8.375 -0.0816 -0.3428 -0.3768
 4644SOL    HW125394   0.328   1.027   8.342 -0.2384  0.6569 -0.0016
 4644SOL    HW225395   0.246   0.906   8.359 -1.1241 -0.3150 -0.8199
 4645SOL     OW25396   0.920   2.772   8.678 -0.3069 -0.2921 -0.0837
 4645SOL    HW125397   0.894   2.739   8.764  0.9516  0.1326  0.4532
 4645SOL    HW225398   1.005   2.810   8.697 -0.5289  0.0179  0.2791
 4646SOL     OW25399   4.624   3.966   6.947  0.9976  1.0489 -0.0960
 4646SOL    HW125400   4.579   4.040   6.989  0.2009 -1.4738  3.5150
 4646SOL    HW225401   4.600   3.890   7.001  1.5122  2.6520  2.4023
 4647SOL     OW25402   0.553   3.319   1.508 -0.4398 -0.0072 -0.0101
 4647SOL    HW125403   0.503   3.295   1.586  1.6046 -1.7629  0.7616
 4647SOL    HW225404   0.526   3.242   1.457 -1.1292  0.7617 -0.8204
 4648SOL     OW25405   0.459   0.719   4.274 -0.3472 -0.5020  0.2514
 4648SOL    HW125406   0.554   0.725   4.259 -0.4402  1.5134  0.4556
 4648SOL    HW225407   0.464   0.779   4.348  0.4024  0.2824 -0.4309
 4649SOL     OW25408   1.778   4.477   1.197  0.3823  0.2092 -0.1031
 4649SOL    HW125409   1.857   4.527   1.216  0.2607  0.0795  0.7146
 4649SOL    HW225410   1.786   4.476   1.101  0.6514 -0.5711 -0.0723
 4650SOL     OW25411   3.038   4.538   4.545 -0.0302  0.5683  0.2188
 4650SOL    HW125412   3.040   4.449   4.580 -0.7403  0.6102  0.3665
 4650SOL    HW225413   3.113   4.573   4.592  0.1735  1.4312 -0.7574
 4651SOL     OW25414   0.892   0.113   0.682  0.3146 -0.0343 -0.5652
 4651SOL    HW125415   0.834   0.089   0.754  2.0740 -0.7199  0.6404
 4651SOL    HW225416   0.967   0.151   0.727 -0.1116  0.9278 -0.6818
 4652SOL     OW25417   0.765   1.137  14.730  0.4549 -0.0415  0.1328
 4652SOL    HW125418   0.819   1.192  14.787 -1.8697  0.7101  1.5970
 4652SOL    HW225419   0.686   1.130  14.782  0.1732 -2.3636 -0.5852
 4653SOL     OW25420   4.247   4.082   5.100 -0.5158  0.0739  0.2505
 4653SOL    HW125421   4.283   4.144   5.162  0.2570  0.3140 -0.4405
 4653SOL    HW225422   4.182   4.040   5.157 -1.5096  0.6430 -0.4551
 4654SOL     OW25423   1.454   0.088   4.297 -0.0245 -0.3891 -0.1608
 4654SOL    HW125424   1.502   0.084   4.214  0.1487 -0.5990 -0.0496
 4654SOL    HW225425   1.440   4.717   4.302  3.2706 -0.9157 -1.1294
 4655SOL     OW25426   3.347   1.920   6.392  0.4071 -0.9396 -0.0260
 4655SOL    HW125427   3.345   1.878   6.306  1.3876 -2.3935  0.6630
 4655SOL    HW225428   3.311   1.852   6.449 -3.4364 -0.8358 -2.3113
 4656SOL     OW25429   2.931   0.889  17.572  0.0125  0.6468 -0.4712
 4656SOL    HW125430   2.968   0.838  17.499 -1.8948 -1.4603  0.0234
 4656SOL    HW225431   2.998   0.957  17.574  0.5183  0.0841  1.0856
 4657SOL     OW25432   1.297   3.828   6.459 -0.1475  0.1404 -0.0752
 4657SOL    HW125433   1.268   3.845   6.369 -0.5155  0.0131  0.0177
 4657SOL    HW225434   1.263   3.902   6.509 -0.6469  0.3898 -0.7855
 4658SOL     OW25435   3.898   2.790  17.517  0.2449 -0.4391 -0.1206
 4658SOL    HW125436   3.879   2.697  17.524 -1.3655  0.1275  3.0477
 4658SOL    HW225437   3.955   2.785  17.440  0.5923 -1.0514  0.1694
 4659SOL     OW25438   3.076   3.235   7.714  0.2157 -0.6895 -0.0230
 4659SOL    HW125439   3.147   3.272   7.767 -0.7287 -1.2410  1.6161
 4659SOL    HW225440   3.009   3.249   7.781  0.0253  0.5877 -0.4745
 4660SOL     OW25441   1.006   4.224   5.235 -0.4142  0.1665  0.5031
 4660SOL    HW125442   1.016   4.177   5.318 -0.0039  0.7125  0.7618
 4660SOL    HW225443   0.911   4.236   5.226 -0.6597 -0.9100  1.6214
 4661SOL     OW25444   0.152   1.159   3.257 -0.2837 -0.2411 -0.1980
 4661SOL    HW125445   0.178   1.126   3.171 -1.2431  0.7762 -0.8784
 4661SOL    HW225446   0.123   1.074   3.290  0.5481 -0.2969  0.3905
 4662SOL     OW25447   1.898   0.809  11.118 -0.1023  0.5488  0.3172
 4662SOL    HW125448   1.933   0.893  11.088  1.4300 -0.1698  0.1159
 4662SOL    HW225449   1.979   0.760  11.128  0.5574  0.8891 -3.2668
 4663SOL     OW25450   4.459   4.235   2.980  0.1704 -0.3738  0.1445
 4663SOL    HW125451   4.393   4.250   3.048  1.2279  2.4589  0.5429
 4663SOL    HW225452   4.469   4.140   2.979  1.7467 -0.2017  0.1652
 4664SOL     OW25453   1.169   0.363  11.227  0.1827 -0.1819  0.1195
 4664SOL    HW125454   1.092   0.418  11.213 -0.2164 -1.4431 -2.5910
 4664SOL    HW225455   1.157   0.306  11.151 -0.4817  0.8624 -0.5591
 4665SOL     OW25456   4.312   1.924  10.249  0.4524  0.2777  0.3975
 4665SOL    HW125457   4.354   1.998  10.293  1.8158 -0.0642 -0.3192
 4665SOL    HW225458   4.258   1.961  10.179  1.6611 -0.6117 -1.0091
 4666SOL     OW25459   1.564   2.036   7.916 -0.7332 -0.6439  0.3393
 4666SOL    HW125460   1.638   1.975   7.919  0.0799  0.3353  0.0007
 4666SOL    HW225461   1.545   2.039   7.822 -0.5703 -1.3154  0.2882
 4667SOL     OW25462   1.398   3.320   2.566 -0.0895  0.4744 -0.0649
 4667SOL    HW125463   1.462   3.250   2.554 -0.8246 -0.2012 -0.0461
 4667SOL    HW225464   1.319   3.272   2.591  0.9929 -0.7708  0.9850
 4668SOL     OW25465   4.506   3.149   9.938 -0.5974 -0.4531 -0.0077
 4668SOL    HW125466   4.433   3.162   9.999  1.5625 -1.2396  2.7322
 4668SOL    HW225467   4.590   3.152   9.984  0.9222  0.8250 -2.8581
 4669SOL     OW25468   3.169   2.618   4.056  0.6346  0.1451  0.4161
 4669SOL    HW125469   3.250   2.656   4.090  0.6600 -0.5238  1.1038
 4669SOL    HW225470   3.193   2.551   3.992 -0.6176  0.2644 -0.1797
 4670SOL     OW25471   4.527   0.471   1.873  0.1415 -0.0698 -0.7991
 4670SOL    HW125472   4.570   0.539   1.821  0.0959  0.6583  0.1034
 4670SOL    HW225473   4.455   0.458   1.812  0.3086  1.9607 -1.4190
 4671SOL     OW25474   0.729   3.911  10.876  0.4174 -0.0548  0.0991
 4671SOL    HW125475   0.774   3.863  10.946 -0.1661 -0.4097  0.2303
 4671SOL    HW225476   0.638   3.906  10.904  0.1932  1.4879 -0.3282
 4672SOL     OW25477   2.797   2.358   1.123 -0.4213  0.1977 -0.0418
 4672SOL    HW125478   2.730   2.424   1.144  0.1966  1.4785 -2.0423
 4672SOL    HW225479   2.734   2.302   1.078 -2.9750  2.6059  0.4945
 4673SOL     OW25480   3.117   1.695   8.691  0.0767 -0.4276 -0.2055
 4673SOL    HW125481   3.206   1.720   8.715  0.7121 -1.0942 -1.9024
 4673SOL    HW225482   3.077   1.708   8.777  1.3799 -0.3462  0.3829
 4674SOL     OW25483   1.259   0.428   5.071 -0.0886 -0.4439 -0.6977
 4674SOL    HW125484   1.277   0.400   5.161 -0.3661  2.2421  0.1896
 4674SOL    HW225485   1.225   0.343   5.045  0.6502 -0.9781  0.0795
 4675SOL     OW25486   0.906   3.531   7.550 -0.0702  0.2440  0.3567
 4675SOL    HW125487   0.823   3.506   7.509 -0.3815  1.7603  0.0439
 4675SOL    HW225488   0.889   3.500   7.638 -1.5674  0.3575  0.1060
 4676SOL     OW25489   1.869   2.441  13.815 -0.5611 -0.3572 -0.0080
 4676SOL    HW125490   1.899   2.532  13.816  0.2234 -0.6124 -0.3809
 4676SOL    HW225491   1.939   2.378  13.798 -1.9546 -1.9280  0.0008
 4677SOL     OW25492   2.436   3.817   7.196  0.3584  0.4675  0.0296
 4677SOL    HW125493   2.441   3.910   7.175  3.2438  0.1594 -0.6055
 4677SOL    HW225494   2.343   3.806   7.176  0.8717  0.5310 -2.4075
 4678SOL     OW25495   3.968   1.384  13.414 -0.1417 -0.1659  0.7572
 4678SOL    HW125496   3.928   1.297  13.417  0.2481 -0.2854  2.4438
 4678SOL    HW225497   3.902   1.452  13.410 -1.5876 -1.6697 -0.7780
 4679SOL     OW25498   3.835   4.043   7.327  0.4820 -0.4052  0.0357
 4679SOL    HW125499   3.774   4.115   7.343 -1.7600 -2.1703 -0.5531
 4679SOL    HW225500   3.854   4.017   7.417 -0.2137  0.6984  0.4981
 4680SOL     OW25501   3.265   1.731   7.715 -0.4129  0.1844 -0.0801
 4680SOL    HW125502   3.335   1.766   7.659 -0.7418  0.7511 -0.1454
 4680SOL    HW225503   3.316   1.707   7.792 -0.1407  1.7731  0.2422
 4681SOL     OW25504   0.930   0.276   6.051 -0.1220  0.2569 -0.0025
 4681SOL    HW125505   0.976   0.247   6.130  1.0772  0.2339 -0.7018
 4681SOL    HW225506   0.867   0.204   6.062 -0.1247  0.1281 -0.8083
 4682SOL     OW25507   2.957   0.695   4.145 -0.6874  0.5413  0.1142
 4682SOL    HW125508   2.954   0.743   4.228 -1.9112  1.1612 -0.2961
 4682SOL    HW225509   2.867   0.664   4.141 -1.0178  1.7784 -2.3086
 4683SOL     OW25510   0.120   2.157   8.669  0.0210 -0.1053  0.3694
 4683SOL    HW125511   0.072   2.231   8.633 -0.2522  0.0409  1.0424
 4683SOL    HW225512   0.190   2.163   8.604  0.0820 -0.0560  0.4408
 4684SOL     OW25513   1.935   0.125   8.279 -0.2568  0.0529  0.4568
 4684SOL    HW125514   1.864   0.061   8.283  1.2608 -1.7218 -0.8037
 4684SOL    HW225515   1.896   0.198   8.230  1.2111  1.7585  1.8244
 4685SOL     OW25516   1.069   3.636   4.701 -0.2203 -0.4045  0.5293
 4685SOL    HW125517   0.978   3.619   4.677  0.3925 -2.4642 -0.2899
 4685SOL    HW225518   1.104   3.680   4.623  1.4061  0.0818  1.5178
 4686SOL     OW25519   4.271   0.304   4.789  0.2952 -0.0545 -0.2567
 4686SOL    HW125520   4.209   0.350   4.845  0.9276 -0.1551  0.5180
 4686SOL    HW225521   4.288   0.374   4.726  0.8661  0.8748  0.9339
 4687SOL     OW25522   3.920   2.488  16.160  0.1230 -0.6958  0.3314
 4687SOL    HW125523   3.996   2.511  16.213 -0.2339 -0.2343  0.6378
 4687SOL    HW225524   3.905   2.572  16.116  0.1527 -1.3853 -1.0105
 4688SOL     OW25525   3.818   2.735  15.941  0.8988 -0.7470  0.2839
 4688SOL    HW125526   3.790   2.780  16.021 -1.9924  1.0862 -1.7303
 4688SOL    HW225527   3.782   2.794  15.874 -0.4162  2.3087  3.6580
 4689SOL     OW25528   2.577   1.233   6.227 -0.3950 -0.1442  0.6404
 4689SOL    HW125529   2.564   1.324   6.256  2.0614  0.4337 -0.0220
 4689SOL    HW225530   2.504   1.228   6.165  1.0715  3.0711 -1.3679
 4690SOL     OW25531   0.916   1.397   5.513 -0.3152 -0.7083 -0.0368
 4690SOL    HW125532   0.842   1.427   5.566 -1.6099 -4.0255  0.0427
 4690SOL    HW225533   0.932   1.309   5.547 -1.3730 -1.4763 -1.5508
 4691SOL     OW25534   1.456   3.423  12.576  0.2995  0.3012 -0.1170
 4691SOL    HW125535   1.539   3.471  12.572 -0.2034  1.2277  0.3111
 4691SOL    HW225536   1.411   3.424  12.492 -1.6436 -0.5420  0.9298
 4692SOL     OW25537   3.750   0.361   1.667  0.1176 -0.2149  0.5720
 4692SOL    HW125538   3.728   0.334   1.756  1.9882 -0.6005  0.9101
 4692SOL    HW225539   3.741   0.276   1.623  1.1093  0.7625 -1.5224
 4693SOL     OW25540   4.540   4.192  11.540 -0.0618 -0.3467  0.8191
 4693SOL    HW125541   4.504   4.145  11.614  0.2188  2.0978  2.4991
 4693SOL    HW225542   4.491   4.274  11.540  1.8129  0.7990 -0.3086
 4694SOL     OW25543   2.646   0.428   9.208 -0.1992 -0.0543 -0.0371
 4694SOL    HW125544   2.730   0.457   9.172  0.0783 -2.0281 -0.9501
 4694SOL    HW225545   2.586   0.501   9.193  1.3268  1.1862 -0.1303
 4695SOL     OW25546   4.077   1.158  17.116  0.3557  0.2288 -0.4813
 4695SOL    HW125547   4.069   1.232  17.176  0.9696 -1.5474  1.7926
 4695SOL    HW225548   3.987   1.144  17.086  0.9536 -1.8554 -1.3350
 4696SOL     OW25549   3.066   1.735   7.536  0.4035 -0.3194 -0.9187
 4696SOL    HW125550   3.129   1.714   7.605 -1.6390  0.8575  1.2921
 4696SOL    HW225551   3.116   1.728   7.454  1.8879 -0.1368 -0.0223
 4697SOL     OW25552   3.900   1.145   4.862  0.0689  0.0753 -0.0866
 4697SOL    HW125553   3.963   1.138   4.790  0.7665 -1.1805  0.6558
 4697SOL    HW225554   3.919   1.066   4.911 -1.3052 -0.8265 -1.0178
 4698SOL     OW25555   3.261   4.203   9.726 -0.2797  0.7136  0.7592
 4698SOL    HW125556   3.299   4.287   9.753 -0.2700  1.0174 -0.2138
 4698SOL    HW225557   3.261   4.148   9.804 -0.5135 -0.4563 -0.0804
 4699SOL     OW25558   2.608   1.314   7.558 -0.0165  0.7222 -0.0518
 4699SOL    HW125559   2.678   1.366   7.599  3.5956 -3.6632 -0.6869
 4699SOL    HW225560   2.657   1.272   7.488  0.3550 -0.5315  0.9702
 4700SOL     OW25561   3.198   1.148   8.770  0.1515  0.1635  0.6624
 4700SOL    HW125562   3.114   1.193   8.759  0.1917  0.1903  0.4747
 4700SOL    HW225563   3.242   1.200   8.837 -0.3748  0.5099  0.7440
 4701SOL     OW25564   2.274   4.416  10.467  0.1594 -0.5301 -0.0556
 4701SOL    HW125565   2.212   4.392  10.398  1.1698  1.0169 -1.4800
 4701SOL    HW225566   2.238   4.363  10.539  1.0696 -1.6324 -0.4150
 4702SOL     OW25567   4.087   0.866  10.753 -0.0783 -0.4786  0.4905
 4702SOL    HW125568   4.152   0.927  10.717 -1.0963 -0.3775 -1.2022
 4702SOL    HW225569   4.140   0.788  10.737  1.0629  0.3613  0.1148
 4703SOL     OW25570   1.287   3.115  13.960  0.2644  0.4754 -0.0461
 4703SOL    HW125571   1.223   3.155  14.019  0.0894  0.9432 -0.5503
 4703SOL    HW225572   1.249   3.111  13.872 -0.1233 -3.5875  0.3007
 4704SOL     OW25573   3.527   3.669   3.213 -0.2060 -0.1337 -0.0827
 4704SOL    HW125574   3.446   3.686   3.165 -1.0701  0.0793  1.4667
 4704SOL    HW225575   3.561   3.605   3.150  0.2883 -0.5007  0.5465
 4705SOL     OW25576   1.506   1.290  14.726  0.3257  0.2260 -0.2794
 4705SOL    HW125577   1.580   1.340  14.691 -0.3225 -0.5275 -2.6719
 4705SOL    HW225578   1.472   1.345  14.797  0.5899  3.2137 -2.4728
 4706SOL     OW25579   3.522   2.078   9.461  0.2185 -0.2875  0.6135
 4706SOL    HW125580   3.583   2.138   9.502  1.0763 -0.6858 -0.0778
 4706SOL    HW225581   3.467   2.149   9.429  0.4372 -0.8222 -0.9458
 4707SOL     OW25582   4.580   0.460  12.493 -0.9276 -0.6144 -0.4279
 4707SOL    HW125583   4.667   0.480  12.457 -0.9715  1.5714  0.6882
 4707SOL    HW225584   4.545   0.400  12.427  0.2959 -0.9468 -0.7762
 4708SOL     OW25585   2.331   3.944  11.678  0.2455 -0.0945  0.4383
 4708SOL    HW125586   2.414   3.981  11.710  0.5180 -0.0899 -0.2775
 4708SOL    HW225587   2.263   3.999  11.715 -1.2746 -2.6493  1.4673
 4709SOL     OW25588   2.103   2.884  16.005 -0.1191 -0.2908  0.3655
 4709SOL    HW125589   2.037   2.832  16.052  0.7402 -0.9050  0.8971
 4709SOL    HW225590   2.181   2.840  16.039  1.0249  1.8966  0.5217
 4710SOL     OW25591   0.967   1.335   7.603 -0.1930  0.4361 -0.4726
 4710SOL    HW125592   0.970   1.403   7.670  0.5287 -1.1950  1.1580
 4710SOL    HW225593   0.897   1.277   7.634 -0.0957  1.5389  1.8252
 4711SOL     OW25594   4.440   0.254  16.503 -0.0128 -0.3066 -0.4866
 4711SOL    HW125595   4.463   0.248  16.596  0.6088  1.7480 -0.5073
 4711SOL    HW225596   4.497   0.326  16.475 -0.0371 -0.1972 -0.2576
 4712SOL     OW25597   0.230   2.986   3.860 -0.3444  0.6473  0.3882
 4712SOL    HW125598   0.264   3.022   3.942  2.9812  0.8124 -1.0588
 4712SOL    HW225599   0.140   2.961   3.881 -0.0281  1.1044  2.2893
 4713SOL     OW25600   3.775   2.388   3.470  0.9236  0.3242 -0.4987
 4713SOL    HW125601   3.838   2.317   3.456 -0.1876 -0.4719 -1.4631
 4713SOL    HW225602   3.769   2.401   3.376 -2.1397  0.5340 -0.2887
 4714SOL     OW25603   0.013   0.654   7.274 -0.2754  0.1788  0.1430
 4714SOL    HW125604   4.648   0.618   7.273  0.2835 -1.1795 -0.1480
 4714SOL    HW225605   0.039   0.658   7.182  1.1771  1.0525  0.6075
 4715SOL     OW25606   3.590   4.457   7.053  0.3016 -0.1362 -0.2914
 4715SOL    HW125607   3.584   4.362   7.065  3.1211 -0.5798 -2.4164
 4715SOL    HW225608   3.572   4.470   6.960 -2.3149 -1.8322 -0.0550
 4716SOL     OW25609   4.486   4.226   6.506  0.4893  0.5550  0.0838
 4716SOL    HW125610   4.479   4.312   6.548 -0.6414 -0.0549  1.1508
 4716SOL    HW225611   4.501   4.249   6.414  1.4023  0.0280  0.0999
 4717SOL     OW25612   0.312   0.518  13.210  0.2934  0.0019  0.0902
 4717SOL    HW125613   0.222   0.501  13.239 -0.1159  1.6105 -0.2515
 4717SOL    HW225614   0.347   0.562  13.288  0.4286 -0.4318  0.2760
 4718SOL     OW25615   2.190   3.635   5.501 -0.3271  0.2480 -0.4808
 4718SOL    HW125616   2.108   3.596   5.472  0.5705  1.6203 -4.9332
 4718SOL    HW225617   2.168   3.725   5.523 -1.0693 -0.3427  1.1848
 4719SOL     OW25618   0.608   3.394   6.662  0.6687  0.2758  0.1450
 4719SOL    HW125619   0.527   3.349   6.639  1.1436 -0.5197  0.0297
 4719SOL    HW225620   0.623   3.345   6.742 -1.7060  1.1721  1.1585
 4720SOL     OW25621   0.203   0.774  17.121  0.0861 -0.0409 -0.0471
 4720SOL    HW125622   0.142   0.741  17.056  2.0821 -1.6771 -1.0675
 4720SOL    HW225623   0.270   0.707  17.120 -0.7197 -0.7922 -2.1800
 4721SOL     OW25624   4.694   2.220  10.860 -0.3231 -0.4098  0.6109
 4721SOL    HW125625   0.042   2.239  10.799  0.5541 -0.2849  1.6957
 4721SOL    HW225626   0.008   2.284  10.920  0.1243  1.4259 -1.5914
 4722SOL     OW25627   2.969   2.713  14.829 -0.2790 -0.8009  0.1176
 4722SOL    HW125628   2.961   2.618  14.840  1.3986 -0.8581  0.7129
 4722SOL    HW225629   2.977   2.721  14.734  2.3823 -1.2989  0.3081
 4723SOL     OW25630   3.420   0.344   1.116  0.2070 -0.5817 -0.0575
 4723SOL    HW125631   3.447   0.281   1.182 -1.4632 -0.5269  0.6763
 4723SOL    HW225632   3.430   0.285   1.041 -0.5687 -1.2560  0.3701
 4724SOL     OW25633   0.152   3.064   7.265 -0.0543 -0.2636  0.3929
 4724SOL    HW125634   0.153   3.017   7.348 -0.1953 -3.2507 -1.2967
 4724SOL    HW225635   0.058   3.081   7.260  0.0858 -0.0897 -1.7379
 4725SOL     OW25636   0.749   0.737   6.003  0.6355 -0.0338 -0.2766
 4725SOL    HW125637   0.748   0.778   6.089  1.4679 -3.8328  1.5352
 4725SOL    HW225638   0.742   0.644   6.024  2.5226 -0.0511  0.2816
 4726SOL     OW25639   1.065   0.347  14.868  0.6836  0.6299 -0.9236
 4726SOL    HW125640   1.009   0.270  14.856  0.5188  0.8801 -1.7827
 4726SOL    HW225641   1.143   0.310  14.908 -1.3266 -1.0469  1.4748
 4727SOL     OW25642   0.628   1.550  10.546 -0.2128  0.3935 -0.0018
 4727SOL    HW125643   0.698   1.602  10.587 -0.7773  0.9659  0.2246
 4727SOL    HW225644   0.663   1.529  10.459 -2.1979 -0.8092 -0.5010
 4728SOL     OW25645   2.635   0.614   1.903 -0.4120  0.3814 -0.3474
 4728SOL    HW125646   2.575   0.683   1.933 -2.3829 -1.8214  0.8150
 4728SOL    HW225647   2.593   0.571   1.828  0.4837  0.2250 -0.7517
 4729SOL     OW25648   4.674   1.353   4.378 -0.2303  0.3860  0.2910
 4729SOL    HW125649   0.002   1.395   4.447  0.1165  2.0917 -1.0208
 4729SOL    HW225650   0.012   1.301   4.327 -0.1263 -0.5819  1.3895
 4730SOL     OW25651   1.949   2.410   9.246  0.0121  0.2686 -0.5882
 4730SOL    HW125652   2.010   2.336   9.241  0.1719  0.2510  1.7447
 4730SOL    HW225653   1.908   2.385   9.329 -1.1566  0.7068 -1.0329
 4731SOL     OW25654   4.293   1.552   4.494  0.1051 -0.4871 -0.0012
 4731SOL    HW125655   4.210   1.601   4.493  0.5615  0.2836  0.5638
 4731SOL    HW225656   4.320   1.565   4.585  1.1062  0.5051 -0.4476
 4732SOL     OW25657   3.162   0.554   8.570  0.0236 -0.3943 -0.3296
 4732SOL    HW125658   3.093   0.539   8.634 -0.5036 -0.0171 -0.8125
 4732SOL    HW225659   3.148   0.476   8.516 -1.2965  0.0719 -0.6499
 4733SOL     OW25660   0.966   2.945   8.092  0.1408 -0.2751  0.1394
 4733SOL    HW125661   0.888   2.924   8.142  0.5778  0.8936  1.3293
 4733SOL    HW225662   0.948   2.891   8.015  0.6403 -1.9760  1.2026
 4734SOL     OW25663   2.182   1.337   0.865 -0.4115 -0.6377 -0.3102
 4734SOL    HW125664   2.122   1.290   0.807  2.2496 -3.9182 -0.4026
 4734SOL    HW225665   2.240   1.371   0.796  0.8690  1.5024  1.8088
 4735SOL     OW25666   2.711   1.865   3.377  0.0198  0.3386 -0.1131
 4735SOL    HW125667   2.630   1.910   3.402 -0.3951 -0.0980 -0.6705
 4735SOL    HW225668   2.767   1.939   3.353 -1.2288  1.0362 -0.9127
 4736SOL     OW25669   2.323   3.436   8.816 -0.5977 -0.3148 -0.4800
 4736SOL    HW125670   2.311   3.368   8.882  0.6655 -0.9755 -0.9435
 4736SOL    HW225671   2.242   3.422   8.766 -0.5372  2.2196 -1.2999
 4737SOL     OW25672   0.444   0.799  10.187 -0.0050 -0.1370 -0.1609
 4737SOL    HW125673   0.507   0.729  10.172  0.3988  0.3965 -0.9719
 4737SOL    HW225674   0.487   0.878  10.154  0.2066 -0.9434 -1.8312
 4738SOL     OW25675   4.614   2.071   5.385  0.0552 -0.3027 -0.2326
 4738SOL    HW125676   4.548   2.045   5.450 -0.3146  3.0717  0.7525
 4738SOL    HW225677   4.569   2.040   5.306  1.1730  0.3562 -1.1220
 4739SOL     OW25678   0.588   3.368   9.108 -0.4522  0.3499 -0.2580
 4739SOL    HW125679   0.609   3.321   9.027  0.0038  0.9939 -0.5175
 4739SOL    HW225680   0.646   3.327   9.172 -0.4851  2.6708  1.2768
 4740SOL     OW25681   4.587   3.485   4.701  0.3386 -0.5476  0.0074
 4740SOL    HW125682   4.510   3.435   4.672  0.6407 -0.5389 -0.7989
 4740SOL    HW225683   4.555   3.483   4.792 -2.5222  3.2440 -0.9026
 4741SOL     OW25684   4.660   3.280   4.528  0.0740 -0.3844  0.0286
 4741SOL    HW125685   4.690   3.332   4.454 -0.3467 -1.1848 -0.6990
 4741SOL    HW225686   4.639   3.353   4.586  0.6761 -0.6339  0.5656
 4742SOL     OW25687   2.332   1.696   4.505  0.7420  0.1029  0.0961
 4742SOL    HW125688   2.418   1.711   4.544  0.7586  0.7015 -0.1752
 4742SOL    HW225689   2.274   1.739   4.569 -1.3613 -1.4600 -0.7553
 4743SOL     OW25690   1.458   3.188   3.427  0.7968 -0.4009 -0.3647
 4743SOL    HW125691   1.472   3.275   3.389 -0.2438 -0.9436 -1.9486
 4743SOL    HW225692   1.389   3.216   3.487 -0.7985 -0.9226 -1.9650
 4744SOL     OW25693   1.662   2.789   7.766 -0.6312 -0.7002  0.2265
 4744SOL    HW125694   1.578   2.831   7.749 -1.2511 -1.4599  1.3802
 4744SOL    HW225695   1.627   2.727   7.830 -2.5631  0.4771  0.2954
 4745SOL     OW25696   4.387   3.008   4.456 -0.5712 -0.3468 -0.1246
 4745SOL    HW125697   4.318   2.987   4.520  1.1948  0.9769  2.1979
 4745SOL    HW225698   4.367   3.098   4.432 -1.0892 -0.6903 -0.9717
 4746SOL     OW25699   2.061   4.213   2.435  0.4880  0.3458 -0.0338
 4746SOL    HW125700   1.983   4.267   2.422  2.0027  2.3497 -0.7755
 4746SOL    HW225701   2.048   4.155   2.360  1.2654 -1.6480  1.3626
 4747SOL     OW25702   1.602   1.468   8.593 -0.2605 -0.3230  0.0731
 4747SOL    HW125703   1.614   1.559   8.617  1.0389 -0.4180 -0.2174
 4747SOL    HW225704   1.642   1.418   8.665  0.0304 -1.7639 -1.0843
 4748SOL     OW25705   1.831   3.032   5.208 -0.0376 -0.2539 -0.5181
 4748SOL    HW125706   1.919   3.030   5.248 -1.2110 -0.0107  2.1048
 4748SOL    HW225707   1.850   3.082   5.129 -0.9340 -0.1319 -0.6525
 4749SOL     OW25708   1.234   2.912   2.686 -0.2493  0.0533  0.4928
 4749SOL    HW125709   1.252   2.822   2.715 -2.8740 -0.6392 -0.0452
 4749SOL    HW225710   1.235   2.962   2.767 -0.7094  0.2592  0.3739
 4750SOL     OW25711   1.283   1.539   8.778 -0.0456  0.1052  0.1284
 4750SOL    HW125712   1.362   1.587   8.803 -0.6696  0.1376  2.0259
 4750SOL    HW225713   1.227   1.609   8.745 -0.1105 -0.5245 -1.1211
 4751SOL     OW25714   3.614   1.324   8.636  0.9874 -0.1336 -0.2208
 4751SOL    HW125715   3.567   1.258   8.585  0.5936  0.8069 -1.0812
 4751SOL    HW225716   3.669   1.365   8.569  1.0517  0.3580  0.1315
 4752SOL     OW25717   0.870   4.490   7.394 -0.6754  0.0666  0.0078
 4752SOL    HW125718   0.954   4.475   7.438 -0.0709  0.9930 -0.8407
 4752SOL    HW225719   0.849   4.579   7.423 -1.3612 -0.7993  2.2207
 4753SOL     OW25720   3.015   1.254   7.756  0.5431 -0.1197  0.1205
 4753SOL    HW125721   3.106   1.236   7.780  1.5186  2.1793 -1.7563
 4753SOL    HW225722   3.015   1.196   7.680  3.2872 -0.4298  0.3315
 4754SOL     OW25723   3.834   3.732   7.675  0.4348  0.0536  0.1476
 4754SOL    HW125724   3.848   3.788   7.751 -0.1217 -0.1832  0.4233
 4754SOL    HW225725   3.863   3.641   7.688 -1.7075 -0.6614 -0.0641
 4755SOL     OW25726   2.041   0.882  13.565  0.0911  0.5077 -0.3509
 4755SOL    HW125727   2.058   0.791  13.541 -0.7028  0.0002  1.0168
 4755SOL    HW225728   2.107   0.890  13.635  0.9939 -3.7646 -0.7213
 4756SOL     OW25729   4.193   4.287  16.476  0.3673 -0.3355 -0.2557
 4756SOL    HW125730   4.270   4.231  16.466  0.0377 -0.9290  0.5535
 4756SOL    HW225731   4.138   4.230  16.530 -2.7537 -0.9446 -4.0850
 4757SOL     OW25732   0.155   0.461  12.414  0.3051  0.3643  0.0206
 4757SOL    HW125733   0.186   0.550  12.396  0.9008  0.0639 -0.4510
 4757SOL    HW225734   0.225   0.436  12.476  0.7004  0.1965 -0.4955
 4758SOL     OW25735   1.006   4.505  14.680 -0.6614 -0.2148  0.1294
 4758SOL    HW125736   0.990   4.505  14.774 -2.1558  1.3754 -0.1154
 4758SOL    HW225737   1.098   4.483  14.666 -0.4717  0.5354  0.2187
 4759SOL     OW25738   0.354   0.402  12.580  0.2026  0.1467 -0.1471
 4759SOL    HW125739   0.441   0.425  12.610  0.4658  1.4436 -1.9361
 4759SOL    HW225740   0.377   0.316  12.546 -1.4644  0.3469 -1.7885
 4760SOL     OW25741   1.420   4.269  10.654 -0.5241  0.5485  0.2930
 4760SOL    HW125742   1.329   4.251  10.679 -0.8673  0.9622 -0.6528
 4760SOL    HW225743   1.458   4.192  10.697 -3.1915 -0.5890  0.6164
 4761SOL     OW25744   1.783   0.796   8.237  0.1075  0.5094  0.3589
 4761SOL    HW125745   1.877   0.804   8.227  0.4136 -1.0061  1.9856
 4761SOL    HW225746   1.751   0.887   8.228 -2.0319 -0.2183  0.4806
 4762SOL     OW25747   0.329   3.038   4.994  0.1183  0.9145 -0.4584
 4762SOL    HW125748   0.394   3.097   4.956  1.8657 -1.1163 -0.6189
 4762SOL    HW225749   0.252   3.049   4.938  1.0394  2.2292 -1.4643
 4763SOL     OW25750   3.866   2.964  13.287 -0.4312  0.2845 -0.7042
 4763SOL    HW125751   3.775   2.994  13.283  0.4127  2.9257 -0.0769
 4763SOL    HW225752   3.906   3.023  13.223 -3.1090  1.6003 -1.1493
 4764SOL     OW25753   4.173   4.165  13.336  0.6876  0.0595  0.0092
 4764SOL    HW125754   4.188   4.092  13.396 -0.0043 -1.5814 -1.8033
 4764SOL    HW225755   4.077   4.164  13.339  0.6955 -1.1585 -0.2816
 4765SOL     OW25756   1.690   1.965   8.574 -0.2761  0.4825 -0.4041
 4765SOL    HW125757   1.770   2.005   8.607 -0.0955  0.8266 -1.2724
 4765SOL    HW225758   1.695   1.991   8.482  1.4478  0.8657 -0.2022
 4766SOL     OW25759   1.632   1.210  17.129  0.2800  0.3216 -0.4228
 4766SOL    HW125760   1.581   1.285  17.160  0.8858  1.3159 -1.8499
 4766SOL    HW225761   1.703   1.249  17.078  1.2890 -1.0816 -0.0870
 4767SOL     OW25762   0.459   3.250   7.864 -0.1354  0.2511 -0.0320
 4767SOL    HW125763   0.502   3.273   7.947  0.1097  0.2143 -0.1506
 4767SOL    HW225764   0.450   3.333   7.818  0.8336 -0.5301 -1.5877
 4768SOL     OW25765   1.553   2.062   4.155  0.2183 -0.3689  0.3909
 4768SOL    HW125766   1.618   2.004   4.194 -1.5405 -1.8355  1.1448
 4768SOL    HW225767   1.575   2.046   4.064  3.1283 -0.6022  1.1285
 4769SOL     OW25768   1.285   3.263  15.698  0.1155  0.1872  0.2413
 4769SOL    HW125769   1.260   3.172  15.713  0.0301  0.3150  0.9092
 4769SOL    HW225770   1.300   3.294  15.787 -0.2376 -0.1484  0.4188
 4770SOL     OW25771   3.261   4.640   9.991  0.3736 -0.5953 -0.1647
 4770SOL    HW125772   3.202   4.624  10.065 -0.7860 -1.5610 -1.2919
 4770SOL    HW225773   3.289   0.004  10.018  1.8479 -1.0598 -0.1588
 4771SOL     OW25774   1.785   4.156   3.343 -0.3690  0.5788 -0.1937
 4771SOL    HW125775   1.808   4.158   3.436  2.9813 -1.1354 -0.9756
 4771SOL    HW225776   1.691   4.168   3.348 -0.3940  0.5909 -0.6472
 4772SOL     OW25777   0.840   1.725   1.807  0.2669 -0.3116 -0.1108
 4772SOL    HW125778   0.903   1.654   1.819 -0.5979 -1.4881 -2.5290
 4772SOL    HW225779   0.897   1.784   1.856  1.0902 -1.7136  0.6277
 4773SOL     OW25780   0.852   1.947   3.109  0.1302  0.3250 -0.6794
 4773SOL    HW125781   0.797   1.966   3.033  1.7712  0.9499 -1.7068
 4773SOL    HW225782   0.831   2.026   3.160  1.1384 -1.6744  2.8397
 4774SOL     OW25783   4.205   1.393   3.570  0.0994 -0.0388  0.3450
 4774SOL    HW125784   4.157   1.374   3.489  3.6837  0.0939 -1.8013
 4774SOL    HW225785   4.194   1.488   3.567 -0.2926 -0.0387  1.6986
 4775SOL     OW25786   1.648   0.560   4.620 -0.1449 -0.5510  0.4346
 4775SOL    HW125787   1.622   0.468   4.619  0.7955 -0.7846 -2.3574
 4775SOL    HW225788   1.668   0.566   4.527 -1.0629  1.4827  0.3679
 4776SOL     OW25789   0.117   1.018   6.568 -0.1125  0.0020  0.0987
 4776SOL    HW125790   0.137   0.926   6.554  0.3005  0.3560 -1.6498
 4776SOL    HW225791   0.024   1.026   6.545 -0.5679 -1.0243  1.6032
 4777SOL     OW25792   2.026   2.971   1.945  0.7232 -0.3480  0.0878
 4777SOL    HW125793   1.934   2.960   1.919  0.7144 -0.2627  0.0826
 4777SOL    HW225794   2.065   3.030   1.881  1.1142  0.6317  1.2313
 4778SOL     OW25795   1.773   3.053   6.617 -0.0889 -0.7981 -0.3799
 4778SOL    HW125796   1.768   3.132   6.672  1.4143 -1.6520  0.9758
 4778SOL    HW225797   1.810   3.081   6.534 -1.1413  1.0750 -0.2285
 4779SOL     OW25798   0.809   2.100   7.152  0.3745 -0.1843 -0.4547
 4779SOL    HW125799   0.861   2.123   7.230 -1.0996  1.8639 -0.0876
 4779SOL    HW225800   0.884   2.087   7.093  0.2320  1.6625 -1.0313
 4780SOL     OW25801   4.294   3.468   8.586 -0.9591  0.0457  0.0854
 4780SOL    HW125802   4.331   3.381   8.602 -0.5939  0.1425 -0.2440
 4780SOL    HW225803   4.262   3.461   8.496  0.3273  0.7333 -0.4149
 4781SOL     OW25804   0.177   2.289  10.691  0.1458 -0.3836  0.0106
 4781SOL    HW125805   0.195   2.351  10.621  1.8586 -0.3595  0.4478
 4781SOL    HW225806   0.266   2.292  10.727 -0.3794 -0.3923  1.3101
 4782SOL     OW25807   4.207   2.428  15.743 -0.1183 -0.4141  0.4240
 4782SOL    HW125808   4.169   2.502  15.791  0.0635  0.8214 -1.3321
 4782SOL    HW225809   4.228   2.471  15.660 -0.9500  0.3698  0.6108
 4783SOL     OW25810   1.122   2.307   5.124  0.1474 -0.1015  0.4225
 4783SOL    HW125811   1.161   2.262   5.198 -1.2166 -0.9207  0.6297
 4783SOL    HW225812   1.031   2.310   5.152 -0.8749 -0.2971 -2.8092
 4784SOL     OW25813   1.152   3.108  11.594  0.2436 -0.0073  0.1835
 4784SOL    HW125814   1.199   3.110  11.511  0.7044  1.4187  0.4801
 4784SOL    HW225815   1.174   3.019  11.623 -1.6150 -1.0423 -1.5841
 4785SOL     OW25816   3.072   0.351   2.850  0.2487  0.0709  0.5256
 4785SOL    HW125817   2.992   0.300   2.834 -0.9551  2.7236 -1.9298
 4785SOL    HW225818   3.085   0.345   2.944 -1.4979  0.3530  0.7946
 4786SOL     OW25819   0.719   1.338   3.678  0.0400 -0.2581  1.3283
 4786SOL    HW125820   0.670   1.256   3.683  1.1985 -1.2980 -4.2653
 4786SOL    HW225821   0.651   1.401   3.702  1.2951  2.1218 -1.3001
 4787SOL     OW25822   1.043   3.628   5.064 -0.2560 -0.1692 -0.4602
 4787SOL    HW125823   1.029   3.690   4.992 -0.0182 -0.7144 -0.9728
 4787SOL    HW225824   0.965   3.647   5.116 -0.9946  2.3972 -2.4921
 4788SOL     OW25825   1.397   3.421   4.271  0.4170  0.6653 -0.2714
 4788SOL    HW125826   1.310   3.385   4.288  0.4151  0.2433 -1.1805
 4788SOL    HW225827   1.433   3.445   4.357 -1.1266 -0.1980  0.6248
 4789SOL     OW25828   1.468   0.325   8.882 -0.2601 -0.8531 -0.0850
 4789SOL    HW125829   1.552   0.285   8.901 -0.3396 -0.6352  0.7181
 4789SOL    HW225830   1.466   0.322   8.787 -1.0534 -1.3020 -0.0553
 4790SOL     OW25831   0.553   4.154   3.502  0.1575  0.0878 -0.5814
 4790SOL    HW125832   0.618   4.193   3.444  0.8597 -0.5124 -0.1908
 4790SOL    HW225833   0.568   4.060   3.488  2.3694  0.3927 -0.1377
 4791SOL     OW25834   4.702   4.315   8.640 -0.4807 -0.5984 -0.0933
 4791SOL    HW125835   4.653   4.355   8.568  1.6513  1.9079 -0.1472
 4791SOL    HW225836   4.693   4.385   8.704  0.7937 -0.3525 -0.1745
 4792SOL     OW25837   4.552   2.330   2.589 -0.1561 -0.5001  0.1948
 4792SOL    HW125838   4.472   2.374   2.617  2.1068  3.1993  0.8703
 4792SOL    HW225839   4.554   2.362   2.499  1.8563  0.0510  0.4374
 4793SOL     OW25840   1.840   2.918   9.679  0.0714  0.1867 -0.0046
 4793SOL    HW125841   1.911   2.959   9.728  0.0862 -2.2572  2.0312
 4793SOL    HW225842   1.792   2.998   9.657  0.9181  1.3449  2.4070
 4794SOL     OW25843   4.040   1.333   8.187  0.0182  0.1879 -0.5035
 4794SOL    HW125844   4.069   1.297   8.271  0.0271 -1.5564 -1.2718
 4794SOL    HW225845   4.045   1.260   8.125 -0.6646 -0.0232 -0.3075
 4795SOL     OW25846   4.466   0.337   7.172 -0.0269 -0.6591 -0.0733
 4795SOL    HW125847   4.475   0.428   7.199  0.0972  0.1945 -2.9267
 4795SOL    HW225848   4.390   0.346   7.115 -0.5966 -2.4920  0.3983
 4796SOL     OW25849   1.217   0.718  17.185  0.7344  0.4174  0.3732
 4796SOL    HW125850   1.297   0.770  17.178  1.3279 -0.6203 -0.3853
 4796SOL    HW225851   1.244   0.645  17.241 -0.7713  0.4558  1.1461
 4797SOL     OW25852   0.471   1.749   7.289 -0.1838 -0.4177  0.3098
 4797SOL    HW125853   0.552   1.706   7.316  1.1096 -0.6566 -3.9532
 4797SOL    HW225854   0.502   1.839   7.281  2.2206 -1.2164  0.7509
 4798SOL     OW25855   4.596   2.199   6.692 -0.2363 -0.2390 -0.0668
 4798SOL    HW125856   4.508   2.163   6.689 -0.6748  1.0412 -2.1968
 4798SOL    HW225857   4.593   2.251   6.612  0.7724  2.8375  1.9125
 4799SOL     OW25858   1.721   3.268   6.999 -0.1864 -0.8698 -0.2428
 4799SOL    HW125859   1.754   3.296   6.914  3.7111 -1.6641  1.0402
 4799SOL    HW225860   1.705   3.349   7.047  1.0277 -1.1856  0.7044
 4800SOL     OW25861   1.938   1.939   6.021 -0.4143  0.1096  0.5914
 4800SOL    HW125862   1.913   2.029   6.043 -0.1705 -0.1633  1.9870
 4800SOL    HW225863   1.974   1.947   5.933  1.9672  0.5774  1.6255
 4801SOL     OW25864   2.202   0.696  11.846 -0.2472  0.0684 -0.0619
 4801SOL    HW125865   2.210   0.606  11.878  0.4800 -0.1915 -0.9820
 4801SOL    HW225866   2.169   0.679  11.758  0.0806 -2.5787  0.3095
 4802SOL     OW25867   0.849   3.355   4.603  0.8772 -0.4562  0.2419
 4802SOL    HW125868   0.940   3.327   4.607  0.8014 -0.4412  1.8434
 4802SOL    HW225869   0.854   3.450   4.596 -0.6016 -0.6537 -3.5504
 4803SOL     OW25870   3.974   1.208   1.954 -0.2911 -0.0163 -0.1016
 4803SOL    HW125871   3.923   1.288   1.969  0.5079  0.2905  0.8813
 4803SOL    HW225872   4.039   1.248   1.896 -0.8592 -1.9847 -2.0924
 4804SOL     OW25873   3.126   0.436  15.694  0.0372 -0.1958  0.5221
 4804SOL    HW125874   3.106   0.518  15.649 -2.1274 -1.3536 -0.6113
 4804SOL    HW225875   3.167   0.385  15.624  1.2429  1.9505 -0.3300
 4805SOL     OW25876   0.643   2.803   5.724 -0.7681 -0.1414 -0.6321
 4805SOL    HW125877   0.552   2.823   5.703 -0.6417  1.1235  0.0568
 4805SOL    HW225878   0.648   2.816   5.818 -0.1594 -1.4335 -0.4819
 4806SOL     OW25879   1.832   2.231   2.507 -0.7512  0.2289 -0.0673
 4806SOL    HW125880   1.778   2.170   2.457 -0.9346  1.2146 -1.0546
 4806SOL    HW225881   1.799   2.314   2.472  0.5296  1.2987  1.2686
 4807SOL     OW25882   0.227   0.082  15.369 -0.0174 -0.0035 -0.1574
 4807SOL    HW125883   0.320   0.096  15.383  0.3124 -1.3214 -0.9991
 4807SOL    HW225884   0.210   0.146  15.300 -0.4457 -1.3935 -1.3614
 4808SOL     OW25885   0.558   2.514   4.572  0.2649 -0.1159  0.3060
 4808SOL    HW125886   0.647   2.532   4.603  1.0269 -0.4762 -1.6890
 4808SOL    HW225887   0.547   2.592   4.517 -0.6392 -0.5469 -0.1174
 4809SOL     OW25888   2.287   2.886  10.327  0.4086  0.1602 -0.2097
 4809SOL    HW125889   2.192   2.887  10.334  0.4975  1.0718  1.0076
 4809SOL    HW225890   2.316   2.799  10.301  4.1951  0.4702  2.9490
 4810SOL     OW25891   2.614   1.767  11.386 -0.0424  0.3684 -0.1079
 4810SOL    HW125892   2.698   1.810  11.373 -0.5984  0.8065 -2.2312
 4810SOL    HW225893   2.643   1.689  11.435 -1.7235  0.2829  0.7388
 4811SOL     OW25894   4.660   3.721  15.164  0.6560  0.0732 -0.0644
 4811SOL    HW125895   4.579   3.705  15.116 -0.8834  0.7924  2.2954
 4811SOL    HW225896   4.625   3.746  15.249  0.0478  1.2090 -0.6415
 4812SOL     OW25897   3.420   3.670  13.364 -0.0563 -0.1889  0.1676
 4812SOL    HW125898   3.340   3.673  13.311 -0.0060 -0.4913  0.0747
 4812SOL    HW225899   3.494   3.673  13.304 -0.6176 -2.1087 -0.6418
 4813SOL     OW25900   0.436   0.755   7.940 -0.3937 -0.3884  0.4343
 4813SOL    HW125901   0.489   0.832   7.921 -0.4809  0.2710  2.8352
 4813SOL    HW225902   0.489   0.723   8.013 -1.8583 -0.2994  1.5377
 4814SOL     OW25903   3.208   4.028   3.138  0.3338 -0.3037  0.1443
 4814SOL    HW125904   3.294   3.988   3.153  0.5123  0.2478  0.5802
 4814SOL    HW225905   3.142   3.963   3.161 -1.5989  1.3460 -0.7178
 4815SOL     OW25906   3.361   4.683   3.652  0.0104  0.3083 -0.2418
 4815SOL    HW125907   3.405   4.690   3.568  0.0486 -3.3020 -0.5025
 4815SOL    HW225908   3.376   4.592   3.675  0.1236  0.3983  0.0399
 4816SOL     OW25909   1.828   3.637   2.142 -0.2043 -0.2949  0.0881
 4816SOL    HW125910   1.910   3.662   2.185  0.1902  1.7463 -1.8149
 4816SOL    HW225911   1.841   3.542   2.146 -0.2734 -0.3303 -0.5047
 4817SOL     OW25912   0.903   2.170   7.493  0.4507  0.0359 -0.4874
 4817SOL    HW125913   0.895   2.079   7.521 -0.1309  0.4284  0.6116
 4817SOL    HW225914   0.882   2.229   7.565  1.6505 -1.6817  1.2668
 4818SOL     OW25915   0.410   3.055   9.304  0.4334 -0.3384 -0.0917
 4818SOL    HW125916   0.415   3.128   9.242 -1.1133  0.8468  1.1856
 4818SOL    HW225917   0.483   2.996   9.285  1.3270  1.2046 -1.3903
 4819SOL     OW25918   2.919   1.801   2.537  0.1274 -0.4223 -0.4011
 4819SOL    HW125919   2.941   1.780   2.628 -4.8856  0.1544  0.9147
 4819SOL    HW225920   2.825   1.798   2.550 -0.0063 -0.0684 -1.2563
 4820SOL     OW25921   0.342   1.368  14.137  0.2355 -0.1158 -0.2832
 4820SOL    HW125922   0.333   1.458  14.170 -1.6832 -0.4565  0.0979
 4820SOL    HW225923   0.267   1.365  14.077  0.2518  3.2507 -0.4827
 4821SOL     OW25924   1.532   0.492  11.793  0.4518  0.2891 -0.2311
 4821SOL    HW125925   1.534   0.570  11.737 -0.1857 -0.8472 -1.8256
 4821SOL    HW225926   1.585   0.516  11.869 -1.9922  1.1522  1.1801
 4822SOL     OW25927   0.807   1.024   6.830 -0.1454  0.1061  0.3913
 4822SOL    HW125928   0.897   1.057   6.834  0.5962 -1.7428 -1.1530
 4822SOL    HW225929   0.796   0.985   6.916 -0.7936  0.8363  0.6350
 4823SOL     OW25930   4.506   2.425   1.172 -0.1443 -0.9271  0.0510
 4823SOL    HW125931   4.556   2.374   1.108 -0.1328 -1.1258  0.2156
 4823SOL    HW225932   4.563   2.501   1.169 -0.9178 -0.3608 -0.2189
 4824SOL     OW25933   2.759   2.012  17.004 -0.5567 -0.0727 -0.0089
 4824SOL    HW125934   2.830   1.976  16.951 -0.6648  1.5137 -1.2480
 4824SOL    HW225935   2.694   2.019  16.933 -1.7133 -1.5032  0.8936
 4825SOL     OW25936   1.635   3.925   5.452 -0.1174 -0.0563 -0.1491
 4825SOL    HW125937   1.545   3.908   5.481  0.0474 -0.3240  0.2127
 4825SOL    HW225938   1.655   3.856   5.388  0.1443 -1.7025  1.6928
 4826SOL     OW25939   2.498   2.714   5.688 -0.5317 -0.2430  0.7225
 4826SOL    HW125940   2.545   2.768   5.625 -0.3555 -1.3913 -0.1337
 4826SOL    HW225941   2.530   2.748   5.771  1.4076 -0.8994  0.2321
 4827SOL     OW25942   3.821   2.042   3.165  0.0378  0.0121 -0.2672
 4827SOL    HW125943   3.739   1.998   3.184 -0.1512  0.0956 -0.8822
 4827SOL    HW225944   3.860   1.976   3.107  1.0930 -0.7556  1.3249
 4828SOL     OW25945   2.676   1.044   5.548 -0.5081 -0.2393 -0.2507
 4828SOL    HW125946   2.739   0.976   5.572 -0.1074  0.9896  2.1195
 4828SOL    HW225947   2.650   1.086   5.630  1.0270 -2.5068  1.3657
 4829SOL     OW25948   4.677   0.773   0.998 -0.1947  0.2531  0.1051
 4829SOL    HW125949   4.625   0.812   1.067 -1.6486  0.3580 -1.0579
 4829SOL    HW225950   0.038   0.814   1.017 -0.9588  2.1885 -0.7389
 4830SOL     OW25951   1.431   1.210   6.774 -0.3051  0.2238  0.5786
 4830SOL    HW125952   1.508   1.228   6.720 -0.5535 -1.0597 -0.2059
 4830SOL    HW225953   1.453   1.123   6.807 -0.6894 -0.7069 -1.6721
 4831SOL     OW25954   3.889   2.780   0.147  0.4901  0.2528  0.8935
 4831SOL    HW125955   3.849   2.809   0.230  1.2297  1.2734  0.8878
 4831SOL    HW225956   3.982   2.786   0.165  0.7229 -0.7164 -0.0201
 4832SOL     OW25957   4.253   1.377   5.264  0.3880 -0.0689  0.0982
 4832SOL    HW125958   4.194   1.451   5.254  1.3271  0.9419  2.0965
 4832SOL    HW225959   4.288   1.368   5.175 -2.1965 -2.5101 -0.6506
 4833SOL     OW25960   2.245   3.119   7.464  0.1469 -1.0271  0.2252
 4833SOL    HW125961   2.198   3.060   7.523 -1.1253  1.9416  2.1299
 4833SOL    HW225962   2.256   3.195   7.520 -0.0399 -1.1108  0.3763
 4834SOL     OW25963   3.265   3.945  13.418  0.1556  0.1314  0.0363
 4834SOL    HW125964   3.324   3.978  13.350  0.2470 -2.3983 -1.1193
 4834SOL    HW225965   3.219   3.872  13.378  0.2718 -0.7278  1.4465
 4835SOL     OW25966   2.002   0.561   4.347 -0.6408  0.0965 -0.0179
 4835SOL    HW125967   1.941   0.635   4.344  0.0293  0.6083 -1.2373
 4835SOL    HW225968   2.068   0.582   4.280 -1.9021 -0.5419 -1.4620
 4836SOL     OW25969   1.796   4.568  12.962  0.4753 -0.1080 -0.2999
 4836SOL    HW125970   1.855   4.613  12.901 -0.6685 -0.5061 -1.7136
 4836SOL    HW225971   1.849   4.496  12.994 -0.0251  0.4168  1.6878
 4837SOL     OW25972   2.905   3.734   8.732  0.5972 -0.6272 -0.3197
 4837SOL    HW125973   2.915   3.640   8.722  0.6793 -0.7953  1.3867
 4837SOL    HW225974   2.827   3.754   8.681  1.1742 -0.9261 -1.3276
 4838SOL     OW25975   3.535   2.614   3.273 -0.0358  0.6637  0.2316
 4838SOL    HW125976   3.543   2.643   3.182 -0.7527  1.3510  0.3933
 4838SOL    HW225977   3.540   2.695   3.324 -0.9554  1.4234 -0.9063
 4839SOL     OW25978   4.254   2.367   1.875 -0.1672  0.1514 -0.0763
 4839SOL    HW125979   4.192   2.316   1.824  0.0195 -1.1114  0.9581
 4839SOL    HW225980   4.313   2.410   1.813 -0.4388  1.1557  0.3562
 4840SOL     OW25981   3.494   1.361   7.036 -0.3422 -0.0863  0.4976
 4840SOL    HW125982   3.548   1.433   7.004 -0.5503 -0.3337 -0.4097
 4840SOL    HW225983   3.554   1.287   7.032  0.2966  0.4180  0.6438
 4841SOL     OW25984   2.293   1.489   6.168 -0.0043 -0.6799  0.1281
 4841SOL    HW125985   2.268   1.572   6.126 -0.6416  0.6465  3.1404
 4841SOL    HW225986   2.305   1.436   6.089  1.8781  0.7880 -0.5763
 4842SOL     OW25987   1.360   1.014   2.540 -0.2894  0.1734 -0.1075
 4842SOL    HW125988   1.374   0.968   2.458  0.0254  0.4764 -0.2207
 4842SOL    HW225989   1.435   0.982   2.591  1.4381  0.1686 -2.6610
 4843SOL     OW25990   2.491   4.373   7.586  0.1302  0.7103 -0.5215
 4843SOL    HW125991   2.506   4.282   7.560 -3.2463  0.0337 -0.1110
 4843SOL    HW225992   2.570   4.383   7.639 -0.3468 -0.5414  0.4135
 4844SOL     OW25993   2.162   1.798   8.766 -0.6349 -0.1694  0.5416
 4844SOL    HW125994   2.207   1.827   8.845  2.8592 -1.3466 -1.0027
 4844SOL    HW225995   2.105   1.732   8.805 -0.5789 -2.1148 -2.5935
 4845SOL     OW25996   0.088   3.254   3.292  0.0962  0.2515  0.3081
 4845SOL    HW125997   0.058   3.298   3.372 -0.6851  1.7343 -0.7909
 4845SOL    HW225998   0.153   3.315   3.258  0.2825  0.0063  0.2199
 4846SOL     OW25999   4.163   0.846  11.958  0.3095  0.3926  0.3895
 4846SOL    HW126000   4.117   0.930  11.947  1.3065  0.7946 -0.7910
 4846SOL    HW226001   4.166   0.816  11.867 -1.2412  0.6506  0.2534
 4847SOL     OW26002   2.510   1.896  15.704  0.0177  0.1710 -0.1701
 4847SOL    HW126003   2.463   1.918  15.623  0.9232  1.4156 -0.3623
 4847SOL    HW226004   2.469   1.811  15.717  1.8556 -0.6250  0.2814
 4848SOL     OW26005   3.164   0.248  14.964  0.4055 -0.8243 -0.3704
 4848SOL    HW126006   3.103   0.322  14.972  0.3950 -1.0810  1.9470
 4848SOL    HW226007   3.138   0.217  14.877  1.6052 -0.9949 -0.6618
 4849SOL     OW26008   3.493   0.046  11.896 -0.2525 -0.0290  0.6472
 4849SOL    HW126009   3.524   0.041  11.805 -0.5770 -0.2361  0.5483
 4849SOL    HW226010   3.472   0.139  11.896  0.6157  0.1560  1.6954
 4850SOL     OW26011   0.507   1.935   1.087  0.3908  0.0052 -0.2121
 4850SOL    HW126012   0.445   1.867   1.062 -1.8298  2.1361 -0.5809
 4850SOL    HW226013   0.449   2.011   1.085  0.2715 -0.0660  0.6574
 4851SOL     OW26014   3.896   2.209  16.156  0.2333 -0.5531  0.0865
 4851SOL    HW126015   3.890   2.295  16.114  0.2795 -0.0958  1.0059
 4851SOL    HW226016   3.824   2.211  16.221  1.1995  2.3242  1.0808
 4852SOL     OW26017   2.613   1.620   1.609 -0.3785  0.7313 -0.1232
 4852SOL    HW126018   2.519   1.602   1.610 -0.4138  0.8307 -1.7199
 4852SOL    HW226019   2.640   1.611   1.517 -0.2008  2.6958 -0.2499
 4853SOL     OW26020   2.269   3.599   6.908 -0.2642  0.5298 -0.4552
 4853SOL    HW126021   2.364   3.609   6.905 -0.1693 -0.0810  0.6528
 4853SOL    HW226022   2.271   3.524   6.968  1.3831 -0.1447 -1.3340
 4854SOL     OW26023   1.182   3.905  14.375 -0.0268  0.1618  0.1877
 4854SOL    HW126024   1.131   3.828  14.401  1.4300 -1.7771 -2.6502
 4854SOL    HW226025   1.239   3.909  14.451  0.0411 -0.9154  0.2024
 4855SOL     OW26026   3.128   2.960  13.094  0.1373  0.8061  0.2570
 4855SOL    HW126027   3.120   2.872  13.130  0.9513  0.2909 -0.7987
 4855SOL    HW226028   3.064   3.014  13.141 -0.7455  2.2452 -2.5471
 4856SOL     OW26029   3.567   0.911   6.061 -0.5615 -0.1969 -0.1637
 4856SOL    HW126030   3.621   0.946   5.991 -1.0272  1.3543  0.2447
 4856SOL    HW226031   3.491   0.968   6.054  0.7848  1.2746 -2.7146
 4857SOL     OW26032   3.660   2.009   9.748 -0.0589 -0.5365 -0.5667
 4857SOL    HW126033   3.727   2.070   9.718 -0.3464  0.4998  0.8946
 4857SOL    HW226034   3.592   2.062   9.790 -0.9748 -2.6271  0.6252
 4858SOL     OW26035   4.601   4.464   3.510  0.1122  0.0997 -0.4005
 4858SOL    HW126036   4.670   4.489   3.448  0.2264  1.4155  0.2549
 4858SOL    HW226037   4.644   4.381   3.532  0.1649 -0.0446 -1.0492
 4859SOL     OW26038   4.028   0.865  16.467  0.4190  0.8612 -0.1066
 4859SOL    HW126039   3.966   0.928  16.431  0.2342  0.8966  0.2713
 4859SOL    HW226040   3.970   0.790  16.482  1.1677 -0.2935 -3.1070
 4860SOL     OW26041   2.079   4.264   7.596  0.4334  0.1180 -0.1619
 4860SOL    HW126042   2.128   4.337   7.632  1.9995 -2.1044  2.2226
 4860SOL    HW226043   2.096   4.199   7.664  2.3594 -0.4909 -1.2344
 4861SOL     OW26044   3.747   1.859   6.656 -0.1947 -0.2293  0.2081
 4861SOL    HW126045   3.692   1.890   6.584  0.8038 -1.1530 -0.9529
 4861SOL    HW226046   3.825   1.908   6.631  2.0103 -3.0721  1.6147
 4862SOL     OW26047   3.077   0.913   2.888 -0.7227 -0.1189  0.1639
 4862SOL    HW126048   3.122   0.913   2.803  0.8769  2.2564  0.9925
 4862SOL    HW226049   3.155   0.877   2.930  0.4677  1.8772 -0.2879
 4863SOL     OW26050   4.327   3.181   2.942  0.2360 -0.0251 -0.0893
 4863SOL    HW126051   4.352   3.092   2.965  1.0022  0.9187  2.7233
 4863SOL    HW226052   4.243   3.193   2.987  0.2189 -0.7678  0.0788
 4864SOL     OW26053   0.485   2.041   9.794 -0.0913 -0.5213 -0.9398
 4864SOL    HW126054   0.562   2.055   9.849  0.2069  2.4844 -2.1020
 4864SOL    HW226055   0.478   2.124   9.747  1.6044  0.2767  0.2257
 4865SOL     OW26056   2.490   0.603   5.659 -0.0911  0.3837 -0.7566
 4865SOL    HW126057   2.562   0.584   5.720 -0.6605  1.9324  0.3858
 4865SOL    HW226058   2.527   0.596   5.571 -0.7335  3.8696 -1.2819
 4866SOL     OW26059   0.404   4.631  10.661 -0.5272  0.3693 -0.3787
 4866SOL    HW126060   0.403   4.688  10.738 -1.0836 -2.1034  1.4268
 4866SOL    HW226061   0.437   4.550  10.700  1.5482  0.5769 -1.6887
 4867SOL     OW26062   2.418   0.337   3.572  0.5271  0.2755 -0.4201
 4867SOL    HW126063   2.465   0.261   3.538  0.4645 -0.0476  0.2357
 4867SOL    HW226064   2.367   0.358   3.493 -1.1148 -0.1269  0.5383
 4868SOL     OW26065   2.880   1.626  14.142  0.0565 -0.4874 -0.1986
 4868SOL    HW126066   2.805   1.583  14.183  0.6794 -0.1234  1.2929
 4868SOL    HW226067   2.830   1.687  14.087  1.4705  0.7641 -0.0804
 4869SOL     OW26068   1.088   4.190   9.326 -0.2641 -0.6022 -1.1820
 4869SOL    HW126069   1.083   4.237   9.409  3.1105 -1.7063 -0.3485
 4869SOL    HW226070   1.157   4.126   9.339 -1.6641 -1.1912  3.2127
 4870SOL     OW26071   0.797   0.403   3.155  0.3076 -0.0295  0.3191
 4870SOL    HW126072   0.874   0.417   3.210  1.2158  1.7113 -1.3965
 4870SOL    HW226073   0.746   0.366   3.227  1.3197  0.1056  1.1045
 4871SOL     OW26074   3.099   0.933   6.683 -0.1576  0.0285 -0.8529
 4871SOL    HW126075   3.116   0.839   6.674 -1.0926 -0.5322  3.3726
 4871SOL    HW226076   3.006   0.939   6.705  0.8908 -0.3816  3.5517
 4872SOL     OW26077   0.416   1.576   7.625  0.2142 -0.0364  0.2438
 4872SOL    HW126078   0.361   1.654   7.623 -0.3312 -0.4224  0.1324
 4872SOL    HW226079   0.435   1.553   7.716  1.4277  2.1810  0.5459
 4873SOL     OW26080   2.450   0.312   7.863 -0.2751  0.2755 -0.2288
 4873SOL    HW126081   2.460   0.406   7.877  2.0457  0.0267 -0.1569
 4873SOL    HW226082   2.422   0.315   7.771 -0.1833  0.6536 -0.2456
 4874SOL     OW26083   1.661   1.604   6.146  0.0269  0.2405  0.2949
 4874SOL    HW126084   1.654   1.547   6.069 -0.7940 -0.3679  0.8204
 4874SOL    HW226085   1.641   1.691   6.112 -2.9445 -1.6553 -2.8731
 4875SOL     OW26086   3.823   4.049   6.521 -0.3840 -0.2719  0.0838
 4875SOL    HW126087   3.878   4.039   6.599  0.5064 -0.9135 -0.6190
 4875SOL    HW226088   3.818   3.959   6.488 -0.6042  0.4473 -1.8211
 4876SOL     OW26089   3.532   0.700   1.940 -0.6758  0.2925 -0.3864
 4876SOL    HW126090   3.520   0.621   1.994  0.4998  0.4253  0.0681
 4876SOL    HW226091   3.546   0.665   1.852 -0.9836 -0.6704 -0.0550
 4877SOL     OW26092   1.065   0.770   1.701 -0.1504 -0.4334 -0.0789
 4877SOL    HW126093   1.032   0.711   1.769  1.0293 -0.7439  0.2091
 4877SOL    HW226094   0.999   0.749   1.634 -0.5434  1.7205 -0.3886
 4878SOL     OW26095   4.700   3.392   5.101  0.6191  0.0158  0.5797
 4878SOL    HW126096   4.715   3.449   5.176 -0.0396  0.3136  0.4867
 4878SOL    HW226097   0.052   3.334   5.106  0.7207  0.0021 -1.0558
 4879SOL     OW26098   4.642   2.193   3.145  0.2877  0.0113 -0.3607
 4879SOL    HW126099   4.615   2.260   3.208  0.9270 -0.0271 -0.0400
 4879SOL    HW226100   0.012   2.178   3.162  0.3398 -1.4534 -2.0214
 4880SOL     OW26101   1.540   1.088   1.500  0.2796 -0.1433  0.1897
 4880SOL    HW126102   1.550   1.022   1.431 -1.3762 -0.1892 -0.0075
 4880SOL    HW226103   1.598   1.060   1.571  1.9215  0.6937 -0.8209
 4881SOL     OW26104   3.461   4.222   3.182  0.2636  0.7337  0.2289
 4881SOL    HW126105   3.521   4.271   3.126 -0.2738  0.4038 -0.6524
 4881SOL    HW226106   3.527   4.160   3.214  0.3158  0.0042 -1.2434
 4882SOL     OW26107   1.151   1.986   0.101 -0.0806 -0.0699 -0.3761
 4882SOL    HW126108   1.108   1.958   0.181 -1.1563 -1.2707 -1.3744
 4882SOL    HW226109   1.131   1.922   0.032 -2.8039  2.4328 -1.9395
 4883SOL     OW26110   4.275   1.942   9.599 -0.5227 -0.2453  0.1363
 4883SOL    HW126111   4.185   1.924   9.629 -0.7616 -0.0552 -0.4632
 4883SOL    HW226112   4.252   1.979   9.514  0.9548 -0.5831 -0.3981
 4884SOL     OW26113   1.156   0.606   1.385  0.4734 -0.4015  0.0601
 4884SOL    HW126114   1.121   0.669   1.322  2.2484  0.3549 -0.1806
 4884SOL    HW226115   1.094   0.607   1.458  0.1970  2.1727 -0.2198
 4885SOL     OW26116   0.942   4.165   6.485  0.5769  0.2845  0.2001
 4885SOL    HW126117   0.916   4.186   6.574  0.7902  2.2741 -0.2185
 4885SOL    HW226118   0.953   4.070   6.490 -0.8705  0.0924 -0.1774
 4886SOL     OW26119   1.587   4.595   9.927  0.2460  0.3439 -0.1770
 4886SOL    HW126120   1.613   4.512   9.966 -2.2035 -1.4471 -2.3360
 4886SOL    HW226121   1.643   4.593   9.850 -0.5850  3.0316 -0.8782
 4887SOL     OW26122   3.307   3.753   3.037  0.0466 -0.6743 -0.5167
 4887SOL    HW126123   3.375   3.796   2.985  0.0201 -0.4357 -0.3508
 4887SOL    HW226124   3.238   3.786   2.979 -1.0981 -0.7015  0.8518
 4888SOL     OW26125   0.187   2.421   9.562 -0.6162  0.4784  0.2562
 4888SOL    HW126126   0.239   2.359   9.510 -2.2053  0.0455 -0.8207
 4888SOL    HW226127   0.181   2.378   9.647 -0.7762 -0.2259 -0.1041
 4889SOL     OW26128   2.536   0.826  14.186 -1.0893 -0.2704  0.2372
 4889SOL    HW126129   2.504   0.742  14.221  0.7419 -1.0336  0.0642
 4889SOL    HW226130   2.616   0.793  14.145 -0.0193  0.1127  2.0326
 4890SOL     OW26131   0.675   3.290   9.748  0.1652  0.0637  0.5714
 4890SOL    HW126132   0.643   3.213   9.701 -3.0051  0.4264  2.1589
 4890SOL    HW226133   0.640   3.266   9.834 -2.8444  3.2026  0.2330
 4891SOL     OW26134   4.095   0.961  13.990 -0.2737 -0.3468 -0.0223
 4891SOL    HW126135   4.019   0.922  13.946 -0.7772 -0.3543  0.8537
 4891SOL    HW226136   4.060   1.009  14.065  0.2267  0.5767 -0.3848
 4892SOL     OW26137   0.447   3.170  11.196 -0.1056  0.0636  0.0295
 4892SOL    HW126138   0.475   3.260  11.213  0.6084 -0.0989 -0.2519
 4892SOL    HW226139   0.372   3.188  11.139  1.3679 -1.1439 -2.3106
 4893SOL     OW26140   1.563   1.920   5.478  0.4033 -0.0731 -0.4752
 4893SOL    HW126141   1.581   1.876   5.562  0.2224  1.5720  0.4239
 4893SOL    HW226142   1.579   1.853   5.412  0.0427 -0.1582 -0.4757
 4894SOL     OW26143   3.787   2.036   6.294 -0.1301  0.1859 -0.5130
 4894SOL    HW126144   3.743   2.015   6.211  1.0634 -3.8549 -0.1001
 4894SOL    HW226145   3.724   2.003   6.358  0.1823 -1.6690 -1.1658
 4895SOL     OW26146   4.102   2.239   4.088 -0.0263 -0.6071 -0.3954
 4895SOL    HW126147   4.041   2.285   4.031  1.3325 -0.8035 -1.9904
 4895SOL    HW226148   4.044   2.188   4.145 -1.4028 -0.8352 -2.0189
 4896SOL     OW26149   3.018   2.952  11.120 -0.2655  0.4390 -0.9663
 4896SOL    HW126150   2.937   2.902  11.125  0.8328 -1.2032  0.5926
 4896SOL    HW226151   2.986   3.022  11.177  1.3904  2.3149 -2.3198
 4897SOL     OW26152   0.418   2.020   6.721 -0.1024  0.2710  0.3179
 4897SOL    HW126153   0.435   1.955   6.789  0.6793 -1.0287 -1.1377
 4897SOL    HW226154   0.404   2.097   6.777  0.2295  0.0876  0.6565
 4898SOL     OW26155   1.045   0.661   6.433  0.4967  0.3138 -0.4630
 4898SOL    HW126156   0.977   0.609   6.476  0.9132 -0.8314 -1.1826
 4898SOL    HW226157   1.120   0.620   6.477  0.2533  1.9692  1.5008
 4899SOL     OW26158   1.823   0.936  12.281 -0.2951 -0.3932  0.5704
 4899SOL    HW126159   1.887   0.940  12.210 -0.5668  1.7279  0.4522
 4899SOL    HW226160   1.763   0.871  12.246 -3.0586  1.1033  2.5435
 4900SOL     OW26161   1.738   1.028   2.739 -0.3931  0.0910  0.1516
 4900SOL    HW126162   1.672   0.959   2.742 -0.0288 -0.1100  3.7305
 4900SOL    HW226163   1.714   1.060   2.652  0.0909 -1.0273 -0.3978
 4901SOL     OW26164   0.785   2.031   4.541  0.1528  0.1447  0.4187
 4901SOL    HW126165   0.801   1.969   4.470 -0.0736 -0.8020  1.1964
 4901SOL    HW226166   0.825   2.111   4.506  0.2934 -0.2294 -0.2697
 4902SOL     OW26167   2.437   4.697   6.272 -0.0863 -0.2141 -0.2871
 4902SOL    HW126168   2.440   4.663   6.362  2.1723 -2.1576 -1.0974
 4902SOL    HW226169   2.522   4.670   6.238  0.8359  3.2518 -0.7483
 4903SOL     OW26170   2.151   0.183   8.425  0.0359  0.2645  0.0063
 4903SOL    HW126171   2.137   0.111   8.487  1.0321  1.9198  2.1886
 4903SOL    HW226172   2.071   0.178   8.373 -0.1623  0.4486  0.2938
 4904SOL     OW26173   4.579   3.469  15.348 -0.2603  0.9099 -0.1141
 4904SOL    HW126174   4.510   3.409  15.377 -1.6610  3.1541  1.1944
 4904SOL    HW226175   4.576   3.466  15.253 -0.6677 -1.7500 -0.0316
 4905SOL     OW26176   0.606   4.374   6.813  0.3013  0.2200 -0.1215
 4905SOL    HW126177   0.553   4.324   6.751  2.0179  0.2710 -1.6261
 4905SOL    HW226178   0.542   4.366   6.884 -0.4991 -0.7489 -0.9569
 4906SOL     OW26179   3.103   2.005  10.103  0.0146  0.3042 -0.7795
 4906SOL    HW126180   3.194   1.992  10.130  0.2301  1.2282 -1.0589
 4906SOL    HW226181   3.078   2.075  10.163 -1.1613 -2.7022  2.2126
 4907SOL     OW26182   3.974   0.459  11.314  0.1092  0.1268  0.5879
 4907SOL    HW126183   4.052   0.511  11.334 -0.2142  1.2055 -0.9347
 4907SOL    HW226184   3.921   0.522  11.264  0.1491 -1.0159 -0.8965
 4908SOL     OW26185   0.937   3.539   1.279  0.3339  0.7936  0.3179
 4908SOL    HW126186   0.868   3.473   1.279  0.9949  0.0965  0.5312
 4908SOL    HW226187   0.889   3.621   1.265  1.5956  1.2019 -1.5882
 4909SOL     OW26188   3.291   1.448   5.984  0.3511  0.3050 -0.0710
 4909SOL    HW126189   3.300   1.443   6.079  0.2244 -0.4079 -0.0960
 4909SOL    HW226190   3.381   1.434   5.955  0.7892  2.0618  0.4893
 4910SOL     OW26191   3.695   0.520   7.147  0.3700 -0.2646  0.0615
 4910SOL    HW126192   3.644   0.561   7.077 -1.1776  1.3535  2.1531
 4910SOL    HW226193   3.623   0.505   7.208  0.1725  1.0736  0.1536
 4911SOL     OW26194   3.330   0.324   5.940  0.2686  0.2922 -0.1779
 4911SOL    HW126195   3.319   0.313   5.845 -1.4517 -0.6743  0.1284
 4911SOL    HW226196   3.358   0.415   5.939  0.8793  0.1035 -0.9477
 4912SOL     OW26197   0.182   4.651   5.071 -0.2424 -0.1377 -0.3159
 4912SOL    HW126198   0.147   4.705   5.000  0.3751  1.0413  0.2732
 4912SOL    HW226199   0.102   4.642   5.124 -0.6452  0.4844 -0.8245
 4913SOL     OW26200   4.680   0.064   2.982 -0.3418  0.2861 -0.0561
 4913SOL    HW126201   4.657   4.696   3.000 -0.9490  0.6568  1.0403
 4913SOL    HW226202   0.046   0.074   3.016 -0.8078 -0.5974  1.4090
 4914SOL     OW26203   0.610   0.561  10.153  0.0653 -0.1966  0.4249
 4914SOL    HW126204   0.640   0.552  10.243 -0.5608  4.1778  1.0851
 4914SOL    HW226205   0.684   0.562  10.092 -0.1497  1.0231  0.1903
 4915SOL     OW26206   4.649   1.946  10.413  0.2168 -0.7520  0.1665
 4915SOL    HW126207   4.717   1.879  10.409 -0.0925 -1.1269  1.2356
 4915SOL    HW226208   4.707   2.020  10.430  1.1943 -1.4416 -0.2061
 4916SOL     OW26209   1.944   4.532   2.236 -0.2870 -0.0527 -0.1617
 4916SOL    HW126210   1.910   4.497   2.318 -0.3600 -0.3895 -0.3359
 4916SOL    HW226211   2.037   4.549   2.252 -0.6189  1.5261  0.1346
 4917SOL     OW26212   2.917   3.864   6.046  0.0145 -0.6391 -0.4526
 4917SOL    HW126213   3.005   3.873   6.007  0.7373 -2.8462  0.6975
 4917SOL    HW226214   2.943   3.814   6.123  0.2165 -0.4101 -0.3710
 4918SOL     OW26215   3.399   0.246   3.356  0.2530  0.0228  0.0916
 4918SOL    HW126216   3.402   0.164   3.306  0.6273  0.4007 -0.4971
 4918SOL    HW226217   3.318   0.224   3.403  0.9163 -1.8017  0.3721
 4919SOL     OW26218   3.647   4.359  11.293 -0.1047 -0.0834 -0.5193
 4919SOL    HW126219   3.606   4.446  11.294  3.4449  1.5925  1.3528
 4919SOL    HW226220   3.722   4.387  11.347  0.0348 -0.5407 -0.4774
 4920SOL     OW26221   4.160   2.357  13.096 -0.0730 -0.5668 -0.4100
 4920SOL    HW126222   4.109   2.439  13.098 -1.0237 -1.1614 -0.3518
 4920SOL    HW226223   4.253   2.379  13.092 -0.5174  1.1134 -1.5586
 4921SOL     OW26224   0.747   1.240   7.076  0.6032  0.9724  0.3147
 4921SOL    HW126225   0.791   1.162   7.112 -1.5851 -1.6287 -2.6154
 4921SOL    HW226226   0.657   1.207   7.084  0.6779  0.9541  1.0468
 4922SOL     OW26227   0.925   0.428   7.086  0.1934 -0.2000 -0.2985
 4922SOL    HW126228   0.866   0.487   7.133 -2.1184 -1.8841 -1.0829
 4922SOL    HW226229   1.005   0.450   7.134 -0.5882  2.3009 -0.1679
 4923SOL     OW26230   3.040   4.060   9.139  0.5838 -1.2159  0.5916
 4923SOL    HW126231   2.958   4.021   9.169 -0.9254  1.2042 -0.3844
 4923SOL    HW226232   3.059   4.000   9.067 -1.5271 -0.4895 -0.5728
 4924SOL     OW26233   4.319   0.457  14.878 -0.1581  0.3209  0.4436
 4924SOL    HW126234   4.365   0.539  14.891 -2.0598  1.4762 -0.1820
 4924SOL    HW226235   4.302   0.416  14.962 -1.6727 -0.7196 -0.3608
 4925SOL     OW26236   4.044   2.071   4.783  0.0543  0.0585 -0.0007
 4925SOL    HW126237   3.966   2.018   4.797  0.8886 -1.6243 -1.6109
 4925SOL    HW226238   4.118   2.020   4.813  0.7209  1.5855  0.9515
 4926SOL     OW26239   3.714   2.640   8.828 -0.1233  0.0169  0.1807
 4926SOL    HW126240   3.675   2.553   8.839  0.6956 -0.7353 -2.9015
 4926SOL    HW226241   3.639   2.691   8.798  1.1420  1.6471 -0.2476
 4927SOL     OW26242   0.002   1.783   3.280 -0.2435 -0.0204  0.3178
 4927SOL    HW126243   4.702   1.695   3.309 -0.4324 -1.0677 -3.0378
 4927SOL    HW226244   4.663   1.798   3.210  1.7032 -2.2480 -1.9326
 4928SOL     OW26245   2.654   2.819   5.199  0.5278  0.1790  0.0134
 4928SOL    HW126246   2.609   2.783   5.123 -2.1910  2.2642  0.6478
 4928SOL    HW226247   2.716   2.749   5.218  0.3601  0.3843  1.2947
 4929SOL     OW26248   4.449   2.441   8.439  0.2988 -0.3206  0.2785
 4929SOL    HW126249   4.442   2.410   8.349  0.3384 -0.8483  0.4558
 4929SOL    HW226250   4.388   2.514   8.434 -0.4561 -0.9176  0.6585
 4930SOL     OW26251   0.690   3.445   2.363  0.1660 -0.2552 -0.3513
 4930SOL    HW126252   0.754   3.434   2.293 -1.0821 -0.0494 -1.5336
 4930SOL    HW226253   0.671   3.354   2.385  0.9273 -0.4816 -0.6338
 4931SOL     OW26254   1.975   0.386   1.752 -0.0472 -0.3484  0.4423
 4931SOL    HW126255   1.917   0.331   1.804  1.5156 -1.6050  0.8595
 4931SOL    HW226256   1.996   0.457   1.813 -2.9529  0.5560  0.3985
 4932SOL     OW26257   4.218   0.424   6.835 -0.3309  0.4090  0.3110
 4932SOL    HW126258   4.258   0.394   6.753  0.2821  0.8230  0.4572
 4932SOL    HW226259   4.164   0.495   6.803  1.0114  0.7425 -1.2224
 4933SOL     OW26260   0.904   1.053   3.954 -0.0473  0.2538 -0.3894
 4933SOL    HW126261   0.940   1.053   3.865 -1.8237 -1.4464 -1.1071
 4933SOL    HW226262   0.824   1.004   3.937  1.1783 -1.9805  0.2686
 4934SOL     OW26263   1.163   0.205   0.669 -0.1079  0.3503  0.2263
 4934SOL    HW126264   1.146   0.181   0.578  0.5660 -0.0890  0.2148
 4934SOL    HW226265   1.139   0.297   0.658  0.4832  0.4965  0.1647
 4935SOL     OW26266   2.151   0.581   6.777  0.1604 -0.1892 -0.2182
 4935SOL    HW126267   2.153   0.507   6.716  0.2616  1.2500 -1.9823
 4935SOL    HW226268   2.239   0.617   6.764  1.0444 -1.6597  1.6825
 4936SOL     OW26269   0.951   4.427  13.681  0.0450  0.0836  0.4346
 4936SOL    HW126270   0.974   4.336  13.697  0.4799 -0.1957 -1.7122
 4936SOL    HW226271   1.027   4.452  13.629  0.1529  0.4263  0.7615
 4937SOL     OW26272   0.476   3.060   0.742 -0.1350 -0.6506 -0.0599
 4937SOL    HW126273   0.445   3.146   0.771 -0.0645 -0.3166 -0.9833
 4937SOL    HW226274   0.397   3.008   0.728 -1.6298  1.6980 -0.3980
 4938SOL     OW26275   2.864   3.878  16.294 -0.1348 -0.6296  0.3044
 4938SOL    HW126276   2.815   3.890  16.213 -0.5823 -2.9263  0.2472
 4938SOL    HW226277   2.915   3.798  16.277  1.7957  0.2441  1.9133
 4939SOL     OW26278   4.334   1.737   6.890  0.2124 -0.3094 -0.1300
 4939SOL    HW126279   4.259   1.795   6.876 -0.2724 -0.6056  1.2483
 4939SOL    HW226280   4.309   1.670   6.827  0.6486  0.6597 -1.3344
 4940SOL     OW26281   1.560   3.054   2.493 -0.4731 -0.1974  0.2475
 4940SOL    HW126282   1.607   3.077   2.413 -1.7507 -0.8295 -0.6751
 4940SOL    HW226283   1.569   2.959   2.490 -0.5392 -0.1129 -2.6893
 4941SOL     OW26284   4.631   1.782   0.909  0.0469 -0.3269  0.4391
 4941SOL    HW126285   4.559   1.736   0.866  1.9414 -0.9334 -2.0493
 4941SOL    HW226286   4.615   1.875   0.899  2.6057  0.0379 -0.1341
 4942SOL     OW26287   1.173   1.704  12.654 -0.2469  0.2146  0.3287
 4942SOL    HW126288   1.167   1.633  12.590 -2.2154  1.4002 -0.8113
 4942SOL    HW226289   1.240   1.673  12.714  0.8381  1.4754 -0.2349
 4943SOL     OW26290   4.323   0.935   7.491  0.1395 -0.2629 -0.4638
 4943SOL    HW126291   4.360   0.848   7.509  0.5208 -0.0558 -0.2369
 4943SOL    HW226292   4.400   0.993   7.493  1.9606 -2.7580  2.3918
 4944SOL     OW26293   0.051   4.462   7.337  0.5814 -0.3907 -0.2394
 4944SOL    HW126294   4.713   4.499   7.401 -2.1373 -1.5966 -2.1669
 4944SOL    HW226295   0.137   4.495   7.365  0.2780 -0.4420  0.7612
 4945SOL     OW26296   4.065   2.265  14.426  0.0843  0.2111  0.1978
 4945SOL    HW126297   4.118   2.309  14.493 -3.0257  0.2984  2.6097
 4945SOL    HW226298   4.131   2.211  14.384  0.6107 -0.4325  1.8325
 4946SOL     OW26299   4.087   0.788   0.985 -0.2991 -0.4813 -0.1213
 4946SOL    HW126300   3.994   0.777   0.966 -0.3838  0.2478 -0.1426
 4946SOL    HW226301   4.123   0.745   0.907 -0.4503 -0.7751 -0.0269
 4947SOL     OW26302   0.242   4.475  12.030  0.5956  0.0316  0.6008
 4947SOL    HW126303   0.153   4.510  12.027  1.1914  1.5251  0.2219
 4947SOL    HW226304   0.265   4.510  11.944 -0.4853  2.7660  1.4264
 4948SOL     OW26305   3.556   1.537   6.567  0.0826  0.4407 -0.1274
 4948SOL    HW126306   3.540   1.455   6.613  1.3045  0.9256  1.1650
 4948SOL    HW226307   3.496   1.596   6.613 -1.2190 -0.5880 -0.5190
 4949SOL     OW26308   1.881   1.598   8.734 -0.0593 -0.1522  0.9451
 4949SOL    HW126309   1.845   1.509   8.739 -0.2536 -0.0699  1.0307
 4949SOL    HW226310   1.917   1.605   8.822  0.4609  2.1849  0.5486
 4950SOL     OW26311   4.306   1.601   9.324  0.1013  0.7663 -0.6823
 4950SOL    HW126312   4.331   1.634   9.238 -0.2847  0.9053 -0.7425
 4950SOL    HW226313   4.293   1.509   9.303  0.5511  0.6051 -0.2378
 4951SOL     OW26314   1.638   3.813  10.789  0.4018 -0.2337  0.0278
 4951SOL    HW126315   1.646   3.876  10.861  1.9094 -1.5051  0.9721
 4951SOL    HW226316   1.657   3.739  10.847 -0.7810 -0.6615 -0.1385
 4952SOL     OW26317   0.416   1.494   8.917  0.2474  0.1524 -0.4145
 4952SOL    HW126318   0.354   1.514   8.847  0.5519  0.2817 -0.6507
 4952SOL    HW226319   0.439   1.406   8.887 -2.5877 -0.3518 -1.1000
 4953SOL     OW26320   2.021   2.425   6.606 -0.0337 -0.7187 -0.5429
 4953SOL    HW126321   2.073   2.494   6.564 -0.8811 -0.4149 -1.0837
 4953SOL    HW226322   2.078   2.398   6.678 -0.2488  1.1877  0.3480
 4954SOL     OW26323   3.303   1.435   7.403 -0.2630  0.2706  0.9440
 4954SOL    HW126324   3.316   1.340   7.403 -1.3111  0.1234 -2.4525
 4954SOL    HW226325   3.288   1.456   7.495 -2.9272  1.1087  0.2950
 4955SOL     OW26326   4.640   1.012   2.773  0.5641  0.4942  0.0559
 4955SOL    HW126327   4.589   1.093   2.763  0.6223  0.3323 -1.6257
 4955SOL    HW226328   4.684   1.002   2.688 -1.2713  1.4756 -1.0066
 4956SOL     OW26329   2.760   4.044   0.356  0.3391  0.0855 -0.5521
 4956SOL    HW126330   2.730   4.007   0.273 -0.4411 -2.1750  0.7329
 4956SOL    HW226331   2.721   3.996   0.429  1.2113  0.8930  0.4480
 4957SOL     OW26332   2.100   3.304   4.014  1.0681  0.0150 -0.0090
 4957SOL    HW126333   2.109   3.247   3.937 -0.7606 -1.8940  1.1815
 4957SOL    HW226334   2.090   3.392   3.979 -2.1895 -1.7364 -3.4703
 4958SOL     OW26335   2.259   1.280   1.930 -0.1782 -0.3728 -0.1895
 4958SOL    HW126336   2.327   1.327   1.979 -0.0825  0.5905 -1.2680
 4958SOL    HW226337   2.313   1.233   1.866 -1.4411 -0.2056 -1.3613
 4959SOL     OW26338   4.472   3.159  16.317  0.0599 -0.1197  0.7947
 4959SOL    HW126339   4.454   3.253  16.319  2.4805  0.3347  1.2389
 4959SOL    HW226340   4.565   3.169  16.337 -0.3624  1.4894  1.9525
 4960SOL     OW26341   3.514   4.618  11.272  0.6015  0.1231  0.1514
 4960SOL    HW126342   3.498   4.643  11.363  0.4333 -0.2221  0.2170
 4960SOL    HW226343   3.569   4.685  11.231  3.6337 -2.0892  0.5636
 4961SOL     OW26344   3.146   0.081   3.727  0.0299 -0.3419  0.4247
 4961SOL    HW126345   3.126   0.028   3.804  0.0695 -0.8068  0.1186
 4961SOL    HW226346   3.234   0.047   3.708  0.0369 -0.5815  0.8867
 4962SOL     OW26347   1.256   1.818   2.090  0.0722  0.9458  0.1074
 4962SOL    HW126348   1.238   1.736   2.136  1.0129  0.3178 -0.6514
 4962SOL    HW226349   1.307   1.787   2.015 -1.8807  0.7376 -1.1129
 4963SOL     OW26350   1.665   1.404   3.192 -0.3379 -0.2060  0.1307
 4963SOL    HW126351   1.641   1.333   3.132 -1.5786  0.1297  0.2242
 4963SOL    HW226352   1.583   1.454   3.192 -0.1950  0.0020  1.9082
 4964SOL     OW26353   1.202   0.471   4.631 -0.0502  0.0623 -0.0038
 4964SOL    HW126354   1.196   0.528   4.554  1.2400  2.5761  1.7528
 4964SOL    HW226355   1.265   0.405   4.602  0.8141  1.1471 -0.5730
 4965SOL     OW26356   1.716   2.285   4.288 -0.1902  0.1998  0.1151
 4965SOL    HW126357   1.658   2.250   4.220  1.0937  0.1060 -0.9158
 4965SOL    HW226358   1.763   2.342   4.227  1.6963  2.0613  3.3092
 4966SOL     OW26359   2.403   2.014   6.521  0.4483  0.4108 -0.3136
 4966SOL    HW126360   2.356   2.007   6.604 -0.2635 -0.6131 -0.8053
 4966SOL    HW226361   2.411   2.108   6.504 -0.5017  0.4746 -0.3806
 4967SOL     OW26362   2.272   1.692   6.810  0.4464 -0.4785 -0.1854
 4967SOL    HW126363   2.365   1.687   6.833  0.4773 -2.4088 -0.7443
 4967SOL    HW226364   2.257   1.603   6.780  0.0280 -0.5027  0.1078
 4968SOL     OW26365   2.012   0.800   6.874 -0.2160  0.0192  0.7360
 4968SOL    HW126366   2.062   0.724   6.843  1.4099  1.2112  0.4536
 4968SOL    HW226367   2.080   0.863   6.851 -2.7822  1.5010 -2.7991
 4969SOL     OW26368   1.500   2.050   3.583 -0.1705  0.1570  0.3362
 4969SOL    HW126369   1.595   2.047   3.578 -0.2730  1.8853 -2.5203
 4969SOL    HW226370   1.490   1.991   3.658 -1.3198 -0.4277 -0.2756
 4970SOL     OW26371   0.129   0.249   6.846  0.5038 -0.1151 -0.4070
 4970SOL    HW126372   0.216   0.222   6.815  1.8274  1.6783  1.6393
 4970SOL    HW226373   0.136   0.226   6.939 -0.1342 -0.4126 -0.4367
 4971SOL     OW26374   0.004   0.774   8.946  0.1397 -0.2308 -0.3280
 4971SOL    HW126375   4.689   0.858   8.923 -0.8475  0.1730  2.8374
 4971SOL    HW226376   0.089   0.800   8.981  0.3278 -2.7537  1.1485
 4972SOL     OW26377   4.673   0.082   3.338 -0.0473 -0.3062  0.4382
 4972SOL    HW126378   0.008   0.085   3.263 -0.5336  2.2624  0.1744
 4972SOL    HW226379   0.017   0.082   3.407 -0.0415 -0.1399  0.4316
 4973SOL     OW26380   2.887   2.189   4.804  0.2223  0.1186 -0.6008
 4973SOL    HW126381   2.862   2.224   4.890 -0.3821 -2.1666  0.1563
 4973SOL    HW226382   2.885   2.262   4.743  1.9316 -0.4991 -1.3784
 4974SOL     OW26383   2.772   0.146  11.496  0.1309  1.0091  0.0506
 4974SOL    HW126384   2.826   0.068  11.484  0.8097  1.4253  0.4000
 4974SOL    HW226385   2.744   0.148  11.588 -2.6132 -0.4112 -0.7402
 4975SOL     OW26386   3.829   4.313  13.018 -0.6400 -0.0486  0.6427
 4975SOL    HW126387   3.861   4.402  13.028 -1.1199  0.2529 -0.4440
 4975SOL    HW226388   3.855   4.300  12.926 -1.4839  1.4373  0.1892
 4976SOL     OW26389   1.791   2.723   4.726  0.0908 -0.2166 -0.2561
 4976SOL    HW126390   1.817   2.728   4.818 -0.0291  0.5989 -0.2699
 4976SOL    HW226391   1.698   2.701   4.733  0.6445 -2.7097 -0.7284
 4977SOL     OW26392   3.237   1.376   7.130  0.1106 -0.0566  0.0107
 4977SOL    HW126393   3.276   1.450   7.177  1.2086  0.8727 -2.3296
 4977SOL    HW226394   3.311   1.368   7.069  1.0229  2.3830  0.7647
 4978SOL     OW26395   0.909   1.863   4.333 -0.2868  0.1149  0.0272
 4978SOL    HW126396   0.979   1.883   4.271 -0.0554  1.1138  0.6158
 4978SOL    HW226397   0.954   1.885   4.414  1.5768  0.1334 -1.0156
 4979SOL     OW26398   1.012   4.396   8.447  0.1876  0.3640 -0.7626
 4979SOL    HW126399   1.045   4.307   8.466  0.2603  0.4859 -0.3060
 4979SOL    HW226400   0.994   4.383   8.354 -2.1504 -2.0734  0.0196
 4980SOL     OW26401   4.482   0.940   1.235  0.4222 -0.0543 -0.3470
 4980SOL    HW126402   4.442   1.019   1.271  2.8026  0.6071  0.8592
 4980SOL    HW226403   4.451   0.878   1.301  2.2935  0.1228  0.7219
 4981SOL     OW26404   1.201   4.280  13.914  0.1481 -0.5967 -0.1419
 4981SOL    HW126405   1.130   4.255  13.855 -0.6537 -0.6671  0.8579
 4981SOL    HW226406   1.207   4.198  13.963 -1.8216 -1.0192 -0.6161
 4982SOL     OW26407   2.159   3.639   5.894  0.2021  0.3875  0.8558
 4982SOL    HW126408   2.190   3.725   5.866  2.4504 -0.5311  0.5063
 4982SOL    HW226409   2.197   3.584   5.825 -0.9892  0.0440  0.4680
 4983SOL     OW26410   1.020   3.876   8.254 -0.0668 -0.1470 -0.2142
 4983SOL    HW126411   0.974   3.803   8.295 -0.0658  0.0727  0.1738
 4983SOL    HW226412   0.953   3.943   8.265 -0.0425 -0.2325  0.4585
 4984SOL     OW26413   0.106   3.735   3.167  0.1009  0.3981 -0.7460
 4984SOL    HW126414   0.032   3.751   3.225  1.1166  1.8417  0.1540
 4984SOL    HW226415   0.064   3.688   3.095  0.1262  0.0813 -0.5523
 4985SOL     OW26416   4.446   1.192  10.962 -0.0318 -0.5351  0.1076
 4985SOL    HW126417   4.518   1.134  10.936  0.5183  0.5321 -0.7361
 4985SOL    HW226418   4.384   1.150  10.903  1.1121 -0.4204 -1.1616
 4986SOL     OW26419   0.903   2.768   8.987  0.1129 -0.2707 -0.7679
 4986SOL    HW126420   0.895   2.863   8.987  0.0900 -0.2711 -0.4162
 4986SOL    HW226421   0.974   2.757   9.051 -1.5524  0.8019  1.2623
 4987SOL     OW26422   4.362   3.837  17.375  0.0275 -0.1206 -0.2456
 4987SOL    HW126423   4.452   3.869  17.372  0.8085 -2.0805  2.3249
 4987SOL    HW226424   4.302   3.911  17.377 -1.3786 -1.2478 -0.4414
 4988SOL     OW26425   1.727   1.061   0.828 -0.4352  0.0280  0.3773
 4988SOL    HW126426   1.659   1.129   0.825 -0.2069  0.2801  0.8875
 4988SOL    HW226427   1.773   1.078   0.911 -0.0335  0.6644  0.0261
 4989SOL     OW26428   1.912   4.354   1.598  0.5437 -0.0585 -0.1623
 4989SOL    HW126429   1.936   4.289   1.532  0.0205 -0.4022 -0.0201
 4989SOL    HW226430   1.822   4.327   1.617  0.9281 -1.3074 -0.0936
 4990SOL     OW26431   4.688   1.985  10.104  0.4886 -0.2150  0.2523
 4990SOL    HW126432   0.014   2.028  10.174  1.3306  1.1973 -1.2127
 4990SOL    HW226433   4.667   2.066  10.058 -1.1791  0.0965  1.5546
 4991SOL     OW26434   3.567   0.929   8.437  0.2879  0.3003  0.5092
 4991SOL    HW126435   3.480   0.893   8.457  1.1644 -1.7866  0.5757
 4991SOL    HW226436   3.545   0.987   8.364 -0.0148  0.0977  0.4380
 4992SOL     OW26437   3.855   2.848   4.241 -0.1278 -0.5456  0.0719
 4992SOL    HW126438   3.818   2.918   4.295 -0.7349 -0.2589 -0.7110
 4992SOL    HW226439   3.791   2.777   4.245  1.3171 -2.0744 -3.8015
 4993SOL     OW26440   3.922   4.192   0.634  0.8420 -0.1790  0.0096
 4993SOL    HW126441   3.845   4.246   0.619  0.9040 -0.0131  0.2954
 4993SOL    HW226442   3.977   4.265   0.663 -0.0894  0.2049  0.7851
 4994SOL     OW26443   2.727   4.211   5.839 -0.1023  0.3336 -0.0737
 4994SOL    HW126444   2.664   4.278   5.865 -0.7577 -0.1056 -0.5313
 4994SOL    HW226445   2.675   4.138   5.871  2.3725 -1.1153  0.5794
 4995SOL     OW26446   3.674   0.083   5.373  0.3068 -0.2162 -0.2192
 4995SOL    HW126447   3.647   0.093   5.465  0.7513  1.8779 -0.3086
 4995SOL    HW226448   3.641   4.719   5.355  0.3767 -0.7176  2.0692
 4996SOL     OW26449   3.541   2.660   3.601 -0.2748 -0.2404  0.0232
 4996SOL    HW126450   3.578   2.748   3.611  0.5754 -0.7269  1.0621
 4996SOL    HW226451   3.565   2.645   3.510  0.9272 -1.7625  0.6093
 4997SOL     OW26452   0.621   2.982   5.279  1.0534  0.8257 -0.0469
 4997SOL    HW126453   0.673   2.951   5.354 -0.1828  2.3174  1.4212
 4997SOL    HW226454   0.663   3.065   5.256  1.4909  0.7992  0.6584
 4998SOL     OW26455   2.942   4.586  14.833 -0.0805 -0.0065  0.4983
 4998SOL    HW126456   2.991   4.667  14.848 -0.7899  0.6050 -0.4187
 4998SOL    HW226457   2.855   4.623  14.821  0.2990  0.9290  0.6238
 4999SOL     OW26458   3.286   3.613  12.773  0.6267  0.5590  0.5526
 4999SOL    HW126459   3.260   3.581  12.687 -1.8990 -0.0789  1.5491
 4999SOL    HW226460   3.367   3.562  12.779 -0.3303 -1.1384 -0.9857
 5000SOL     OW26461   3.749   3.744   8.196  0.0534  0.2903  0.5363
 5000SOL    HW126462   3.726   3.799   8.270  1.2296  1.4045  0.0721
 5000SOL    HW226463   3.680   3.772   8.136 -0.6395 -1.8267  0.3166
 5001SOL     OW26464   2.821   1.517  14.486  0.0697 -0.3897  0.0017
 5001SOL    HW126465   2.778   1.500  14.402  0.7850  2.0709 -0.8562
 5001SOL    HW226466   2.747   1.521  14.547 -0.3190  1.5502 -0.6183
 5002SOL     OW26467   1.015   1.163   8.217  0.7397  0.2659 -0.1040
 5002SOL    HW126468   1.049   1.217   8.289 -1.1095  0.4182  0.6576
 5002SOL    HW226469   1.013   1.081   8.266 -0.2323  1.6064  2.1082
 5003SOL     OW26470   1.699   1.164   6.682  0.5772  0.2444 -0.4108
 5003SOL    HW126471   1.679   1.104   6.610 -1.7628  0.4436  0.0769
 5003SOL    HW226472   1.733   1.106   6.749 -1.7198 -0.0616  0.4789
 5004SOL     OW26473   0.033   0.521   0.890 -0.2465  0.2498  0.3736
 5004SOL    HW126474   0.097   0.477   0.946 -1.0085 -0.5236  0.6417
 5004SOL    HW226475   0.007   0.583   0.958  1.7403  1.3682  0.1153
 5005SOL     OW26476   2.592   1.285   0.924 -0.0227  0.4256  0.0236
 5005SOL    HW126477   2.660   1.249   0.981  0.9508  2.3942  0.1341
 5005SOL    HW226478   2.526   1.308   0.990  0.5271 -0.9979  1.0687
 5006SOL     OW26479   3.575   0.792   8.857 -0.3349  0.2432 -0.0070
 5006SOL    HW126480   3.606   0.880   8.836  1.6321 -0.0368  1.8274
 5006SOL    HW226481   3.568   0.753   8.769  0.3456 -0.5244  0.2847
 5007SOL     OW26482   3.791   4.453   1.189 -0.1830 -0.3698 -0.4901
 5007SOL    HW126483   3.824   4.486   1.106  0.0522  0.7214  0.0338
 5007SOL    HW226484   3.764   4.527   1.243  1.2079  0.4369 -0.9111
 5008SOL     OW26485   2.888   0.717   1.990 -0.6969 -0.2688  0.2227
 5008SOL    HW126486   2.911   0.760   1.907  1.1363 -0.0898  0.8426
 5008SOL    HW226487   2.797   0.691   1.971 -0.0867 -0.5276 -2.3248
 5009SOL     OW26488   2.980   1.302   8.686  0.4183 -0.5901  0.0754
 5009SOL    HW126489   2.915   1.364   8.719  0.9770  0.3754 -0.6109
 5009SOL    HW226490   3.015   1.362   8.620 -0.2494  0.5974  0.7957
 5010SOL     OW26491   2.988   2.130   8.177 -0.4296 -0.2576 -0.0890
 5010SOL    HW126492   2.971   2.224   8.173  1.6174  0.1946  2.1613
 5010SOL    HW226493   3.083   2.129   8.179 -0.4503 -3.2604 -0.4103
 5011SOL     OW26494   1.702   3.059   9.070 -0.7481 -0.5657 -0.4046
 5011SOL    HW126495   1.695   2.990   9.136  0.2038 -1.3401 -1.1112
 5011SOL    HW226496   1.645   3.129   9.103  2.1503  0.7076  1.9291
 5012SOL     OW26497   3.764   4.129   4.856  0.3884 -0.5841  0.5923
 5012SOL    HW126498   3.784   4.058   4.918  0.6575 -2.0118 -1.1445
 5012SOL    HW226499   3.771   4.092   4.769 -0.6032  2.4934 -0.7932
 5013SOL     OW26500   3.517   2.235   6.691  0.3129 -0.2230  0.5312
 5013SOL    HW126501   3.580   2.275   6.632 -0.8442 -0.1366 -0.6429
 5013SOL    HW226502   3.575   2.196   6.756  1.4168 -2.0360 -1.5290
 5014SOL     OW26503   2.159   2.800   4.052  0.5559 -0.1254 -0.1954
 5014SOL    HW126504   2.064   2.797   4.043  0.4363  1.5035  0.4413
 5014SOL    HW226505   2.192   2.782   3.964  0.0298 -1.1705 -0.1702
 5015SOL     OW26506   0.253   2.586   9.326 -0.3639  0.0047  0.1862
 5015SOL    HW126507   0.300   2.601   9.408 -0.1486 -0.2928  0.1191
 5015SOL    HW226508   0.244   2.490   9.327  1.2010 -0.1238  1.3519
 5016SOL     OW26509   2.037   0.025   8.829 -0.0789 -0.8388  0.4597
 5016SOL    HW126510   2.030   0.094   8.895 -0.5796 -1.2010  0.7847
 5016SOL    HW226511   2.091   4.683   8.873  2.6667  1.1027 -0.0301
 5017SOL     OW26512   1.429   0.867   6.323 -0.3904  0.3489  0.2047
 5017SOL    HW126513   1.510   0.832   6.286  0.2806 -0.8338  2.7437
 5017SOL    HW226514   1.428   0.822   6.408  1.1822 -0.0732  0.0005
 5018SOL     OW26515   4.657   3.123   3.730 -0.0133  0.1989  0.0179
 5018SOL    HW126516   4.570   3.089   3.747 -0.3742  0.9668 -0.2822
 5018SOL    HW226517   4.679   3.046   3.677 -1.5038 -0.0065 -0.2872
 5019SOL     OW26518   1.293   3.738   5.470 -0.3078  0.0324 -0.3459
 5019SOL    HW126519   1.307   3.822   5.512 -3.9255  0.9435 -0.9796
 5019SOL    HW226520   1.254   3.760   5.386  0.8882 -0.2382 -0.9638
 5020SOL     OW26521   2.308   3.514   4.999  0.0512  0.3464  0.0267
 5020SOL    HW126522   2.235   3.454   4.986 -0.6413  1.1370  0.2264
 5020SOL    HW226523   2.259   3.596   5.008 -2.1559 -0.8706 -0.7701
 5021SOL     OW26524   0.517   1.888   5.728  0.1353  0.0395 -0.2432
 5021SOL    HW126525   0.523   1.837   5.647 -0.8177 -0.3033 -0.0978
 5021SOL    HW226526   0.611   1.899   5.738  0.3178 -0.7436 -1.1363
 5022SOL     OW26527   2.771   0.263  13.673 -0.4400  0.2799  1.0113
 5022SOL    HW126528   2.861   0.259  13.704  0.6138  1.6030 -1.9191
 5022SOL    HW226529   2.730   0.200  13.733  1.4349 -0.3853  1.6178
 5023SOL     OW26530   1.472   0.198   1.031  0.5484  0.4708 -0.1403
 5023SOL    HW126531   1.396   0.161   0.986  2.4590 -1.9721 -1.4072
 5023SOL    HW226532   1.541   0.134   1.010  2.0935  2.1234 -0.0831
 5024SOL     OW26533   1.040   0.489   7.544 -0.3306  0.0119  0.3128
 5024SOL    HW126534   0.990   0.570   7.548 -0.4007 -0.0979  1.7933
 5024SOL    HW226535   1.052   0.480   7.639 -0.0527  0.6372  0.3350
 5025SOL     OW26536   0.874   1.845   6.505 -1.0394  0.4813  0.1185
 5025SOL    HW126537   0.786   1.816   6.530 -1.5474 -0.0669 -2.3465
 5025SOL    HW226538   0.847   1.918   6.449 -1.1729 -1.1068 -1.8702
 5026SOL     OW26539   3.543   4.467   6.755  0.1300  0.1854  0.1830
 5026SOL    HW126540   3.457   4.504   6.777  0.6966  2.1433 -0.9755
 5026SOL    HW226541   3.528   4.377   6.724  0.9673  0.0111  0.2804
 5027SOL     OW26542   2.679   2.074   5.218  0.2806  0.3560  0.1039
 5027SOL    HW126543   2.712   1.990   5.249  1.2657  0.9944  0.7660
 5027SOL    HW226544   2.617   2.092   5.290 -1.0856  0.4232 -1.0826
 5028SOL     OW26545   1.680   1.095   4.032  0.6197  0.0407 -0.0597
 5028SOL    HW126546   1.674   1.117   3.939 -1.1973  2.0787  0.5296
 5028SOL    HW226547   1.731   1.014   4.032  0.7995  0.1556  0.7386
 5029SOL     OW26548   1.837   1.939   3.235 -0.2478 -0.3993 -0.3526
 5029SOL    HW126549   1.870   2.022   3.201  1.2913 -0.5649  0.7828
 5029SOL    HW226550   1.912   1.903   3.282 -1.6579 -0.8402  1.5481
 5030SOL     OW26551   3.496   4.355   5.490 -0.0411  0.0615 -0.5211
 5030SOL    HW126552   3.541   4.406   5.423 -1.6617  2.2824  0.0554
 5030SOL    HW226553   3.560   4.287   5.510 -0.4215 -0.0479  0.3043
 5031SOL     OW26554   4.113   0.327   2.706 -0.3194  0.2174 -0.1826
 5031SOL    HW126555   4.025   0.287   2.707 -0.0147 -0.4449  0.4725
 5031SOL    HW226556   4.115   0.363   2.617  0.8625  0.7709  0.0742
 5032SOL     OW26557   1.481   3.174   4.779  0.0985 -0.3236 -0.1245
 5032SOL    HW126558   1.537   3.102   4.809 -0.7130 -0.5186  0.9250
 5032SOL    HW226559   1.429   3.133   4.710  0.2003  1.7705 -1.4354
 5033SOL     OW26560   0.868   3.009   6.807  0.0164  0.1051  1.1021
 5033SOL    HW126561   0.952   3.007   6.853 -0.6339 -1.3173  2.1938
 5033SOL    HW226562   0.847   2.916   6.813  1.5250 -0.3544 -0.7559
 5034SOL     OW26563   1.672   0.093   4.934  0.0544  0.2616  0.1715
 5034SOL    HW126564   1.739   0.028   4.912  0.2466  0.2423  0.7888
 5034SOL    HW226565   1.624   0.101   4.852  2.7629 -1.2481 -1.5412
 5035SOL     OW26566   2.124   3.404   1.096 -0.1162  0.2865  0.7025
 5035SOL    HW126567   2.046   3.431   1.145 -0.8195 -0.1981 -0.1653
 5035SOL    HW226568   2.186   3.381   1.166  0.4273  2.6707  1.0090
 5036SOL     OW26569   4.580   4.028  11.872 -0.4655 -0.0377 -0.2170
 5036SOL    HW126570   4.498   4.034  11.822 -1.5372 -0.4855  1.5018
 5036SOL    HW226571   4.599   4.113  11.910  0.3507  0.5438 -1.9383
 5037SOL     OW26572   4.195   4.628   1.366  0.1023 -0.3201 -1.2283
 5037SOL    HW126573   4.285   4.610   1.342  0.1948 -0.2886 -0.9073
 5037SOL    HW226574   4.213   4.666   1.453  0.4355 -1.3359 -0.8511
 5038SOL     OW26575   1.359   3.055  13.101 -0.0816  0.5693 -0.6508
 5038SOL    HW126576   1.411   3.117  13.051  0.2241 -0.0296 -1.0824
 5038SOL    HW226577   1.267   3.080  13.089 -0.0141 -0.2355 -2.8308
 5039SOL     OW26578   2.577   0.979   7.982  0.2079  0.1484 -0.2583
 5039SOL    HW126579   2.601   0.951   7.893 -0.0658 -2.6564  0.5363
 5039SOL    HW226580   2.617   1.064   8.000 -0.0389  0.1513  0.2771
 5040SOL     OW26581   2.963   0.406   4.068 -0.1337 -0.3722 -0.7021
 5040SOL    HW126582   3.032   0.340   4.059 -2.6259 -3.1110  0.2480
 5040SOL    HW226583   3.006   0.489   4.086  1.1689 -1.5101  1.3684
 5041SOL     OW26584   0.769   1.113   8.098 -0.5860 -0.4599 -0.1678
 5041SOL    HW126585   0.834   1.160   8.150  0.0584 -0.0880 -1.3078
 5041SOL    HW226586   0.820   1.044   8.056 -1.5416 -0.4164 -1.3911
 5042SOL     OW26587   2.147   1.012   3.397 -0.1764 -0.0399 -0.0673
 5042SOL    HW126588   2.145   1.039   3.489 -1.7289  0.8990 -0.3788
 5042SOL    HW226589   2.062   0.969   3.393 -0.2338 -0.0584  1.3689
 5043SOL     OW26590   3.751   4.431   0.674 -0.7195 -0.3278 -0.3125
 5043SOL    HW126591   3.836   4.459   0.708 -0.8715  0.0323 -0.2329
 5043SOL    HW226592   3.716   4.379   0.747 -1.3670 -0.4882 -0.7356
 5044SOL     OW26593   3.350   0.405   6.664 -0.0346  0.1456  0.9845
 5044SOL    HW126594   3.267   0.358   6.662  0.0381  0.1507 -2.1150
 5044SOL    HW226595   3.406   0.331   6.687 -1.4735 -1.1265  0.4023
 5045SOL     OW26596   3.661   1.020   2.593 -0.1206 -0.1802 -0.3996
 5045SOL    HW126597   3.665   1.043   2.686 -3.4302 -0.0402 -0.2689
 5045SOL    HW226598   3.745   1.062   2.574  0.2394 -0.1677  1.2082
 5046SOL     OW26599   3.459   4.600   5.616 -0.1176 -0.8056  0.5262
 5046SOL    HW126600   3.526   4.635   5.675  0.8630  0.1562 -1.1614
 5046SOL    HW226601   3.480   4.509   5.599  1.1778 -0.4892  0.4928
 5047SOL     OW26602   4.163   4.367   5.042 -0.1266  0.0504  0.1987
 5047SOL    HW126603   4.202   4.286   5.009 -1.2924 -0.6436  0.5329
 5047SOL    HW226604   4.234   4.429   5.023 -1.3733  0.9932 -1.3286
 5048SOL     OW26605   4.203   3.424   5.111 -0.0891 -0.0324 -0.3364
 5048SOL    HW126606   4.253   3.438   5.192 -0.1697 -0.3747 -0.2241
 5048SOL    HW226607   4.128   3.376   5.148 -0.7171  0.8573 -0.4586
 5049SOL     OW26608   4.489   4.054   8.194 -0.5802  0.1818  0.2045
 5049SOL    HW126609   4.476   3.972   8.240  0.9644 -0.0022  0.3064
 5049SOL    HW226610   4.467   4.122   8.258 -0.3687  0.4041  0.0412
 5050SOL     OW26611   2.492   3.444  13.733  0.4602 -0.2765 -0.3682
 5050SOL    HW126612   2.548   3.451  13.656 -1.8461  0.5758 -1.9649
 5050SOL    HW226613   2.433   3.378  13.697  0.0896  1.0683 -2.2527
 5051SOL     OW26614   3.249   4.477  12.701 -0.5676 -0.1897 -0.1445
 5051SOL    HW126615   3.308   4.466  12.626 -0.2321  1.7627 -0.1782
 5051SOL    HW226616   3.276   4.414  12.767 -0.0963  0.2740  0.1079
 5052SOL     OW26617   3.065   4.273   0.273  0.2332 -0.2511  0.4351
 5052SOL    HW126618   3.110   4.296   0.191 -1.2528  0.0353 -0.2998
 5052SOL    HW226619   3.098   4.344   0.328 -0.5792  0.9735 -0.6454
 5053SOL     OW26620   0.598   3.702  12.443  0.2569 -0.4216 -0.1728
 5053SOL    HW126621   0.640   3.736  12.364  0.1490  0.3630  0.1029
 5053SOL    HW226622   0.523   3.760  12.456 -0.8991 -2.4661  2.2091
 5054SOL     OW26623   3.694   1.948   7.448 -0.0020 -0.2159 -0.0056
 5054SOL    HW126624   3.712   2.035   7.483 -0.5564 -0.4987  0.9791
 5054SOL    HW226625   3.762   1.946   7.380 -1.0402  0.6216 -1.0522
 5055SOL     OW26626   3.481   0.347   0.548  0.8107 -0.1440 -0.7160
 5055SOL    HW126627   3.444   0.262   0.575 -0.6484  0.1629 -1.7074
 5055SOL    HW226628   3.406   0.379   0.497  2.8710  1.7685 -2.4891
 5056SOL     OW26629   2.692   0.644   4.115  0.2028 -0.0119 -0.4308
 5056SOL    HW126630   2.720   0.661   4.025 -1.2098  0.7889 -0.7145
 5056SOL    HW226631   2.622   0.580   4.104 -2.1175  2.1557  1.8189
 5057SOL     OW26632   1.918   3.064   6.349  0.4349  0.0659 -0.3072
 5057SOL    HW126633   1.935   3.152   6.314 -1.8157  1.1361  1.2641
 5057SOL    HW226634   1.974   3.062   6.426 -0.4218 -0.0257  0.3068
 5058SOL     OW26635   2.236   0.677   5.173  0.1615 -0.0364 -0.1488
 5058SOL    HW126636   2.302   0.621   5.135  1.1924 -1.2643  3.4221
 5058SOL    HW226637   2.181   0.608   5.210 -1.7410  1.4732 -0.1082
 5059SOL     OW26638   0.120   1.913   6.336 -0.0652 -0.0869  0.6344
 5059SOL    HW126639   0.046   1.973   6.328  1.7582  2.4882  3.4201
 5059SOL    HW226640   0.163   1.947   6.414 -1.2027  0.8240  0.8659
 5060SOL     OW26641   3.272   2.854   3.228 -0.1242  0.2611 -0.5936
 5060SOL    HW126642   3.298   2.898   3.147  0.3114 -1.9316 -1.6393
 5060SOL    HW226643   3.291   2.764   3.201  1.3228 -0.5158  2.9356
 5061SOL     OW26644   0.098   4.150   2.184 -0.2855 -0.1119 -0.3734
 5061SOL    HW126645   0.182   4.150   2.229 -1.3977 -0.3529  1.6890
 5061SOL    HW226646   0.049   4.093   2.243  2.4539 -1.8475  0.1925
 5062SOL     OW26647   4.132   1.713   4.903  0.1497 -0.7223 -0.5885
 5062SOL    HW126648   4.170   1.782   4.849  0.4331 -0.8678 -0.5723
 5062SOL    HW226649   4.073   1.766   4.957 -1.5062 -0.0021 -3.1118
 5063SOL     OW26650   2.624   4.128   1.700  0.1558 -0.4823 -0.1328
 5063SOL    HW126651   2.585   4.103   1.784 -0.2532  1.8061  0.3709
 5063SOL    HW226652   2.690   4.059   1.699  0.4694 -0.1756 -0.7925
 5064SOL     OW26653   2.153   4.213  10.621 -0.6474  0.6677 -0.1912
 5064SOL    HW126654   2.141   4.180  10.710  0.0599  0.2083 -0.2697
 5064SOL    HW226655   2.093   4.150  10.581  0.2251 -0.8773  0.9130
 5065SOL     OW26656   1.926   1.059   5.405 -0.4670 -0.5713  0.9712
 5065SOL    HW126657   1.966   1.073   5.490  1.8535  2.0726 -0.5537
 5065SOL    HW226658   2.001   1.016   5.363 -2.7470 -2.4838 -1.1695
 5066SOL     OW26659   0.053   2.130   1.133 -0.1618 -0.2869  0.6657
 5066SOL    HW126660   0.037   2.160   1.043 -1.3779 -0.2905  0.8836
 5066SOL    HW226661   0.053   2.038   1.106  1.0196  0.3675 -1.6252
 5067SOL     OW26662   0.559   4.449   9.675 -0.1549 -0.4768 -0.2345
 5067SOL    HW126663   0.467   4.439   9.699  0.3218  0.3268  1.9159
 5067SOL    HW226664   0.595   4.360   9.680  0.1448 -0.4916 -2.4029
 5068SOL     OW26665   2.355   1.461   0.660 -0.1013  0.3517 -0.0297
 5068SOL    HW126666   2.363   1.377   0.615  3.2430  0.9948 -0.6383
 5068SOL    HW226667   2.343   1.517   0.583 -0.4053  0.0647 -0.1932
 5069SOL     OW26668   3.200   4.516  16.191 -0.1535 -0.0487  0.4097
 5069SOL    HW126669   3.207   4.463  16.112 -0.4185  0.1278  0.2642
 5069SOL    HW226670   3.193   4.447  16.257  3.1864 -0.4229  0.3522
 5070SOL     OW26671   0.213   2.793  12.788  0.2265  0.1661  0.1219
 5070SOL    HW126672   0.178   2.704  12.798  0.6072 -0.2065 -1.9221
 5070SOL    HW226673   0.243   2.800  12.879  1.4930 -0.3339 -0.2559
 5071SOL     OW26674   3.551   4.148   2.437 -0.0268  0.0321  0.3450
 5071SOL    HW126675   3.527   4.063   2.402 -2.1369  0.1646  1.4365
 5071SOL    HW226676   3.493   4.208   2.389 -0.7113  0.3912  1.6223
 5072SOL     OW26677   2.772   0.323   0.293 -0.1831 -0.2960  0.1902
 5072SOL    HW126678   2.725   0.259   0.240  0.1378  0.8254 -1.4560
 5072SOL    HW226679   2.723   0.332   0.375  0.4736 -1.8246  0.7544
 5073SOL     OW26680   3.082   0.952   1.337  0.8853  0.3201 -0.1367
 5073SOL    HW126681   3.097   1.041   1.368  0.4646 -0.0167  1.0011
 5073SOL    HW226682   3.067   0.968   1.244  0.1271  1.7100  0.2369
 5074SOL     OW26683   2.754   1.657   5.132  0.8514 -0.8014  0.0551
 5074SOL    HW126684   2.787   1.728   5.187 -1.0018  0.4999 -0.5215
 5074SOL    HW226685   2.689   1.607   5.182  2.6773 -1.3803  1.8783
 5075SOL     OW26686   1.419   4.597  10.205  0.1745  0.2109  0.1093
 5075SOL    HW126687   1.460   4.619  10.289  0.1209 -0.6307  0.3541
 5075SOL    HW226688   1.433   4.505  10.185 -1.5289  0.3206 -1.5866
 5076SOL     OW26689   1.008   2.385   1.860  0.3791 -0.1923 -0.0361
 5076SOL    HW126690   0.986   2.386   1.767 -0.1488  3.9952  0.1197
 5076SOL    HW226691   1.083   2.446   1.859  1.4878 -1.5875 -0.9474
 5077SOL     OW26692   1.769   3.443   2.472 -0.0957  0.4411  0.0347
 5077SOL    HW126693   1.845   3.492   2.501  1.8159 -2.4650 -0.0440
 5077SOL    HW226694   1.747   3.381   2.542 -2.7262  0.3224 -0.8638
 5078SOL     OW26695   1.451   1.933   0.171 -0.0818 -0.1212  0.7383
 5078SOL    HW126696   1.418   1.847   0.196  0.0931  0.0211  1.4649
 5078SOL    HW226697   1.378   1.979   0.129  2.6809  1.8367 -1.8697
 5079SOL     OW26698   0.519   1.064  16.164  0.1235 -0.2464  0.4966
 5079SOL    HW126699   0.547   1.124  16.095 -1.3504  0.5944  0.6404
 5079SOL    HW226700   0.445   1.101  16.212  1.1210  1.0497  1.0254
 5080SOL     OW26701   2.663   4.549   7.238  0.0505 -0.6452  0.2200
 5080SOL    HW126702   2.748   4.564   7.279 -1.7019 -0.0823  3.6136
 5080SOL    HW226703   2.598   4.591   7.294  1.3681  1.7124 -0.0204
 5081SOL     OW26704   3.781   3.488   5.087 -0.4709  0.1250 -0.1522
 5081SOL    HW126705   3.806   3.559   5.027  1.3098 -0.7464 -0.4574
 5081SOL    HW226706   3.805   3.529   5.170  1.7813 -0.6571 -0.3960
 5082SOL     OW26707   2.705   4.590   7.653  0.5811  0.1239  0.2174
 5082SOL    HW126708   2.746   4.648   7.589  2.6986  0.0125  1.4796
 5082SOL    HW226709   2.662   4.656   7.707  1.3654  0.2308  0.7127
 5083SOL     OW26710   1.471   3.034  12.310 -0.2936  0.3018  0.0985
 5083SOL    HW126711   1.375   3.035  12.315 -0.2069  0.9108  1.6467
 5083SOL    HW226712   1.483   2.955  12.257  1.3870 -0.7220  2.0197
 5084SOL     OW26713   2.418   3.184   9.485 -0.3988  0.8012  0.2610
 5084SOL    HW126714   2.334   3.171   9.441  0.9060 -3.3588 -1.0617
 5084SOL    HW226715   2.413   3.273   9.519 -1.9001  1.0480 -0.6060
 5085SOL     OW26716   0.544   1.415   6.866  0.1910 -0.2104 -0.7202
 5085SOL    HW126717   0.545   1.325   6.834 -1.5426 -1.8168  3.7344
 5085SOL    HW226718   0.472   1.449   6.814 -0.7598  1.8145  1.9444
 5086SOL     OW26719   3.236   4.042   7.967 -0.2666  0.5763  0.2855
 5086SOL    HW126720   3.181   4.115   7.937 -0.3784  0.4179  0.1068
 5086SOL    HW226721   3.223   4.059   8.060 -0.4378  0.1043  0.3448
 5087SOL     OW26722   2.078   3.297   7.309  0.9240 -0.1218 -0.0983
 5087SOL    HW126723   2.125   3.221   7.344  0.8530  0.7400  1.9102
 5087SOL    HW226724   1.986   3.274   7.316  1.2562 -1.0550  1.2691
 5088SOL     OW26725   1.400   1.496   3.559 -0.2790  0.0658  0.0918
 5088SOL    HW126726   1.407   1.404   3.532 -1.8714  0.1811 -0.7539
 5088SOL    HW226727   1.433   1.533   3.477  0.2053  1.0148  0.7269
 5089SOL     OW26728   1.721   1.664   6.775 -0.4940 -0.1991  0.4853
 5089SOL    HW126729   1.779   1.687   6.847  2.3149 -0.4875 -1.6757
 5089SOL    HW226730   1.793   1.665   6.712 -1.0574  1.2275 -0.1297
 5090SOL     OW26731   1.446   3.439  16.185  0.2001  0.8247  0.2835
 5090SOL    HW126732   1.429   3.372  16.252 -3.8626 -1.3185 -2.8486
 5090SOL    HW226733   1.524   3.482  16.219  0.2025 -0.4012  1.8154
 5091SOL     OW26734   0.391   1.779   3.477  0.1616 -0.3443  0.6699
 5091SOL    HW126735   0.411   1.776   3.383 -1.1597  0.6945  0.3594
 5091SOL    HW226736   0.337   1.700   3.481  1.1312 -1.0014  0.9329
 5092SOL     OW26737   3.053   2.612   5.448  0.0087  0.6904 -0.6987
 5092SOL    HW126738   3.123   2.650   5.395  0.0555  0.4274 -0.8288
 5092SOL    HW226739   2.987   2.680   5.455  1.5964  2.4223 -2.5631
 5093SOL     OW26740   0.175   2.066   0.216 -0.1864 -0.1274  0.1315
 5093SOL    HW126741   0.113   1.996   0.195 -0.6481  0.4754 -0.5420
 5093SOL    HW226742   0.156   2.125   0.142 -2.6795  0.3672  1.1641
 5094SOL     OW26743   1.545   3.739  11.078  0.4620  0.0628  0.3703
 5094SOL    HW126744   1.544   3.692  11.162 -5.0453  0.5874  0.5930
 5094SOL    HW226745   1.488   3.815  11.093  0.4621  0.0811  0.2769
 5095SOL     OW26746   4.639   1.623   2.554  0.4527  0.3466  0.4135
 5095SOL    HW126747   4.670   1.611   2.464 -1.0720  2.1987 -0.3524
 5095SOL    HW226748   4.550   1.659   2.547  0.1065 -0.8061 -1.2662
 5096SOL     OW26749   0.049   2.203   5.733  0.0324  0.1102 -0.1657
 5096SOL    HW126750   0.116   2.142   5.703 -0.4666  1.0350 -3.1414
 5096SOL    HW226751   4.705   2.149   5.775 -2.6405  4.4001  1.0500
 5097SOL     OW26752   4.199   3.577   5.831  0.7787 -0.1744  0.2324
 5097SOL    HW126753   4.224   3.628   5.907  0.6514 -0.9115  0.7704
 5097SOL    HW226754   4.153   3.508   5.879 -0.5153  0.2962 -0.3110
 5098SOL     OW26755   0.195   4.302  15.494  0.1185 -0.4517  0.3420
 5098SOL    HW126756   0.164   4.383  15.454 -3.2228 -2.1639 -0.5891
 5098SOL    HW226757   0.168   4.243  15.423  0.6886  0.4605 -0.6248
 5099SOL     OW26758   2.166   3.244   8.340 -0.4042 -0.0108 -0.0302
 5099SOL    HW126759   2.238   3.203   8.388 -1.1640 -1.8722 -0.4685
 5099SOL    HW226760   2.096   3.179   8.344  0.8219 -1.3002  0.9110
 5100SOL     OW26761   3.052   4.084  10.915 -0.1438 -0.2199 -0.4700
 5100SOL    HW126762   3.134   4.048  10.951  0.8136  2.1549 -0.3065
 5100SOL    HW226763   3.015   4.008  10.871  0.4036 -0.5294 -0.4042
 5101SOL     OW26764   4.228   0.157   7.297  0.4481 -0.1386 -0.1390
 5101SOL    HW126765   4.227   0.216   7.221  1.7897 -1.0233 -0.8400
 5101SOL    HW226766   4.295   0.193   7.355 -0.5200 -1.6320  1.9049
 5102SOL     OW26767   1.934   2.197  11.933  0.2482 -0.1992 -0.1133
 5102SOL    HW126768   1.888   2.132  11.879 -0.8181 -1.7472  2.6514
 5102SOL    HW226769   1.941   2.147  12.014  0.8806  2.0860  1.2271
 5103SOL     OW26770   3.637   0.923   3.331 -0.2140 -0.0253  0.2975
 5103SOL    HW126771   3.693   0.871   3.390  0.9511  0.9707  0.0522
 5103SOL    HW226772   3.584   0.984   3.383  1.9034  0.6701  1.6639
 5104SOL     OW26773   1.719   3.518   3.044 -0.4904 -0.1434 -0.3749
 5104SOL    HW126774   1.704   3.457   2.972  0.2887  0.3400 -0.9511
 5104SOL    HW226775   1.793   3.478   3.090 -0.5015  2.4915  1.9027
 5105SOL     OW26776   4.309   2.207   6.683  0.3518  0.5357  0.2340
 5105SOL    HW126777   4.344   2.283   6.729  0.5629  0.7381 -0.2615
 5105SOL    HW226778   4.271   2.236   6.601 -0.2356  0.2060  0.3916
 5106SOL     OW26779   2.612   2.381   7.504 -0.3253  0.4705 -0.0897
 5106SOL    HW126780   2.528   2.348   7.538  0.0365  0.8394  1.1619
 5106SOL    HW226781   2.675   2.351   7.569 -0.9704  0.8292  0.6970
 5107SOL     OW26782   2.774   0.457   4.923  0.1166 -0.2577  0.0153
 5107SOL    HW126783   2.865   0.436   4.945 -0.5482 -1.2019  1.8802
 5107SOL    HW226784   2.759   0.529   4.985 -0.5938 -0.2033 -0.2159
 5108SOL     OW26785   2.607   0.521  15.437 -0.0223  0.2253  0.8119
 5108SOL    HW126786   2.679   0.570  15.399  0.6085 -2.3153 -1.2323
 5108SOL    HW226787   2.642   0.484  15.519 -1.9129  1.4310  2.1610
 5109SOL     OW26788   0.676   0.615   2.294 -0.0856 -0.2135 -0.2355
 5109SOL    HW126789   0.661   0.524   2.321 -1.6248 -0.0018 -0.3380
 5109SOL    HW226790   0.630   0.663   2.363 -0.0985 -0.7209  0.1085
 5110SOL     OW26791   0.750   0.094  11.268  0.3708  0.0461  0.4118
 5110SOL    HW126792   0.800   0.090  11.349  2.5077 -2.8604 -1.0279
 5110SOL    HW226793   0.788   0.025  11.212 -0.4106 -0.9399  1.0951
 5111SOL     OW26794   3.204   1.857   1.151 -0.2233  0.0128 -0.0224
 5111SOL    HW126795   3.228   1.889   1.239 -2.5120  3.4320 -0.6428
 5111SOL    HW226796   3.118   1.895   1.132  0.7609  0.1973 -3.9299
 5112SOL     OW26797   1.307   2.240   2.573 -0.1639 -0.4643 -0.0748
 5112SOL    HW126798   1.373   2.251   2.641  0.3809 -1.2323 -0.4790
 5112SOL    HW226799   1.323   2.316   2.516 -1.2579 -0.3562 -0.2418
 5113SOL     OW26800   2.193   1.486  11.888 -0.0026 -0.0575 -0.3106
 5113SOL    HW126801   2.127   1.541  11.846 -0.4035  0.5954  1.1781
 5113SOL    HW226802   2.276   1.532  11.876  0.1553 -0.6255 -1.4211
 5114SOL     OW26803   3.436   4.020   4.655  0.6716 -0.2827  0.4710
 5114SOL    HW126804   3.508   3.957   4.665 -1.0668 -2.1864  0.7969
 5114SOL    HW226805   3.452   4.079   4.729  1.2270 -0.3423  0.4002
 5115SOL     OW26806   2.801   1.217   6.069  1.0422 -0.1692 -0.2342
 5115SOL    HW126807   2.821   1.307   6.042 -0.8100 -0.2985 -2.0419
 5115SOL    HW226808   2.735   1.227   6.138  0.5083 -1.0544 -0.6201
 5116SOL     OW26809   1.327   0.058   6.806  0.3240  0.4540  0.3347
 5116SOL    HW126810   1.252   0.114   6.822  2.5728  3.9498 -1.2962
 5116SOL    HW226811   1.287   4.710   6.756  1.0451  0.7007 -0.5841
 5117SOL     OW26812   4.229   0.139   3.279 -0.5149 -0.1962  0.4821
 5117SOL    HW126813   4.272   0.107   3.358 -0.2184  1.5317  1.0142
 5117SOL    HW226814   4.306   0.156   3.224 -1.2444 -1.4506 -0.9369
 5118SOL     OW26815   3.578   0.704   2.904 -0.3192  0.6571 -0.4436
 5118SOL    HW126816   3.623   0.776   2.948  0.1201  0.4943 -0.6284
 5118SOL    HW226817   3.594   0.632   2.964 -1.0724 -0.4967 -1.6361
 5119SOL     OW26818   1.984   3.723  14.433 -0.1290  0.3870 -0.0714
 5119SOL    HW126819   2.033   3.744  14.512  1.4393 -2.8104 -0.2024
 5119SOL    HW226820   1.898   3.715  14.472 -0.6709  1.0315 -1.1432
 5120SOL     OW26821   2.677   0.624   1.013  0.0665  0.2128  0.0200
 5120SOL    HW126822   2.712   0.710   1.038  0.5627  0.7205 -2.4325
 5120SOL    HW226823   2.688   0.574   1.095  0.2668  0.6767  0.2752
 5121SOL     OW26824   0.278   2.561   6.750  0.0290  0.1930  0.0056
 5121SOL    HW126825   0.275   2.472   6.715 -0.6872 -0.0400  0.6707
 5121SOL    HW226826   0.368   2.580   6.775 -0.7024  0.6180  2.2555
 5122SOL     OW26827   1.785   2.526   3.426  0.1561  0.2115 -0.0361
 5122SOL    HW126828   1.800   2.457   3.491 -1.0561  2.4114  2.5383
 5122SOL    HW226829   1.692   2.521   3.408  0.1332  0.4823  0.0090
 5123SOL     OW26830   0.458   2.226   4.739  0.3853  0.2784  0.1134
 5123SOL    HW126831   0.479   2.136   4.716 -2.8757 -0.6525  0.7327
 5123SOL    HW226832   0.548   2.255   4.753  0.4896  1.0044 -2.0393
 5124SOL     OW26833   0.149   3.845  11.554 -0.1200  0.6234 -0.1422
 5124SOL    HW126834   0.119   3.852  11.645  2.8702 -0.3691  0.9274
 5124SOL    HW226835   0.216   3.778  11.570 -0.2692  0.2738 -0.9882
 5125SOL     OW26836   2.131   1.158  10.744 -0.2619  0.0839  0.1077
 5125SOL    HW126837   2.154   1.246  10.772  0.5742  0.5675 -2.1521
 5125SOL    HW226838   2.039   1.176  10.726 -0.2354 -0.1778 -0.2901
 5126SOL     OW26839   1.669   2.695   0.194  0.3752 -0.6842  0.0893
 5126SOL    HW126840   1.586   2.695   0.147  0.9345 -1.1994 -0.8938
 5126SOL    HW226841   1.679   2.790   0.201 -1.1767 -0.4257 -1.0675
 5127SOL     OW26842   1.290   4.555  16.262  0.1328  0.3605  0.3044
 5127SOL    HW126843   1.254   4.516  16.342  1.0199 -1.4926 -0.2107
 5127SOL    HW226844   1.218   4.616  16.243 -0.3009 -0.6612 -1.2797
 5128SOL     OW26845   2.505   0.211   9.107 -1.0874 -0.2340 -0.0603
 5128SOL    HW126846   2.570   0.196   9.038 -0.2798  0.6074  0.5192
 5128SOL    HW226847   2.543   0.290   9.145 -1.1394 -0.1398 -0.2044
 5129SOL     OW26848   0.265   3.465   4.377  0.3361  0.5307 -0.1110
 5129SOL    HW126849   0.345   3.466   4.430 -1.7860  1.8384  3.0340
 5129SOL    HW226850   0.243   3.558   4.375 -1.5953  0.0878  0.9202
 5130SOL     OW26851   1.733   0.706   2.517  0.4208  0.5079 -0.1294
 5130SOL    HW126852   1.723   0.615   2.543 -0.5783  0.3168 -1.1923
 5130SOL    HW226853   1.828   0.715   2.512  0.2991 -0.6065 -4.4926
 5131SOL     OW26854   1.637   3.141   5.850  0.0182  0.4987 -0.4019
 5131SOL    HW126855   1.630   3.159   5.756 -2.7512  0.0896 -0.2785
 5131SOL    HW226856   1.596   3.055   5.858 -0.7833  0.9316  0.1430
 5132SOL     OW26857   0.707   0.365  11.253  0.6989  0.1111 -0.3804
 5132SOL    HW126858   0.710   0.271  11.273  0.0142  0.1303 -0.1859
 5132SOL    HW226859   0.670   0.372  11.165  0.7890 -0.3631 -0.4563
 5133SOL     OW26860   4.188   0.385   7.673 -0.2430 -0.3699  0.0666
 5133SOL    HW126861   4.130   0.309   7.682  0.2402 -0.6612  0.6813
 5133SOL    HW226862   4.190   0.423   7.760 -1.3154  0.9404 -0.4814
 5134SOL     OW26863   0.334   3.515  13.409 -0.2647  0.1063  0.2492
 5134SOL    HW126864   0.421   3.551  13.397 -1.2997  1.5994 -2.6982
 5134SOL    HW226865   0.278   3.587  13.379 -2.1682 -1.0603  0.9638
 5135SOL     OW26866   1.296   0.067   3.119 -0.1472  0.7947  0.2231
 5135SOL    HW126867   1.319   0.089   3.028  0.0371 -1.6794 -0.3185
 5135SOL    HW226868   1.209   0.029   3.105 -0.6118  1.0229  2.4608
 5136SOL     OW26869   4.324   0.408  12.597 -0.0254  0.3778  0.2578
 5136SOL    HW126870   4.415   0.414  12.569  0.0954 -0.5664  0.4527
 5136SOL    HW226871   4.286   0.458  12.525 -0.6853  0.6426  0.7866
 5137SOL     OW26872   1.125   1.397   8.332 -0.0207  0.4930  0.1015
 5137SOL    HW126873   1.050   1.451   8.307  1.9119  2.2053 -1.9392
 5137SOL    HW226874   1.182   1.452   8.386  1.3677 -1.4257  0.6167
 5138SOL     OW26875   4.322   4.298   5.610  0.3711  0.0914  0.0846
 5138SOL    HW126876   4.298   4.213   5.574 -1.9074 -0.0434  1.9653
 5138SOL    HW226877   4.402   4.321   5.562  2.4667 -2.4775  2.3437
 5139SOL     OW26878   4.397   2.859  12.566 -0.6053 -0.3274  0.2488
 5139SOL    HW126879   4.422   2.951  12.578  1.8728 -1.0306  0.5235
 5139SOL    HW226880   4.413   2.844  12.472  3.1505 -0.5104  0.9188
 5140SOL     OW26881   3.851   2.351   8.973 -0.3931  0.1232 -0.0153
 5140SOL    HW126882   3.875   2.270   8.928  2.8152  0.2148  1.5193
 5140SOL    HW226883   3.764   2.320   9.000 -0.5259  1.0111  0.5669
 5141SOL     OW26884   2.772   1.181   7.057  0.2983 -0.4846  0.4521
 5141SOL    HW126885   2.833   1.247   7.091  0.3494 -1.4082  2.1275
 5141SOL    HW226886   2.718   1.243   7.006  0.0770 -1.1237 -0.0889
 5142SOL     OW26887   2.711   0.237   4.805 -0.3688 -0.6905 -0.2545
 5142SOL    HW126888   2.800   0.212   4.779  0.2750  1.0001  0.3387
 5142SOL    HW226889   2.741   0.316   4.850  0.3907 -0.7643 -0.6337
 5143SOL     OW26890   2.719   0.248  13.405 -0.8181 -0.4614 -0.0512
 5143SOL    HW126891   2.693   0.208  13.488 -1.0308 -0.1232  0.0449
 5143SOL    HW226892   2.753   0.330  13.439 -0.7857  0.3174 -1.9523
 5144SOL     OW26893   1.628   1.701  11.980  0.5861  0.6529 -0.7257
 5144SOL    HW126894   1.597   1.670  11.895 -0.2825 -1.0069  0.1965
 5144SOL    HW226895   1.693   1.631  11.990 -0.9143 -0.6564 -0.1331
 5145SOL     OW26896   0.740   3.005   7.778  0.3053  0.5735  0.4325
 5145SOL    HW126897   0.752   2.983   7.685 -1.5066  0.3793  0.2547
 5145SOL    HW226898   0.645   2.999   7.783  0.3699 -1.4176 -0.6409
 5146SOL     OW26899   3.058   0.540   7.626  0.2796  0.1282 -0.0887
 5146SOL    HW126900   3.033   0.520   7.536 -0.9176  0.4769  0.1619
 5146SOL    HW226901   3.038   0.633   7.639 -1.2257 -0.4773  1.9024
 5147SOL     OW26902   1.797   4.609  10.830 -0.3044  0.5710  0.4498
 5147SOL    HW126903   1.746   4.690  10.823  1.2078  1.4857  0.2482
 5147SOL    HW226904   1.844   4.607  10.747  1.5515 -1.2121  1.5509
 5148SOL     OW26905   2.935   2.273   3.480  0.3035 -0.1642 -0.6053
 5148SOL    HW126906   2.945   2.330   3.556 -0.2623 -2.3374  1.1191
 5148SOL    HW226907   3.024   2.240   3.468  2.2427  4.9879 -0.3744
 5149SOL     OW26908   1.187   2.350   8.920  0.1850  0.5125 -0.3324
 5149SOL    HW126909   1.115   2.336   8.982  1.3536 -0.6141  0.7832
 5149SOL    HW226910   1.198   2.444   8.934 -1.2778  0.6865 -0.3495
 5150SOL     OW26911   2.674   3.942   6.853 -0.5527 -0.4334  0.0793
 5150SOL    HW126912   2.696   3.955   6.946 -0.6342 -1.8846  0.2936
 5150SOL    HW226913   2.610   4.011   6.833 -0.0394  0.0619  0.1278
 5151SOL     OW26914   3.921   0.151   5.827 -0.4567  0.3841 -0.6456
 5151SOL    HW126915   3.981   0.191   5.765  0.6131 -0.7053 -0.3110
 5151SOL    HW226916   3.960   0.169   5.913  0.1240  1.5202 -1.1524
 5152SOL     OW26917   2.677   1.250   6.594  0.4268 -0.4463  0.4303
 5152SOL    HW126918   2.766   1.262   6.560  0.2295  1.2604  0.4971
 5152SOL    HW226919   2.688   1.189   6.667  0.0093  0.5137  1.2980
 5153SOL     OW26920   3.965   1.963   3.510  0.0087 -0.0001  0.0615
 5153SOL    HW126921   4.051   1.999   3.490 -0.1660  0.8604  0.9101
 5153SOL    HW226922   3.954   1.986   3.602  1.4324 -0.0573  0.2357
 5154SOL     OW26923   4.685   3.475   9.491  0.6447 -0.4257  0.0864
 5154SOL    HW126924   0.030   3.437   9.437  0.0394 -2.1109  0.5074
 5154SOL    HW226925   0.002   3.551   9.532 -0.1201 -0.5716  1.1181
 5155SOL     OW26926   0.239   3.468   0.756  1.2614 -0.3580  0.0789
 5155SOL    HW126927   0.234   3.549   0.706 -0.4397 -0.8880 -0.6256
 5155SOL    HW226928   0.157   3.466   0.805  1.7514  0.6384  0.9375
 5156SOL     OW26929   3.340   4.333   9.416  0.1300  0.4336 -0.1867
 5156SOL    HW126930   3.435   4.324   9.417  0.2349  1.8181  1.6881
 5156SOL    HW226931   3.325   4.366   9.327  2.6228 -1.8045 -1.4189
 5157SOL     OW26932   3.342   1.688   7.017 -0.3870  0.2147  0.2035
 5157SOL    HW126933   3.281   1.673   7.089  1.9147 -1.0430  1.8776
 5157SOL    HW226934   3.402   1.750   7.058 -0.1684 -0.1305  0.4131
 5158SOL     OW26935   0.554   2.309   5.460 -0.0035  0.0627  0.1199
 5158SOL    HW126936   0.489   2.343   5.399 -1.5925 -0.8900  1.2710
 5158SOL    HW226937   0.516   2.308   5.548  0.8137 -2.7524  0.4626
 5159SOL     OW26938   0.185   4.011   2.733 -0.3024 -0.9044  0.1551
 5159SOL    HW126939   0.229   4.059   2.803  0.1834  2.0266 -2.1426
 5159SOL    HW226940   0.217   4.055   2.654  2.0743 -0.5918  1.2660
 5160SOL     OW26941   2.374   4.590   2.575 -0.3106 -0.2632  0.7633
 5160SOL    HW126942   2.400   4.561   2.487  1.9378 -0.2212  1.4219
 5160SOL    HW226943   2.284   4.616   2.554  0.2588  0.3420 -0.9258
 5161SOL     OW26944   0.821   4.535   6.433  0.5878 -0.1993  0.4129
 5161SOL    HW126945   0.780   4.452   6.408  2.3496 -0.8076 -0.4101
 5161SOL    HW226946   0.759   4.552   6.504  0.9598  4.0727 -0.3001
 5162SOL     OW26947   0.889   2.377   2.356 -0.4749 -0.0426 -0.2315
 5162SOL    HW126948   0.868   2.465   2.325  0.3797  0.4225  0.5418
 5162SOL    HW226949   0.854   2.321   2.286  0.3158  0.3413 -0.9325
 5163SOL     OW26950   3.213   3.771   4.220  0.0585  0.0681 -0.1351
 5163SOL    HW126951   3.146   3.704   4.232 -0.1409  0.1802 -0.6228
 5163SOL    HW226952   3.163   3.850   4.202  1.7064  1.4876  1.4303
 5164SOL     OW26953   2.694   4.232   5.412  0.1674  0.4324  0.3285
 5164SOL    HW126954   2.620   4.181   5.446 -1.1062  1.7715 -0.4356
 5164SOL    HW226955   2.762   4.168   5.434 -1.1795  0.1029  3.4580
 5165SOL     OW26956   4.405   0.973  16.742  0.6537  0.1462  0.2763
 5165SOL    HW126957   4.343   0.902  16.759 -1.1242  0.9338 -2.7682
 5165SOL    HW226958   4.391   1.027  16.819  1.8996 -0.8537  1.1901
 5166SOL     OW26959   2.589   1.110  14.219  0.6095  0.1706 -0.2866
 5166SOL    HW126960   2.559   1.116  14.310  0.6857 -1.4871 -0.1554
 5166SOL    HW226961   2.590   1.014  14.217 -1.6329  0.1152  1.0157
 5167SOL     OW26962   3.908   2.468   6.463  0.4209 -0.4168 -0.4661
 5167SOL    HW126963   3.977   2.533   6.451 -0.2652  0.6309  1.1831
 5167SOL    HW226964   3.935   2.403   6.398  0.3606  0.4546 -1.3641
 5168SOL     OW26965   4.432   3.726  15.016  0.1616 -0.2825 -0.2107
 5168SOL    HW126966   4.430   3.682  14.931  0.5904  0.1387 -0.4388
 5168SOL    HW226967   4.377   3.803  15.004 -1.2698 -1.3249 -0.2508
 5169SOL     OW26968   3.811   2.545   0.970  0.1036  0.5317 -0.4580
 5169SOL    HW126969   3.878   2.498   1.021 -0.8142  0.9873  1.1672
 5169SOL    HW226970   3.864   2.618   0.938 -2.1729  2.9726  1.3213
 5170SOL     OW26971   2.685   2.447   4.939 -0.5307  0.4575 -0.1296
 5170SOL    HW126972   2.606   2.395   4.921 -1.0438  0.5884  1.7308
 5170SOL    HW226973   2.733   2.376   4.983 -1.9043 -0.5495 -0.2362
 5171SOL     OW26974   4.182   2.532   0.394 -0.0549 -0.2221  0.2675
 5171SOL    HW126975   4.086   2.541   0.395  0.1147  1.4521  1.7940
 5171SOL    HW226976   4.196   2.460   0.333 -1.1899 -0.2715  0.0708
 5172SOL     OW26977   2.031   1.187   6.781  0.1380  0.0964 -0.2592
 5172SOL    HW126978   1.981   1.114   6.817  0.1248 -0.1005 -0.6772
 5172SOL    HW226979   1.957   1.242   6.757 -0.9027 -1.4530 -0.5604
 5173SOL     OW26980   2.787   3.872   5.776  0.4625  0.3826 -0.0652
 5173SOL    HW126981   2.810   3.780   5.786 -0.0549  0.1227 -1.3115
 5173SOL    HW226982   2.815   3.899   5.864 -0.6306  0.6052  0.2114
 5174SOL     OW26983   4.457   0.848  11.049 -0.2619 -0.3219  0.6401
 5174SOL    HW126984   4.363   0.863  11.047 -0.0017  1.2808  0.1283
 5174SOL    HW226985   4.481   0.927  11.098 -0.5401 -1.9477  3.4339
 5175SOL     OW26986   3.018   2.879   7.936 -0.2046  0.3411  0.1821
 5175SOL    HW126987   2.932   2.845   7.959 -0.7588  0.9491 -0.9746
 5175SOL    HW226988   2.993   2.905   7.848 -0.4440 -2.6109 -0.5979
 5176SOL     OW26989   0.026   3.649  11.366 -0.3169 -0.3670 -0.0810
 5176SOL    HW126990   0.008   3.680  11.277  0.9253  1.7886  0.4137
 5176SOL    HW226991   0.081   3.722  11.396 -0.8986  0.9667 -2.2837
 5177SOL     OW26992   1.493   0.506   7.410 -0.3031 -0.4866 -0.3307
 5177SOL    HW126993   1.549   0.465   7.475  1.7963  0.1300 -1.7225
 5177SOL    HW226994   1.418   0.447   7.417 -1.1648  0.5642 -0.6890
 5178SOL     OW26995   2.361   1.198   0.436 -0.3996  0.1976 -0.2996
 5178SOL    HW126996   2.420   1.213   0.510 -0.1962 -2.3038  0.0415
 5178SOL    HW226997   2.311   1.121   0.464  1.6721 -1.1112 -0.2322
 5179SOL     OW26998   0.061   2.282   1.360  0.1477  0.4125 -0.0980
 5179SOL    HW126999   0.156   2.292   1.366  0.3586 -0.7521 -1.6463
 5179SOL    HW227000   0.058   2.238   1.276 -0.8903  2.0342 -0.9074
 5180SOL     OW27001   4.101   1.137  17.458  0.1592 -0.1950 -0.3334
 5180SOL    HW127002   4.168   1.073  17.435  1.8950  2.1427 -1.7170
 5180SOL    HW227003   4.128   1.175  17.541  0.2316 -1.5627  0.2649
 5181SOL     OW27004   2.637   1.931  10.646 -0.1919 -0.0821  0.1104
 5181SOL    HW127005   2.727   1.959  10.667 -0.4652  2.2930 -1.8348
 5181SOL    HW227006   2.578   1.963  10.714 -1.0698 -1.7219  0.1025
 5182SOL     OW27007   0.736   3.086  16.684 -0.3689  0.3835 -0.1037
 5182SOL    HW127008   0.795   3.067  16.611 -1.3651  0.6887 -0.9892
 5182SOL    HW227009   0.647   3.071  16.654  0.3255  0.3583 -2.2267
 5183SOL     OW27010   1.503   4.020   1.436  0.0259 -0.1745 -0.3770
 5183SOL    HW127011   1.532   3.977   1.516  2.3851  0.9473 -0.6312
 5183SOL    HW227012   1.581   4.037   1.383 -1.0562 -1.3003 -2.3630
 5184SOL     OW27013   0.802   2.203   5.599  0.6325 -0.0815  0.1298
 5184SOL    HW127014   0.812   2.254   5.680  0.8971 -0.7537  0.5189
 5184SOL    HW227015   0.723   2.243   5.563 -0.0829  0.1837  1.9983
 5185SOL     OW27016   1.501   2.389   5.182 -0.5437  0.0088  0.1067
 5185SOL    HW127017   1.411   2.417   5.198 -0.5419  0.5634 -0.8728
 5185SOL    HW227018   1.541   2.473   5.162 -0.2282  0.0378  0.8424
 5186SOL     OW27019   2.859   3.425   7.300  0.7093 -0.1656 -0.0318
 5186SOL    HW127020   2.891   3.401   7.387  1.6986  0.0747 -0.3308
 5186SOL    HW227021   2.937   3.420   7.245  0.7635  2.3913 -0.1505
 5187SOL     OW27022   2.961   2.614   7.623  0.1291 -0.1602  0.4278
 5187SOL    HW127023   3.051   2.638   7.600 -1.0326  0.9860 -2.9400
 5187SOL    HW227024   2.909   2.691   7.600 -0.1353 -0.8989 -1.4489
 5188SOL     OW27025   2.392   2.353   2.534 -0.1911 -0.0763  0.3169
 5188SOL    HW127026   2.429   2.321   2.452  0.0062 -0.4669  0.5589
 5188SOL    HW227027   2.463   2.402   2.575 -0.2912 -0.0937  0.5108
 5189SOL     OW27028   0.862   1.828   2.164 -0.1654  0.3126  0.0338
 5189SOL    HW127029   0.875   1.734   2.182  1.1761  0.7164  1.1423
 5189SOL    HW227030   0.899   1.878   2.236 -0.0690 -0.1516  0.3069
 5190SOL     OW27031   1.579   4.429   7.862  0.0902  0.0907  0.6608
 5190SOL    HW127032   1.660   4.378   7.865 -0.3048 -0.6238 -0.7154
 5190SOL    HW227033   1.528   4.348   7.856  1.1578 -0.3980 -1.9009
 5191SOL     OW27034   2.926   4.040  15.495  0.6603 -0.6541  0.7708
 5191SOL    HW127035   2.955   3.998  15.415 -0.4004 -0.0945  0.0885
 5191SOL    HW227036   2.904   3.957  15.536  0.8455 -0.4174  1.3540
 5192SOL     OW27037   3.046   0.614   5.988 -0.7849 -0.0197  0.0816
 5192SOL    HW127038   3.041   0.575   5.901  2.5512  1.0438 -0.5744
 5192SOL    HW227039   3.010   0.538   6.034 -0.8884  0.0686  0.1471
 5193SOL     OW27040   1.374   3.068   7.090 -0.1369 -0.1336 -0.0961
 5193SOL    HW127041   1.382   3.023   7.006 -1.1750 -0.2758 -0.1165
 5193SOL    HW227042   1.427   3.004   7.138  1.4548  0.0327 -1.6554
 5194SOL     OW27043   0.855   2.885   2.918 -0.4151  0.9525  0.0549
 5194SOL    HW127044   0.865   2.790   2.919  0.3711  1.0381 -0.0883
 5194SOL    HW227045   0.940   2.922   2.942  0.9117 -1.1791 -1.4035
 5195SOL     OW27046   0.379   1.831   9.658 -0.5045  0.0044 -0.6518
 5195SOL    HW127047   0.308   1.892   9.676 -0.3326  0.4149 -1.3450
 5195SOL    HW227048   0.450   1.866   9.712 -1.4019  0.0999  0.4636
 5196SOL     OW27049   2.829   1.553   4.864 -0.2450  0.0599 -0.2088
 5196SOL    HW127050   2.848   1.634   4.816  1.1111 -1.1336 -1.6773
 5196SOL    HW227051   2.814   1.586   4.953 -0.8844 -0.5963 -0.0718
 5197SOL     OW27052   3.317   1.007   9.455  0.1817  0.8030 -0.1507
 5197SOL    HW127053   3.257   0.938   9.483 -1.8135  1.9756 -1.4728
 5197SOL    HW227054   3.325   0.993   9.361  0.2573  1.2916 -0.2175
 5198SOL     OW27055   2.501   1.569   3.601  0.2251  0.0504 -0.0727
 5198SOL    HW127056   2.590   1.603   3.602 -0.3573  1.5761 -0.1533
 5198SOL    HW227057   2.481   1.520   3.682  0.9263 -0.4004 -0.1742
 5199SOL     OW27058   2.128   0.855   8.981 -0.0907  0.1346  0.4049
 5199SOL    HW127059   2.066   0.912   9.027 -3.6242 -2.3136 -1.2517
 5199SOL    HW227060   2.192   0.918   8.947  1.6308 -1.2941  0.9990
 5200SOL     OW27061   4.580   3.042   6.412 -0.6704  0.1587 -0.2060
 5200SOL    HW127062   4.642   3.024   6.482  0.8271 -0.4204 -1.6724
 5200SOL    HW227063   4.639   3.033   6.337  0.1816  1.5556  0.2957
 5201SOL     OW27064   1.650   3.679  13.039 -0.3358  0.1383  0.6904
 5201SOL    HW127065   1.648   3.712  13.129 -1.2748  1.1149  0.3179
 5201SOL    HW227066   1.700   3.749  12.996  1.5171 -1.3341  0.4820
 5202SOL     OW27067   2.882   4.530   9.690  0.6334  0.2400 -0.1852
 5202SOL    HW127068   2.837   4.479   9.757  0.7581 -0.8625 -0.9494
 5202SOL    HW227069   2.897   4.617   9.728 -0.8522  0.7047 -0.6251
 5203SOL     OW27070   4.029   1.390   3.364 -0.2423 -0.2650 -0.2119
 5203SOL    HW127071   4.017   1.485   3.358 -0.6785 -0.1652  1.9408
 5203SOL    HW227072   3.943   1.348   3.366 -0.5138  0.3509  1.3803
 5204SOL     OW27073   1.345   4.620  13.081 -0.4297  0.3283 -0.3214
 5204SOL    HW127074   1.412   4.599  13.015 -0.1429  0.2154  0.0089
 5204SOL    HW227075   1.316   4.531  13.098 -3.0550  0.4588 -4.0465
 5205SOL     OW27076   2.586   3.542   8.176 -0.1029 -0.6436 -0.2118
 5205SOL    HW127077   2.503   3.525   8.131  0.5110 -3.2496 -0.3721
 5205SOL    HW227078   2.653   3.539   8.107 -0.1461 -0.5017 -0.2590
 5206SOL     OW27079   2.026   1.224   4.320 -0.0397  0.3350  0.1548
 5206SOL    HW127080   2.051   1.208   4.230  1.7379 -0.6465  0.8321
 5206SOL    HW227081   1.940   1.183   4.309 -0.2204  0.7790 -0.0877
 5207SOL     OW27082   4.455   1.915   6.522  0.3312  0.1463  0.5201
 5207SOL    HW127083   4.371   1.895   6.562  0.3540 -1.2158 -0.1014
 5207SOL    HW227084   4.425   1.944   6.436  0.2314 -1.1006  0.1330
 5208SOL     OW27085   2.894   3.148  13.946 -0.4576  0.2263  0.6724
 5208SOL    HW127086   2.810   3.194  13.941 -0.6445 -0.1355  0.5246
 5208SOL    HW227087   2.905   3.149  14.041  1.7595 -0.8006  0.4204
 5209SOL     OW27088   1.641   2.722   6.070  0.0808  0.3016 -0.3216
 5209SOL    HW127089   1.667   2.640   6.028 -1.9982  0.4726 -1.9069
 5209SOL    HW227090   1.655   2.775   5.991 -2.3494 -1.4033 -1.8877
 5210SOL     OW27091   1.783   2.038   8.250 -0.0289  0.3860 -0.0320
 5210SOL    HW127092   1.851   2.096   8.216 -1.5705 -0.3135 -4.3233
 5210SOL    HW227093   1.705   2.090   8.229  0.2321  0.5857 -0.5142
 5211SOL     OW27094   2.014   0.773   6.234 -0.2970 -0.6573  0.0168
 5211SOL    HW127095   1.961   0.694   6.224 -0.6591 -0.7404  2.7828
 5211SOL    HW227096   2.035   0.767   6.327  1.7534 -1.5554 -0.4856
 5212SOL     OW27097   0.587   4.151   4.198 -0.2643 -0.2120 -0.1111
 5212SOL    HW127098   0.524   4.080   4.207 -2.0550  1.6026  1.5486
 5212SOL    HW227099   0.606   4.160   4.292 -0.2861  2.6221 -0.3658
 5213SOL     OW27100   4.114   0.405  14.705 -0.6305 -0.6818 -0.4043
 5213SOL    HW127101   4.165   0.432  14.781 -2.0027 -3.9348  1.6588
 5213SOL    HW227102   4.042   0.371  14.758 -2.2771  2.6957 -0.4551
 5214SOL     OW27103   1.075   3.574   6.511  0.2685 -0.6796 -0.0212
 5214SOL    HW127104   1.145   3.509   6.504  2.9575  1.9942  1.7258
 5214SOL    HW227105   1.068   3.608   6.422 -0.9037 -0.2828  0.2305
 5215SOL     OW27106   4.581   1.059   6.546  0.5668  0.7689  0.0859
 5215SOL    HW127107   4.532   1.107   6.613  0.4880  0.0618  0.5303
 5215SOL    HW227108   4.561   1.103   6.463 -0.6630  0.5333  0.2552
 5216SOL     OW27109   3.179   4.061   8.235  0.3585  0.2043 -0.1050
 5216SOL    HW127110   3.106   4.040   8.292 -0.3497  0.1775 -1.0192
 5216SOL    HW227111   3.253   4.026   8.284  0.5073 -1.2973 -1.4005
 5217SOL     OW27112   4.370   4.109  13.079 -0.1534 -0.2478  0.2489
 5217SOL    HW127113   4.381   4.039  13.144 -1.1736  0.4658  1.1823
 5217SOL    HW227114   4.316   4.168  13.131 -1.5974  0.7003 -2.3338
 5218SOL     OW27115   0.789   1.961   6.107 -0.5776 -0.1838 -0.0032
 5218SOL    HW127116   0.792   1.918   6.021 -1.6053  2.4362 -1.3542
 5218SOL    HW227117   0.695   1.965   6.122 -0.7977 -0.4667 -1.2896
 5219SOL     OW27118   4.462   4.495  13.502  0.3254  0.6130  0.3360
 5219SOL    HW127119   4.462   4.527  13.592 -0.6375  2.1798 -0.2255
 5219SOL    HW227120   4.472   4.404  13.528  3.1396  1.1265  1.0324
 5220SOL     OW27121   2.263   1.890   2.588  0.2118 -0.3651 -0.0552
 5220SOL    HW127122   2.250   1.980   2.557 -1.2510 -0.6186 -0.1574
 5220SOL    HW227123   2.181   1.843   2.574 -0.1831  0.3641 -0.2039
 5221SOL     OW27124   1.005   0.486   4.840  0.2547 -0.1046  1.0993
 5221SOL    HW127125   1.088   0.491   4.794 -0.8805  1.4065 -0.7482
 5221SOL    HW227126   1.008   0.571   4.884  0.0462  0.1032  0.7154
 5222SOL     OW27127   1.211   1.365   9.061 -0.3172  1.1465  0.3226
 5222SOL    HW127128   1.170   1.450   9.041 -0.4005  0.5371 -2.1207
 5222SOL    HW227129   1.283   1.372   8.998 -0.8805  0.4426 -0.4012
 5223SOL     OW27130   1.389   1.288   0.501  0.1110  0.0292  0.0004
 5223SOL    HW127131   1.339   1.330   0.571 -2.7943 -0.2685 -1.8832
 5223SOL    HW227132   1.458   1.349   0.475  0.6463  0.5907  2.7942
 5224SOL     OW27133   1.056   0.195   6.295  0.8642 -0.6815 -0.4550
 5224SOL    HW127134   1.108   0.129   6.340 -0.7152 -1.0640  0.8180
 5224SOL    HW227135   1.061   0.257   6.368 -0.0248  2.3205 -2.9338
 5225SOL     OW27136   2.771   2.846   8.711  0.0698 -0.3142  0.2578
 5225SOL    HW127137   2.846   2.802   8.750 -1.1380 -2.6774 -0.0991
 5225SOL    HW227138   2.812   2.930   8.691 -0.2433 -0.3281 -0.4611
 5226SOL     OW27139   3.214   0.851   2.650 -0.6243  0.0200  0.4220
 5226SOL    HW127140   3.262   0.911   2.592 -0.7475 -0.8959 -0.6202
 5226SOL    HW227141   3.284   0.795   2.682 -1.8817 -1.5780  0.3386
 5227SOL     OW27142   2.434   1.296   7.328 -0.0002  0.3179 -0.5615
 5227SOL    HW127143   2.483   1.356   7.385  1.4523 -0.5323 -0.9173
 5227SOL    HW227144   2.426   1.362   7.259  1.0697  2.1231  1.0395
 5228SOL     OW27145   0.208   2.021   2.192  0.2935  0.5444  0.0747
 5228SOL    HW127146   0.262   2.024   2.271 -0.2593 -1.0993  0.5234
 5228SOL    HW227147   0.255   1.953   2.143  1.7019  2.3124 -1.0226
 5229SOL     OW27148   3.665   0.498  15.369 -0.9961  0.2688  0.1134
 5229SOL    HW127149   3.693   0.560  15.302 -1.8652  1.3530  0.7447
 5229SOL    HW227150   3.577   0.520  15.401 -0.9965  1.5074 -0.7422
 5230SOL     OW27151   1.731   4.650   8.352 -0.3006  0.2165  0.1126
 5230SOL    HW127152   1.790   4.602   8.411  0.2062  0.7002 -0.0006
 5230SOL    HW227153   1.643   4.617   8.372 -0.7773  0.7180 -1.1422
 5231SOL     OW27154   1.553   3.746  15.990  0.2313 -0.0572  0.1442
 5231SOL    HW127155   1.538   3.655  15.963  0.4559  0.0067 -0.1856
 5231SOL    HW227156   1.516   3.794  15.916 -3.5966 -4.2076 -0.6341
 5232SOL     OW27157   2.914   4.545  17.441  0.3893  0.3148 -0.7674
 5232SOL    HW127158   2.967   4.623  17.426  0.6083  0.0260 -1.4703
 5232SOL    HW227159   2.959   4.478  17.389  0.0840 -0.2521 -0.3010
 5233SOL     OW27160   1.477   3.819   5.089 -0.3102  0.0213  0.4069
 5233SOL    HW127161   1.509   3.755   5.152  0.2457  0.8254  0.9531
 5233SOL    HW227162   1.389   3.827   5.125 -0.8750 -0.0389 -0.9701
 5234SOL     OW27163   1.189   2.670  14.125  0.4443 -0.1922  0.0548
 5234SOL    HW127164   1.278   2.643  14.146  1.1133  1.9418 -0.0012
 5234SOL    HW227165   1.193   2.765  14.140  0.5872 -0.2771  0.5373
 5235SOL     OW27166   2.151   1.158   2.135  0.1363 -0.0636  0.1494
 5235SOL    HW127167   2.189   1.198   2.057 -0.6848  3.4579  1.5270
 5235SOL    HW227168   2.173   1.228   2.197  0.0838 -0.4214  0.5765
 5236SOL     OW27169   2.203   3.517   9.490 -0.1571  0.5123  0.6323
 5236SOL    HW127170   2.282   3.468   9.514  1.1247  0.9264 -2.7305
 5236SOL    HW227171   2.204   3.586   9.555  0.2566  0.6056  0.5288
 5237SOL     OW27172   0.502   4.510  13.602 -0.1470 -0.4898 -0.5890
 5237SOL    HW127173   0.521   4.419  13.627  0.0076 -0.7254 -1.5696
 5237SOL    HW227174   0.493   4.496  13.508 -0.8037 -0.2709 -0.5577
 5238SOL     OW27175   1.572   3.495   7.926  0.2308  0.1895  0.1058
 5238SOL    HW127176   1.523   3.421   7.963  0.0923 -0.3806 -1.1970
 5238SOL    HW227177   1.502   3.542   7.881 -0.6451  0.1951  1.4586
 5239SOL     OW27178   2.244   4.451  17.580 -0.1510  0.1097 -0.6262
 5239SOL    HW127179   2.297   4.407  17.646 -1.0548 -0.4467 -0.2700
 5239SOL    HW227180   2.179   4.383  17.565 -0.2386  0.2098 -0.6990
 5240SOL     OW27181   3.684   1.221   5.000  0.1734  0.1404  0.5270
 5240SOL    HW127182   3.667   1.254   4.912 -1.4435  0.5729  1.0079
 5240SOL    HW227183   3.778   1.204   4.989  0.4729  2.0999  0.1611
 5241SOL     OW27184   0.994   1.541   7.821 -0.4991  0.6559  0.4936
 5241SOL    HW127185   1.085   1.538   7.790 -1.0488 -0.3091 -1.0420
 5241SOL    HW227186   1.012   1.473   7.887 -1.1489  0.3363  0.3397
 5242SOL     OW27187   1.658   2.743   2.518  0.2378  0.0592 -0.2909
 5242SOL    HW127188   1.680   2.722   2.427  0.4515 -0.5445 -0.0984
 5242SOL    HW227189   1.741   2.721   2.560 -0.2942 -0.5165  0.4502
 5243SOL     OW27190   3.855   1.087   7.248 -0.1588  0.0915 -0.5114
 5243SOL    HW127191   3.911   1.163   7.263  0.3801  0.3839 -4.0366
 5243SOL    HW227192   3.898   1.020   7.302  0.8990  1.0371 -0.1642
 5244SOL     OW27193   4.504   3.095   9.469 -0.2751 -0.2934  0.2854
 5244SOL    HW127194   4.490   3.174   9.521 -1.8568  0.0490 -0.6586
 5244SOL    HW227195   4.567   3.123   9.403 -0.0484 -0.3291  0.4840
 5245SOL     OW27196   0.323   3.311   2.388  0.3061 -0.4192 -0.3320
 5245SOL    HW127197   0.236   3.274   2.400 -0.7057  2.2405  0.6297
 5245SOL    HW227198   0.358   3.318   2.477  0.6690  2.2726 -0.6926
 5246SOL     OW27199   3.636   3.624   8.504  0.0773  0.3036  0.2757
 5246SOL    HW127200   3.632   3.689   8.433  2.4468  0.2932  0.1419
 5246SOL    HW227201   3.720   3.647   8.544 -0.1196  0.9253  0.3251
 5247SOL     OW27202   0.007   2.707   7.666 -0.2335 -0.1207 -0.3708
 5247SOL    HW127203   4.656   2.716   7.725  0.8466 -2.5191  1.3491
 5247SOL    HW227204   4.688   2.681   7.584  0.1076 -0.9734 -0.2827
 5248SOL     OW27205   3.405   0.780   2.265  0.0725 -0.8187  0.0350
 5248SOL    HW127206   3.382   0.873   2.255  0.0338 -0.8638 -0.2994
 5248SOL    HW227207   3.472   0.788   2.333 -0.7705 -2.0308  0.9957
 5249SOL     OW27208   0.260   3.388   9.962 -0.1030 -0.3190  0.4728
 5249SOL    HW127209   0.354   3.368   9.969  0.2343  1.0872 -0.0585
 5249SOL    HW227210   0.240   3.340   9.882 -1.8764  1.0526  0.1034
 5250SOL     OW27211   1.204   1.714  15.304  0.4379  0.2842 -0.8384
 5250SOL    HW127212   1.199   1.682  15.214  1.4208  1.0209 -1.1599
 5250SOL    HW227213   1.122   1.681  15.340  1.6257  0.7812  2.3589
 5251SOL     OW27214   2.270   0.647   4.213 -0.2400 -0.4010 -0.1487
 5251SOL    HW127215   2.314   0.576   4.166 -0.8587 -1.5943  1.0708
 5251SOL    HW227216   2.319   0.662   4.294  1.8450  0.1655 -1.4999
 5252SOL     OW27217   1.360   4.123   6.161  0.1207  0.0613 -0.1361
 5252SOL    HW127218   1.428   4.157   6.220  2.2718 -3.1080 -0.8128
 5252SOL    HW227219   1.353   4.196   6.099 -0.6089  0.2615  0.1811
 5253SOL     OW27220   2.567   1.020   7.260  0.0264  0.5430  0.3195
 5253SOL    HW127221   2.525   0.936   7.278 -0.0689  0.7570  1.1239
 5253SOL    HW227222   2.506   1.079   7.305  0.3158 -0.1419  1.6301
 5254SOL     OW27223   4.589   0.479  16.435 -0.0608 -0.0380 -0.0240
 5254SOL    HW127224   4.617   0.484  16.343  1.2929  2.5377  0.5164
 5254SOL    HW227225   4.628   0.559  16.471  1.2573 -0.1804 -1.1304
 5255SOL     OW27226   0.502   3.332   8.150 -0.2997 -0.0504 -0.0714
 5255SOL    HW127227   0.552   3.414   8.151 -1.2057  0.5643 -2.7928
 5255SOL    HW227228   0.418   3.370   8.175 -0.5273 -0.6044 -0.0127
 5256SOL     OW27229   3.697   4.408   7.981  0.5208  0.3032  0.2391
 5256SOL    HW127230   3.647   4.480   8.019 -1.0163 -0.6281  0.0145
 5256SOL    HW227231   3.782   4.402   8.025  1.7466  0.7549 -2.0716
 5257SOL     OW27232   2.240   0.539  13.417  0.0187 -0.2194 -0.3897
 5257SOL    HW127233   2.195   0.552  13.500  0.4140 -0.3937 -0.1536
 5257SOL    HW227234   2.161   0.533  13.362 -1.6376 -2.0677  2.1898
 5258SOL     OW27235   1.524   3.694  11.779 -0.4570  0.1456  0.0016
 5258SOL    HW127236   1.507   3.762  11.715  1.2296  1.0662  0.5437
 5258SOL    HW227237   1.619   3.681  11.774 -0.7770 -1.4340 -1.8898
 5259SOL     OW27238   3.115   1.115   4.310 -0.4124  0.7810  0.5106
 5259SOL    HW127239   3.152   1.198   4.280  1.8735 -0.5326 -0.3793
 5259SOL    HW227240   3.156   1.113   4.396  0.5421  0.0905  0.0492
 5260SOL     OW27241   2.001   3.769  10.444  0.0693 -0.1676  0.1665
 5260SOL    HW127242   2.055   3.711  10.391 -2.6545 -1.4672 -1.2115
 5260SOL    HW227243   1.918   3.724  10.459 -0.0337 -0.7352 -1.9907
 5261SOL     OW27244   4.186   4.104   6.868  0.0990  0.2025  0.2890
 5261SOL    HW127245   4.184   4.114   6.963  1.4361  0.5483  0.2865
 5261SOL    HW227246   4.206   4.012   6.853 -2.0181  0.2240 -2.6534
 5262SOL     OW27247   4.081   2.762   3.460  0.3859  0.4069  0.4792
 5262SOL    HW127248   4.064   2.781   3.368 -0.4619 -1.7938  0.1887
 5262SOL    HW227249   4.171   2.728   3.463  0.9266  1.9557  1.4469
 5263SOL     OW27250   3.223   1.964  16.272 -0.1903  0.1772 -1.0338
 5263SOL    HW127251   3.154   1.898  16.277  0.2451 -0.0437  2.0502
 5263SOL    HW227252   3.256   1.947  16.360  0.3778  0.1053 -1.2589
 5264SOL     OW27253   2.036   0.421  13.279  0.0766 -0.3201  0.0294
 5264SOL    HW127254   1.950   0.402  13.315  0.4875  2.7230  2.5679
 5264SOL    HW227255   2.069   0.332  13.263  0.5291 -0.1671  0.0960
 5265SOL     OW27256   2.825   1.523  11.387  0.5584 -0.1632 -0.2309
 5265SOL    HW127257   2.884   1.450  11.403  0.9287  0.3301  0.6196
 5265SOL    HW227258   2.821   1.513  11.291 -0.7185  0.6956 -0.2748
 5266SOL     OW27259   4.415   0.028   8.735  0.9169 -0.1835  0.6301
 5266SOL    HW127260   4.414   0.093   8.805  2.1163  0.6602 -0.1357
 5266SOL    HW227261   4.334   4.703   8.750  0.9842 -0.2694  0.7184
 5267SOL     OW27262   2.392   3.924  17.479 -0.3308 -0.0503  0.2249
 5267SOL    HW127263   2.364   3.902  17.390  2.7295  0.2787 -0.8165
 5267SOL    HW227264   2.315   3.895  17.529 -1.8446  0.2133 -1.9534
 5268SOL     OW27265   4.204   2.060   3.876 -0.4858  0.4798 -0.4378
 5268SOL    HW127266   4.298   2.052   3.894 -0.5247  1.2227  0.0760
 5268SOL    HW227267   4.182   2.136   3.930  1.5971  1.7988 -1.4525
 5269SOL     OW27268   2.436   2.796   7.785 -0.1934  0.2175 -0.3621
 5269SOL    HW127269   2.408   2.721   7.838  0.1460 -2.0155 -3.3757
 5269SOL    HW227270   2.365   2.859   7.796  1.1835  1.7155 -0.1724
 5270SOL     OW27271   4.563   4.370   6.091  0.2669 -0.4014 -0.2735
 5270SOL    HW127272   4.489   4.320   6.058  0.0062 -0.1959 -0.0011
 5270SOL    HW227273   4.534   4.400   6.178 -0.3197  0.6479 -0.8276
 5271SOL     OW27274   0.367   2.912   5.233  0.4144  0.0693  0.6850
 5271SOL    HW127275   0.336   2.965   5.159  1.3067 -0.1217  0.1724
 5271SOL    HW227276   0.452   2.953   5.248  0.5488  0.6005 -1.5540
 5272SOL     OW27277   2.105   1.305   1.204 -0.2666 -0.2228  0.2876
 5272SOL    HW127278   2.138   1.390   1.233  1.0296 -0.7221  0.2660
 5272SOL    HW227279   2.061   1.273   1.282  1.2807  0.5706  1.4742
 5273SOL     OW27280   2.246   3.161   4.463 -0.2726  0.2770  0.2646
 5273SOL    HW127281   2.293   3.087   4.502  0.0968  1.1005  1.3710
 5273SOL    HW227282   2.282   3.168   4.374  0.0693 -1.5285  0.2575
 5274SOL     OW27283   4.478   0.171   3.514 -0.6714 -0.0172  0.4524
 5274SOL    HW127284   4.461   0.099   3.575 -1.5540  0.9090  1.2867
 5274SOL    HW227285   4.533   0.137   3.443  0.1336 -0.3791  1.2548
 5275SOL     OW27286   1.497   4.679   7.157  0.2096  0.0589 -0.4021
 5275SOL    HW127287   1.424   0.012   7.185  0.8947  1.3057 -1.1122
 5275SOL    HW227288   1.533   0.011   7.088 -0.2527  1.7131  0.6840
 5276SOL     OW27289   3.827   1.768   3.889 -0.3977  0.0204  0.2074
 5276SOL    HW127290   3.804   1.735   3.802  0.2403  2.1855 -0.7726
 5276SOL    HW227291   3.902   1.820   3.861  0.4390 -1.5079 -0.3803
 5277SOL     OW27292   4.631   2.344   3.388 -0.0253 -0.3260 -0.2060
 5277SOL    HW127293   4.542   2.348   3.424  1.4459  1.1364  3.2387
 5277SOL    HW227294   4.676   2.305   3.462 -0.6032  0.1293  0.3826
 5278SOL     OW27295   2.151   4.140   3.373 -0.3591 -0.1758 -0.0384
 5278SOL    HW127296   2.167   4.233   3.387  0.2285 -0.6248  2.3774
 5278SOL    HW227297   2.093   4.112   3.444 -0.7919 -1.1828 -0.8005
 5279SOL     OW27298   0.047   3.045   5.355  0.2982  0.5903  0.3722
 5279SOL    HW127299   0.048   3.057   5.450 -1.6376  0.5347  0.3900
 5279SOL    HW227300   0.088   2.958   5.356 -2.3604 -0.6647  0.0865
 5280SOL     OW27301   0.881   2.705   6.138  0.2329  0.2543 -0.0071
 5280SOL    HW127302   0.973   2.696   6.162  1.1937 -0.2820 -3.8466
 5280SOL    HW227303   0.854   2.780   6.191 -0.6821 -0.3900  0.4289
 5281SOL     OW27304   1.339   0.041   9.863  0.5178  0.2322  0.6665
 5281SOL    HW127305   1.377   0.038   9.776  0.6654  1.3684  0.7012
 5281SOL    HW227306   1.284   0.119   9.862 -2.3142 -1.8150 -2.4124
 5282SOL     OW27307   2.546   4.460   8.007 -0.2021 -0.2593  0.0590
 5282SOL    HW127308   2.548   4.380   7.955  1.8303 -0.2236  0.0917
 5282SOL    HW227309   2.452   4.479   8.010  0.1494  1.6712 -1.1715
 5283SOL     OW27310   4.269   0.758  16.422 -0.1264  0.0455 -0.2812
 5283SOL    HW127311   4.194   0.817  16.415 -1.1177 -1.3184 -1.1470
 5283SOL    HW227312   4.240   0.684  16.370  1.3683  0.3498 -1.5608
 5284SOL     OW27313   2.802   0.343   8.833 -0.4640 -0.4745 -0.0075
 5284SOL    HW127314   2.833   0.252   8.827  3.1896  0.7130  0.9503
 5284SOL    HW227315   2.719   0.333   8.880 -1.0977  1.4001 -0.7436
 5285SOL     OW27316   3.755   1.808   8.451  0.0298 -0.5132 -0.0170
 5285SOL    HW127317   3.706   1.872   8.399  0.7358  1.5636  1.8941
 5285SOL    HW227318   3.814   1.783   8.380  0.7837 -1.0901  0.8030
 5286SOL     OW27319   0.349   3.683   5.258 -0.0667  0.3790  0.6016
 5286SOL    HW127320   0.356   3.588   5.266  1.8568  0.5693  1.1691
 5286SOL    HW227321   0.261   3.693   5.293 -0.0776 -0.1091  0.7176
 5287SOL     OW27322   4.207   4.371   6.747  0.0993 -0.3929 -0.1914
 5287SOL    HW127323   4.135   4.405   6.800 -0.6154 -1.0217 -0.7486
 5287SOL    HW227324   4.205   4.281   6.778  2.6755 -1.1994 -2.3670
 5288SOL     OW27325   1.326   1.273   2.172  0.5123 -0.0296  0.3819
 5288SOL    HW127326   1.372   1.348   2.135  3.0158 -1.0488  1.3978
 5288SOL    HW227327   1.385   1.250   2.244 -0.5401 -1.4961  0.7777
 5289SOL     OW27328   1.541   3.544   0.053  0.3760  0.8029  0.2310
 5289SOL    HW127329   1.499   3.478  17.693 -0.8476  1.5841  0.2008
 5289SOL    HW227330   1.476   3.614   0.040  0.1045  0.4358 -0.4224
 5290SOL     OW27331   2.132   4.614  11.276 -0.3581 -0.2133 -0.0907
 5290SOL    HW127332   2.149   4.699  11.236 -1.5793  1.2107  2.4611
 5290SOL    HW227333   2.212   4.562  11.263 -0.5839  0.0558 -2.4934
 5291SOL     OW27334   2.918   3.607   6.976 -0.3052 -0.1518 -0.4390
 5291SOL    HW127335   2.908   3.659   6.896 -1.0289 -1.8527 -1.4444
 5291SOL    HW227336   2.993   3.646   7.022 -0.0101 -0.7975 -0.3754
 5292SOL     OW27337   0.347   3.085   7.569  0.4316 -0.3058  0.2431
 5292SOL    HW127338   0.399   3.038   7.503 -0.2510 -0.6726 -0.0370
 5292SOL    HW227339   0.280   3.017   7.574  0.4501 -0.4682 -1.8321
 5293SOL     OW27340   3.453   0.600   9.254  0.1095  0.7287  0.1512
 5293SOL    HW127341   3.474   0.682   9.210  1.0290  1.0142  1.1119
 5293SOL    HW227342   3.526   0.555   9.212 -1.9711 -3.3477  0.9130
 5294SOL     OW27343   1.759   4.070   8.876 -0.6462 -0.3109 -1.0101
 5294SOL    HW127344   1.693   4.031   8.819  1.9208 -1.2833 -3.3352
 5294SOL    HW227345   1.702   4.121   8.934 -0.4907  1.2253 -2.2073
 5295SOL     OW27346   0.704   4.364   3.665  0.3314 -0.3390 -0.1269
 5295SOL    HW127347   0.684   4.336   3.576 -3.3664  1.7301  0.0426
 5295SOL    HW227348   0.670   4.452   3.651 -1.8853 -1.0229  1.0177
 5296SOL     OW27349   4.497   2.459   3.656  0.6963  0.0204 -0.2588
 5296SOL    HW127350   4.477   2.464   3.749  0.0095 -0.2473 -0.3955
 5296SOL    HW227351   4.591   2.480   3.656  0.3015  1.8018  2.4945
 5297SOL     OW27352   1.423   0.046   1.851  0.5101 -0.0435  0.0584
 5297SOL    HW127353   1.413   4.693   1.795 -0.9745  0.0131  0.2393
 5297SOL    HW227354   1.364   0.101   1.800 -0.9043  1.7421  3.5919
 5298SOL     OW27355   1.633   1.344   7.765 -0.4022 -0.6161 -0.3395
 5298SOL    HW127356   1.613   1.302   7.682 -1.5249  0.1043 -0.4361
 5298SOL    HW227357   1.547   1.358   7.806  0.5681  1.0419  1.1593
 5299SOL     OW27358   0.742   0.065   8.808 -0.3340  0.0086  0.4367
 5299SOL    HW127359   0.712   4.714   8.858  0.0335  0.7033  1.6827
 5299SOL    HW227360   0.779   0.010   8.739  1.4831  0.0307  1.4024
 5300SOL     OW27361   1.352   0.643   0.469 -0.4977 -0.2804 -0.2717
 5300SOL    HW127362   1.343   0.564   0.522 -0.3354 -0.2017 -0.1291
 5300SOL    HW227363   1.307   0.705   0.526  0.6273  0.9447 -0.7238
 5301SOL     OW27364   3.265   3.484   3.795  0.1159  0.2705 -0.0221
 5301SOL    HW127365   3.340   3.430   3.772  2.1859  1.7826  3.1948
 5301SOL    HW227366   3.191   3.447   3.746  0.4750  2.0129 -1.8734
 5302SOL     OW27367   2.075   3.097   6.564  0.0325  0.1861 -0.8573
 5302SOL    HW127368   2.088   3.181   6.609  1.7832 -0.0807 -0.8368
 5302SOL    HW227369   2.152   3.049   6.595 -0.2853 -0.4092 -1.0071
 5303SOL     OW27370   1.887   3.969   6.703  0.0614  0.7492 -0.8410
 5303SOL    HW127371   1.957   3.930   6.755 -0.4570  1.6614  0.5376
 5303SOL    HW227372   1.916   4.060   6.699 -0.2183  0.8218 -1.2263
 5304SOL     OW27373   0.496   1.959   9.441  0.1975 -1.1558  0.5654
 5304SOL    HW127374   0.445   1.926   9.515 -2.1458  0.9402 -0.1465
 5304SOL    HW227375   0.583   1.919   9.450  0.1352 -1.5714 -0.7414
 5305SOL     OW27376   2.337   3.907   3.390  0.5833  0.5852  0.2610
 5305SOL    HW127377   2.409   3.966   3.414  0.3466  0.8607  0.2835
 5305SOL    HW227378   2.270   3.971   3.371 -2.2136 -2.1000  1.1112
 5306SOL     OW27379   3.775   3.387   6.336  0.0306 -0.4372  0.3605
 5306SOL    HW127380   3.777   3.438   6.416 -1.0427  0.0370  0.0926
 5306SOL    HW227381   3.690   3.347   6.354  1.1899 -2.9009  0.3371
 5307SOL     OW27382   2.849   3.314   8.208  0.0671  0.0562  0.1764
 5307SOL    HW127383   2.850   3.311   8.303  1.7260 -4.1298  0.0303
 5307SOL    HW227384   2.886   3.229   8.184 -0.7887 -0.2235 -0.1617
 5308SOL     OW27385   0.558   2.356   2.923  0.2579  0.0437 -0.4434
 5308SOL    HW127386   0.544   2.309   3.005  0.4783  0.0454 -0.4038
 5308SOL    HW227387   0.530   2.291   2.860 -0.9126 -0.2782  0.4083
 5309SOL     OW27388   0.822   4.355   9.191  0.5531 -0.3312 -0.5077
 5309SOL    HW127389   0.810   4.294   9.264 -2.3943 -1.1243 -1.6234
 5309SOL    HW227390   0.875   4.417   9.240  0.4739 -0.8893  0.2834
 5310SOL     OW27391   4.039   1.982   8.093  0.5063  0.9334  0.2254
 5310SOL    HW127392   3.978   2.054   8.080 -1.2524 -0.7757 -0.8595
 5310SOL    HW227393   4.019   1.960   8.184 -1.9321  1.8463 -0.1086
 5311SOL     OW27394   3.142   2.732   9.124 -0.5864 -0.4642  0.0133
 5311SOL    HW127395   3.146   2.656   9.182  1.9379 -0.9860 -0.8489
 5311SOL    HW227396   3.200   2.796   9.164 -1.9442  1.0757 -0.5121
 5312SOL     OW27397   2.029   0.815   0.999 -0.2190  0.5887  0.4338
 5312SOL    HW127398   1.984   0.843   1.079  1.5065  2.2750  0.8155
 5312SOL    HW227399   2.107   0.869   0.987 -0.1335  0.8273  2.0835
 5313SOL     OW27400   2.119   0.261   2.031  0.0065  0.1559 -0.2545
 5313SOL    HW127401   2.166   0.301   1.958  2.8464  1.4667  2.3237
 5313SOL    HW227402   2.036   0.238   1.988  0.2634 -1.3768  0.0554
 5314SOL     OW27403   3.660   2.829   2.991 -0.1471  0.2579 -0.4648
 5314SOL    HW127404   3.609   2.889   3.045  0.2926  0.4836 -0.2997
 5314SOL    HW227405   3.674   2.888   2.916 -0.8993  1.1312  0.0701
 5315SOL     OW27406   4.248   1.925   3.017 -0.3366  0.6896 -0.2544
 5315SOL    HW127407   4.342   1.935   3.028 -0.4445 -1.3254  2.3460
 5315SOL    HW227408   4.221   2.014   2.992 -0.8265  0.3442 -0.9668
 5316SOL     OW27409   0.740   3.676   9.207  0.1769 -0.3384  0.0563
 5316SOL    HW127410   0.723   3.710   9.119 -1.0274  0.3680  0.5553
 5316SOL    HW227411   0.834   3.669   9.193  0.2503  0.6500  0.0618
 5317SOL     OW27412   3.992   3.652   8.520  0.2367  0.5977 -0.7421
 5317SOL    HW127413   3.919   3.709   8.543 -0.6307  0.3648 -2.9118
 5317SOL    HW227414   4.026   3.708   8.450  2.7686 -2.3958 -1.8956
 5318SOL     OW27415   2.633   3.732   3.648  0.8129  0.2790  0.2994
 5318SOL    HW127416   2.639   3.652   3.597 -0.1946 -0.1257  0.8151
 5318SOL    HW227417   2.686   3.786   3.589 -1.2994 -1.9668 -3.6251
 5319SOL     OW27418   0.677   3.501   4.268  0.2690  0.4372  0.2028
 5319SOL    HW127419   0.657   3.463   4.182  0.3770 -4.2897  2.2519
 5319SOL    HW227420   0.754   3.457   4.305 -1.0613 -0.4765  1.8923
 5320SOL     OW27421   3.583   3.109   7.426 -0.4718  0.1354 -0.0459
 5320SOL    HW127422   3.564   3.107   7.332  0.6197 -1.5043 -0.2334
 5320SOL    HW227423   3.666   3.157   7.431  0.7426 -2.0332  0.4057
 5321SOL     OW27424   0.610   1.359   7.331 -0.5164  0.2863  0.1133
 5321SOL    HW127425   0.659   1.355   7.249 -1.4198  2.1593 -0.5316
 5321SOL    HW227426   0.539   1.299   7.309  0.5154 -0.7625 -0.3444
 5322SOL     OW27427   0.319   3.631   3.264  0.0280 -0.1131  0.2026
 5322SOL    HW127428   0.242   3.672   3.224  0.5079  1.6412  1.0749
 5322SOL    HW227429   0.309   3.667   3.353 -0.4240  0.8711 -0.2445
 5323SOL     OW27430   0.623   1.140  11.519  0.0612 -0.3439 -0.3579
 5323SOL    HW127431   0.645   1.231  11.536 -0.7786 -0.3202  0.6078
 5323SOL    HW227432   0.609   1.102  11.606 -2.6396 -1.1216 -1.1337
 5324SOL     OW27433   2.090   3.093  13.913  0.2571 -0.0186 -0.3731
 5324SOL    HW127434   2.003   3.117  13.880  0.1170  0.2673  0.1965
 5324SOL    HW227435   2.090   2.998  13.900  0.8925 -0.3549  2.0514
 5325SOL     OW27436   4.132   1.622   9.562  0.3168  0.0807 -0.1714
 5325SOL    HW127437   4.126   1.615   9.467  1.0481 -0.8101 -0.1596
 5325SOL    HW227438   4.194   1.550   9.579 -0.1188  0.2272  2.0289
 5326SOL     OW27439   1.784   3.206   3.945 -0.1165  0.2880  0.1275
 5326SOL    HW127440   1.778   3.265   4.021 -0.2648 -0.1380  0.4464
 5326SOL    HW227441   1.775   3.264   3.869 -2.1335 -0.7685 -0.4280
 5327SOL     OW27442   0.793   4.553   8.324 -0.3349 -0.0494  0.3725
 5327SOL    HW127443   0.848   4.509   8.259  0.3079 -1.1080  1.6400
 5327SOL    HW227444   0.855   4.566   8.396  1.7137 -0.7161 -1.3030
 5328SOL     OW27445   4.027   3.675  17.099 -0.3585 -0.0343  0.8145
 5328SOL    HW127446   3.970   3.706  17.029  1.3395  1.4761  0.1053
 5328SOL    HW227447   4.036   3.584  17.069 -1.2127  0.4793 -1.0021
 5329SOL     OW27448   1.767   2.944   3.958 -0.1886 -0.0328 -0.1159
 5329SOL    HW127449   1.782   3.038   3.964  0.4061 -0.2443  1.6960
 5329SOL    HW227450   1.682   2.957   3.918 -0.6163  1.5354  1.3395
 5330SOL     OW27451   0.730   2.558   9.593 -0.1677  0.1229 -0.5900
 5330SOL    HW127452   0.718   2.619   9.519  2.5482 -0.0831 -1.2145
 5330SOL    HW227453   0.824   2.564   9.607 -0.1232  0.3801 -0.9879
 5331SOL     OW27454   1.805   3.702  13.733 -0.4816 -0.2794  0.6187
 5331SOL    HW127455   1.851   3.644  13.673  0.6784 -1.6276  2.8132
 5331SOL    HW227456   1.834   3.669  13.818 -0.9938  1.0090  1.3144
 5332SOL     OW27457   3.028   2.321  16.883 -0.1865 -0.1047 -0.5488
 5332SOL    HW127458   2.955   2.270  16.848 -0.8400  1.3966 -1.3610
 5332SOL    HW227459   3.050   2.261  16.954 -3.3467  0.4914  0.9324
 5333SOL     OW27460   0.002   2.508  17.636  0.2316  0.1157  1.2541
 5333SOL    HW127461   0.003   2.552  17.551 -1.8921  0.6927  1.5439
 5333SOL    HW227462   4.698   2.587  17.682  0.7758  0.3985  1.0996
 5334SOL     OW27463   4.443   4.167   3.492 -0.1196  0.3982  0.4843
 5334SOL    HW127464   4.454   4.137   3.402  0.2258 -1.3947  1.1247
 5334SOL    HW227465   4.354   4.203   3.494 -0.8139 -1.3959  2.1021
 5335SOL     OW27466   4.651   2.255  12.635 -0.1914  0.2654 -0.0959
 5335SOL    HW127467   4.666   2.166  12.667 -2.1637 -0.3963 -1.0144
 5335SOL    HW227468   4.568   2.274  12.678  0.7323  0.7255  1.4750
 5336SOL     OW27469   3.803   1.131  16.051  0.5342 -0.4212 -0.0029
 5336SOL    HW127470   3.749   1.176  16.116  0.8128  0.7549 -0.5797
 5336SOL    HW227471   3.794   1.197  15.982 -1.1522  0.6144  1.1987
 5337SOL     OW27472   0.808   4.071   1.435 -0.3574  0.1353  0.5740
 5337SOL    HW127473   0.863   4.015   1.380  1.6657  1.4903  1.2356
 5337SOL    HW227474   0.782   4.137   1.371  3.4433 -0.6624 -1.7687
 5338SOL     OW27475   1.242   4.010  10.225 -0.1085  0.5751 -0.4189
 5338SOL    HW127476   1.188   3.978  10.297 -0.0720 -2.4822 -1.7283
 5338SOL    HW227477   1.329   4.018  10.264  0.4960  0.9369 -1.8359
 5339SOL     OW27478   3.451   4.674   9.479 -0.4481 -0.6389  0.6384
 5339SOL    HW127479   3.511   4.688   9.552  1.8628 -1.3592 -1.0929
 5339SOL    HW227480   3.392   4.607   9.512 -1.3805  0.6504  1.5798
 5340SOL     OW27481   3.106   3.552   3.061  0.1669 -0.0260 -0.2327
 5340SOL    HW127482   3.190   3.598   3.055  0.1341  0.1894  0.8929
 5340SOL    HW227483   3.144   3.466   3.041  0.0967  0.0140 -0.5277
 5341SOL     OW27484   3.192   0.962  12.676  0.0962  0.1715  0.6059
 5341SOL    HW127485   3.228   0.924  12.595 -0.3477  0.9433  0.0560
 5341SOL    HW227486   3.171   0.885  12.729 -2.9381 -0.8297 -2.0173
 5342SOL     OW27487   4.709   0.178   6.344 -0.1265  0.0255 -0.2168
 5342SOL    HW127488   4.695   0.138   6.430 -0.1304  0.5132  0.0071
 5342SOL    HW227489   4.618   0.177   6.315 -0.3732  0.6246  0.5392
 5343SOL     OW27490   3.274   4.247   2.938 -0.1632 -0.3175 -0.6495
 5343SOL    HW127491   3.300   4.185   3.005  0.2907 -1.0880 -1.5332
 5343SOL    HW227492   3.179   4.249   2.948  0.0807 -0.3465  1.6066
 5344SOL     OW27493   1.081   2.933   2.351  0.4124  0.0434  0.4265
 5344SOL    HW127494   1.134   2.854   2.362 -0.2756 -0.3224  1.0542
 5344SOL    HW227495   0.998   2.890   2.371 -0.6336  1.6082 -0.5628
 5345SOL     OW27496   3.981   1.066   1.421  0.3246 -0.1138 -0.1947
 5345SOL    HW127497   3.993   0.988   1.475 -0.0690  0.4250  0.6626
 5345SOL    HW227498   3.922   1.044   1.349  0.9550  1.6716 -1.2664
 5346SOL     OW27499   2.784   3.826   9.322 -0.3337  0.2771 -0.1836
 5346SOL    HW127500   2.792   3.856   9.231  1.1224 -1.3882 -0.6033
 5346SOL    HW227501   2.712   3.769   9.297  0.0377  0.1195 -0.8841
 5347SOL     OW27502   0.473   4.421   5.504  0.8256 -0.1557 -0.3497
 5347SOL    HW127503   0.394   4.474   5.491  0.3041 -0.5478  1.2391
 5347SOL    HW227504   0.483   4.369   5.424  0.2182  0.3601 -0.7612
 5348SOL     OW27505   3.399   1.672   4.041 -0.2418  0.0585  0.1582
 5348SOL    HW127506   3.437   1.605   4.098  0.4259  2.5809  2.6605
 5348SOL    HW227507   3.347   1.617   3.981 -2.1289  1.9184  0.1022
 5349SOL     OW27508   3.854   2.404  12.765  0.2253 -0.1407 -0.5236
 5349SOL    HW127509   3.940   2.383  12.802  0.2984  1.6430  0.3599
 5349SOL    HW227510   3.807   2.420  12.847 -0.4683 -1.8995 -0.5837
 5350SOL     OW27511   2.004   1.317   3.282 -0.1002 -0.0426  0.2344
 5350SOL    HW127512   1.965   1.386   3.228  0.1380  0.3445  0.5481
 5350SOL    HW227513   1.993   1.365   3.365  0.0228 -0.8316  0.7069
 5351SOL     OW27514   1.587   4.595   7.386 -0.6802 -0.0802 -0.0345
 5351SOL    HW127515   1.672   4.599   7.343 -0.9526  1.5485 -0.4349
 5351SOL    HW227516   1.531   4.620   7.313 -0.2703 -1.7537 -0.9167
 5352SOL     OW27517   2.577   3.247   7.689 -0.1738  0.1370 -0.3702
 5352SOL    HW127518   2.656   3.217   7.734 -1.9798 -2.0600  1.3075
 5352SOL    HW227519   2.608   3.322   7.638  0.9359  0.0719  0.2017
 5353SOL     OW27520   4.589   1.676   8.905 -0.0188  0.0941  0.8136
 5353SOL    HW127521   4.654   1.608   8.920 -1.1193 -0.4708  3.0936
 5353SOL    HW227522   4.574   1.666   8.811  3.0238 -1.1668  0.4633
 5354SOL     OW27523   3.421   3.864   0.286 -0.0341 -0.6732  0.0455
 5354SOL    HW127524   3.432   3.896   0.196  0.0548 -1.4508 -0.2171
 5354SOL    HW227525   3.417   3.947   0.332  1.3839 -0.5323 -0.0744
 5355SOL     OW27526   4.225   1.009   9.363 -0.3883  0.0937  0.4718
 5355SOL    HW127527   4.220   1.004   9.267  0.3384 -1.5803  0.5239
 5355SOL    HW227528   4.195   0.922   9.390 -1.3832  0.7178  1.3503
 5356SOL     OW27529   1.312   1.483   1.847 -0.2786 -0.7719  0.0006
 5356SOL    HW127530   1.349   1.478   1.935  0.9852  0.8731 -0.4163
 5356SOL    HW227531   1.353   1.412   1.797  0.1344 -0.2963 -0.3460
 5357SOL     OW27532   1.063   2.544  10.864  0.4796  0.4280 -0.0152
 5357SOL    HW127533   0.985   2.506  10.823  1.0140  0.7113 -1.3038
 5357SOL    HW227534   1.089   2.611  10.800  0.1011  0.7342  0.1484
 5358SOL     OW27535   2.693   2.855   8.255 -0.2505  0.0434 -0.0538
 5358SOL    HW127536   2.732   2.878   8.339  0.3571 -1.6949  0.1384
 5358SOL    HW227537   2.619   2.799   8.279 -0.7916  0.2202 -1.3045
 5359SOL     OW27538   2.835   1.010   3.883  0.3846 -0.0711  0.6922
 5359SOL    HW127539   2.816   1.089   3.833 -1.8141 -1.9666 -1.5000
 5359SOL    HW227540   2.831   1.045   3.972  1.1717  3.5616 -0.7138
 5360SOL     OW27541   0.001   4.197   3.520 -0.3712 -0.4791 -0.3391
 5360SOL    HW127542   4.634   4.166   3.517  0.2097 -2.2171 -0.0836
 5360SOL    HW227543   0.033   4.146   3.446 -1.3865  0.4434 -1.4161
 5361SOL     OW27544   1.693   1.674   4.016 -0.4146 -0.6310  0.7334
 5361SOL    HW127545   1.687   1.599   3.957  0.0916  0.7270 -1.0435
 5361SOL    HW227546   1.741   1.637   4.090 -1.0904 -1.3521  0.8196
 5362SOL     OW27547   2.520   0.057  14.376  1.0422  0.3514 -0.3863
 5362SOL    HW127548   2.511   0.136  14.430  0.6515 -0.5115  0.8140
 5362SOL    HW227549   2.606   0.037  14.413  0.3898 -0.7485  0.5086
 5363SOL     OW27550   2.478   2.586   4.715  0.1142  0.6284  0.3964
 5363SOL    HW127551   2.430   2.600   4.797 -2.1427 -3.3532 -0.2322
 5363SOL    HW227552   2.562   2.630   4.728 -0.9404  2.5628  0.6278
 5364SOL     OW27553   3.313   4.571   2.938 -0.2257  0.0957  0.1766
 5364SOL    HW127554   3.380   4.625   2.897 -0.4602  0.0519 -0.2558
 5364SOL    HW227555   3.312   4.498   2.876  0.6966 -1.9755  2.5370
 5365SOL     OW27556   4.132   1.259  11.705 -0.0747 -0.0226  0.2660
 5365SOL    HW127557   4.223   1.287  11.716  1.1371 -2.4216 -3.3802
 5365SOL    HW227558   4.085   1.323  11.758 -0.9783 -1.7980  1.5965
 5366SOL     OW27559   2.534   4.524  11.489 -0.1158  0.2047 -0.1118
 5366SOL    HW127560   2.621   4.504  11.455 -0.6031 -0.3387 -1.0371
 5366SOL    HW227561   2.529   4.620  11.493  1.4271  0.3289 -1.2161
 5367SOL     OW27562   2.199   0.049   3.269 -0.0932 -0.3424  0.0231
 5367SOL    HW127563   2.262   0.104   3.224  0.5343 -0.1807  1.1034
 5367SOL    HW227564   2.119   0.100   3.260  1.6036  1.9870 -1.5467
 5368SOL     OW27565   3.204   3.544  16.347  0.1156  0.7802 -0.0301
 5368SOL    HW127566   3.136   3.526  16.282 -0.9196 -1.9428  1.7878
 5368SOL    HW227567   3.176   3.617  16.402 -1.2911  0.7835 -0.7400
 5369SOL     OW27568   0.388   3.268   0.885 -0.1407  0.0044 -0.1758
 5369SOL    HW127569   0.362   3.290   0.974 -0.2791  0.7395 -0.3945
 5369SOL    HW227570   0.351   3.339   0.832  1.0822 -0.5574 -1.8016
 5370SOL     OW27571   3.389   3.361   6.635 -0.5924  0.2467 -0.7281
 5370SOL    HW127572   3.305   3.343   6.679  0.5611 -0.1367  1.2983
 5370SOL    HW227573   3.363   3.349   6.544 -1.0560  0.1305 -0.5834
 5371SOL     OW27574   1.317   0.287   2.849 -0.6602 -0.0014 -0.1079
 5371SOL    HW127575   1.229   0.293   2.812  0.5122 -0.3450 -2.9319
 5371SOL    HW227576   1.357   0.220   2.793 -1.7023 -2.0005  1.5232
 5372SOL     OW27577   2.070   3.555   2.263  0.1879  0.2619  0.8933
 5372SOL    HW127578   2.109   3.599   2.187  0.7832 -0.0640  1.0097
 5372SOL    HW227579   2.149   3.552   2.318  2.0416 -0.5615 -1.8150
 5373SOL     OW27580   3.478   4.235  12.148  0.6095  0.7787 -0.4363
 5373SOL    HW127581   3.521   4.249  12.232 -0.7367  0.9226  0.2361
 5373SOL    HW227582   3.431   4.318  12.135  0.0325  0.4983 -0.1635
 5374SOL     OW27583   2.434   4.684   5.191  0.2276 -0.3586 -0.3237
 5374SOL    HW127584   2.431   4.706   5.098 -0.6357  3.4149  0.5684
 5374SOL    HW227585   2.495   4.611   5.193  0.8973  0.2100  0.0498
 5375SOL     OW27586   1.013   3.557  10.573  0.0731 -0.3468  0.3627
 5375SOL    HW127587   0.955   3.531  10.644  1.6865 -0.6151  1.5817
 5375SOL    HW227588   0.993   3.481  10.518 -3.4809  0.3760  0.6809
 5376SOL     OW27589   0.730   4.339  16.447 -0.4938  0.0642  0.2324
 5376SOL    HW127590   0.642   4.300  16.455 -0.0984 -0.6418  1.1886
 5376SOL    HW227591   0.736   4.375  16.359  1.5132 -1.8528 -0.3970
 5377SOL     OW27592   3.458   2.045   7.771 -0.1629  0.2595  0.2230
 5377SOL    HW127593   3.423   1.983   7.835  2.1263 -0.1817  1.0511
 5377SOL    HW227594   3.409   2.125   7.789  2.2305  1.1480  2.7079
 5378SOL     OW27595   2.178   0.310   4.392 -0.0761 -0.4052  0.1652
 5378SOL    HW127596   2.233   0.325   4.315 -1.6397 -0.2780 -0.9311
 5378SOL    HW227597   2.131   0.394   4.395  0.2942 -0.1965  0.2528
 5379SOL     OW27598   0.753   3.370   8.320 -0.0908  0.1627 -0.2668
 5379SOL    HW127599   0.723   3.453   8.283 -2.0374  0.6061  2.2986
 5379SOL    HW227600   0.670   3.323   8.318  0.0647 -0.0970 -0.4633
 5380SOL     OW27601   2.391   2.524   6.772 -0.0205  0.0531 -0.2860
 5380SOL    HW127602   2.299   2.526   6.745  0.5073  2.2320 -1.9181
 5380SOL    HW227603   2.384   2.511   6.867 -0.8756 -2.1281 -0.6351
 5381SOL     OW27604   2.359   2.873   3.453  0.2949  0.5909  0.4084
 5381SOL    HW127605   2.279   2.916   3.422  1.7555  1.8458 -1.6812
 5381SOL    HW227606   2.416   2.902   3.381 -1.5386  0.4992 -1.0752
 5382SOL     OW27607   2.367   2.486   6.332 -0.0111  0.6929 -0.3252
 5382SOL    HW127608   2.320   2.525   6.257  0.8771 -0.3004 -1.4003
 5382SOL    HW227609   2.430   2.433   6.283 -0.2695  0.4034 -0.3484
 5383SOL     OW27610   3.203   2.347   9.126  0.1483 -0.0307  0.5345
 5383SOL    HW127611   3.208   2.398   9.045  0.4502 -1.0900 -0.1312
 5383SOL    HW227612   3.137   2.281   9.101 -1.2126  1.0141  1.3752
 5384SOL     OW27613   1.094   0.123   8.550 -0.2082  0.6961  0.5830
 5384SOL    HW127614   1.168   0.092   8.602  0.1769 -2.2054 -1.6867
 5384SOL    HW227615   1.135   0.202   8.514 -1.8776  0.5369 -1.6459
 5385SOL     OW27616   0.687   1.397   4.531  0.6909 -0.4764 -0.1258
 5385SOL    HW127617   0.693   1.369   4.440 -0.1190  0.5606 -0.4947
 5385SOL    HW227618   0.705   1.491   4.526  1.4234 -0.8266 -3.9714
 5386SOL     OW27619   2.945   1.343   7.163 -0.1972  0.1037  0.4050
 5386SOL    HW127620   3.036   1.320   7.143 -0.4889 -1.4288  0.8369
 5386SOL    HW227621   2.941   1.436   7.183 -1.0105 -0.0607  1.0161
 5387SOL     OW27622   4.610   4.599   5.980  0.2103 -0.1218  0.1587
 5387SOL    HW127623   4.522   4.632   5.996  0.8198 -0.1473  3.5545
 5387SOL    HW227624   4.611   4.514   6.023 -2.9047 -0.9824 -1.5378
 5388SOL     OW27625   2.804   3.889   7.909  0.3784  0.8986 -0.7289
 5388SOL    HW127626   2.721   3.935   7.925  0.3961  0.4492  0.6476
 5388SOL    HW227627   2.835   3.931   7.829 -1.3244 -0.1760 -1.9548
 5389SOL     OW27628   3.135   0.796   6.406  0.3004  0.0650 -0.2968
 5389SOL    HW127629   3.062   0.834   6.358 -1.3604 -2.3132  0.3677
 5389SOL    HW227630   3.094   0.714   6.434 -1.5558  0.6976 -1.1994
 5390SOL     OW27631   4.565   1.993   6.200  0.0519 -0.4519 -0.1901
 5390SOL    HW127632   4.470   2.001   6.210 -0.1460  0.0903 -2.4922
 5390SOL    HW227633   4.599   2.059   6.261 -2.6173  0.9700 -0.2260
 5391SOL     OW27634   4.338   2.025   4.124 -0.0306  0.1557  0.7316
 5391SOL    HW127635   4.365   2.092   4.186 -1.7567 -0.5357  2.2308
 5391SOL    HW227636   4.419   1.974   4.125  0.3512  0.7459  0.0719
 5392SOL     OW27637   2.567   1.702   4.645  0.2481 -0.1181 -0.1260
 5392SOL    HW127638   2.601   1.613   4.640 -0.2901 -0.2448 -1.4865
 5392SOL    HW227639   2.544   1.713   4.737 -1.3558  0.8657 -0.6591
 5393SOL     OW27640   2.454   1.379   4.864  0.3335 -0.0767 -0.6688
 5393SOL    HW127641   2.529   1.366   4.806  1.3766 -0.6711  0.8075
 5393SOL    HW227642   2.457   1.474   4.869 -1.9052 -0.0793  0.8087
 5394SOL     OW27643   2.727   4.364   9.851  0.6356 -0.1510 -0.0975
 5394SOL    HW127644   2.747   4.364   9.945  0.2119 -0.6500 -0.0048
 5394SOL    HW227645   2.631   4.364   9.852  0.6276  0.1496 -0.7191
 5395SOL     OW27646   4.417   1.683   7.978  0.0848  0.1230 -0.2302
 5395SOL    HW127647   4.385   1.598   7.947  0.4788 -0.9356  2.2861
 5395SOL    HW227648   4.351   1.710   8.043  0.3173 -2.3536  1.0528
 5396SOL     OW27649   0.115   1.589  10.485  0.7177 -0.5042  0.3039
 5396SOL    HW127650   0.200   1.579  10.528  0.1560 -1.4229  1.1988
 5396SOL    HW227651   0.127   1.680  10.457 -0.9425 -0.2592  0.4146
 5397SOL     OW27652   0.751   0.169  13.196  0.2300 -0.0764  0.7141
 5397SOL    HW127653   0.659   0.156  13.174  0.8589  0.8869 -2.4762
 5397SOL    HW227654   0.780   0.232  13.130  1.2383  1.3407  2.4981
 5398SOL     OW27655   1.097   4.638   7.239  0.1503  0.1186  0.2022
 5398SOL    HW127656   1.014   4.636   7.287  0.2038 -1.1192  0.2209
 5398SOL    HW227657   1.076   4.583   7.163 -0.7248 -0.1686  0.6499
 5399SOL     OW27658   4.377   3.740   7.788  0.2931 -0.2328  0.2728
 5399SOL    HW127659   4.290   3.715   7.821 -0.4924  0.3926 -1.3002
 5399SOL    HW227660   4.430   3.661   7.786 -1.4219 -1.4057  0.8675
 5400SOL     OW27661   2.126   2.823   8.038  0.5555 -0.0905  0.5590
 5400SOL    HW127662   2.035   2.851   8.051  0.7364 -0.3651  2.4329
 5400SOL    HW227663   2.133   2.747   8.096 -3.5780  0.4846  1.8038
 5401SOL     OW27664   3.217   2.223   2.964  0.0184 -0.2293  0.1989
 5401SOL    HW127665   3.269   2.186   2.892 -0.9475 -0.4051 -0.4007
 5401SOL    HW227666   3.181   2.305   2.930 -1.5519 -0.0281  2.3610
 5402SOL     OW27667   1.240   4.551   0.487 -0.1092  0.1989  0.2821
 5402SOL    HW127668   1.335   4.538   0.493 -0.1775 -0.5667 -0.2873
 5402SOL    HW227669   1.222   4.643   0.470  0.9184  0.2336 -0.6496
 5403SOL     OW27670   3.132   0.234   9.507  0.3814 -0.1681  0.2910
 5403SOL    HW127671   3.045   0.194   9.509  0.5938 -0.4895  2.4594
 5403SOL    HW227672   3.184   0.190   9.439  1.2092  1.7598 -0.3235
 5404SOL     OW27673   4.416   0.387   5.663  0.3114  0.2000  0.5211
 5404SOL    HW127674   4.449   0.472   5.692  1.4087  0.0311 -0.2136
 5404SOL    HW227675   4.383   0.412   5.577  4.2928 -0.5169 -1.2093
 5405SOL     OW27676   0.262   2.194  16.136 -0.5772  0.3719  0.0081
 5405SOL    HW127677   0.284   2.239  16.217 -3.0172  0.9816  0.3143
 5405SOL    HW227678   0.327   2.231  16.076 -0.6731 -0.4288 -0.5879
 5406SOL     OW27679   3.611   4.423   4.150  0.0745  0.3597  0.0471
 5406SOL    HW127680   3.666   4.355   4.188 -0.7582 -1.0178 -1.2140
 5406SOL    HW227681   3.675   4.495   4.151  0.3453  0.1542 -1.5666
 5407SOL     OW27682   3.196   1.705  13.116 -0.2168  0.1397 -0.4901
 5407SOL    HW127683   3.166   1.639  13.179  0.0612 -0.9482 -1.4966
 5407SOL    HW227684   3.148   1.672  13.040 -0.9096  2.2596 -0.9640
 5408SOL     OW27685   3.494   1.806   9.547  0.0318  0.0338 -0.2553
 5408SOL    HW127686   3.520   1.808   9.639 -0.3127 -2.4556 -0.1067
 5408SOL    HW227687   3.473   1.899   9.538  1.8106  0.3938 -0.6320
 5409SOL     OW27688   4.556   4.521   1.256  0.1400  0.1058 -0.6851
 5409SOL    HW127689   4.583   4.457   1.322 -0.4434  0.0514 -0.4974
 5409SOL    HW227690   4.546   4.600   1.309  2.0021  1.1690 -1.9117
 5410SOL     OW27691   1.010   2.461   6.512 -0.1426  0.0629 -0.1894
 5410SOL    HW127692   1.041   2.383   6.466 -1.3580 -1.2267  1.1756
 5410SOL    HW227693   0.924   2.431   6.540 -0.7171  1.1663 -0.7516
 5411SOL     OW27694   3.807   4.207   2.528 -0.0954 -0.4189  0.8387
 5411SOL    HW127695   3.834   4.269   2.460  0.3445 -1.5159  0.0227
 5411SOL    HW227696   3.724   4.181   2.487  0.2701 -0.3516  0.0723
 5412SOL     OW27697   2.580   1.325   1.690  0.0040  0.1732 -0.4125
 5412SOL    HW127698   2.665   1.368   1.698  0.6846 -1.2465  0.0083
 5412SOL    HW227699   2.545   1.351   1.605  0.7464 -0.9386 -1.0520
 5413SOL     OW27700   3.517   2.328   9.032 -0.5362  0.1031 -0.0411
 5413SOL    HW127701   3.501   2.402   8.974 -0.0575 -0.1757 -0.5224
 5413SOL    HW227702   3.510   2.370   9.118 -1.8565  1.5154 -0.8323
 5414SOL     OW27703   1.203   0.672   0.783  0.1341  0.3403 -0.1435
 5414SOL    HW127704   1.143   0.723   0.729  0.8087  0.9048 -0.3571
 5414SOL    HW227705   1.143   0.604   0.815  0.8489 -0.0238  0.4148
 5415SOL     OW27706   0.610   1.191   5.519 -0.1364  0.3191 -0.2302
 5415SOL    HW127707   0.686   1.136   5.537 -0.8175 -1.4558 -2.7656
 5415SOL    HW227708   0.632   1.193   5.425  1.7799 -1.0545  0.1840
 5416SOL     OW27709   1.907   0.713   0.561  0.6213 -0.4547  0.1654
 5416SOL    HW127710   1.933   0.777   0.494  0.8059 -1.1048 -0.3933
 5416SOL    HW227711   1.812   0.727   0.557  1.1538  2.4614 -2.4106
 5417SOL     OW27712   4.504   1.677   5.962  0.5527 -0.0055 -0.3672
 5417SOL    HW127713   4.573   1.674   6.029 -1.6352 -0.3100  1.8754
 5417SOL    HW227714   4.543   1.740   5.902 -0.1985  1.0139  0.2221
 5418SOL     OW27715   1.626   2.188   3.147 -0.0158  0.2279 -0.4613
 5418SOL    HW127716   1.696   2.153   3.203 -1.1801 -0.3806  0.6288
 5418SOL    HW227717   1.559   2.179   3.216  0.8495  1.8035  0.5950
 5419SOL     OW27718   2.968   2.932   4.701  0.1487  0.0466  0.0815
 5419SOL    HW127719   2.943   3.021   4.675 -0.1141 -0.2972 -0.8140
 5419SOL    HW227720   3.053   2.928   4.657  0.2572 -1.0713  0.4094
 5420SOL     OW27721   0.500   1.533   3.983  0.5414  0.0683  0.1273
 5420SOL    HW127722   0.554   1.484   4.046 -0.0321 -0.7850 -0.0512
 5420SOL    HW227723   0.558   1.554   3.910  0.3731  2.4332  0.6698
 5421SOL     OW27724   2.754   2.390   0.055 -0.7459  0.1212 -0.1907
 5421SOL    HW127725   2.742   2.296   0.049  0.8368 -0.2382  2.0991
 5421SOL    HW227726   2.763   2.405   0.150 -1.6528  0.9950 -0.2436
 5422SOL     OW27727   3.288   1.252   9.085 -0.5785  0.4095 -0.1283
 5422SOL    HW127728   3.370   1.265   9.134 -0.0102 -3.0332 -0.1646
 5422SOL    HW227729   3.252   1.183   9.142  0.6334 -3.3036 -3.8440
 5423SOL     OW27730   0.493   3.017   8.188  0.0683  0.1158  0.3334
 5423SOL    HW127731   0.465   3.068   8.111  0.1421  0.3517  0.4631
 5423SOL    HW227732   0.579   2.992   8.155 -0.4090 -0.9799 -0.0765
 5424SOL     OW27733   0.211   1.836  10.380  0.1731  0.4333 -0.0540
 5424SOL    HW127734   0.292   1.808  10.423  0.1114 -3.2328 -2.2420
 5424SOL    HW227735   0.213   1.931  10.391  0.0751  0.5288 -0.8484
 5425SOL     OW27736   0.948   4.030  11.789  0.4425 -0.5115  0.1578
 5425SOL    HW127737   0.943   3.970  11.715  0.4194  0.0781 -0.3147
 5425SOL    HW227738   1.038   4.060  11.788  0.6258 -1.0337  0.6006
 5426SOL     OW27739   3.383   2.430   4.884 -0.2087  1.0296 -0.0356
 5426SOL    HW127740   3.314   2.367   4.861  1.9812 -1.6608  0.8123
 5426SOL    HW227741   3.461   2.380   4.861 -0.2508  0.3762  1.2461
 5427SOL     OW27742   2.230   1.433  15.782  0.4461 -0.5758  0.5104
 5427SOL    HW127743   2.156   1.448  15.841  0.9585  0.0428  1.0029
 5427SOL    HW227744   2.185   1.379  15.718 -0.4141  1.1062 -0.3237
 5428SOL     OW27745   3.204   3.899   8.551 -0.1973  0.3095  0.5589
 5428SOL    HW127746   3.126   3.919   8.499  0.7195 -0.0268 -0.9322
 5428SOL    HW227747   3.227   3.807   8.533 -0.5919 -0.1522  2.4308
 5429SOL     OW27748   0.090   0.362   9.286  0.9219 -0.8815 -0.2202
 5429SOL    HW127749   0.164   0.378   9.345 -0.0236 -1.2191  1.0560
 5429SOL    HW227750   0.133   0.399   9.209 -0.0509  0.2308 -0.2303
 5430SOL     OW27751   1.882   0.556   2.808  0.0196 -0.2684  0.0538
 5430SOL    HW127752   1.841   0.512   2.733  3.6658 -3.2454 -0.1914
 5430SOL    HW227753   1.809   0.564   2.869 -0.1033 -0.6912 -0.0326
 5431SOL     OW27754   2.481   3.000   6.821 -0.6773 -0.3277 -0.1301
 5431SOL    HW127755   2.505   3.089   6.849 -0.7903 -1.0922  2.4024
 5431SOL    HW227756   2.425   2.985   6.897  1.3627  0.1714  1.4978
 5432SOL     OW27757   4.404   1.305  17.514  0.9278 -0.0664 -0.3187
 5432SOL    HW127758   4.413   1.267  17.427 -0.9101  2.1421 -1.4521
 5432SOL    HW227759   4.325   1.260  17.543  0.2303  1.8701  0.7811
 5433SOL     OW27760   3.169   2.896   8.737  0.3254 -0.1767  0.2206
 5433SOL    HW127761   3.219   2.977   8.740  1.0079 -0.6939  3.3483
 5433SOL    HW227762   3.150   2.889   8.830  2.1811  0.9767  0.6840
 5434SOL     OW27763   2.765   2.765   1.263 -0.3392  0.0730 -0.5143
 5434SOL    HW127764   2.782   2.672   1.247 -0.8266 -0.0324 -0.4317
 5434SOL    HW227765   2.804   2.786   1.178  1.4957  1.5470  0.6931
 5435SOL     OW27766   1.252   3.652   6.796 -0.3000  0.0635  0.0292
 5435SOL    HW127767   1.239   3.606   6.713  1.3632 -0.5730  0.1262
 5435SOL    HW227768   1.307   3.592   6.846  0.5813 -1.5719 -2.9659
 5436SOL     OW27769   0.876   1.488  15.679  0.7788  0.0683  0.0202
 5436SOL    HW127770   0.893   1.576  15.648 -1.8310  1.0160  1.3032
 5436SOL    HW227771   0.898   1.439  15.600  0.0992  1.7074 -1.1792
 5437SOL     OW27772   0.166   0.008   5.973 -0.1883  0.1737 -0.3803
 5437SOL    HW127773   0.074   4.717   5.950 -0.0914  0.5125 -0.9973
 5437SOL    HW227774   0.159   4.706   6.065  0.8401 -0.3696 -0.4573
 5438SOL     OW27775   0.470   1.540   2.348  0.2286 -0.9420  0.0275
 5438SOL    HW127776   0.503   1.457   2.314 -0.5705 -0.9833 -0.6609
 5438SOL    HW227777   0.512   1.556   2.432  0.3077 -0.0372 -0.1830
 5439SOL     OW27778   2.203   3.716   4.697 -0.1483  0.4945 -0.1990
 5439SOL    HW127779   2.215   3.653   4.626  0.9010  1.2445 -0.6854
 5439SOL    HW227780   2.112   3.746   4.689 -0.2331  0.2562 -0.1387
 5440SOL     OW27781   0.063   0.398   4.597  0.0796 -0.1167 -0.1335
 5440SOL    HW127782   0.144   0.370   4.555 -0.6546  1.4162 -2.5510
 5440SOL    HW227783   0.041   0.461   4.529 -1.7383  0.3732  0.8980
 5441SOL     OW27784   0.385   3.505   7.793 -0.4661  0.4698 -0.4234
 5441SOL    HW127785   0.364   3.453   7.716 -3.2669 -0.7206  1.1180
 5441SOL    HW227786   0.407   3.592   7.761  0.0637  0.2632 -0.6160
 5442SOL     OW27787   3.158   4.028   3.830 -0.2823  0.0008 -0.0596
 5442SOL    HW127788   3.235   4.077   3.801 -2.2242  1.0222 -3.4915
 5442SOL    HW227789   3.203   3.953   3.869  0.8681  0.2894 -0.8327
 5443SOL     OW27790   0.149   1.605  10.155  0.2526  0.4265 -0.5522
 5443SOL    HW127791   0.203   1.676  10.189  1.3282 -1.2364  1.2279
 5443SOL    HW227792   0.113   1.649  10.079  0.8813 -1.0333 -1.6973
 5444SOL     OW27793   3.674   3.263  15.848 -0.0629 -0.0583 -0.9587
 5444SOL    HW127794   3.694   3.170  15.858  0.0244  0.0243 -0.3651
 5444SOL    HW227795   3.656   3.295  15.936  0.3075 -0.2675 -0.8058
 5445SOL     OW27796   1.296   3.901  16.052 -0.0660  0.5118  0.2687
 5445SOL    HW127797   1.299   3.824  16.109 -0.0082  0.8284  0.6978
 5445SOL    HW227798   1.351   3.869  15.981 -0.7707  0.2070 -0.1439
 5446SOL     OW27799   0.790   1.682   2.857 -0.2429  0.0134 -0.9577
 5446SOL    HW127800   0.848   1.633   2.914 -1.7558 -2.3350 -1.4472
 5446SOL    HW227801   0.850   1.740   2.810  2.2988 -1.9098 -0.0521
 5447SOL     OW27802   3.445   2.916   9.011  0.6413  1.5352  0.6423
 5447SOL    HW127803   3.430   3.010   9.000  1.9198  1.6212 -0.3401
 5447SOL    HW227804   3.409   2.909   9.100  0.9128  1.3015  0.7325
 5448SOL     OW27805   4.540   1.196   6.291  0.4480 -0.0021 -0.2362
 5448SOL    HW127806   4.489   1.274   6.314  0.3547 -0.3420  0.7154
 5448SOL    HW227807   4.604   1.223   6.226  1.1821  2.4137  1.4873
 5449SOL     OW27808   0.955   0.175   4.038  0.1447 -0.1007 -0.3167
 5449SOL    HW127809   0.966   0.241   4.106  1.9749  1.1766 -1.8497
 5449SOL    HW227810   0.949   0.107   4.105 -1.7042  0.2216 -0.1561
 5450SOL     OW27811   2.460   1.044   6.998  0.0002 -0.1711 -0.3173
 5450SOL    HW127812   2.414   1.127   7.009 -0.6155 -0.4943 -0.4548
 5450SOL    HW227813   2.505   1.035   7.082 -2.9999 -0.4671  1.2293
 5451SOL     OW27814   4.463   2.835   4.847 -0.2196  0.4430  0.4113
 5451SOL    HW127815   4.502   2.754   4.815 -0.5416  0.1941  0.6398
 5451SOL    HW227816   4.384   2.846   4.795 -0.3345  0.0415  0.4947
 5452SOL     OW27817   0.078   1.905   9.613  0.4937 -0.2785 -0.0252
 5452SOL    HW127818   0.070   1.968   9.685  1.1584  1.6760 -1.6398
 5452SOL    HW227819   0.071   1.968   9.541  1.6529  2.0010  1.8472
 5453SOL     OW27820   0.605   4.230   4.486 -0.0528  0.1351  0.5936
 5453SOL    HW127821   0.557   4.283   4.550 -0.5174  0.7144 -0.2307
 5453SOL    HW227822   0.656   4.169   4.540  0.9843 -1.3773 -2.1037
 5454SOL     OW27823   4.328   3.266   4.332 -0.1050 -0.0336 -0.2844
 5454SOL    HW127824   4.420   3.291   4.324 -0.0842  0.0426  0.2124
 5454SOL    HW227825   4.315   3.252   4.238  0.8891  2.3443 -0.7648
 5455SOL     OW27826   2.585   3.562  10.983 -0.2195 -0.1404  0.2508
 5455SOL    HW127827   2.511   3.604  11.026  0.2733  0.2812  0.6933
 5455SOL    HW227828   2.572   3.475  11.020 -1.1007 -0.5476 -1.0409
 5456SOL     OW27829   2.677   0.960   0.603 -0.1676 -0.4598  0.2705
 5456SOL    HW127830   2.609   0.922   0.547 -0.8143 -1.7388  1.9397
 5456SOL    HW227831   2.756   0.954   0.549 -0.2106 -0.9037  0.2623
 5457SOL     OW27832   3.865   3.083  16.131  0.4362 -0.3408  0.1656
 5457SOL    HW127833   3.956   3.107  16.112  0.1055 -0.8560 -2.0716
 5457SOL    HW227834   3.837   3.151  16.192 -0.1029  0.1600 -0.6483
 5458SOL     OW27835   1.869   3.424  16.599  0.3839  0.0835  0.0569
 5458SOL    HW127836   1.954   3.468  16.605  0.6403 -0.2266 -1.3332
 5458SOL    HW227837   1.820   3.478  16.661  0.7060 -1.5180  1.7146
 5459SOL     OW27838   3.779   3.168  12.237 -0.2920  0.3037  0.0322
 5459SOL    HW127839   3.867   3.143  12.208 -1.4060 -1.2721 -2.0217
 5459SOL    HW227840   3.786   3.148  12.330  0.4709 -2.0567 -0.5478
 5460SOL     OW27841   1.518   1.025   7.249  0.1867 -0.3876  0.3695
 5460SOL    HW127842   1.511   0.931   7.229  2.0706 -0.5889  0.6868
 5460SOL    HW227843   1.437   1.045   7.203  0.5560 -0.9289 -0.5235
 5461SOL     OW27844   0.531   0.433   9.531 -0.0947  0.1070  0.9469
 5461SOL    HW127845   0.560   0.342   9.532  0.6022  0.3101 -1.0000
 5461SOL    HW227846   0.608   0.488   9.515  0.6583 -0.3360  3.1138
 5462SOL     OW27847   1.665   4.122  17.596 -0.1021  0.6390  0.3185
 5462SOL    HW127848   1.735   4.144  17.656 -0.7319  1.8373  0.6169
 5462SOL    HW227849   1.707   4.108  17.511  2.3362  1.3443  1.4267
 5463SOL     OW27850   1.917   4.203   4.762 -0.2972  0.2731 -0.6593
 5463SOL    HW127851   1.933   4.296   4.745 -1.6125  0.6170 -0.0539
 5463SOL    HW227852   2.001   4.183   4.803  0.2905  1.0258 -1.4967
 5464SOL     OW27853   2.748   1.945   4.222  0.8991  0.4888 -0.0766
 5464SOL    HW127854   2.745   2.039   4.241 -1.0448  0.3656  0.2469
 5464SOL    HW227855   2.685   1.939   4.150 -1.2243  0.3185  1.8022
 5465SOL     OW27856   0.900   4.521   7.896  0.8482 -0.3542 -0.2672
 5465SOL    HW127857   0.862   4.584   7.835  0.2422 -1.7494 -1.3345
 5465SOL    HW227858   0.884   4.575   7.973 -1.1178  1.4371 -1.9324
 5466SOL     OW27859   4.508   0.674  16.956 -0.0136  0.0006  0.2065
 5466SOL    HW127860   4.435   0.722  16.994 -1.2076 -2.0565  0.4850
 5466SOL    HW227861   4.550   0.636  17.033  0.4909 -0.6501 -0.3900
 5467SOL     OW27862   3.670   1.917   8.043 -0.4246  0.4811  0.1336
 5467SOL    HW127863   3.708   1.829   8.038  0.7962  1.0388 -0.5328
 5467SOL    HW227864   3.738   1.965   8.090 -1.5400  0.5480  1.6738
 5468SOL     OW27865   1.831   0.008   6.746 -0.3054 -0.0832  0.2256
 5468SOL    HW127866   1.917   0.046   6.765 -0.3180  1.0312 -1.9147
 5468SOL    HW227867   1.781   0.085   6.717 -1.8622 -1.0034  0.4916
 5469SOL     OW27868   1.439   2.202   6.255 -0.4123 -0.1856 -0.1920
 5469SOL    HW127869   1.408   2.282   6.298  0.9011 -0.0464  0.4971
 5469SOL    HW227870   1.382   2.148   6.309  0.4486 -0.1510  0.7423
 5470SOL     OW27871   3.397   4.292   6.166  0.3955  0.0223  0.2097
 5470SOL    HW127872   3.323   4.301   6.106  0.6663 -1.4652 -0.3471
 5470SOL    HW227873   3.461   4.362   6.154 -0.4742  0.9217  0.8668
 5471SOL     OW27874   0.660   3.585   7.406  0.6792 -0.3110  0.1918
 5471SOL    HW127875   0.694   3.636   7.333  1.1993  0.4467  0.9696
 5471SOL    HW227876   0.676   3.646   7.478 -0.2508 -2.6754  2.4080
 5472SOL     OW27877   3.620   3.028   4.535 -0.4074 -0.0694  0.0181
 5472SOL    HW127878   3.566   2.979   4.597  1.2152 -1.0271  0.6833
 5472SOL    HW227879   3.587   3.116   4.553 -2.7454 -0.9182 -0.0647
 5473SOL     OW27880   1.711   2.676  16.760 -0.3440 -0.4643 -0.3545
 5473SOL    HW127881   1.799   2.707  16.780 -0.8590  0.0677  1.0835
 5473SOL    HW227882   1.702   2.715  16.673 -2.0967 -2.1264 -0.9382
 5474SOL     OW27883   3.907   3.753  15.956  0.6642  0.4638 -0.8175
 5474SOL    HW127884   3.946   3.826  15.908  0.9307 -0.3740 -1.8883
 5474SOL    HW227885   3.847   3.717  15.891  2.0007 -1.8426 -0.7821
 5475SOL     OW27886   3.583   2.865   3.326 -1.1300 -0.5464 -0.5409
 5475SOL    HW127887   3.557   2.927   3.394  1.1691 -0.2067  0.0203
 5475SOL    HW227888   3.660   2.914   3.296  0.3472 -1.5013  1.6500
 5476SOL     OW27889   2.076   2.609  17.043 -0.0121  0.2878 -0.2173
 5476SOL    HW127890   2.128   2.556  17.103 -1.8051  0.7374  1.7525
 5476SOL    HW227891   2.006   2.643  17.099  0.3058  1.7047 -0.6797
 5477SOL     OW27892   2.132   4.291   3.752  0.9025  0.4916  1.1830
 5477SOL    HW127893   2.077   4.224   3.793  1.2770  0.3062  1.3794
 5477SOL    HW227894   2.080   4.364   3.785  2.3946  1.6319  0.9843
 5478SOL     OW27895   4.632   1.568   7.456  0.0679  0.1870 -0.0535
 5478SOL    HW127896   4.689   1.500   7.492 -1.1487 -0.5252  0.5312
 5478SOL    HW227897   4.567   1.575   7.526  0.2144 -0.1156  0.1113
 5479SOL     OW27898   4.676   0.961   7.736 -0.5472  0.3977  0.5507
 5479SOL    HW127899   4.707   0.906   7.807  2.3883  0.9438 -0.2729
 5479SOL    HW227900   0.032   1.015   7.739 -1.7340  2.1175  0.9897
 5480SOL     OW27901   3.148   4.420   9.885  0.0938  0.3068  0.7438
 5480SOL    HW127902   3.204   4.495   9.906  2.4596 -1.2547 -0.0843
 5480SOL    HW227903   3.185   4.355   9.945 -0.0576 -2.1635 -1.8894
 5481SOL     OW27904   1.438   0.448   4.286 -0.2288 -0.1377 -0.1739
 5481SOL    HW127905   1.472   0.415   4.203 -1.8429 -0.6629 -0.6403
 5481SOL    HW227906   1.522   0.454   4.331  1.7756  0.1791 -4.0006
 5482SOL     OW27907   3.380   1.661   2.859  0.1067 -0.3978  0.6666
 5482SOL    HW127908   3.344   1.735   2.908  0.6733 -0.5763  1.3493
 5482SOL    HW227909   3.426   1.711   2.791  0.6164 -1.2802  0.3600
 5483SOL     OW27910   3.150   4.228  13.413 -0.3050  0.0027 -0.0071
 5483SOL    HW127911   3.068   4.199  13.373  0.1579 -0.9003 -0.3127
 5483SOL    HW227912   3.191   4.142  13.421 -1.3317 -0.6623 -1.8592
 5484SOL     OW27913   1.413   1.267   2.468  0.6083 -0.0171 -0.2299
 5484SOL    HW127914   1.379   1.178   2.482  0.6374 -0.0120 -0.1235
 5484SOL    HW227915   1.380   1.302   2.551 -0.4324 -0.3076 -0.5341
 5485SOL     OW27916   3.986   4.583   3.847 -0.0647 -0.1729 -0.2235
 5485SOL    HW127917   3.961   4.512   3.905 -2.3593  0.6445 -0.2034
 5485SOL    HW227918   3.950   4.664   3.884 -0.1698 -0.5102  0.4179
 5486SOL     OW27919   2.568   0.493   5.416  1.0724 -0.6273  0.4566
 5486SOL    HW127920   2.594   0.421   5.359 -1.2203 -1.4631  0.4700
 5486SOL    HW227921   2.563   0.565   5.353 -1.5008 -0.8767  0.3581
 5487SOL     OW27922   1.846   2.197   6.709  0.2293 -0.1771  0.1045
 5487SOL    HW127923   1.928   2.230   6.671 -0.1902 -0.2625 -0.8764
 5487SOL    HW227924   1.796   2.165   6.634  3.6441  2.1662 -3.1795
 5488SOL     OW27925   0.146   3.670   7.221  0.1225  0.0150 -0.1687
 5488SOL    HW127926   0.147   3.636   7.311  1.9242  0.1163 -0.1414
 5488SOL    HW227927   0.167   3.591   7.171  2.0064 -1.5125  3.0019
 5489SOL     OW27928   3.822   0.817   3.513 -0.0343 -0.1913  0.2319
 5489SOL    HW127929   3.850   0.739   3.465 -2.1458 -1.2439  0.6966
 5489SOL    HW227930   3.872   0.886   3.468 -0.3871  0.1025  0.2817
 5490SOL     OW27931   2.271   4.400   6.522  0.1522 -0.0744 -0.5570
 5490SOL    HW127932   2.254   4.345   6.445 -3.6742 -0.3627  0.5075
 5490SOL    HW227933   2.237   4.342   6.590  2.5136 -0.5707  0.1849
 5491SOL     OW27934   0.737   3.569   8.655  0.4640  0.3768 -0.1472
 5491SOL    HW127935   0.658   3.622   8.654 -0.7137 -1.3712  0.2047
 5491SOL    HW227936   0.793   3.608   8.589  0.6498  0.0804 -0.1668
 5492SOL     OW27937   4.119   2.000   0.655 -0.0741 -0.0202  0.3830
 5492SOL    HW127938   4.104   2.071   0.718 -0.1341 -0.4158  0.8169
 5492SOL    HW227939   4.083   2.029   0.571  0.1497  1.5258  0.8250
 5493SOL     OW27940   2.261   0.351   3.361  0.5203 -0.3595 -0.0354
 5493SOL    HW127941   2.182   0.303   3.334  1.0813 -0.6810 -1.1203
 5493SOL    HW227942   2.263   0.431   3.308  2.0437  0.3806  1.1440
 5494SOL     OW27943   2.412   2.113   3.299  0.6594  0.0596  0.0016
 5494SOL    HW127944   2.469   2.186   3.322  0.5754  0.1201  0.0159
 5494SOL    HW227945   2.370   2.104   3.385  1.5564 -1.1223  0.3169
 5495SOL     OW27946   1.746   1.433   6.520 -0.2075  0.2893 -0.1184
 5495SOL    HW127947   1.740   1.348   6.476  2.3797  0.0520 -0.0192
 5495SOL    HW227948   1.744   1.412   6.613 -0.6440 -1.2954 -0.4750
 5496SOL     OW27949   0.651   2.940   9.178 -0.6764  0.3714 -0.4639
 5496SOL    HW127950   0.743   2.919   9.163 -0.1631  0.4180  2.6927
 5496SOL    HW227951   0.629   2.930   9.085 -0.2025 -3.1663 -0.1853
 5497SOL     OW27952   2.870   4.475   9.247 -0.4391 -0.1955  0.2911
 5497SOL    HW127953   2.809   4.503   9.315  1.2364 -0.1663  1.7889
 5497SOL    HW227954   2.830   4.509   9.166 -0.8517 -4.3778 -1.2523
 5498SOL     OW27955   4.636   4.043   5.180  0.5780  0.7045  0.4476
 5498SOL    HW127956   4.712   3.985   5.171  1.2357  1.5607  0.3847
 5498SOL    HW227957   4.630   4.076   5.090 -1.5796  1.0313  0.7134
 5499SOL     OW27958   3.004   3.292  14.782  0.2609  0.4773  0.2847
 5499SOL    HW127959   2.990   3.268  14.690 -0.5351 -0.2384  0.5949
 5499SOL    HW227960   2.935   3.250  14.832 -0.0758 -1.3214 -1.7004
 5500SOL     OW27961   3.324   0.840   0.441  0.0697  0.1620  0.2300
 5500SOL    HW127962   3.278   0.923   0.428 -2.1076 -1.0877 -0.0694
 5500SOL    HW227963   3.314   0.797   0.356  1.3930 -2.8361  1.5980
 5501SOL     OW27964   3.081   1.871  17.630  0.5767  0.3072  0.4556
 5501SOL    HW127965   3.066   1.935  17.560  0.9181 -0.0514  0.0582
 5501SOL    HW227966   2.992   1.848  17.657  0.3823  1.7131  1.0455
 5502SOL     OW27967   2.673   2.771   4.099 -0.0265  0.2321 -0.1371
 5502SOL    HW127968   2.619   2.744   4.173 -0.5416  0.1009 -0.5588
 5502SOL    HW227969   2.763   2.771   4.132  0.6205  1.6552 -1.9104
 5503SOL     OW27970   3.047   3.013   1.432  0.5472  0.4548 -0.4852
 5503SOL    HW127971   3.048   2.918   1.439 -0.4555  0.4352 -0.6521
 5503SOL    HW227972   3.068   3.009   1.339  0.6167 -0.0718 -0.4425
 5504SOL     OW27973   1.006   1.834  12.810 -0.1985 -0.2906  0.6640
 5504SOL    HW127974   0.987   1.750  12.850 -1.7848 -0.1164  0.2648
 5504SOL    HW227975   1.069   1.803  12.745  0.2036 -0.7094  1.2575
 5505SOL     OW27976   0.592   2.934  11.149 -0.1068 -0.0596 -0.1215
 5505SOL    HW127977   0.621   2.959  11.061  1.0943 -0.0488  0.2785
 5505SOL    HW227978   0.537   3.011  11.166  0.1989  0.1289 -0.0046
 5506SOL     OW27979   3.727   3.997   8.062  0.9595  0.3210  0.5846
 5506SOL    HW127980   3.797   4.012   8.125  2.6915  1.0447 -1.5176
 5506SOL    HW227981   3.652   4.049   8.090 -0.8249 -1.2635 -1.2475
 5507SOL     OW27982   2.314   0.226   0.707 -0.1845 -0.2454 -0.0486
 5507SOL    HW127983   2.353   0.303   0.666  1.1811 -0.5633  0.6680
 5507SOL    HW227984   2.299   0.267   0.792  0.3692 -2.5492  1.1646
 5508SOL     OW27985   0.983   2.760   7.572  0.0048 -0.2770  0.2496
 5508SOL    HW127986   0.973   2.689   7.509 -0.7584 -0.1853  0.2642
 5508SOL    HW227987   0.916   2.819   7.536  1.1753 -0.3601 -2.0471
 5509SOL     OW27988   2.460   3.708   1.651  0.1344  0.0402  0.2923
 5509SOL    HW127989   2.480   3.616   1.669  0.5404  0.0889  0.0781
 5509SOL    HW227990   2.421   3.702   1.564 -1.2582 -0.4803  0.9501
 5510SOL     OW27991   0.141   2.527   7.402  0.1215  0.0326 -0.1531
 5510SOL    HW127992   0.216   2.571   7.442  0.6341 -0.4987 -0.5215
 5510SOL    HW227993   0.128   2.567   7.316 -2.2772  0.2251  0.2959
 5511SOL     OW27994   4.045   3.999  12.450 -0.3059 -0.0149  0.5042
 5511SOL    HW127995   4.068   3.973  12.361  1.1820 -0.2042  0.9478
 5511SOL    HW227996   3.991   3.926  12.480 -0.7888  0.2208  0.2184
 5512SOL     OW27997   0.536   1.186   3.991  0.3327  0.0638  0.1421
 5512SOL    HW127998   0.576   1.110   3.950 -2.1955 -1.0627 -0.2154
 5512SOL    HW227999   0.610   1.246   4.004 -0.5316  1.1520  0.0218
 5513SOL     OW28000   1.149   0.858  10.367  0.0928 -0.6192  0.0404
 5513SOL    HW128001   1.121   0.800  10.296  0.6423  0.0117 -0.6894
 5513SOL    HW228002   1.122   0.945  10.335  1.1775  0.3855  1.8637
 5514SOL     OW28003   1.442   2.612   6.873 -0.5333  0.5389  0.5558
 5514SOL    HW128004   1.494   2.532   6.872 -0.4823  0.6461 -3.4457
 5514SOL    HW228005   1.354   2.579   6.859 -0.1727  0.4612 -1.4441
 5515SOL     OW28006   4.346   3.310  16.723 -0.3536 -0.2907  0.0097
 5515SOL    HW128007   4.332   3.404  16.711  0.1280 -0.4652 -1.8940
 5515SOL    HW228008   4.256   3.281  16.707 -0.9472  0.3576  2.3178
 5516SOL     OW28009   4.633   1.789  11.045  0.2303  0.3301  0.3130
 5516SOL    HW128010   4.563   1.789  10.980  0.7915  0.9668 -0.2945
 5516SOL    HW228011   4.676   1.708  11.018 -2.3584 -1.7678  2.3535
 5517SOL     OW28012   3.351   2.458   7.687 -0.6597  0.0646  0.6107
 5517SOL    HW128013   3.438   2.469   7.725 -0.7473 -1.6839  1.3123
 5517SOL    HW228014   3.341   2.546   7.651 -0.4952 -1.1838 -2.4367
 5518SOL     OW28015   1.028   2.527   7.402 -0.6239  0.7302  0.2943
 5518SOL    HW128016   1.039   2.447   7.350  1.3097  0.8375  0.5400
 5518SOL    HW228017   1.091   2.507   7.472  1.8784  3.2099 -1.2644
 5519SOL     OW28018   1.006   4.647   0.018  0.4441 -0.0854 -0.2222
 5519SOL    HW128019   1.010   4.713  17.646  1.8824 -0.1750 -0.2187
 5519SOL    HW228020   1.058   4.577  17.675  0.3410 -0.7652  0.8460
 5520SOL     OW28021   1.150   2.639   3.365 -0.4270  0.1182  0.2098
 5520SOL    HW128022   1.103   2.687   3.297  0.2554  0.7040  0.1471
 5520SOL    HW228023   1.093   2.677   3.432 -0.7491 -1.0118  0.5842
 5521SOL     OW28024   2.023   4.189   5.149 -0.4122  0.1178 -0.1084
 5521SOL    HW128025   2.103   4.183   5.201 -0.3233  1.9395 -0.0518
 5521SOL    HW228026   2.053   4.183   5.058  1.0047  1.2320  0.2855
 5522SOL     OW28027   3.583   1.425  12.157 -0.3947  0.0712  0.0978
 5522SOL    HW128028   3.515   1.388  12.213 -1.9712 -1.4389 -2.8252
 5522SOL    HW228029   3.567   1.520  12.158  1.9513  0.4605  0.8538
 5523SOL     OW28030   0.240   3.940  12.904 -0.3846 -0.2532 -0.2004
 5523SOL    HW128031   0.208   3.958  12.993  2.7820  2.8902  0.3124
 5523SOL    HW228032   0.173   3.882  12.869  0.2479 -1.5452  0.7613
 5524SOL     OW28033   3.595   1.327   4.714  0.1114  0.4818  0.0087
 5524SOL    HW128034   3.607   1.419   4.735  0.6384  0.3451  0.3139
 5524SOL    HW228035   3.633   1.319   4.626  4.6670  0.7683  1.9606
 5525SOL     OW28036   2.859   1.561   1.848 -0.0232  0.5050  0.0598
 5525SOL    HW128037   2.939   1.521   1.813 -1.3004 -1.0513 -1.0983
 5525SOL    HW228038   2.799   1.524   1.783  0.7976 -0.9402  0.1196
 5526SOL     OW28039   4.714   1.196   0.114 -0.1726  0.1522  0.0733
 5526SOL    HW128040   0.034   1.118   0.149 -0.6166  0.1584  0.6263
 5526SOL    HW228041   0.044   1.260   0.160 -0.5420 -0.9224  2.0086
 5527SOL     OW28042   1.332   3.566   8.707 -0.1335 -0.6478  0.6992
 5527SOL    HW128043   1.304   3.618   8.781 -0.3632 -1.8602  1.4583
 5527SOL    HW228044   1.323   3.629   8.635  0.2238  0.0063  1.2330
 5528SOL     OW28045   2.557   3.858   5.600  0.0489  0.0005 -0.1093
 5528SOL    HW128046   2.645   3.849   5.637 -1.6442 -1.6682  3.4954
 5528SOL    HW228047   2.579   3.851   5.507 -1.0606  0.7497 -0.4305
 5529SOL     OW28048   2.814   0.800   0.127  0.0524 -0.8903  0.6473
 5529SOL    HW128049   2.829   0.706   0.121 -0.4055 -0.8437 -1.1880
 5529SOL    HW228050   2.810   0.826   0.035  1.8905 -1.5852  0.3859
 5530SOL     OW28051   1.897   3.455   6.477  0.0191  0.3095 -0.0591
 5530SOL    HW128052   1.898   3.412   6.392 -0.8929  0.3515 -0.0985
 5530SOL    HW228053   1.850   3.539   6.475  0.6947  0.7141  0.8139
 5531SOL     OW28054   3.760   0.941   9.065 -0.3335  0.1834  0.2999
 5531SOL    HW128055   3.798   0.872   9.119 -0.3749  1.1539  1.5670
 5531SOL    HW228056   3.802   1.024   9.084  0.7360 -0.0758 -0.9580
 5532SOL     OW28057   4.117   1.505  12.293  0.5290 -0.1159 -0.3248
 5532SOL    HW128058   4.057   1.575  12.318  1.6427  0.5224  0.5614
 5532SOL    HW228059   4.198   1.546  12.325 -1.0945  2.7872  0.0596
 5533SOL     OW28060   0.707   3.282   0.675 -0.0627  0.1058  0.1941
 5533SOL    HW128061   0.739   3.370   0.652 -2.3286  0.6672 -0.8172
 5533SOL    HW228062   0.660   3.250   0.598  1.2039 -0.4991 -0.3143
 5534SOL     OW28063   3.440   4.420   5.116 -0.2376  0.2328 -0.4300
 5534SOL    HW128064   3.419   4.392   5.027  0.1326  0.6239 -0.6450
 5534SOL    HW228065   3.529   4.384   5.117  0.0903  0.9801 -3.3681
 5535SOL     OW28066   2.102   2.184  17.047  0.0960 -0.2906 -0.4159
 5535SOL    HW128067   2.056   2.199  16.965  0.4557  3.0046 -0.0268
 5535SOL    HW228068   2.114   2.089  17.042  1.9923 -0.0399 -0.7533
 5536SOL     OW28069   2.763   0.121   2.502  0.1188  0.8713  0.5890
 5536SOL    HW128070   2.796   0.195   2.451  2.0050  0.3062  0.9764
 5536SOL    HW228071   2.840   0.071   2.529  0.1294  2.2098  2.9342
 5537SOL     OW28072   0.810   0.096   1.668  0.7395  0.0638  0.3387
 5537SOL    HW128073   0.746   0.076   1.737  0.3284 -1.1432 -0.3858
 5537SOL    HW228074   0.780   0.187   1.662  1.1767  0.3797  2.6376
 5538SOL     OW28075   1.936   1.075   5.923  0.3384 -0.0515  0.0678
 5538SOL    HW128076   1.846   1.106   5.928  0.9935  1.6006  1.7685
 5538SOL    HW228077   1.950   1.062   6.017  2.4182  1.4531 -0.0442
 5539SOL     OW28078   4.108   2.386   7.357 -0.2328  0.1060 -0.0731
 5539SOL    HW128079   4.083   2.301   7.394 -1.7488  1.2573  1.5652
 5539SOL    HW228080   4.080   2.442   7.430 -0.6726  0.9909 -0.9281
 5540SOL     OW28081   4.716   3.743  13.960 -0.6504  0.3934 -0.4788
 5540SOL    HW128082   0.063   3.796  13.995  0.7440 -1.8016  0.0089
 5540SOL    HW228083   4.657   3.808  13.921 -2.2415 -1.5098 -1.2538
 5541SOL     OW28084   0.796   4.584  11.092  0.3612  0.3120  0.3121
 5541SOL    HW128085   0.883   4.609  11.060 -0.1197 -0.9056 -1.9635
 5541SOL    HW228086   0.757   4.557  11.009 -1.9716 -0.5170  1.6744
 5542SOL     OW28087   2.824   0.165  17.255 -0.2641  0.1630  0.6674
 5542SOL    HW128088   2.770   0.234  17.296  0.3664 -0.5209  2.6728
 5542SOL    HW228089   2.781   0.082  17.275 -1.3843  0.5059 -0.3618
 5543SOL     OW28090   0.257   1.832   7.662 -0.5945  0.1037 -0.3933
 5543SOL    HW128091   0.255   1.888   7.739 -0.0817  0.1431 -0.4118
 5543SOL    HW228092   0.313   1.879   7.601 -1.7130  0.4813 -1.1483
 5544SOL     OW28093   1.369   3.745   8.488 -0.1874 -0.0803  0.0948
 5544SOL    HW128094   1.306   3.813   8.513 -1.2771 -1.1455  0.2295
 5544SOL    HW228095   1.362   3.754   8.393  1.0651 -1.5955 -0.1192
 5545SOL     OW28096   3.398   0.336   4.620  0.1370  0.5656 -0.0134
 5545SOL    HW128097   3.490   0.322   4.641  0.8122  4.9743 -0.1052
 5545SOL    HW228098   3.385   0.430   4.623  2.0062  0.8455 -0.8374
 5546SOL     OW28099   2.320   3.226   6.120  0.2840 -0.3418  0.0806
 5546SOL    HW128100   2.269   3.240   6.200 -0.3171  1.0913 -0.5523
 5546SOL    HW228101   2.400   3.182   6.149 -0.0884 -0.1163  1.4757
 5547SOL     OW28102   2.740   0.641   5.168 -0.3398 -0.3482  0.5793
 5547SOL    HW128103   2.723   0.691   5.247  0.4076  0.8212  0.0147
 5547SOL    HW228104   2.816   0.591   5.198  0.6209  0.4344 -0.5564
 5548SOL     OW28105   3.870   3.532  12.222 -0.2135  0.0776 -0.8866
 5548SOL    HW128106   3.876   3.533  12.127  1.7612  0.1741 -0.7708
 5548SOL    HW228107   3.915   3.608  12.259 -1.3339  1.4410 -2.3368
 5549SOL     OW28108   1.455   3.389   5.078  0.3054  0.4197 -0.3859
 5549SOL    HW128109   1.425   3.300   5.065  1.4903 -0.4844  2.9991
 5549SOL    HW228110   1.393   3.429   5.016  1.3164  0.5658 -1.2979
 5550SOL     OW28111   2.297   4.675  10.404 -0.5792 -0.1900  0.1466
 5550SOL    HW128112   2.331   4.638  10.323  1.0751  2.1158 -0.1960
 5550SOL    HW228113   2.285   4.597  10.459 -0.9589  0.1414  0.5385
 5551SOL     OW28114   0.024   3.110   5.942 -0.0111 -0.3714  0.7993
 5551SOL    HW128115   0.008   3.116   6.037 -1.5247  1.9026  0.4073
 5551SOL    HW228116   0.052   3.196   5.913 -2.1858 -0.1404 -0.6330
 5552SOL     OW28117   1.479   0.461   9.991  0.3327  0.4009  0.1913
 5552SOL    HW128118   1.450   0.540  10.037  3.8193  1.1809  1.0601
 5552SOL    HW228119   1.421   0.471   9.916 -1.1580  0.9713  1.4197
 5553SOL     OW28120   1.807   3.667  14.681  0.9423  0.3941 -0.4116
 5553SOL    HW128121   1.896   3.697  14.699  1.3451 -0.1301 -1.5886
 5553SOL    HW228122   1.784   3.615  14.758  2.1990  1.1443  0.4844
 5554SOL     OW28123   0.107   3.935   7.378  0.0038 -0.0249  0.2846
 5554SOL    HW128124   0.016   3.921   7.403 -0.5842 -0.4009 -2.0047
 5554SOL    HW228125   0.121   3.848   7.341  0.5303  1.8324 -3.8536
 5555SOL     OW28126   2.672   2.560   5.424 -0.5932  0.2089  0.6783
 5555SOL    HW128127   2.599   2.509   5.458 -0.7425  0.0996  0.1820
 5555SOL    HW228128   2.733   2.540   5.495  1.8806  0.2303 -1.4306
 5556SOL     OW28129   4.371   1.078   7.249  0.0558 -0.2006 -0.6687
 5556SOL    HW128130   4.290   1.028   7.255  0.2638 -0.2623  1.3822
 5556SOL    HW228131   4.349   1.147   7.312 -0.7315 -1.5048  0.4771
 5557SOL     OW28132   1.767   0.564  14.978 -0.0889 -0.4271  0.4588
 5557SOL    HW128133   1.769   0.519  15.062 -2.3424  0.1955  0.8313
 5557SOL    HW228134   1.724   0.646  15.003  3.3460  1.9684 -1.3217
 5558SOL     OW28135   1.517   4.508   8.452 -0.2929  0.7630  0.0466
 5558SOL    HW128136   1.563   4.457   8.518 -0.7140 -1.3994 -1.3391
 5558SOL    HW228137   1.516   4.450   8.376  2.0058 -0.2792  0.8254
 5559SOL     OW28138   0.234   2.129   7.146  0.3272  0.1705  0.1551
 5559SOL    HW128139   0.143   2.154   7.164  0.6863  0.9544  0.8927
 5559SOL    HW228140   0.253   2.080   7.227  1.9006  1.3113  0.4754
 5560SOL     OW28141   0.994   1.698   6.900  0.0690 -0.1751 -0.3329
 5560SOL    HW128142   1.037   1.706   6.986  2.1131 -1.3506 -1.2601
 5560SOL    HW228143   1.065   1.657   6.850 -1.3092 -3.5328  0.4218
 5561SOL     OW28144   0.319   4.574  13.813 -0.1151 -0.1521  0.3464
 5561SOL    HW128145   0.381   4.541  13.748  0.7803  0.3603  0.9516
 5561SOL    HW228146   0.316   4.669  13.809 -1.0446 -0.2413 -1.0028
 5562SOL     OW28147   3.357   3.991  15.782  0.3744  0.0552  0.0614
 5562SOL    HW128148   3.333   4.017  15.693  1.2096 -1.9344 -0.7433
 5562SOL    HW228149   3.295   3.924  15.810 -1.3736  1.9277  0.6589
 5563SOL     OW28150   3.235   1.511  16.902 -0.0579 -0.2413  0.1534
 5563SOL    HW128151   3.246   1.480  16.812 -2.7272 -2.5626  0.6280
 5563SOL    HW228152   3.158   1.568  16.902  1.2407  1.5140  0.5903
 5564SOL     OW28153   2.217   1.875   9.322 -0.4925 -0.0755  0.2449
 5564SOL    HW128154   2.157   1.938   9.362 -3.3399 -0.8127 -2.8420
 5564SOL    HW228155   2.255   1.923   9.248 -0.6731 -0.9908 -0.4343
 5565SOL     OW28156   4.290   3.382   9.368  0.3886  0.4124 -0.1803
 5565SOL    HW128157   4.342   3.394   9.447 -0.0635 -0.4689  0.2440
 5565SOL    HW228158   4.231   3.456   9.383 -1.8461 -1.7101  1.2689
 5566SOL     OW28159   3.529   2.600   8.224  0.3313  0.2599 -0.2490
 5566SOL    HW128160   3.547   2.685   8.184  0.2168  1.0636  1.4104
 5566SOL    HW228161   3.558   2.538   8.157  0.2807 -1.4272  1.3137
 5567SOL     OW28162   2.242   0.655   5.720  0.1528 -0.0294  0.0186
 5567SOL    HW128163   2.213   0.570   5.754 -0.2540  0.7862  1.7276
 5567SOL    HW228164   2.327   0.633   5.683 -0.8549 -1.5233 -1.3769
 5568SOL     OW28165   1.358   2.760   9.575 -0.7978 -0.0542  0.1631
 5568SOL    HW128166   1.320   2.809   9.647  0.6484  1.6746 -0.2629
 5568SOL    HW228167   1.450   2.770   9.599 -0.3741 -1.8092 -0.6997
 5569SOL     OW28168   3.914   3.406   5.551 -0.1218  0.6356 -0.1314
 5569SOL    HW128169   3.988   3.459   5.522  1.2291 -0.6525  0.9107
 5569SOL    HW228170   3.890   3.443   5.636 -1.0032 -0.8275  0.2631
 5570SOL     OW28171   0.998   3.987   7.548  0.6151 -0.0775  0.3335
 5570SOL    HW128172   1.026   3.926   7.480  0.0438 -0.3728  0.3581
 5570SOL    HW228173   1.081   4.029   7.570 -0.1554  0.7228  1.7547
 5571SOL     OW28174   1.310   1.214  14.165  0.0547 -0.2972 -0.1581
 5571SOL    HW128175   1.324   1.120  14.181 -0.5459 -0.3947 -0.2148
 5571SOL    HW228176   1.298   1.220  14.260  0.5080 -0.3679 -0.0933
 5572SOL     OW28177   1.540   3.751   9.666 -0.2010 -0.0092  0.2749
 5572SOL    HW128178   1.511   3.663   9.643  1.4061  0.0104 -1.8710
 5572SOL    HW228179   1.525   3.742   9.760 -0.0497 -0.4826  0.2552
 5573SOL     OW28180   1.976   2.111   9.449 -0.2624 -0.5821 -0.7531
 5573SOL    HW128181   2.060   2.095   9.492 -0.6169  2.5923  1.1221
 5573SOL    HW228182   1.997   2.182   9.387 -0.3260 -0.1783 -0.3128
 5574SOL     OW28183   2.478   4.656  15.093  0.2858 -0.0072 -0.3257
 5574SOL    HW128184   2.539   4.585  15.074 -1.2680 -1.1528 -0.9848
 5574SOL    HW228185   2.483   4.706  15.011  1.5718  0.7573  0.2172
 5575SOL     OW28186   4.461   1.854  10.819  0.1966 -0.7690 -0.1841
 5575SOL    HW128187   4.441   1.818  10.733  0.1256 -0.5950 -0.2411
 5575SOL    HW228188   4.498   1.940  10.797  1.6252 -0.2532  4.1867
 5576SOL     OW28189   0.689   3.640  12.087 -0.1256  0.5625 -0.3257
 5576SOL    HW128190   0.608   3.668  12.129  0.0806  0.2075  0.3167
 5576SOL    HW228191   0.712   3.559  12.133 -0.6313  0.1990 -0.7085
 5577SOL     OW28192   1.157   4.346   5.066 -0.6692  0.0357 -0.1510
 5577SOL    HW128193   1.114   4.305   5.141  0.4146  0.6485  0.7826
 5577SOL    HW228194   1.118   4.285   5.002 -0.7472  0.2105 -0.2702
 5578SOL     OW28195   3.659   1.585   9.468 -0.4940  0.4027  0.3356
 5578SOL    HW128196   3.662   1.564   9.375  0.9385 -0.0010  0.4726
 5578SOL    HW228197   3.588   1.649   9.480 -0.1956  0.4530  1.8663
 5579SOL     OW28198   2.865   0.331   8.575  0.4182 -0.4246 -0.3630
 5579SOL    HW128199   2.836   0.369   8.659  2.3186  3.0437 -1.2561
 5579SOL    HW228200   2.888   0.418   8.541  2.9489 -0.3757  1.4764
 5580SOL     OW28201   3.675   4.422  10.681 -0.3365 -0.3669  0.6902
 5580SOL    HW128202   3.640   4.452  10.765 -0.4424 -1.4370  1.0414
 5580SOL    HW228203   3.768   4.444  10.688 -0.8111  2.0591 -1.1661
 5581SOL     OW28204   3.359   1.959  13.054  0.3712  0.4125 -0.0945
 5581SOL    HW128205   3.340   1.876  13.010 -0.1226  0.6115 -0.2637
 5581SOL    HW228206   3.450   1.940  13.075  0.7915 -0.2453 -2.4554
 5582SOL     OW28207   3.884   4.055   1.999  0.1063 -0.1241 -0.1662
 5582SOL    HW128208   3.877   3.962   1.978  0.9001 -0.3085  0.3410
 5582SOL    HW228209   3.803   4.087   2.038  0.2774 -0.3305  0.3646
 5583SOL     OW28210   0.961   3.562   4.285  0.4837  0.3311  0.2313
 5583SOL    HW128211   0.987   3.616   4.210  0.3715  0.7177  0.4702
 5583SOL    HW228212   0.878   3.595   4.320  0.9492  0.2200  1.4227
 5584SOL     OW28213   3.854   3.302   4.415  0.1222 -0.4301 -0.5304
 5584SOL    HW128214   3.789   3.360   4.375  0.9225  2.4195  2.2522
 5584SOL    HW228215   3.829   3.224   4.366  1.1653 -0.0236 -1.7154
 5585SOL     OW28216   3.311   1.988   9.234 -0.0478  0.1089 -0.2473
 5585SOL    HW128217   3.217   1.975   9.245 -0.2224  0.2343 -1.6801
 5585SOL    HW228218   3.350   1.962   9.318  1.0429  1.0473 -0.4641
 5586SOL     OW28219   1.580   0.221   1.983 -0.5849 -0.2051 -0.7383
 5586SOL    HW128220   1.579   0.300   1.929 -1.3173  0.5847  0.4364
 5586SOL    HW228221   1.527   0.168   1.923  1.5070 -0.0514 -2.7223
 5587SOL     OW28222   4.608   4.084  17.083  0.0728 -0.4433  0.3137
 5587SOL    HW128223   4.529   4.098  17.136  0.9581  2.9126  0.7711
 5587SOL    HW228224   4.643   4.172  17.069 -2.2761  0.5248  0.5480
 5588SOL     OW28225   2.651   4.541   9.068  0.8570 -0.1948  0.1707
 5588SOL    HW128226   2.583   4.565   9.131  2.0781  2.2262  0.5474
 5588SOL    HW228227   2.608   4.462   9.035  0.3546  1.0476 -2.1773
 5589SOL     OW28228   0.933   4.557  15.308 -0.1322 -0.0418  0.0784
 5589SOL    HW128229   0.903   4.494  15.243 -1.4381  0.8059 -0.1385
 5589SOL    HW228230   1.005   4.509  15.348 -0.0034  1.6401  1.8730
 5590SOL     OW28231   3.867   1.338  13.133  0.1163  0.1084 -0.2990
 5590SOL    HW128232   3.843   1.296  13.051 -0.4888  1.9463 -1.0549
 5590SOL    HW228233   3.801   1.304  13.193  0.3071  0.7933  0.3076
 5591SOL     OW28234   1.004   0.382   1.753  0.0698 -0.6299  0.3696
 5591SOL    HW128235   0.991   0.465   1.800 -0.8043  0.6790 -2.1915
 5591SOL    HW228236   0.912   0.359   1.744 -0.3732  1.4942 -0.3962
 5592SOL     OW28237   0.401   2.511   5.966  0.4163  0.2145 -0.3559
 5592SOL    HW128238   0.327   2.464   6.005 -0.6619  3.0066  0.9913
 5592SOL    HW228239   0.420   2.551   6.051  2.8061 -2.1983  0.2186
 5593SOL     OW28240   3.995   2.917   6.053 -0.0241  0.2290  0.7937
 5593SOL    HW128241   4.000   2.888   6.144 -0.9234 -1.4915  0.2929
 5593SOL    HW228242   3.951   2.850   6.001 -2.3950  1.5122  1.1284
 5594SOL     OW28243   3.650   1.324   6.036  0.2871 -0.3878 -0.6206
 5594SOL    HW128244   3.715   1.254   6.039  0.2775 -0.2400  2.4835
 5594SOL    HW228245   3.662   1.357   6.125 -1.0036  1.0357 -0.9718
 5595SOL     OW28246   4.073   1.252   2.350  0.2593 -0.0117  0.1166
 5595SOL    HW128247   4.002   1.251   2.286  0.5572 -1.8486 -0.1951
 5595SOL    HW228248   4.042   1.300   2.427 -1.6746 -1.6597  0.3762
 5596SOL     OW28249   1.418   3.037   6.115 -0.1797 -0.4870  0.1781
 5596SOL    HW128250   1.394   3.048   6.023 -0.2452  1.4267  0.4275
 5596SOL    HW228251   1.347   3.074   6.167  2.6347  2.4353  1.9458
 5597SOL     OW28252   4.462   0.573   7.308 -0.7049  0.4658  0.3266
 5597SOL    HW128253   4.394   0.634   7.279 -1.6400 -1.5511 -1.8092
 5597SOL    HW228254   4.416   0.508   7.361 -0.8866 -0.3672 -0.8491
 5598SOL     OW28255   1.935   1.279  14.393 -0.0794  0.5004  0.6609
 5598SOL    HW128256   1.986   1.238  14.462 -1.0500 -0.4193  0.8445
 5598SOL    HW228257   1.950   1.222  14.317 -2.2848 -1.2530  1.5295
 5599SOL     OW28258   3.952   3.720  12.624  0.5206 -0.5887 -0.8170
 5599SOL    HW128259   3.943   3.685  12.713  1.5910  0.6878 -0.2027
 5599SOL    HW228260   3.884   3.786  12.617  0.5278 -0.4154  0.8499
 5600SOL     OW28261   1.035   4.399   9.518 -0.3514  0.0848 -0.3649
 5600SOL    HW128262   1.124   4.419   9.545 -0.4469 -0.7502  0.5453
 5600SOL    HW228263   0.986   4.402   9.600 -2.1954  0.8722 -1.4837
 5601SOL     OW28264   0.334   3.414   5.332 -0.8217  0.0066  0.0291
 5601SOL    HW128265   0.405   3.351   5.345 -0.7496  0.2106  0.6193
 5601SOL    HW228266   0.274   3.368   5.273 -1.7093  0.6466  0.4333
 5602SOL     OW28267   0.686   0.804   9.177 -0.2360  0.5794  0.3149
 5602SOL    HW128268   0.689   0.874   9.112  0.0749 -0.3132 -0.6223
 5602SOL    HW228269   0.754   0.744   9.148 -2.0485 -0.3141 -2.0549
 5603SOL     OW28270   4.599   0.771   0.463  0.2900 -0.0793 -0.2952
 5603SOL    HW128271   4.625   0.794   0.552  0.3523 -1.2680 -0.0034
 5603SOL    HW228272   4.635   0.682   0.467 -0.4919 -0.3743  0.3268
 5604SOL     OW28273   3.028   0.801   4.984 -0.3758  0.4681 -0.2495
 5604SOL    HW128274   3.046   0.894   4.967  2.0292 -0.3724 -2.2019
 5604SOL    HW228275   2.933   0.799   4.991 -0.4545 -0.5258 -1.5123
 5605SOL     OW28276   2.758   4.316  16.929 -0.0964  0.2864  0.8832
 5605SOL    HW128277   2.759   4.411  16.929 -0.8745  0.2862 -0.4289
 5605SOL    HW228278   2.759   4.295  17.023  2.0125 -1.1686  0.5460
 5606SOL     OW28279   0.809   0.902   0.207  0.1781 -0.1398 -0.3790
 5606SOL    HW128280   0.902   0.892   0.228  0.4477 -0.6945 -1.8233
 5606SOL    HW228281   0.767   0.874   0.288 -1.9369  0.3411 -1.3296
 5607SOL     OW28282   2.599   3.894   2.616 -0.0474 -0.6949 -0.2378
 5607SOL    HW128283   2.557   3.954   2.678  0.5569  0.8392 -1.3177
 5607SOL    HW228284   2.646   3.829   2.669 -0.4217 -0.4521  0.3841
 5608SOL     OW28285   2.297   3.584  10.168 -0.1996  0.3460 -0.5686
 5608SOL    HW128286   2.287   3.591  10.263  1.9426 -1.9095 -0.1655
 5608SOL    HW228287   2.365   3.517  10.157 -1.3159 -0.7042 -1.0725
 5609SOL     OW28288   1.553   2.446   0.247  0.2508  0.0194  0.1752
 5609SOL    HW128289   1.614   2.372   0.241  0.0287 -0.3029  2.1052
 5609SOL    HW228290   1.606   2.517   0.211 -2.0902  0.4070 -2.4669
 5610SOL     OW28291   0.437   1.702   3.229 -0.4090 -0.3323 -0.2169
 5610SOL    HW128292   0.354   1.668   3.196 -1.5238  1.5932  0.5868
 5610SOL    HW228293   0.492   1.696   3.150 -1.7489 -2.9783 -0.9470
 5611SOL     OW28294   0.206   4.454   1.262  0.1876 -0.1247 -0.0732
 5611SOL    HW128295   0.131   4.406   1.228  0.0275 -0.8988  1.3785
 5611SOL    HW228296   0.196   4.443   1.356  0.1308 -1.8358 -0.2840
 5612SOL     OW28297   3.264   2.820   4.835  0.4451 -0.1040  0.3235
 5612SOL    HW128298   3.244   2.913   4.847  2.4089  0.4452 -0.7193
 5612SOL    HW228299   3.351   2.824   4.797 -0.3725  1.8921 -1.3009
 5613SOL     OW28300   2.395   1.577  10.164  0.1783  0.0420 -0.2262
 5613SOL    HW128301   2.484   1.552  10.143  0.8743  1.2226  1.3428
 5613SOL    HW228302   2.421   1.667  10.183 -0.3301  1.0759 -4.2793
 5614SOL     OW28303   2.260   3.395  14.150  0.2508 -0.2198 -0.2343
 5614SOL    HW128304   2.271   3.481  14.190  1.4857  0.7341 -2.5987
 5614SOL    HW228305   2.279   3.443  14.069 -1.5003  0.7546 -0.0545
 5615SOL     OW28306   0.267   4.194  11.258 -0.2432  0.2504 -0.2719
 5615SOL    HW128307   0.331   4.258  11.227 -1.7109  2.1099  0.5356
 5615SOL    HW228308   0.205   4.187  11.185  0.3686 -2.0956 -0.5648
 5616SOL     OW28309   0.528   0.564   7.378 -0.0924 -0.3753 -0.0757
 5616SOL    HW128310   0.570   0.598   7.457 -0.1658  0.6050 -0.4484
 5616SOL    HW228311   0.439   0.591   7.401  0.3909  0.8149  0.4234
 5617SOL     OW28312   4.689   1.330   7.541  0.0181 -0.8176  0.3044
 5617SOL    HW128313   4.632   1.257   7.517 -1.3448  0.4602 -0.2661
 5617SOL    HW228314   0.003   1.297   7.623 -0.3842 -0.1071  0.7687
 5618SOL     OW28315   1.834   4.051  17.347 -0.5867  0.2767  0.3405
 5618SOL    HW128316   1.753   4.077  17.304 -1.1256 -0.6326  0.8014
 5618SOL    HW228317   1.905   4.071  17.286 -0.8107  1.9919  0.6267
 5619SOL     OW28318   4.146   0.026   2.068  0.5936  0.1978  0.0536
 5619SOL    HW128319   4.237   0.015   2.095  0.2905 -0.5977  0.7513
 5619SOL    HW228320   4.138   0.115   2.104 -0.7176 -0.2897  0.9833
 5620SOL     OW28321   3.187   4.481   7.234  0.4905 -0.3365  0.6271
 5620SOL    HW128322   3.189   4.388   7.210  0.2016 -0.5024  1.2243
 5620SOL    HW228323   3.228   4.492   7.320  0.3368  1.9860  0.3978
 5621SOL     OW28324   4.340   4.044  12.735 -0.2062  0.0293 -0.2387
 5621SOL    HW128325   4.272   4.095  12.691 -0.0754  0.7991  0.4644
 5621SOL    HW228326   4.315   3.952  12.725  1.1194 -0.1837 -1.6521
 5622SOL     OW28327   2.781   2.761   4.404  0.2538 -0.5956 -0.4848
 5622SOL    HW128328   2.799   2.679   4.450 -0.1495  0.0084  0.7313
 5622SOL    HW228329   2.860   2.776   4.352  0.0842 -1.1594 -0.9056
 5623SOL     OW28330   3.369   3.990   0.039 -0.2502 -0.0716 -0.7525
 5623SOL    HW128331   3.286   4.033   0.021 -0.7092 -0.6137  0.1071
 5623SOL    HW228332   3.360   3.903  17.695  1.8683 -0.8501  0.4254
 5624SOL     OW28333   2.428   2.296   9.339 -0.1406  0.5993 -0.9436
 5624SOL    HW128334   2.408   2.203   9.349  2.9012  0.0876  0.3505
 5624SOL    HW228335   2.480   2.309   9.418  1.0574 -0.8734 -1.4921
 5625SOL     OW28336   0.812   0.844   7.396 -0.1836  0.5467  0.2836
 5625SOL    HW128337   0.806   0.807   7.484 -1.5786 -2.2362 -1.0065
 5625SOL    HW228338   0.739   0.906   7.401  0.0257  0.9828 -1.9078
 5626SOL     OW28339   1.378   3.833   0.331  0.3050 -0.0568 -0.1519
 5626SOL    HW128340   1.435   3.875   0.266  2.1894  0.4513  1.8151
 5626SOL    HW228341   1.319   3.904   0.356  0.1664 -0.0179 -0.5965
 5627SOL     OW28342   0.060   0.585   5.109  0.0893  0.3139 -0.0607
 5627SOL    HW128343   4.699   0.626   5.124  1.1550  2.3677  0.2425
 5627SOL    HW228344   0.067   0.579   5.014 -1.3816 -0.4434 -0.1336
 5628SOL     OW28345   0.044   3.802  11.138 -0.0662 -0.1920  0.1518
 5628SOL    HW128346   4.722   3.885  11.150 -2.2739 -1.7159  2.2750
 5628SOL    HW228347   0.108   3.838  11.076 -0.6907  0.1871 -0.2725
 5629SOL     OW28348   0.785   0.440   6.549  0.3244 -0.6311  0.3074
 5629SOL    HW128349   0.724   0.489   6.604  0.2375 -0.1130 -0.2564
 5629SOL    HW228350   0.729   0.378   6.503 -0.6476  0.3196  0.2072
 5630SOL     OW28351   1.882   2.745   0.836 -0.3716 -0.1442  0.1788
 5630SOL    HW128352   1.796   2.706   0.851 -1.2866  1.4310 -0.9759
 5630SOL    HW228353   1.898   2.782   0.923  0.8073 -1.4484  0.5141
 5631SOL     OW28354   1.408   1.930   3.330 -0.5089  0.1368  0.2170
 5631SOL    HW128355   1.457   1.937   3.411  0.1606 -0.8675 -0.1070
 5631SOL    HW228356   1.383   2.022   3.320 -0.8763  0.0536  0.3638
 5632SOL     OW28357   1.270   4.209  17.321  0.7783 -0.1582  0.2516
 5632SOL    HW128358   1.296   4.232  17.410 -0.1810  0.2201  0.4312
 5632SOL    HW228359   1.238   4.294  17.290  0.3840 -0.4173 -0.0680
 5633SOL     OW28360   4.545   3.940   3.643  0.1117  0.5797 -0.2460
 5633SOL    HW128361   4.620   3.891   3.676 -0.7741  0.3901  1.4687
 5633SOL    HW228362   4.556   4.026   3.683 -2.4266  1.8306 -2.1616
 5634SOL     OW28363   3.539   3.490   7.962  0.4426 -0.1209  0.1091
 5634SOL    HW128364   3.468   3.507   8.023  1.5754  0.5211  1.2544
 5634SOL    HW228365   3.527   3.567   7.906  0.1339 -0.3123 -0.0877
 5635SOL     OW28366   2.547   4.045   3.497 -0.4785 -0.4723 -0.0509
 5635SOL    HW128367   2.482   4.108   3.529  0.9500  1.5724 -1.2248
 5635SOL    HW228368   2.633   4.082   3.515  0.4784 -1.6682 -2.2389
 5636SOL     OW28369   0.325   1.641  17.527 -0.0399 -0.3072 -0.2748
 5636SOL    HW128370   0.288   1.618  17.442  0.2288 -1.2153 -0.1497
 5636SOL    HW228371   0.415   1.613  17.507  0.2570  0.6511 -0.2863
 5637SOL     OW28372   0.618   3.661   5.439 -0.5690 -1.0039  0.0615
 5637SOL    HW128373   0.616   3.636   5.531 -1.5155  1.3896  0.6758
 5637SOL    HW228374   0.526   3.654   5.413  0.1626 -1.9674 -2.2645
 5638SOL     OW28375   1.195   3.129  10.067  1.0904 -0.6307  0.3468
 5638SOL    HW128376   1.228   3.113  10.155 -2.3959 -3.4701  1.0973
 5638SOL    HW228377   1.178   3.224  10.064 -0.2435 -0.9379 -1.8805
 5639SOL     OW28378   0.878   3.011  11.662 -0.0250  0.5031  0.6212
 5639SOL    HW128379   0.930   3.060  11.725  1.9396 -1.1439  0.3029
 5639SOL    HW228380   0.921   3.046  11.584 -1.2433  0.4215 -0.0940
 5640SOL     OW28381   2.679   2.229   2.854  0.2043 -0.1195  0.4339
 5640SOL    HW128382   2.668   2.193   2.942 -0.8315 -0.1623  0.2872
 5640SOL    HW228383   2.642   2.156   2.806  1.0928 -0.6052  0.4992
 5641SOL     OW28384   2.240   0.067   1.622 -0.0720 -0.3864 -0.5527
 5641SOL    HW128385   2.181   4.715   1.614 -0.8053  0.1714 -0.4548
 5641SOL    HW228386   2.261   0.090   1.531 -3.2861 -0.7228 -1.4058
 5642SOL     OW28387   0.340   0.670   8.719  0.9965  0.5535 -0.4801
 5642SOL    HW128388   0.366   0.578   8.725  1.4467  0.7714  1.0162
 5642SOL    HW228389   0.256   0.646   8.680  0.1451  1.0751  1.0472
 5643SOL     OW28390   0.230   4.408   4.380  0.6568 -0.6478  0.5136
 5643SOL    HW128391   0.150   4.434   4.426  0.6034  1.6575 -0.8584
 5643SOL    HW228392   0.228   4.312   4.386 -0.1609 -0.5589  1.5651
 5644SOL     OW28393   1.940   4.309   2.025  0.1830  0.4483  0.5098
 5644SOL    HW128394   1.944   4.366   2.101 -1.4619 -1.7714  2.2666
 5644SOL    HW228395   2.005   4.343   1.964 -1.6594  1.9084 -0.6577
 5645SOL     OW28396   0.558   0.271   4.449  0.0699 -0.0047  0.0894
 5645SOL    HW128397   0.588   0.198   4.395  0.0520  0.3268 -0.3707
 5645SOL    HW228398   0.596   0.252   4.535  0.9858 -1.9542 -0.7458
 5646SOL     OW28399   1.087   0.726  12.347  0.3103  0.3775 -0.1135
 5646SOL    HW128400   1.026   0.717  12.273  1.7510  1.7422 -1.4774
 5646SOL    HW228401   1.053   0.807  12.385 -0.3301  0.3252 -0.5570
 5647SOL     OW28402   2.939   2.841   3.127  0.1873 -0.3787 -0.0716
 5647SOL    HW128403   3.007   2.795   3.076 -0.5168  3.0435 -4.1256
 5647SOL    HW228404   2.931   2.800   3.213 -0.0756 -1.6760 -0.7146
 5648SOL     OW28405   1.193   1.273  10.107 -0.0335  0.3002 -0.0250
 5648SOL    HW128406   1.159   1.230  10.186  1.6936  0.3765  0.7581
 5648SOL    HW228407   1.166   1.364  10.117 -0.1363  0.0178  2.4187
 5649SOL     OW28408   0.648   0.112   0.840 -0.3859  0.2660 -0.4823
 5649SOL    HW128409   0.615   0.199   0.818 -0.4101  0.7693  1.6078
 5649SOL    HW228410   0.605   0.100   0.924 -1.1416  2.2326 -0.5938
 5650SOL     OW28411   4.029   0.059   4.993  0.1133  0.2324 -0.0814
 5650SOL    HW128412   3.967   0.126   5.022  1.5967  1.3917  0.3662
 5650SOL    HW228413   4.048   0.076   4.901  0.6491 -3.8560 -0.7315
 5651SOL     OW28414   0.029   2.538  12.780 -0.6451 -0.4900 -0.2414
 5651SOL    HW128415   4.663   2.570  12.791 -1.2747 -1.9200 -1.3232
 5651SOL    HW228416   0.017   2.447  12.754 -0.1030 -0.7717  0.4679
 5652SOL     OW28417   1.410   4.308  17.562  0.3130  0.2339 -0.4858
 5652SOL    HW128418   1.367   4.300  17.647  0.6855 -0.5554 -0.3755
 5652SOL    HW228419   1.489   4.256  17.579 -0.0155 -0.1086 -0.0116
 5653SOL     OW28420   4.501   3.507   8.236  0.1303  0.5143  0.6329
 5653SOL    HW128421   4.526   3.415   8.235  0.5127  0.6399 -1.5136
 5653SOL    HW228422   4.529   3.535   8.324 -0.5084 -0.1111  1.0380
 5654SOL     OW28423   1.487   3.488   9.968  0.3717 -0.2851  0.2506
 5654SOL    HW128424   1.494   3.505  10.062 -0.4610 -0.6498  0.3791
 5654SOL    HW228425   1.483   3.575   9.927  1.3060 -0.2864  0.1632
 5655SOL     OW28426   2.134   1.872  12.497  0.1756  0.3494 -0.2997
 5655SOL    HW128427   2.062   1.881  12.435  0.4377 -1.0365 -0.7990
 5655SOL    HW228428   2.201   1.838  12.438  1.2033  0.2512  0.9149
 5656SOL     OW28429   3.945   2.457  16.646 -0.3723  0.5130  0.3166
 5656SOL    HW128430   4.022   2.456  16.589  0.8196 -1.0944  1.9348
 5656SOL    HW228431   3.913   2.370  16.625  0.6597  0.6513 -1.7840
 5657SOL     OW28432   1.164   3.468   6.082 -0.1144  0.6229  0.0497
 5657SOL    HW128433   1.116   3.550   6.079  1.2185  1.4322  1.0845
 5657SOL    HW228434   1.167   3.442   6.174  1.6029 -1.4412 -0.5788
 5658SOL     OW28435   3.514   0.219  17.493  0.0935  0.2664 -0.2811
 5658SOL    HW128436   3.556   0.303  17.509 -0.1102  0.3022  0.0788
 5658SOL    HW228437   3.516   0.185  17.583  1.4963  1.7592  0.2373
 5659SOL     OW28438   1.928   4.001  14.380 -0.1838 -0.2030  0.7652
 5659SOL    HW128439   1.987   4.029  14.310 -0.8933 -0.2836  0.1350
 5659SOL    HW228440   1.929   3.908  14.359  0.1618 -0.2598  1.0299
 5660SOL     OW28441   4.343   2.045   1.631 -0.4186  1.0266 -0.0590
 5660SOL    HW128442   4.296   2.106   1.688 -0.3616  1.0321 -0.0179
 5660SOL    HW228443   4.413   2.098   1.593  0.5493 -0.3230 -0.1640
 5661SOL     OW28444   3.079   4.594   7.880  0.0112  0.7301 -0.7635
 5661SOL    HW128445   3.136   4.549   7.818  0.4412 -2.4308  1.9373
 5661SOL    HW228446   2.994   4.564   7.849  0.8784  0.2251 -2.5982
 5662SOL     OW28447   3.611   2.328   4.180  0.4195  0.0668 -0.3155
 5662SOL    HW128448   3.648   2.397   4.125  0.5523 -0.6760 -1.1648
 5662SOL    HW228449   3.599   2.261   4.113 -0.1890 -0.8787  0.7423
 5663SOL     OW28450   4.358   2.129   0.385  0.0016  0.0204 -0.3586
 5663SOL    HW128451   4.438   2.077   0.396  0.9405  1.4163 -0.5677
 5663SOL    HW228452   4.395   2.217   0.376  2.1293 -0.8693 -0.2690
 5664SOL     OW28453   1.470   3.128  12.592  0.4886 -0.3058  0.5658
 5664SOL    HW128454   1.492   3.221  12.584 -2.7665  0.5041  0.8329
 5664SOL    HW228455   1.479   3.107  12.499 -1.4700 -0.1841  0.3382
 5665SOL     OW28456   3.926   2.289   7.149  0.1785  0.3129  0.1722
 5665SOL    HW128457   3.974   2.367   7.178 -0.9264  0.7491  0.8341
 5665SOL    HW228458   3.838   2.321   7.129  0.3089 -0.1453 -1.1591
 5666SOL     OW28459   3.061   1.513   5.897  0.0120  0.2385  0.3678
 5666SOL    HW128460   3.147   1.498   5.936  0.3153 -0.1939 -0.4662
 5666SOL    HW228461   3.072   1.464   5.816 -3.5147  1.7652 -1.0437
 5667SOL     OW28462   0.199   2.453   7.736 -0.0882  0.2741 -0.0079
 5667SOL    HW128463   0.160   2.423   7.818  1.2017  0.6589  0.7313
 5667SOL    HW228464   0.142   2.520   7.699  0.7606 -0.3818 -2.4981
 5668SOL     OW28465   1.940   4.677   6.384  0.2983 -0.0319  0.7400
 5668SOL    HW128466   2.029   4.663   6.351  0.1068 -0.3048  0.3305
 5668SOL    HW228467   1.888   4.620   6.327 -1.4139  3.1403 -0.8743
 5669SOL     OW28468   4.066   1.223   7.473 -0.0139 -0.3878 -0.0541
 5669SOL    HW128469   4.039   1.315   7.478 -0.7619 -0.5637 -0.9323
 5669SOL    HW228470   4.153   1.226   7.512  0.7986  0.6784 -1.9707
 5670SOL     OW28471   3.615   2.637   9.812  0.1400 -0.2055 -0.0629
 5670SOL    HW128472   3.531   2.679   9.796  0.4534  0.2829 -0.4234
 5670SOL    HW228473   3.674   2.682   9.751  1.4614  0.2967  1.5688
 5671SOL     OW28474   1.815   3.912   0.347  0.0394  0.5689 -0.6155
 5671SOL    HW128475   1.769   3.979   0.398  2.2946  2.5963 -1.2336
 5671SOL    HW228476   1.749   3.858   0.303  0.6455  0.0508 -0.9011
 5672SOL     OW28477   3.318   2.921   2.978  0.0205  0.1708 -0.3477
 5672SOL    HW128478   3.293   2.883   2.894 -0.9374 -0.2328  0.1170
 5672SOL    HW228479   3.317   3.013   2.952  1.7337  0.1944 -0.3482
 5673SOL     OW28480   3.114   2.626   5.774  0.2382  0.8485 -0.3884
 5673SOL    HW128481   3.175   2.553   5.764  0.1646  0.7886 -0.4068
 5673SOL    HW228482   3.078   2.635   5.685 -0.7601 -2.5440 -0.3519
 5674SOL     OW28483   3.889   3.846   5.005  0.3267  0.4311 -0.0772
 5674SOL    HW128484   3.965   3.799   4.971  1.0996  1.5191  0.1413
 5674SOL    HW228485   3.831   3.805   4.942 -1.9917  1.4313  1.3676
 5675SOL     OW28486   4.687   0.813  15.658 -0.1032 -0.2190 -0.0372
 5675SOL    HW128487   4.641   0.788  15.738 -0.2925  0.2404 -0.0039
 5675SOL    HW228488   4.665   0.742  15.597 -1.2139  0.8429 -0.8577
 5676SOL     OW28489   3.564   1.403   2.452  0.0704  0.0135  0.5244
 5676SOL    HW128490   3.533   1.493   2.446  0.2834  0.1399  1.2649
 5676SOL    HW228491   3.493   1.354   2.493 -1.4398  1.9775  0.2680
 5677SOL     OW28492   3.985   2.559   8.288  0.0950 -0.1773  0.0417
 5677SOL    HW128493   3.949   2.632   8.238  1.4607  0.3760 -0.1199
 5677SOL    HW228494   3.900   2.517   8.307  0.8104 -0.8254  1.8001
 5678SOL     OW28495   0.275   4.494  12.285 -0.0058 -1.1367  0.2663
 5678SOL    HW128496   0.340   4.564  12.295  0.7151 -1.9723  1.4116
 5678SOL    HW228497   0.267   4.497  12.190 -1.7332 -0.6380  0.4327
 5679SOL     OW28498   1.618   3.837   2.131 -0.5119 -0.2266 -0.1175
 5679SOL    HW128499   1.642   3.879   2.214 -1.5324  1.4664 -0.6807
 5679SOL    HW228500   1.681   3.765   2.138  0.0682  0.4623  1.7276
 5680SOL     OW28501   4.302   2.712   1.305 -0.1128 -0.7000 -0.3398
 5680SOL    HW128502   4.374   2.755   1.258 -0.4155 -0.6092 -0.7202
 5680SOL    HW228503   4.235   2.703   1.237 -1.3923  2.1722  0.5069
 5681SOL     OW28504   3.653   0.507   3.089  0.3167 -0.1535  0.7112
 5681SOL    HW128505   3.730   0.474   3.135  0.7395  0.3845  0.4015
 5681SOL    HW228506   3.585   0.459   3.136  0.1178  0.0174  0.6001
 5682SOL     OW28507   1.917   4.002   8.430  0.6464 -0.2963  0.0330
 5682SOL    HW128508   1.941   4.050   8.509 -1.8120 -0.2206  0.7397
 5682SOL    HW228509   1.972   4.051   8.369 -1.8813  2.2466 -0.1641
 5683SOL     OW28510   2.290   0.874  11.105  0.1372 -0.0072 -0.2034
 5683SOL    HW128511   2.261   0.822  11.030  0.7755  1.9914 -1.8513
 5683SOL    HW228512   2.244   0.822  11.172 -1.9754  0.7165 -1.0690
 5684SOL     OW28513   2.955   0.148   4.699  0.2739  0.0531 -0.0560
 5684SOL    HW128514   2.975   0.238   4.676 -0.9782 -0.0909 -1.6915
 5684SOL    HW228515   3.016   0.128   4.770 -0.2945  0.6124  0.5922
 5685SOL     OW28516   1.426   2.452  10.613  0.9201  0.3977 -0.3459
 5685SOL    HW128517   1.350   2.470  10.557  1.4077  2.7355 -0.2352
 5685SOL    HW228518   1.418   2.518  10.681 -0.7337 -0.8030  0.6366
 5686SOL     OW28519   4.700   0.036   5.421 -0.4121 -0.0260 -0.6793
 5686SOL    HW128520   4.668   0.063   5.507  2.1513  1.9361 -0.3311
 5686SOL    HW228521   4.660   0.105   5.369 -1.3672 -0.0050  0.0912
 5687SOL     OW28522   0.850   3.945  11.151 -0.8349 -0.5813  0.3107
 5687SOL    HW128523   0.769   3.964  11.197 -0.7135  2.5050 -0.7916
 5687SOL    HW228524   0.875   3.861  11.191  0.7809 -0.0239  0.4856
 5688SOL     OW28525   0.864   3.570  10.839  0.2793  0.1450 -0.1315
 5688SOL    HW128526   0.957   3.562  10.862 -0.1546 -1.2096  1.1161
 5688SOL    HW228527   0.832   3.611  10.919  0.0708 -1.0690  0.4043
 5689SOL     OW28528   2.337   0.719  15.549  0.1972  0.3099 -0.4265
 5689SOL    HW128529   2.353   0.637  15.596 -0.4618  0.7730  0.6017
 5689SOL    HW228530   2.349   0.682  15.462 -1.2679  0.7840 -0.8242
 5690SOL     OW28531   4.383   4.190   5.306 -0.7894 -0.1143 -0.0272
 5690SOL    HW128532   4.406   4.283   5.305  0.5745 -0.4658 -0.9946
 5690SOL    HW228533   4.472   4.157   5.308 -0.6437  0.0718 -3.6312
 5691SOL     OW28534   2.113   0.823   4.079 -0.0556 -0.3694 -0.0627
 5691SOL    HW128535   2.180   0.854   4.018 -1.0814 -2.4542 -2.2448
 5691SOL    HW228536   2.161   0.753   4.124 -2.2327 -0.5148  2.0435
 5692SOL     OW28537   1.159   2.459  12.134 -0.0779  0.4282  0.3085
 5692SOL    HW128538   1.119   2.372  12.131  1.3842 -0.2262 -0.5211
 5692SOL    HW228539   1.085   2.518  12.140 -0.0700  0.4644  0.0354
 5693SOL     OW28540   3.490   0.366   8.981  0.2347  0.1417 -0.0629
 5693SOL    HW128541   3.565   0.417   8.949  0.2416 -0.1467 -0.5049
 5693SOL    HW228542   3.430   0.374   8.906 -1.6639 -0.7162  1.3749
 5694SOL     OW28543   1.740   3.627   5.609  0.1942 -0.0526  0.4184
 5694SOL    HW128544   1.796   3.624   5.687 -0.1249 -0.9809  0.6141
 5694SOL    HW228545   1.677   3.560   5.635  2.2873 -2.2476 -0.1410
 5695SOL     OW28546   3.083   4.162   7.315 -0.1283 -0.0519  0.7087
 5695SOL    HW128547   3.115   4.184   7.402 -1.3670  0.7858  0.9476
 5695SOL    HW228548   3.027   4.096   7.355  2.0273 -1.2798  1.6957
 5696SOL     OW28549   2.160   4.406   8.374 -0.3031 -0.0920  0.2091
 5696SOL    HW128550   2.072   4.440   8.361 -0.9457 -1.5222  0.8100
 5696SOL    HW228551   2.209   4.405   8.292  0.5113 -1.2135  0.7091
 5697SOL     OW28552   0.718   4.484   6.058  0.2961  0.4963 -0.0771
 5697SOL    HW128553   0.787   4.533   6.103  1.1741 -0.9745  0.1864
 5697SOL    HW228554   0.773   4.444   5.991  2.3997  2.3847  0.5157
 5698SOL     OW28555   4.452   0.989  11.988  0.3445  0.1137  0.2188
 5698SOL    HW128556   4.535   1.007  12.032 -0.6881 -2.3451  3.2193
 5698SOL    HW228557   4.432   1.052  11.919  3.2317  0.9853  0.2190
 5699SOL     OW28558   3.548   2.974  12.124  0.3874  0.0141  0.0455
 5699SOL    HW128559   3.559   3.062  12.159 -1.6016 -0.1049  0.9752
 5699SOL    HW228560   3.588   2.920  12.193 -0.5280 -1.3457 -0.4816
 5700SOL     OW28561   4.110   0.326   1.572 -0.0107  0.5954  0.0357
 5700SOL    HW128562   4.043   0.378   1.527 -0.8067  0.8634  1.5485
 5700SOL    HW228563   4.130   0.265   1.501  0.2040 -0.6706  1.1903
 5701SOL     OW28564   4.196   0.379   3.116  0.3147 -0.1149  0.0107
 5701SOL    HW128565   4.227   0.310   3.058 -0.7700 -0.9446  0.4084
 5701SOL    HW228566   4.257   0.450   3.097 -0.5332  0.8752  0.9890
 5702SOL     OW28567   1.986   1.054   6.209 -0.4421  0.1107 -0.0471
 5702SOL    HW128568   2.065   1.042   6.262 -0.7056 -1.1077  0.0523
 5702SOL    HW228569   1.980   0.961   6.188 -0.3730 -0.0866  0.8015
 5703SOL     OW28570   0.211   2.380  12.013  0.0300 -0.1559 -0.8334
 5703SOL    HW128571   0.130   2.430  11.998  0.1641 -0.5898 -2.9579
 5703SOL    HW228572   0.210   2.397  12.107 -1.3833 -3.8275 -0.1832
 5704SOL     OW28573   1.670   2.903   0.687  0.4148 -0.1313 -0.6803
 5704SOL    HW128574   1.717   2.904   0.770 -0.9964  1.1015  0.0942
 5704SOL    HW228575   1.693   2.819   0.647 -0.1008 -0.3355 -0.5501
 5705SOL     OW28576   0.214   1.119  12.805 -0.0492 -0.0605  0.1928
 5705SOL    HW128577   0.131   1.074  12.821  0.5109 -0.3370  2.3596
 5705SOL    HW228578   0.199   1.172  12.726 -0.6414  0.6277  0.7626
 5706SOL     OW28579   3.678   1.376   9.886 -0.7486  0.0300  0.3821
 5706SOL    HW128580   3.763   1.408   9.917  0.6341 -2.8536 -0.4708
 5706SOL    HW228581   3.670   1.408   9.796  0.5057 -0.2129  0.1845
 5707SOL     OW28582   1.416   2.209   3.897 -0.0391 -0.0169  0.6228
 5707SOL    HW128583   1.367   2.129   3.916 -1.1469  0.8049  1.1660
 5707SOL    HW228584   1.363   2.281   3.930  0.5068  0.9668 -0.6242
 5708SOL     OW28585   1.280   2.507   5.241  0.6171  0.2473 -0.4657
 5708SOL    HW128586   1.205   2.453   5.217 -0.1270  1.0601  0.0231
 5708SOL    HW228587   1.237   2.578   5.289  2.2781  2.2124 -1.8752
 5709SOL     OW28588   0.264   1.349  10.335  0.4447 -0.3384 -0.1125
 5709SOL    HW128589   0.292   1.390  10.416  0.0714 -0.9739  0.3406
 5709SOL    HW228590   0.279   1.255  10.349 -2.7153 -0.5614  1.6840
 5710SOL     OW28591   1.648   1.419   5.922  0.6037  0.0040 -0.0904
 5710SOL    HW128592   1.672   1.329   5.899 -0.2098 -0.5346  1.2074
 5710SOL    HW228593   1.555   1.405   5.936  0.7531  0.4229  1.3253
 5711SOL     OW28594   4.412   0.078   2.103  0.2557  0.1545 -0.2109
 5711SOL    HW128595   4.476   0.008   2.114 -1.8481 -1.7507 -0.0511
 5711SOL    HW228596   4.440   0.128   2.026 -1.0614 -1.3400 -1.6523
 5712SOL     OW28597   1.049   1.554  12.909  0.0421 -0.6761  0.2665
 5712SOL    HW128598   0.983   1.523  12.847 -1.3775  0.6942  1.1139
 5712SOL    HW228599   1.118   1.488  12.896 -0.3893 -1.2888  1.0966
 5713SOL     OW28600   2.811   2.452   5.230  0.3066  0.5809  0.3029
 5713SOL    HW128601   2.744   2.494   5.284 -0.8422 -0.3916 -0.3536
 5713SOL    HW228602   2.851   2.529   5.189 -1.1860 -0.2215 -2.6449
 5714SOL     OW28603   2.900   2.865   3.893  0.0116  0.1422  0.0729
 5714SOL    HW128604   2.973   2.919   3.861 -0.9704  1.9377  0.8606
 5714SOL    HW228605   2.869   2.832   3.808 -0.6317  3.7538 -1.1038
 5715SOL     OW28606   3.968   1.081   5.515  0.9291 -0.3376 -0.8394
 5715SOL    HW128607   4.011   1.165   5.528  2.2963 -1.2513  0.5303
 5715SOL    HW228608   3.879   1.113   5.503  1.1922  0.5232 -0.4397
 5716SOL     OW28609   3.463   2.103   4.623 -0.8948 -0.2969 -0.5390
 5716SOL    HW128610   3.558   2.114   4.612 -0.5664 -0.9455  1.6027
 5716SOL    HW228611   3.430   2.172   4.567  0.0515  1.3301  0.9050
 5717SOL     OW28612   0.781   2.791  13.575  0.5164  0.3329 -0.2097
 5717SOL    HW128613   0.703   2.745  13.545  1.1046  0.2547 -1.6228
 5717SOL    HW228614   0.838   2.719  13.600 -0.0256  0.2338  0.7376
 5718SOL     OW28615   3.016   1.593   9.452 -0.0892  0.0298  0.6968
 5718SOL    HW128616   3.088   1.592   9.389 -1.0387  0.6501 -0.3782
 5718SOL    HW228617   2.999   1.499   9.449 -1.1895  0.2321  0.7706
 5719SOL     OW28618   0.865   0.018   4.699  0.2263  0.0086  0.1994
 5719SOL    HW128619   0.938   0.079   4.710  0.2484  0.0095  0.0461
 5719SOL    HW228620   0.798   0.073   4.658  0.4510 -0.6621 -1.0522
 5720SOL     OW28621   1.383   1.270   1.598 -0.4565  0.1158 -0.5684
 5720SOL    HW128622   1.431   1.223   1.530  3.4742  0.7316  1.7265
 5720SOL    HW228623   1.346   1.203   1.655  1.6155 -1.5247 -1.1544
 5721SOL     OW28624   1.953   2.206   3.222 -0.0897 -0.0281 -0.4590
 5721SOL    HW128625   1.896   2.281   3.202 -0.1571  0.7267  2.4810
 5721SOL    HW228626   2.032   2.236   3.178  1.6695  0.2641  2.9190
 5722SOL     OW28627   1.976   0.500   7.497  0.1437 -0.3972 -0.5705
 5722SOL    HW128628   1.889   0.526   7.527  0.8149  0.0185  0.9893
 5722SOL    HW228629   1.949   0.417   7.457  1.0856 -0.6233 -0.7216
 5723SOL     OW28630   2.805   2.213  12.946 -0.2210 -0.1431  0.4783
 5723SOL    HW128631   2.894   2.179  12.957  0.8850  2.5686 -0.1916
 5723SOL    HW228632   2.755   2.133  12.960 -0.9406 -0.0479 -1.5779
 5724SOL     OW28633   1.919   0.233   4.422  0.0248  0.2267  0.7791
 5724SOL    HW128634   2.010   0.252   4.400 -0.1626 -2.0325 -1.9406
 5724SOL    HW228635   1.945   0.234   4.514 -0.6495 -1.7241  0.9972
 5725SOL     OW28636   3.343   3.111   1.526  0.5788 -0.0561 -0.4897
 5725SOL    HW128637   3.347   3.186   1.584 -0.3882 -1.8150  1.8465
 5725SOL    HW228638   3.282   3.054   1.572  1.7014  0.0028  1.0574
 5726SOL     OW28639   1.020   3.253   3.534 -0.2502 -0.1878  0.0132
 5726SOL    HW128640   0.925   3.250   3.534 -0.3394  3.2267 -1.0513
 5726SOL    HW228641   1.045   3.268   3.443 -0.7920  0.6020 -0.0010
 5727SOL     OW28642   0.287   2.317   6.615 -0.2388 -0.0743  0.1839
 5727SOL    HW128643   0.251   2.248   6.559 -2.1919  1.2605 -0.2053
 5727SOL    HW228644   0.296   2.275   6.701 -1.4903  1.0263  0.8502
 5728SOL     OW28645   3.612   2.881   6.549 -0.1841 -0.4669  0.0151
 5728SOL    HW128646   3.683   2.826   6.581  0.4296 -1.0028 -2.2750
 5728SOL    HW228647   3.633   2.888   6.456  0.2007  0.8024  0.1937
 5729SOL     OW28648   1.712   4.375  13.955 -0.5608  0.4192 -0.2387
 5729SOL    HW128649   1.680   4.346  13.869 -1.6083 -0.7772  0.5629
 5729SOL    HW228650   1.682   4.466  13.966 -1.1090  0.3894 -1.4311
 5730SOL     OW28651   1.164   3.113   6.181  0.5600  0.1174 -0.7920
 5730SOL    HW128652   1.122   3.050   6.239  1.8268  0.5836  0.6531
 5730SOL    HW228653   1.111   3.100   6.103 -1.7410 -0.8969  0.9618
 5731SOL     OW28654   4.061   0.215   1.051 -0.3134  0.1848 -0.1895
 5731SOL    HW128655   3.989   0.260   1.008 -0.4751 -0.7909 -0.9433
 5731SOL    HW228656   4.088   0.156   0.981  1.2012 -1.4387  1.7663
 5732SOL     OW28657   0.724   4.567  10.832  0.3469  0.3529  0.5468
 5732SOL    HW128658   0.652   4.517  10.792  0.7691  0.0075  0.2186
 5732SOL    HW228659   0.787   4.578  10.761 -0.9979  0.3871 -0.6575
 5733SOL     OW28660   4.622   1.689   9.725 -0.1479 -0.0298 -0.0896
 5733SOL    HW128661   4.697   1.749   9.728 -0.3810  0.3374 -2.1629
 5733SOL    HW228662   4.597   1.683   9.633 -0.3449 -2.5721  0.1030
 5734SOL     OW28663   3.919   2.070   5.621 -0.3087 -0.2946  0.4826
 5734SOL    HW128664   4.007   2.035   5.633 -0.0872 -0.4586 -1.6718
 5734SOL    HW228665   3.943   2.151   5.576  0.3835 -0.2455  0.9437
 5735SOL     OW28666   1.458   3.899   6.838 -0.0485 -0.1468  0.1444
 5735SOL    HW128667   1.373   3.860   6.858  0.4507 -0.9652  0.6845
 5735SOL    HW228668   1.523   3.829   6.826  0.8385  0.7070 -0.0078
 5736SOL     OW28669   4.527   3.855   5.936  0.0876 -0.8491  0.4467
 5736SOL    HW128670   4.440   3.817   5.926 -0.1758 -0.1971  0.2316
 5736SOL    HW228671   4.588   3.782   5.927  0.5555 -0.1472 -2.3706
 5737SOL     OW28672   4.276   4.229  10.803 -0.2031 -0.2321 -0.5710
 5737SOL    HW128673   4.280   4.214  10.897  0.4727  0.6515 -0.4589
 5737SOL    HW228674   4.326   4.310  10.801 -0.2268 -0.2037 -0.0212
 5738SOL     OW28675   3.686   3.291   8.322 -0.2487 -0.2450  0.1808
 5738SOL    HW128676   3.625   3.306   8.394 -0.8721 -1.4179 -0.0971
 5738SOL    HW228677   3.753   3.237   8.364 -0.4393  0.6041  1.5637
 5739SOL     OW28678   4.094   2.003   5.845 -0.5291 -0.0149  0.2692
 5739SOL    HW128679   4.097   1.916   5.805 -1.1390  0.0699  0.0445
 5739SOL    HW228680   4.018   1.997   5.902  0.0594  1.6264  1.2300
 5740SOL     OW28681   0.462   1.578  11.255  0.0054  0.0191  0.0206
 5740SOL    HW128682   0.466   1.579  11.160 -0.9648  3.4532  0.0222
 5740SOL    HW228683   0.383   1.523  11.260  0.4480 -0.5227  1.0104
 5741SOL     OW28684   4.101   3.651   4.949 -0.0671  0.4130 -0.4722
 5741SOL    HW128685   4.142   3.584   5.005 -1.0105  1.8015  1.8651
 5741SOL    HW228686   4.170   3.682   4.891  0.3857  0.2706 -0.0086
 5742SOL     OW28687   3.175   0.727   8.269  0.6551 -0.1073 -0.3538
 5742SOL    HW128688   3.153   0.682   8.188 -2.7779 -1.0782  1.0947
 5742SOL    HW228689   3.091   0.715   8.313  0.5772  0.3149 -0.3816
 5743SOL     OW28690   2.615   4.405   1.704 -0.0953 -0.4401 -0.1405
 5743SOL    HW128691   2.679   4.422   1.635  1.8201 -0.5130  1.6130
 5743SOL    HW228692   2.624   4.310   1.711  0.4459 -0.3022  1.1295
 5744SOL     OW28693   2.399   1.262   6.775  0.9280 -0.0152 -0.1968
 5744SOL    HW128694   2.352   1.261   6.859 -1.8371  0.8599 -1.7126
 5744SOL    HW228695   2.480   1.303   6.804  1.8768  1.0850 -4.4028
 5745SOL     OW28696   1.484   3.734   3.232  0.3061  0.3657 -0.6115
 5745SOL    HW128697   1.500   3.752   3.324 -0.7183  2.0141 -0.7625
 5745SOL    HW228698   1.396   3.699   3.244  0.5742 -0.8401 -2.0871
 5746SOL     OW28699   4.429   3.039  16.087 -0.6877 -0.2413 -0.1046
 5746SOL    HW128700   4.425   3.068  16.178 -0.7350 -1.1044  0.1641
 5746SOL    HW228701   4.490   3.097  16.040  1.1394 -2.5986 -0.6811
 5747SOL     OW28702   2.218   3.649  14.257  0.3390  0.1784 -0.5163
 5747SOL    HW128703   2.249   3.730  14.217 -2.6445  1.1247 -0.8630
 5747SOL    HW228704   2.126   3.665  14.278  0.5108 -0.9111  1.0823
 5748SOL     OW28705   4.569   3.900   7.406  0.3583 -0.2253 -0.2181
 5748SOL    HW128706   4.545   3.916   7.497  0.4774 -1.9338  0.1224
 5748SOL    HW228707   4.522   3.962   7.351 -0.1071 -2.0444 -1.8583
 5749SOL     OW28708   3.100   3.101   1.916 -0.3404  0.4065  0.2185
 5749SOL    HW128709   3.029   3.052   1.957  0.2395 -1.7251 -1.3622
 5749SOL    HW228710   3.122   3.163   1.987 -0.9840 -2.7826  3.2053
 5750SOL     OW28711   1.281   2.335  16.355 -0.3876 -0.3053  0.1592
 5750SOL    HW128712   1.319   2.247  16.352 -1.1836 -0.5802 -1.7144
 5750SOL    HW228713   1.288   2.349  16.450 -0.6278 -3.1694  0.6029
 5751SOL     OW28714   4.324   3.793   3.507  0.3265 -0.4989 -0.5833
 5751SOL    HW128715   4.264   3.753   3.570 -0.8007  0.5377 -0.9894
 5751SOL    HW228716   4.375   3.839   3.574 -0.1091 -0.3472 -0.3540
 5752SOL     OW28717   2.254   0.067   2.889  0.0302 -0.4189  0.2221
 5752SOL    HW128718   2.324   0.036   2.946  0.7365 -0.6681 -0.7776
 5752SOL    HW228719   2.227   4.710   2.845  1.1803  0.7294 -2.5443
 5753SOL     OW28720   1.115   4.626   5.860  0.7879  0.3650  0.1892
 5753SOL    HW128721   1.125   4.538   5.897  0.2551  0.8678  1.5155
 5753SOL    HW228722   1.200   4.632   5.816  1.0132 -0.5431  0.4978
 5754SOL     OW28723   4.719   3.585   5.289  0.3295  0.1624  0.1748
 5754SOL    HW128724   0.006   3.680   5.297 -0.9959  0.4543 -1.5592
 5754SOL    HW228725   4.625   3.580   5.307  0.5215 -2.9404  0.3801
 5755SOL     OW28726   3.702   3.068   7.731 -0.2270 -0.0223 -0.2660
 5755SOL    HW128727   3.797   3.069   7.720 -0.3492  2.4086 -1.1988
 5755SOL    HW228728   3.677   3.133   7.798  1.1266  0.3417 -0.1163
 5756SOL     OW28729   1.517   2.605   7.899  0.1904  0.8381  0.0856
 5756SOL    HW128730   1.563   2.547   7.960  0.0685  1.1280  0.4583
 5756SOL    HW228731   1.451   2.645   7.956 -0.7133 -0.2773 -0.1999
 5757SOL     OW28732   0.721   1.053   8.448  0.0353 -0.7840  0.0486
 5757SOL    HW128733   0.799   1.010   8.412  0.5693  0.5231 -0.3766
 5757SOL    HW228734   0.750   1.144   8.454  1.9186 -1.4622  1.4715
 5758SOL     OW28735   0.414   3.638   8.695 -0.2330  0.3334 -0.1286
 5758SOL    HW128736   0.438   3.731   8.694 -0.7850  0.4829  0.2225
 5758SOL    HW228737   0.471   3.595   8.759  0.3428  1.9931  0.4852
 5759SOL     OW28738   4.150   0.479   0.782  0.1042  0.2662  0.0828
 5759SOL    HW128739   4.134   0.569   0.756  0.6756  0.7379  1.3549
 5759SOL    HW228740   4.089   0.487   0.855  2.7546  1.9677  2.1382
 5760SOL     OW28741   3.632   0.644   1.700 -0.8097 -0.3912  0.3431
 5760SOL    HW128742   3.661   0.558   1.672  1.4499  0.5414 -0.1884
 5760SOL    HW228743   3.620   0.675   1.610 -1.1402  1.0947  0.8838
 5761SOL     OW28744   1.231   0.775   9.105  0.0901  0.3680 -0.2757
 5761SOL    HW128745   1.274   0.848   9.149  0.3361  0.2274 -0.2834
 5761SOL    HW228746   1.307   0.724   9.077 -1.2566 -1.3913 -0.7404
 5762SOL     OW28747   1.883   0.016   2.849 -0.1211  0.6433  0.4097
 5762SOL    HW128748   1.975   4.720   2.866  0.4093  2.6020 -0.2010
 5762SOL    HW228749   1.895   0.059   2.764 -1.4841  1.2546  0.5237
 5763SOL     OW28750   0.245   2.943  11.307  0.1569  0.0001  0.2387
 5763SOL    HW128751   0.270   3.028  11.270  0.6809 -0.8109 -1.2669
 5763SOL    HW228752   0.297   2.944  11.388 -1.3434 -1.9329  1.2324
 5764SOL     OW28753   4.123   1.600   7.673  0.2104 -0.4529  0.4863
 5764SOL    HW128754   4.157   1.690   7.679  1.3143 -0.8860  0.7682
 5764SOL    HW228755   4.093   1.575   7.760 -0.4757 -1.2742  0.0129
 5765SOL     OW28756   4.506   2.354   0.821  0.2772  0.2888  0.3103
 5765SOL    HW128757   4.421   2.392   0.841  0.0589 -0.3251  0.5551
 5765SOL    HW228758   4.519   2.386   0.732 -0.1325 -0.8672 -0.1660
 5766SOL     OW28759   2.306   3.556   7.497  0.0782 -0.0393  0.0064
 5766SOL    HW128760   2.333   3.473   7.535 -0.0913 -0.0810  0.0394
 5766SOL    HW228761   2.389   3.600   7.479  0.6275 -1.1669 -0.1945
 5767SOL     OW28762   4.042   2.474   5.916 -0.0933 -0.3683  0.5703
 5767SOL    HW128763   4.077   2.399   5.868  1.6547 -0.3135  1.7553
 5767SOL    HW228764   4.125   2.512   5.944 -0.6958  1.6949 -0.4267
 5768SOL     OW28765   0.447   4.121   6.136  0.1200 -0.0038  0.1626
 5768SOL    HW128766   0.520   4.096   6.079 -0.0098 -0.6382  0.2698
 5768SOL    HW228767   0.385   4.048   6.136  1.8681 -1.4694 -1.9033
 5769SOL     OW28768   2.357   3.338  13.527 -0.0399  0.0074  0.0369
 5769SOL    HW128769   2.404   3.273  13.475  1.7092 -0.3708  2.0554
 5769SOL    HW228770   2.276   3.291  13.550  1.1490 -0.8344  2.5410
 5770SOL     OW28771   1.020   4.686   3.015  0.4771  0.2737 -0.1672
 5770SOL    HW128772   1.081   4.665   2.944 -0.8336  0.8451 -1.4657
 5770SOL    HW228773   0.981   0.041   2.977  0.2018  0.6294  0.8449
 5771SOL     OW28774   0.175   3.909  16.177 -0.2750 -0.5412 -0.5054
 5771SOL    HW128775   0.237   3.884  16.109 -1.0170  2.2601 -2.2104
 5771SOL    HW228776   0.193   4.001  16.197 -1.7385 -0.2573 -0.4798
 5772SOL     OW28777   3.480   1.074   4.735  0.6790 -0.0088  0.1568
 5772SOL    HW128778   3.515   1.163   4.729  1.5366 -0.3045  0.7740
 5772SOL    HW228779   3.399   1.081   4.684  1.8880 -1.3559 -1.9344
 5773SOL     OW28780   4.030   2.343  14.799  0.0097 -0.1681 -0.3341
 5773SOL    HW128781   4.055   2.284  14.871  1.3334  0.9604  0.1339
 5773SOL    HW228782   4.114   2.346  14.753 -0.2949 -0.6453 -0.9137
 5774SOL     OW28783   3.926   2.647   2.696 -0.5432  0.0237 -0.0763
 5774SOL    HW128784   3.997   2.665   2.758 -0.2615  1.7564 -0.9008
 5774SOL    HW228785   3.860   2.618   2.759 -1.3260  0.0017 -0.9199
 5775SOL     OW28786   1.482   0.893   4.057  0.1202 -0.0455  0.2452
 5775SOL    HW128787   1.418   0.905   3.987  0.8981  0.5238 -0.3719
 5775SOL    HW228788   1.555   0.858   4.007 -0.8942 -2.0224  0.1621
 5776SOL     OW28789   2.086   1.856   5.354  0.2367 -0.5136 -0.3892
 5776SOL    HW128790   2.016   1.827   5.413 -0.4825 -0.5360 -1.2588
 5776SOL    HW228791   2.038   1.913   5.294 -0.1239  0.6702  1.0160
 5777SOL     OW28792   1.509   3.263  13.872  0.0543 -0.0675  0.4431
 5777SOL    HW128793   1.542   3.298  13.955  0.7259  0.6688 -0.1280
 5777SOL    HW228794   1.420   3.236  13.893  0.7963 -2.2664  0.7798
 5778SOL     OW28795   1.999   3.643  16.975  0.4086 -0.1282 -0.0747
 5778SOL    HW128796   1.911   3.675  16.955 -0.6972 -2.6671  0.6284
 5778SOL    HW228797   1.968   3.572  17.032  1.2578 -0.9969 -0.7035
 5779SOL     OW28798   0.244   4.683  14.555  0.3380  0.6589  0.5056
 5779SOL    HW128799   0.241   4.637  14.471 -0.6324 -0.8604  1.3743
 5779SOL    HW228800   0.174   0.023  14.541  1.2256  1.6959  0.7658
 5780SOL     OW28801   0.269   0.292   4.444  0.0495 -0.3943 -0.1681
 5780SOL    HW128802   0.270   0.373   4.394  0.7792 -1.0505 -1.2226
 5780SOL    HW228803   0.362   0.277   4.463  0.3701  2.5457  0.5730
 5781SOL     OW28804   2.303   1.970  16.204 -0.0629  0.4104  0.1659
 5781SOL    HW128805   2.384   2.014  16.180  0.1788  0.1038  0.4240
 5781SOL    HW228806   2.266   1.972  16.116 -1.0443 -1.3073  0.5207
 5782SOL     OW28807   3.834   2.150   8.133  0.5498 -0.8448 -0.3411
 5782SOL    HW128808   3.864   2.225   8.081  0.7869 -1.1139 -0.5891
 5782SOL    HW228809   3.792   2.189   8.210  0.8317 -0.8773 -0.1709
 5783SOL     OW28810   4.314   4.515   2.745 -0.1809 -0.3270 -0.6626
 5783SOL    HW128811   4.309   4.571   2.822 -0.7860 -2.5345  0.8946
 5783SOL    HW228812   4.292   4.577   2.675  0.1367  1.2572  0.6355
 5784SOL     OW28813   0.285   2.881   8.284 -0.3623  0.0534  0.0362
 5784SOL    HW128814   0.275   2.844   8.197 -0.8499 -0.0209  0.1269
 5784SOL    HW228815   0.369   2.928   8.286 -1.2061  1.5229  0.8215
 5785SOL     OW28816   0.413   1.616   0.722  0.0357  0.3519  0.3213
 5785SOL    HW128817   0.402   1.692   0.780 -3.8374  0.9574 -1.1557
 5785SOL    HW228818   0.499   1.583   0.746  0.1572  0.5022  0.0914
 5786SOL     OW28819   1.108   4.667   1.844 -0.4720 -0.0523 -0.1366
 5786SOL    HW128820   1.133   0.031   1.816 -1.2762  0.3445  0.3663
 5786SOL    HW228821   1.102   4.620   1.761 -0.1040  2.5985 -1.6737
 5787SOL     OW28822   1.291   4.570   5.299  0.0109 -0.1199  0.2666
 5787SOL    HW128823   1.358   4.503   5.283 -0.1216 -0.2588  0.2919
 5787SOL    HW228824   1.245   4.574   5.216  1.7036 -1.2718 -0.7112
 5788SOL     OW28825   1.583   3.389   8.869 -0.0853 -0.1063 -0.1255
 5788SOL    HW128826   1.579   3.409   8.963  0.9474 -0.0417 -0.0901
 5788SOL    HW228827   1.491   3.394   8.845 -0.2888 -3.8498 -0.0263
 5789SOL     OW28828   1.314   1.982   7.022  0.1516  0.0531  0.7146
 5789SOL    HW128829   1.261   1.918   7.070  0.8684 -1.1985 -0.1420
 5789SOL    HW228830   1.308   1.955   6.930 -3.6509  1.8652  0.4271
 5790SOL     OW28831   2.892   0.875  15.495 -0.0558  0.3368  0.0519
 5790SOL    HW128832   2.959   0.913  15.438  1.2522 -2.7917 -0.4572
 5790SOL    HW228833   2.830   0.946  15.511  1.6570  2.1204 -1.1976
 5791SOL     OW28834   4.352   0.841  17.095  0.1082 -0.1222  0.5729
 5791SOL    HW128835   4.369   0.932  17.070 -1.1119  0.0332  0.3178
 5791SOL    HW228836   4.265   0.854  17.133 -0.3741 -1.7711  0.0077
 5792SOL     OW28837   3.096   3.452   6.511 -0.4319 -0.1629  0.1711
 5792SOL    HW128838   3.177   3.440   6.462 -0.9505  0.4547 -0.8326
 5792SOL    HW228839   3.099   3.388   6.583  0.4566  2.7128  2.6829
 5793SOL     OW28840   2.168   1.200  15.585  0.0048 -0.0901  0.1707
 5793SOL    HW128841   2.085   1.198  15.633 -1.8464  2.3468 -2.9723
 5793SOL    HW228842   2.225   1.142  15.637 -0.2331  1.2135  1.9105
 5794SOL     OW28843   0.226   2.428   8.902 -0.0680 -0.1957  0.2687
 5794SOL    HW128844   0.134   2.406   8.918 -0.2207  2.0728  2.4967
 5794SOL    HW228845   0.273   2.381   8.971  1.5184  0.6224 -0.2746
 5795SOL     OW28846   1.107   3.461   2.577  0.1996 -0.0012 -0.8210
 5795SOL    HW128847   1.165   3.529   2.612 -0.5431 -0.7352  1.8210
 5795SOL    HW228848   1.169   3.389   2.566  0.6485  0.0088  1.5563
 5796SOL     OW28849   0.572   4.065   7.521  0.0681 -0.3824 -0.4718
 5796SOL    HW128850   0.625   4.132   7.478 -1.1336  0.4102 -0.7294
 5796SOL    HW228851   0.535   4.033   7.439 -3.7285  1.4962  0.5153
 5797SOL     OW28852   1.926   0.832   4.707  0.5911  0.3399  0.2577
 5797SOL    HW128853   1.974   0.864   4.630  0.0148 -1.6361 -0.9175
 5797SOL    HW228854   1.854   0.895   4.715  0.6724  0.3791  0.6711
 5798SOL     OW28855   2.478   3.863   7.646  0.0798  0.0823  0.6067
 5798SOL    HW128856   2.540   3.802   7.684 -0.0473  0.9659  2.2001
 5798SOL    HW228857   2.401   3.841   7.698  0.3833 -2.5179 -0.0418
 5799SOL     OW28858   2.652   4.196   8.184  0.5787  0.1191 -0.0743
 5799SOL    HW128859   2.690   4.209   8.096  0.2935 -0.0482 -0.2225
 5799SOL    HW228860   2.652   4.100   8.186 -2.5975  0.1265  0.6661
 5800SOL     OW28861   0.352   0.290   6.419  0.0922 -0.0705 -0.2298
 5800SOL    HW128862   0.284   0.322   6.359 -1.1633 -0.6358  0.9115
 5800SOL    HW228863   0.302   0.219   6.459 -0.6933 -0.7770 -2.4313
 5801SOL     OW28864   2.697   4.498  15.749 -0.2269  0.1758 -0.1996
 5801SOL    HW128865   2.663   4.409  15.759  0.2410 -0.2103 -2.1153
 5801SOL    HW228866   2.615   4.531  15.714 -0.6574 -1.8424 -1.0895
 5802SOL     OW28867   0.385   3.061   8.621 -0.1860 -0.1563 -0.2207
 5802SOL    HW128868   0.301   3.083   8.662  0.2466 -0.0810  0.6221
 5802SOL    HW228869   0.396   2.966   8.623  0.1160 -0.1301 -0.5881
 5803SOL     OW28870   0.678   1.469   9.001  0.0926  1.1014  0.1793
 5803SOL    HW128871   0.668   1.563   9.014  1.4766  1.5859 -2.2045
 5803SOL    HW228872   0.623   1.437   9.072  1.3197 -1.9970 -0.2491
 5804SOL     OW28873   4.326   3.033   7.461  0.3978 -0.1110 -0.0257
 5804SOL    HW128874   4.293   3.058   7.547 -0.6679 -1.0207 -0.1676
 5804SOL    HW228875   4.280   2.950   7.444 -0.1568  0.2679 -0.4079
 5805SOL     OW28876   4.070   0.654   8.188  0.3231 -0.0261 -0.4785
 5805SOL    HW128877   4.086   0.673   8.280  0.6360 -0.8086 -0.3676
 5805SOL    HW228878   3.978   0.630   8.200 -0.1637  2.0630 -0.0355
 5806SOL     OW28879   0.649   1.343  15.697 -0.1679 -0.1489  0.3688
 5806SOL    HW128880   0.724   1.402  15.699 -1.5824  1.6735  0.0682
 5806SOL    HW228881   0.585   1.405  15.732  0.1840 -0.3003  1.2761
 5807SOL     OW28882   3.855   4.168  11.833 -0.4999  0.7602 -0.3656
 5807SOL    HW128883   3.776   4.158  11.886 -0.4421  0.9529 -0.2415
 5807SOL    HW228884   3.927   4.169  11.896 -2.2030  1.0494  1.5840
 5808SOL     OW28885   4.565   4.018   8.879 -0.2090 -0.0695  0.1918
 5808SOL    HW128886   4.604   3.972   8.954 -0.2142  0.1450  0.3272
 5808SOL    HW228887   4.611   3.978   8.805 -2.0612 -0.5068 -0.7287
 5809SOL     OW28888   2.031   1.766   2.500 -0.5013 -0.5358 -0.0841
 5809SOL    HW128889   2.050   1.678   2.467 -1.1269  0.6572 -3.6292
 5809SOL    HW228890   2.016   1.806   2.414  0.8080  0.6966  0.2545
 5810SOL     OW28891   4.456   2.430  13.371  0.4200  0.3541  0.4042
 5810SOL    HW128892   4.537   2.476  13.350  0.7105  0.2670  1.3226
 5810SOL    HW228893   4.391   2.497  13.350 -0.7248 -1.1671 -0.9113
 5811SOL     OW28894   3.703   2.948   6.295 -0.6328  0.0292  0.5268
 5811SOL    HW128895   3.644   3.023   6.283 -2.2686 -1.2517  0.5394
 5811SOL    HW228896   3.692   2.901   6.213  0.4328  1.2020 -0.2944
 5812SOL     OW28897   0.711   2.077   2.804 -0.3136 -0.1516  0.1493
 5812SOL    HW128898   0.641   2.112   2.749 -0.1171  0.6517  0.4113
 5812SOL    HW228899   0.652   2.046   2.873 -1.7258  3.5888  0.6178
 5813SOL     OW28900   4.673   2.752   2.646  0.3088 -0.0078  0.0844
 5813SOL    HW128901   0.014   2.821   2.629 -0.2522  0.2672 -0.9525
 5813SOL    HW228902   4.689   2.705   2.564 -2.1943  0.5551 -0.7151
 5814SOL     OW28903   2.719   1.819  10.399  0.1823  0.0766  0.2273
 5814SOL    HW128904   2.696   1.871  10.475  0.8248  0.8338 -0.0995
 5814SOL    HW228905   2.789   1.767  10.440 -0.6370 -0.1143  1.3770
 5815SOL     OW28906   4.132   2.484   9.560  0.7042  0.3186 -0.5489
 5815SOL    HW128907   4.181   2.425   9.502 -2.1017 -0.5960 -1.9922
 5815SOL    HW228908   4.179   2.566   9.548  1.0337  0.2952  0.6019
 5816SOL     OW28909   2.466   0.449   0.629 -0.1977 -1.0838  0.3064
 5816SOL    HW128910   2.511   0.512   0.685 -0.0326 -1.2264  0.3352
 5816SOL    HW228911   2.505   0.465   0.543 -2.2958 -1.2048 -0.6484
 5817SOL     OW28912   4.148   1.691   3.141  0.1254 -0.1272  0.1104
 5817SOL    HW128913   4.056   1.670   3.124  0.1612 -1.0358  1.0423
 5817SOL    HW228914   4.164   1.760   3.076  1.9922 -0.0899  0.6155
 5818SOL     OW28915   3.308   2.456   3.124 -0.2507  0.0459  0.0933
 5818SOL    HW128916   3.385   2.498   3.086  0.5810  0.6952  2.5053
 5818SOL    HW228917   3.315   2.374   3.074  0.3911  0.4275 -0.4457
 5819SOL     OW28918   1.864   2.206   1.161  0.0674  0.0326  0.1388
 5819SOL    HW128919   1.776   2.215   1.197  0.5806 -2.5655  2.0452
 5819SOL    HW228920   1.876   2.111   1.157 -1.4397 -0.1463  0.1692
 5820SOL     OW28921   0.665   4.608  10.109  0.4460 -0.4222  0.3930
 5820SOL    HW128922   0.665   4.692  10.156 -0.6369 -0.9552  1.3373
 5820SOL    HW228923   0.737   4.568  10.158  1.1266  1.2514  0.7836
 5821SOL     OW28924   2.159   1.217   8.143  0.4979  0.1256 -0.1715
 5821SOL    HW128925   2.099   1.292   8.151  0.7843  0.3944 -0.5260
 5821SOL    HW228926   2.120   1.180   8.064 -0.4546  2.0740 -0.6269
 5822SOL     OW28927   3.532   2.743   5.341 -0.1937  0.8363 -0.7545
 5822SOL    HW128928   3.449   2.743   5.389 -0.8082 -2.8810 -1.8673
 5822SOL    HW228929   3.543   2.650   5.321  0.8836  0.9127 -0.5029
 5823SOL     OW28930   3.562   3.983   7.498 -0.1599 -0.5562 -0.3608
 5823SOL    HW128931   3.576   4.058   7.439 -0.6751  0.8608  1.3079
 5823SOL    HW228932   3.617   4.017   7.568 -0.8959 -0.2820  0.0830
 5824SOL     OW28933   1.014   2.252   2.588 -0.0151 -0.0979  0.3234
 5824SOL    HW128934   1.099   2.220   2.558 -0.1686  0.2120 -0.4610
 5824SOL    HW228935   0.973   2.243   2.502  1.7534 -0.7374 -0.4552
 5825SOL     OW28936   3.546   2.371   8.012  0.1986  0.1021 -0.1390
 5825SOL    HW128937   3.625   2.352   7.963  0.1969 -1.3899  0.4409
 5825SOL    HW228938   3.476   2.328   7.963  1.1755 -1.1031 -0.4677
 5826SOL     OW28939   2.373   1.416   0.043  0.3280 -0.1973 -0.3427
 5826SOL    HW128940   2.453   1.430   0.094 -1.0392  0.4734  1.6008
 5826SOL    HW228941   2.367   1.321   0.037 -1.6606 -0.1539  1.0986
 5827SOL     OW28942   0.337   3.928  11.342  0.2854 -0.3144  0.0639
 5827SOL    HW128943   0.267   3.891  11.397  0.4210 -0.1720  0.3273
 5827SOL    HW228944   0.309   4.019  11.337  0.0320 -0.3300  1.1268
 5828SOL     OW28945   0.592   1.655   3.737 -1.5529 -0.2480 -0.3346
 5828SOL    HW128946   0.660   1.679   3.674 -0.0044  1.7091  2.0805
 5828SOL    HW228947   0.514   1.685   3.690 -1.3665  1.8594  0.7006
 5829SOL     OW28948   1.110   0.709   5.001  0.0447 -0.3120 -0.0384
 5829SOL    HW128949   1.186   0.674   5.046  0.0343 -1.0076 -0.5616
 5829SOL    HW228950   1.135   0.802   4.999  0.7749 -0.5847 -3.2645
 5830SOL     OW28951   2.193   4.167   4.652  0.3790  0.2557 -0.0944
 5830SOL    HW128952   2.273   4.219   4.660  0.6090 -0.0265 -0.5976
 5830SOL    HW228953   2.190   4.159   4.557 -3.3564 -0.3347  0.0475
 5831SOL     OW28954   3.418   0.112   8.131  0.2374  0.1860  0.3159
 5831SOL    HW128955   3.343   0.119   8.073  1.5958 -2.8451 -1.8108
 5831SOL    HW228956   3.407   0.182   8.194 -1.3392 -2.0144  2.4911
 5832SOL     OW28957   0.593   2.950   4.726  0.6456 -0.1087  0.0266
 5832SOL    HW128958   0.680   2.975   4.694  0.9943 -1.4781 -0.1199
 5832SOL    HW228959   0.538   2.990   4.659  0.5166  0.3351  0.3903
 5833SOL     OW28960   3.059   2.062  17.457 -0.4894 -0.0930 -0.1007
 5833SOL    HW128961   2.976   2.087  17.418  0.2463  1.2701 -0.8104
 5833SOL    HW228962   3.105   2.144  17.434 -2.6220  1.2018  0.2871
 5834SOL     OW28963   3.800   3.791   2.764 -0.4123 -0.3005  0.5496
 5834SOL    HW128964   3.884   3.824   2.795 -1.5129  2.1157  0.8982
 5834SOL    HW228965   3.765   3.878   2.747 -1.1287 -0.8532 -0.8346
 5835SOL     OW28966   0.866   3.077  12.477 -0.1431  0.2883 -0.2948
 5835SOL    HW128967   0.922   3.011  12.436  2.5868  1.7381  1.1136
 5835SOL    HW228968   0.783   3.063  12.431  0.4028  0.6421 -1.3662
 5836SOL     OW28969   4.082   0.904   5.331  0.6375 -0.3345  0.6294
 5836SOL    HW128970   4.166   0.924   5.288 -0.9343  2.4293 -1.1757
 5836SOL    HW228971   4.053   0.985   5.374 -0.5556 -1.1390  1.3186
 5837SOL     OW28972   1.587   4.004   0.491  0.0514  0.5074  0.3870
 5837SOL    HW128973   1.502   3.998   0.535  0.7652 -0.2529  1.6404
 5837SOL    HW228974   1.623   3.927   0.535  1.7550  1.6257  0.9472
 5838SOL     OW28975   1.860   2.721   6.382 -0.2893 -0.0144 -0.2408
 5838SOL    HW128976   1.803   2.685   6.450  1.1619 -2.9011 -0.5092
 5838SOL    HW228977   1.949   2.702   6.414 -0.6272 -1.5713 -0.2048
 5839SOL     OW28978   1.902   1.060   9.046 -0.0822  0.2540 -0.0823
 5839SOL    HW128979   1.933   1.149   9.033 -3.2570  1.5968  1.5651
 5839SOL    HW228980   1.813   1.074   9.015 -0.2001  4.9337  2.3331
 5840SOL     OW28981   1.580   1.689   8.264  0.1531 -0.1895 -0.3792
 5840SOL    HW128982   1.539   1.720   8.183 -0.7579  0.1551  0.2153
 5840SOL    HW228983   1.671   1.669   8.245  0.5593  1.1520  0.2035
 5841SOL     OW28984   3.227   0.325   3.854 -0.6070 -0.0150  0.2179
 5841SOL    HW128985   3.320   0.318   3.879 -0.0712 -0.0646 -1.7621
 5841SOL    HW228986   3.212   0.238   3.819 -1.0965  0.6725 -1.2520
 5842SOL     OW28987   3.619   1.800   2.999 -0.2179 -0.0282 -0.7021
 5842SOL    HW128988   3.568   1.873   2.963 -0.8769  0.2840  0.8818
 5842SOL    HW228989   3.549   1.743   3.031  1.3253 -1.4764  0.0316
 5843SOL     OW28990   3.635   3.006   4.938  0.3015 -0.3958 -0.3657
 5843SOL    HW128991   3.595   3.008   5.025  1.5348  0.3477  0.1762
 5843SOL    HW228992   3.701   3.075   4.935 -0.2295  0.2171  2.3162
 5844SOL     OW28993   0.823   0.677   9.643  0.2368 -0.2656 -0.0990
 5844SOL    HW128994   0.788   0.657   9.556 -0.5988  0.5587  0.0503
 5844SOL    HW228995   0.753   0.740   9.661  2.6175  2.3330  0.0015
 5845SOL     OW28996   2.655   3.423  16.199  0.0165  0.0824  0.1253
 5845SOL    HW128997   2.732   3.396  16.150  1.7392  2.0970  1.7248
 5845SOL    HW228998   2.601   3.446  16.123 -1.2175 -0.6893  0.7569
 5846SOL     OW28999   1.723   2.646   5.377 -0.4554  0.1967 -0.4032
 5846SOL    HW129000   1.799   2.607   5.334  0.2547 -0.1545  1.1841
 5846SOL    HW229001   1.675   2.564   5.381  1.4810 -0.8721  0.8768
 5847SOL     OW29002   0.938   4.514   0.950 -0.1667  0.0338 -0.3287
 5847SOL    HW129003   0.913   4.481   0.864  0.2146 -0.8356 -0.1020
 5847SOL    HW229004   0.991   4.440   0.979 -0.0354 -0.0416 -0.7531
 5848SOL     OW29005   1.635   3.419   7.619  0.5139  0.0583  0.2978
 5848SOL    HW129006   1.638   3.484   7.548 -1.4189 -0.5936 -0.3594
 5848SOL    HW229007   1.596   3.466   7.693  0.5254  2.6357 -1.3132
 5849SOL     OW29008   4.305   2.707   9.481 -0.3771 -0.0419 -0.3229
 5849SOL    HW129009   4.388   2.752   9.495  1.7344 -3.9567 -0.1795
 5849SOL    HW229010   4.249   2.771   9.525 -1.7909 -0.1282 -2.0060
 5850SOL     OW29011   0.960   0.822  17.237  0.6225 -0.9166  0.5844
 5850SOL    HW129012   0.991   0.818  17.328  0.6961  0.8062  0.6427
 5850SOL    HW229013   1.045   0.810  17.195 -1.0823 -1.9883 -2.5715
 5851SOL     OW29014   4.393   0.885   5.716 -0.5129  0.1016 -0.4210
 5851SOL    HW129015   4.387   0.846   5.803 -1.3515 -0.4412 -0.7217
 5851SOL    HW229016   4.358   0.809   5.669  0.0689 -0.2974 -0.2126
 5852SOL     OW29017   2.958   2.557  17.081  0.2194 -0.3572 -0.1285
 5852SOL    HW129018   2.938   2.495  17.011 -0.5174 -0.6817  0.3567
 5852SOL    HW229019   2.934   2.639  17.039 -1.5566 -0.4098  0.7664
 5853SOL     OW29020   3.941   0.661   7.775  0.2719 -0.1780  0.1916
 5853SOL    HW129021   4.011   0.664   7.709  1.1196  0.0454  1.1018
 5853SOL    HW229022   3.934   0.756   7.787  0.8512 -0.4286  2.5540
 5854SOL     OW29023   3.471   2.618   2.937 -0.3617  0.5214 -0.3185
 5854SOL    HW129024   3.491   2.710   2.956  0.6496  0.0745  0.8381
 5854SOL    HW229025   3.422   2.620   2.855  0.5528 -1.2531 -0.9272
 5855SOL     OW29026   1.621   0.803  17.496 -0.7281 -0.4729 -0.4982
 5855SOL    HW129027   1.692   0.866  17.511 -0.6181 -1.0321  1.3409
 5855SOL    HW229028   1.616   0.765  17.584 -0.7663 -1.5211 -0.9600
 5856SOL     OW29029   1.560   3.670  13.313 -0.2531  0.2998 -0.4568
 5856SOL    HW129030   1.520   3.636  13.393  1.4238 -1.2096 -0.2651
 5856SOL    HW229031   1.623   3.736  13.341  0.5873 -0.0610 -1.4837
 5857SOL     OW29032   2.717   1.281  14.041  0.0774 -0.2313 -0.2420
 5857SOL    HW129033   2.710   1.207  14.102  1.0313 -0.6098 -0.5918
 5857SOL    HW229034   2.810   1.288  14.019 -0.6292  0.3264 -2.9799
 5858SOL     OW29035   1.965   2.644   1.872  0.0126 -0.0585 -0.1315
 5858SOL    HW129036   1.933   2.734   1.864  2.6447  0.6874 -2.3252
 5858SOL    HW229037   1.967   2.613   1.781  0.1614 -0.3516 -0.0267
 5859SOL     OW29038   0.024   1.792   5.083  0.2643  0.4484 -0.0280
 5859SOL    HW129039   0.035   1.758   5.172 -0.7979 -1.0127 -0.4608
 5859SOL    HW229040   0.114   1.797   5.050  1.0447  0.4385  2.0567
 5860SOL     OW29041   2.509   2.085   5.448 -0.5478 -0.1759 -0.5414
 5860SOL    HW129042   2.434   2.033   5.477 -0.1060  0.7412  2.2730
 5860SOL    HW229043   2.475   2.175   5.444 -0.5553 -0.1447  0.1041
 5861SOL     OW29044   1.747   3.329   2.836 -0.5750  0.0187 -0.4944
 5861SOL    HW129045   1.754   3.254   2.894 -1.4988  0.1034 -0.2727
 5861SOL    HW229046   1.824   3.316   2.781 -0.4486 -1.8042  0.1482
 5862SOL     OW29047   2.972   3.389   7.944  0.3416  0.3584  0.3596
 5862SOL    HW129048   2.949   3.360   8.032  0.3215 -3.0405 -0.7508
 5862SOL    HW229049   2.972   3.484   7.949  2.8079  0.1689  3.7506
 5863SOL     OW29050   4.399   4.142  17.252 -0.0636  0.2348  0.9018
 5863SOL    HW129051   4.352   4.181  17.178  3.7707  0.3193 -1.4970
 5863SOL    HW229052   4.446   4.218  17.287 -2.2556  2.3229 -0.7210
 5864SOL     OW29053   1.607   2.004   7.314 -0.0290 -0.0913  0.1021
 5864SOL    HW129054   1.666   1.977   7.243 -0.3208 -1.6626  0.4479
 5864SOL    HW229055   1.522   1.976   7.279 -1.5360 -0.5030  4.1584
 5865SOL     OW29056   1.300   1.647   3.937 -0.0852 -0.0283 -0.6591
 5865SOL    HW129057   1.245   1.589   3.885 -1.0327  1.2318 -1.0526
 5865SOL    HW229058   1.353   1.688   3.868 -1.6140  2.2414 -0.4766
 5866SOL     OW29059   1.397   4.542   2.486  0.0247 -0.2305  0.0636
 5866SOL    HW129060   1.387   4.473   2.552 -1.4857 -0.4494 -0.4119
 5866SOL    HW229061   1.345   4.518   2.409  0.8409 -1.4648 -0.1123
 5867SOL     OW29062   3.550   0.254  15.621 -0.1481  0.4505  0.3083
 5867SOL    HW129063   3.537   0.348  15.635  0.2036  0.5707 -0.1655
 5867SOL    HW229064   3.498   0.216  15.692 -0.2365 -1.1129 -0.6164
 5868SOL     OW29065   1.464   3.432   2.254 -0.1863  0.6599 -0.5299
 5868SOL    HW129066   1.423   3.459   2.172  0.7457  1.0020 -0.8849
 5868SOL    HW229067   1.463   3.337   2.239 -0.7595  0.6350 -0.3240
 5869SOL     OW29068   0.791   2.154   1.777  0.0960  0.1828  0.3737
 5869SOL    HW129069   0.808   2.223   1.841  0.2111  0.1627  0.3649
 5869SOL    HW229070   0.698   2.142   1.796 -0.5421  0.0199 -2.8754
 5870SOL     OW29071   4.148   1.651   3.566  0.2825 -0.2773  0.0780
 5870SOL    HW129072   4.180   1.697   3.644  1.6735 -1.8285  0.4140
 5870SOL    HW229073   4.127   1.717   3.500 -0.3692  1.2382  1.7945
 5871SOL     OW29074   1.411   4.197   4.785 -0.3943  0.0900 -0.5573
 5871SOL    HW129075   1.328   4.215   4.741 -0.7252  0.6138  0.2843
 5871SOL    HW229076   1.474   4.251   4.737 -0.7968  1.2405  0.2163
 5872SOL     OW29077   0.859   3.830  16.162 -0.4100 -0.2429  0.0605
 5872SOL    HW129078   0.791   3.893  16.186 -2.0460 -1.4426 -1.3567
 5872SOL    HW229079   0.906   3.872  16.090  2.9414 -0.7649  1.9810
 5873SOL     OW29080   3.190   0.731   3.586  0.0462 -0.0679 -0.3728
 5873SOL    HW129081   3.119   0.692   3.637  0.1687  1.2368  0.8010
 5873SOL    HW229082   3.173   0.698   3.498 -1.1707 -3.1818  1.0165
 5874SOL     OW29083   2.818   3.502   2.190 -0.2029  0.0156 -0.4871
 5874SOL    HW129084   2.729   3.495   2.226  0.3173  1.7329  1.1305
 5874SOL    HW229085   2.797   3.531   2.102 -1.3418  0.2508 -0.1495
 5875SOL     OW29086   0.649   3.059  10.926 -0.4018 -0.1709 -0.4637
 5875SOL    HW129087   0.711   3.014  10.868 -0.9895  0.6053 -1.6826
 5875SOL    HW229088   0.688   3.146  10.931  0.9670 -0.9061  1.6121
 5876SOL     OW29089   0.406   2.847   5.530 -0.2625  0.7655  0.1772
 5876SOL    HW129090   0.412   2.833   5.436 -0.4339  0.1794  0.2529
 5876SOL    HW229091   0.353   2.925   5.543 -0.1717  0.5835  1.6713
 5877SOL     OW29092   0.723   2.304   6.708 -0.3244  0.1371 -0.0607
 5877SOL    HW129093   0.809   2.273   6.736 -0.0742  0.7080 -0.1983
 5877SOL    HW229094   0.684   2.282   6.792  0.3886  0.6593  0.4088
 5878SOL     OW29095   4.160   2.335   3.328 -0.4987  0.8943 -0.0158
 5878SOL    HW129096   4.081   2.282   3.325  0.2560 -0.2648  0.5446
 5878SOL    HW229097   4.125   2.415   3.288  2.7435  1.3595 -1.9866
 5879SOL     OW29098   2.781   1.729   3.129  0.1075  0.5585  0.1174
 5879SOL    HW129099   2.709   1.742   3.067 -0.6795  0.8702  1.0987
 5879SOL    HW229100   2.729   1.721   3.209  0.4050  0.9833  0.3532
 5880SOL     OW29101   0.437   3.574   4.978 -0.2137 -0.5336  0.0267
 5880SOL    HW129102   0.466   3.665   4.991  2.3898 -0.8797 -3.4388
 5880SOL    HW229103   0.364   3.606   4.924  1.6702  0.1372 -2.0940
 5881SOL     OW29104   1.769   0.435   2.558 -0.6203  0.1399  0.0801
 5881SOL    HW129105   1.822   0.431   2.478 -4.5211 -0.4793 -2.4654
 5881SOL    HW229106   1.719   0.353   2.551 -1.5613  0.6379  1.0395
 5882SOL     OW29107   3.956   0.496  12.727 -0.6879  0.1595  0.0414
 5882SOL    HW129108   3.905   0.563  12.682  0.2649  0.7256 -0.2079
 5882SOL    HW229109   3.899   0.444  12.783 -1.2031 -0.2632 -0.8880
 5883SOL     OW29110   3.981   0.272   0.745 -0.5856  0.0602 -0.0491
 5883SOL    HW129111   3.906   0.322   0.713  0.1364  1.9260  1.1471
 5883SOL    HW229112   4.048   0.339   0.755 -0.0997 -0.1491 -1.9542
 5884SOL     OW29113   0.201   4.458  12.815  0.1206 -0.0821 -0.5590
 5884SOL    HW129114   0.161   4.479  12.900  1.2650 -0.1378 -0.0036
 5884SOL    HW229115   0.198   4.363  12.827  1.6661 -0.0432  0.1986
 5885SOL     OW29116   1.926   3.953  11.625 -0.1173 -0.2271 -0.0950
 5885SOL    HW129117   1.931   4.040  11.666 -0.8043 -0.8511  1.3007
 5885SOL    HW229118   1.919   3.976  11.533  2.0342  1.0413  0.0418
 5886SOL     OW29119   3.185   0.230   7.363  0.4529 -0.5789 -0.2824
 5886SOL    HW129120   3.239   0.252   7.287  0.1797  0.0326 -0.2989
 5886SOL    HW229121   3.121   0.169   7.325 -0.4830  1.7890 -2.4936
 5887SOL     OW29122   1.755   1.812   4.857 -0.1268  0.2332  0.4700
 5887SOL    HW129123   1.780   1.816   4.765  1.8506  2.2667  1.0909
 5887SOL    HW229124   1.770   1.899   4.893  0.6829 -0.1559  1.0893
 5888SOL     OW29125   3.246   1.350   1.936  0.2088  0.7903  0.0857
 5888SOL    HW129126   3.303   1.424   1.917 -1.8025  1.9398 -1.4883
 5888SOL    HW229127   3.276   1.338   2.026  0.5656  0.2800 -0.0975
 5889SOL     OW29128   3.425   0.134  12.695  0.2406 -0.3369  0.2092
 5889SOL    HW129129   3.345   0.087  12.671  0.5194 -1.2634  1.1017
 5889SOL    HW229130   3.425   0.142  12.790  0.6892 -0.4829  0.2203
 5890SOL     OW29131   4.381   3.443   9.870  0.5436 -0.6023  0.2977
 5890SOL    HW129132   4.334   3.360   9.873  1.2904 -1.0900 -1.5417
 5890SOL    HW229133   4.422   3.451   9.956  1.5293  1.8109 -0.3906
 5891SOL     OW29134   3.496   3.851   2.890  0.8622  0.5268 -0.5025
 5891SOL    HW129135   3.573   3.793   2.884 -0.0336 -0.7554  0.2915
 5891SOL    HW229136   3.480   3.869   2.798  1.5218  1.8137 -0.3656
 5892SOL     OW29137   0.974   2.821   3.232  0.4137 -0.4309  0.4326
 5892SOL    HW129138   0.879   2.812   3.225  0.3174  1.5455 -0.8186
 5892SOL    HW229139   0.993   2.880   3.159  0.3428  0.9574  1.5298
 5893SOL     OW29140   3.455   1.932   3.975  1.1058 -0.5187 -0.2295
 5893SOL    HW129141   3.438   1.965   4.063  0.9490 -1.6626  0.1751
 5893SOL    HW229142   3.456   1.839   3.998 -0.7653 -0.8371 -1.4260
 5894SOL     OW29143   0.122   0.724   3.214  0.3717 -0.1633  0.3123
 5894SOL    HW129144   0.180   0.790   3.251  0.9765 -0.5821  0.1009
 5894SOL    HW229145   0.057   0.771   3.162 -0.2171 -0.6397  0.6121
 5895SOL     OW29146   1.488   2.273   7.442 -0.0395 -0.0661  0.0560
 5895SOL    HW129147   1.536   2.201   7.400 -0.2609 -0.5483  0.6304
 5895SOL    HW229148   1.402   2.231   7.445  0.8333 -2.0149 -1.8175
 5896SOL     OW29149   3.827   0.537  10.211 -0.1209  0.3456  0.2537
 5896SOL    HW129150   3.893   0.576  10.153  2.1414 -1.4200  1.6686
 5896SOL    HW229151   3.843   0.564  10.301  1.5209  0.0683  0.0513
 5897SOL     OW29152   2.682   3.309  15.873  0.1945 -0.6187 -0.4025
 5897SOL    HW129153   2.750   3.315  15.940 -0.6174  1.2718  0.2476
 5897SOL    HW229154   2.654   3.219  15.890 -0.0443 -0.1496  1.6601
 5898SOL     OW29155   4.013   3.776   8.926  0.0054 -0.4950  0.2491
 5898SOL    HW129156   4.060   3.694   8.917  2.4745  1.1138 -1.6823
 5898SOL    HW229157   3.948   3.746   8.990  0.5030  1.5527  1.7183
 5899SOL     OW29158   2.947   0.846   6.137 -0.1701 -0.5108  0.6895
 5899SOL    HW129159   2.853   0.831   6.144 -0.5650  0.8389 -1.6319
 5899SOL    HW229160   2.966   0.793   6.059 -1.7044  0.0520 -0.0654
 5900SOL     OW29161   0.272   0.844  10.395 -0.0435  0.1108  0.0418
 5900SOL    HW129162   0.183   0.815  10.373 -0.1591 -1.7001  2.9203
 5900SOL    HW229163   0.314   0.825  10.311 -0.8208 -2.7062  0.2645
 5901SOL     OW29164   3.785   2.160   3.963 -0.1271 -0.0600  0.2228
 5901SOL    HW129165   3.721   2.181   3.895  2.2340  2.5928 -1.2007
 5901SOL    HW229166   3.843   2.237   3.968  0.4432 -0.3557 -1.7742
 5902SOL     OW29167   1.587   3.581  17.442  0.3552  0.0864  0.3607
 5902SOL    HW129168   1.651   3.634  17.395  1.9482 -0.2925  2.1033
 5902SOL    HW229169   1.517   3.646  17.450  1.5039  1.4103 -0.3328
 5903SOL     OW29170   2.979   3.503  11.877 -0.0945  0.0480 -0.0968
 5903SOL    HW129171   3.026   3.520  11.795  1.1166  2.0829  1.0213
 5903SOL    HW229172   3.012   3.416  11.900 -0.8564 -0.1454  0.2390
 5904SOL     OW29173   1.964   2.546   7.028  0.3064 -0.0438 -0.7988
 5904SOL    HW129174   1.948   2.542   7.122 -1.3616  0.6934 -1.0480
 5904SOL    HW229175   1.885   2.589   6.995  0.4907  1.2373  0.4216
 5905SOL     OW29176   1.100   0.100   4.478  0.6853  0.3417 -0.3917
 5905SOL    HW129177   1.118   0.030   4.541 -1.3674 -0.9980 -1.2905
 5905SOL    HW229178   1.187   0.136   4.460  1.4022 -1.4742 -0.5490
 5906SOL     OW29179   0.746   3.857   8.950 -0.1423 -0.3931 -0.1137
 5906SOL    HW129180   0.807   3.795   8.910  1.0226 -0.9458  2.5219
 5906SOL    HW229181   0.664   3.814   8.929  0.3467 -1.9518  1.1561
 5907SOL     OW29182   3.360   4.333   4.189 -0.1899  0.1968  0.3393
 5907SOL    HW129183   3.326   4.381   4.114 -1.3197 -1.2223 -0.0664
 5907SOL    HW229184   3.449   4.366   4.196  1.1656 -2.9077 -2.0935
 5908SOL     OW29185   3.779   1.800   1.617 -0.2790 -0.1442  0.2943
 5908SOL    HW129186   3.851   1.765   1.669  1.9169  0.8576 -2.0521
 5908SOL    HW229187   3.710   1.833   1.673  0.8712 -0.0226  1.6525
 5909SOL     OW29188   1.410   3.056   6.641  0.7718  0.3294  0.0424
 5909SOL    HW129189   1.415   3.129   6.579  0.5140 -1.5922 -2.2740
 5909SOL    HW229190   1.332   3.073   6.693  2.0307  2.9338  1.0632
 5910SOL     OW29191   1.993   0.228   3.234 -0.0111  0.2847 -0.1224
 5910SOL    HW129192   1.938   0.279   3.174 -1.8878 -0.4355  1.0066
 5910SOL    HW229193   1.922   0.174   3.267 -0.6686  2.4741  2.0181
 5911SOL     OW29194   0.817   3.441   5.957 -0.3226  0.3531  0.0940
 5911SOL    HW129195   0.905   3.475   5.939 -0.7497  0.5189 -1.7087
 5911SOL    HW229196   0.796   3.381   5.885  1.0933 -0.5069  0.3903
 5912SOL     OW29197   3.866   3.721   5.754 -0.0507  0.0446  0.6332
 5912SOL    HW129198   3.861   3.627   5.769  1.2395  0.2983  2.5653
 5912SOL    HW229199   3.795   3.728   5.690 -0.1620 -1.7036  0.5720
 5913SOL     OW29200   2.469   2.808   3.916 -0.3156 -0.1622 -0.3848
 5913SOL    HW129201   2.408   2.824   3.988  1.8391 -0.1955  1.4576
 5913SOL    HW229202   2.544   2.771   3.962  0.1508  0.4208 -0.6751
 5914SOL     OW29203   4.075   1.491   4.100  0.4336  0.5762  0.2235
 5914SOL    HW129204   4.078   1.494   4.005 -1.9989 -2.1584  0.0632
 5914SOL    HW229205   4.139   1.559   4.122  2.2026 -1.2659  0.7359
 5915SOL     OW29206   3.186   2.097   5.672  0.1077 -0.0251 -0.0447
 5915SOL    HW129207   3.256   2.146   5.714 -2.3697  1.8203  1.9403
 5915SOL    HW229208   3.235   2.017   5.654  0.0091 -0.1117  0.0747
 5916SOL     OW29209   2.811   1.797  17.608  0.0212 -0.2605  0.2954
 5916SOL    HW129210   2.774   1.733  17.547 -0.0101  0.1233 -0.0920
 5916SOL    HW229211   2.758   1.874  17.586 -0.8222 -1.1115 -0.6612
 5917SOL     OW29212   1.598   4.672   6.202  0.1167  0.2597  0.1812
 5917SOL    HW129213   1.660   0.015   6.232  0.5908  0.0006 -0.2193
 5917SOL    HW229214   1.562   4.645   6.287 -0.1564  0.6409  0.1841
 5918SOL     OW29215   0.640   0.436   3.611 -0.2302  1.1074 -0.3063
 5918SOL    HW129216   0.696   0.436   3.688 -0.1618 -1.7843 -0.3699
 5918SOL    HW229217   0.607   0.526   3.603 -0.7884  0.9802  0.6812
 5919SOL     OW29218   0.232   1.837   3.738 -0.1783 -0.2850 -1.3061
 5919SOL    HW129219   0.272   1.803   3.659  0.4413 -2.4655 -0.0676
 5919SOL    HW229220   0.141   1.845   3.710 -0.9398 -0.1907  1.1421
 5920SOL     OW29221   4.333   2.601   2.565 -0.5135  0.6960  0.2528
 5920SOL    HW129222   4.247   2.619   2.529 -0.4664 -2.3931 -1.4534
 5920SOL    HW229223   4.386   2.566   2.493  0.9758  0.9956  1.1886
 5921SOL     OW29224   0.194   2.803   6.135  0.4260  0.3273  0.6490
 5921SOL    HW129225   0.259   2.849   6.082  0.8526 -2.4227 -1.1861
 5921SOL    HW229226   0.247   2.734   6.173 -3.1059 -1.8282  1.7001
 5922SOL     OW29227   0.671   2.727   9.840 -0.3891 -0.1868  0.0242
 5922SOL    HW129228   0.671   2.680   9.757  4.1021 -0.8337  0.3979
 5922SOL    HW229229   0.642   2.658   9.899  0.1022  0.1787  0.7034
 5923SOL     OW29230   4.088   4.236   7.131  0.0692 -0.1241  0.0239
 5923SOL    HW129231   4.156   4.301   7.115  0.7506 -0.6356  0.8178
 5923SOL    HW229232   4.057   4.269   7.216 -0.4029 -0.9541  0.1742
 5924SOL     OW29233   0.105   4.347   7.087 -0.1039 -0.1458 -0.2072
 5924SOL    HW129234   0.040   4.380   7.025 -0.8270 -1.1452  0.0126
 5924SOL    HW229235   0.084   4.379   7.175 -0.4739  1.4482 -0.8869
 5925SOL     OW29236   0.405   3.882   6.397  0.0017  0.6732 -0.1823
 5925SOL    HW129237   0.352   3.938   6.454 -1.3732 -1.8733  1.0954
 5925SOL    HW229238   0.367   3.799   6.427 -1.7481  1.0281 -1.3634
 5926SOL     OW29239   4.232   2.641   5.633  0.1020 -0.0015 -0.0599
 5926SOL    HW129240   4.180   2.722   5.628  1.6050  1.0562  1.5398
 5926SOL    HW229241   4.307   2.673   5.683  1.5613 -0.3772 -2.0102
 5927SOL     OW29242   2.765   0.416   7.757  0.2248 -0.6184  0.4972
 5927SOL    HW129243   2.677   0.439   7.727  0.7196  0.6945  0.0939
 5927SOL    HW229244   2.797   0.380   7.675  2.5992 -0.1809  1.2451
 5928SOL     OW29245   2.393   1.631  15.701 -0.5410  0.1066  0.2543
 5928SOL    HW129246   2.379   1.576  15.624 -1.0208 -1.7724  1.6812
 5928SOL    HW229247   2.329   1.583  15.753 -0.2886 -1.3024 -0.7330
 5929SOL     OW29248   3.337   4.366  10.589  0.2902 -0.2267  0.0553
 5929SOL    HW129249   3.354   4.333  10.677 -1.7649  1.4676  1.1096
 5929SOL    HW229250   3.294   4.293  10.546 -0.1502 -0.2358  0.5113
 5930SOL     OW29251   2.622   3.696   4.361  0.1116 -0.1392  0.3430
 5930SOL    HW129252   2.630   3.758   4.289 -0.2640 -1.2996 -0.7114
 5930SOL    HW229253   2.564   3.750   4.414  1.3672  0.1945  1.3550
 5931SOL     OW29254   1.783   2.585   7.452  0.1098 -0.0836 -0.2785
 5931SOL    HW129255   1.812   2.662   7.501  2.5759 -0.0106 -1.8638
 5931SOL    HW229256   1.768   2.621   7.365  0.5039 -1.7777 -1.0495
 5932SOL     OW29257   2.461   1.599  11.817  0.0810 -0.0924 -0.5718
 5932SOL    HW129258   2.502   1.553  11.744  0.8337  0.5080 -0.5216
 5932SOL    HW229259   2.513   1.678  11.830  0.6470 -0.8616  1.8225
 5933SOL     OW29260   3.936   2.395   3.946 -0.1639  0.2888  0.3116
 5933SOL    HW129261   3.888   2.464   3.901  1.5035  1.2637  0.0351
 5933SOL    HW229262   4.013   2.448   3.969  1.2933 -1.3800 -0.7032
 5934SOL     OW29263   1.963   4.116   3.862 -0.0201  0.3501 -0.5585
 5934SOL    HW129264   1.872   4.134   3.887 -0.5102 -2.1938 -0.4692
 5934SOL    HW229265   1.989   4.048   3.925 -0.0657  1.8713  1.1041
 5935SOL     OW29266   3.244   2.445   3.784 -0.3683 -0.3083 -0.0270
 5935SOL    HW129267   3.313   2.418   3.724 -1.3552  0.0932 -1.3307
 5935SOL    HW229268   3.188   2.369   3.766  1.3535 -1.7386  0.6932
 5936SOL     OW29269   2.140   3.557  11.212 -0.1060  0.1070  0.2884
 5936SOL    HW129270   2.222   3.576  11.167 -0.4272  0.1549 -0.2750
 5936SOL    HW229271   2.159   3.491  11.279  0.2247  1.7286  1.7979
 5937SOL     OW29272   1.568   0.221   9.878  0.0317 -0.8274  0.4021
 5937SOL    HW129273   1.662   0.232   9.894 -0.1548  2.0382 -0.5123
 5937SOL    HW229274   1.533   0.294   9.929  0.2010 -0.4969  0.0406
 5938SOL     OW29275   1.960   1.045  11.000 -0.5131  1.2453 -0.5090
 5938SOL    HW129276   1.921   1.089  10.924  1.0270  1.0724 -1.3951
 5938SOL    HW229277   2.014   1.116  11.034 -1.5003  0.3772  2.8263
 5939SOL     OW29278   3.801   1.238   9.601 -0.3451  0.2034 -0.4706
 5939SOL    HW129279   3.863   1.175   9.563 -0.0232 -0.3499  0.9827
 5939SOL    HW229280   3.718   1.191   9.595 -1.2471  1.5966  1.1602
 5940SOL     OW29281   4.430   0.124   0.975 -0.3796  0.1884  0.3024
 5940SOL    HW129282   4.356   0.133   1.035 -0.6920  0.6419 -0.1533
 5940SOL    HW229283   4.383   0.072   0.910 -0.5655  1.0445 -0.2564
 5941SOL     OW29284   3.609   1.578   7.520 -0.1283  0.6161  0.4603
 5941SOL    HW129285   3.646   1.501   7.476 -2.2352  0.1940 -0.5588
 5941SOL    HW229286   3.629   1.653   7.463 -0.1389 -1.7686 -2.6664
 5942SOL     OW29287   2.080   2.149   8.075 -0.0579  0.3588 -0.4897
 5942SOL    HW129288   2.118   2.077   8.124 -3.0033 -0.3324  0.8123
 5942SOL    HW229289   2.024   2.102   8.013  0.6953  0.6449 -1.3757
 5943SOL     OW29290   2.836   4.114  11.095 -0.2897 -0.4295  0.1251
 5943SOL    HW129291   2.923   4.106  11.057  1.0477  1.1933  2.8363
 5943SOL    HW229292   2.845   4.180  11.163  1.9364 -3.1945  2.5101
 5944SOL     OW29293   2.266   2.665  11.129 -0.1788  0.5700  0.2788
 5944SOL    HW129294   2.176   2.643  11.105  0.5763 -0.2908 -1.8242
 5944SOL    HW229295   2.289   2.625  11.213 -0.3953 -0.9985 -0.4053
 5945SOL     OW29296   4.232   3.642   7.333  0.0147 -0.4822  0.3519
 5945SOL    HW129297   4.253   3.711   7.270 -0.1399 -0.6216  0.1484
 5945SOL    HW229298   4.188   3.695   7.399  0.9671 -2.7165  2.8152
 5946SOL     OW29299   1.643   1.136   2.506  0.2785 -0.6888 -0.3363
 5946SOL    HW129300   1.668   1.101   2.420  0.8311  1.2606 -0.9683
 5946SOL    HW229301   1.569   1.194   2.487  0.5863 -1.1724 -3.0007
 5947SOL     OW29302   2.449   4.050   7.085 -0.1977  0.1855 -0.4070
 5947SOL    HW129303   2.461   4.139   7.118  2.3664 -0.5471  0.6530
 5947SOL    HW229304   2.365   4.067   7.043 -0.4798 -1.2585 -0.4042
 5948SOL     OW29305   3.620   0.611  16.107  0.0486 -0.0802 -0.9925
 5948SOL    HW129306   3.666   0.561  16.040  0.7065 -1.0908  0.1985
 5948SOL    HW229307   3.570   0.543  16.153 -1.0342  0.6449 -1.1005
 5949SOL     OW29308   0.274   0.042   6.553  0.3724 -0.3947  0.2587
 5949SOL    HW129309   0.314   4.686   6.517  1.0194  0.2238 -0.3817
 5949SOL    HW229310   0.328   0.051   6.631 -0.5107 -0.1323  0.8446
 5950SOL     OW29311   2.279   1.977  17.385  0.4267  0.6058 -0.5353
 5950SOL    HW129312   2.347   2.034  17.349  0.9585  1.1860  1.3905
 5950SOL    HW229313   2.206   2.018  17.339  1.9319  3.8689 -0.0444
 5951SOL     OW29314   4.255   3.312   5.998  0.4127  0.1559  0.7924
 5951SOL    HW129315   4.230   3.222   6.019 -1.1917  0.1571 -1.1281
 5951SOL    HW229316   4.236   3.356   6.081 -2.1040  0.5197  0.0171
 5952SOL     OW29317   1.701   2.228   4.903 -0.1549  0.3303 -0.6221
 5952SOL    HW129318   1.664   2.172   4.972 -0.1959  3.3780  1.8162
 5952SOL    HW229319   1.657   2.312   4.912  2.2116  1.6474 -1.5801
 5953SOL     OW29320   4.304   4.231   6.094 -0.4728 -0.1888  0.3465
 5953SOL    HW129321   4.267   4.246   6.181  0.1825  0.1617  0.5600
 5953SOL    HW229322   4.337   4.141   6.089 -0.0364  0.0122 -0.3494
 5954SOL     OW29323   3.974   0.371   7.378 -0.1503 -0.0787  0.0602
 5954SOL    HW129324   3.967   0.356   7.284 -0.2728 -0.2781  0.1003
 5954SOL    HW229325   4.022   0.453   7.382  1.4736 -1.0800  0.9289
 5955SOL     OW29326   1.791   3.732   6.525 -0.0468 -0.1375  0.3380
 5955SOL    HW129327   1.721   3.794   6.503  0.7548  1.3126  1.8544
 5955SOL    HW229328   1.831   3.778   6.600  0.4684 -0.8830  0.5191
 5956SOL     OW29329   0.098   2.643   9.727  0.0884 -0.9605 -0.6362
 5956SOL    HW129330   0.130   2.733   9.735 -1.2365 -0.7940  2.7201
 5956SOL    HW229331   0.149   2.624   9.648  0.1367 -0.3428 -0.7581
 5957SOL     OW29332   4.684   2.129   7.226  0.0023  0.1848 -0.3941
 5957SOL    HW129333   4.659   2.188   7.297  1.0746  0.0256  0.1211
 5957SOL    HW229334   4.650   2.050   7.266  1.5698 -0.2858 -0.0095
 5958SOL     OW29335   1.139   2.562   6.155 -0.4314  0.2318  0.4440
 5958SOL    HW129336   1.223   2.603   6.176  0.0705 -0.0321 -1.0606
 5958SOL    HW229337   1.176   2.479   6.123 -0.0641  0.4577  0.2856
 5959SOL     OW29338   2.322   2.490  16.645 -0.3464 -0.2506  0.0605
 5959SOL    HW129339   2.353   2.540  16.720  0.2981 -0.1346 -0.2896
 5959SOL    HW229340   2.396   2.503  16.586 -1.6149 -0.3402 -1.5662
 5960SOL     OW29341   4.439   3.617   4.428 -0.1460 -0.3369  0.0907
 5960SOL    HW129342   4.406   3.707   4.428 -1.1312 -0.6882  2.2113
 5960SOL    HW229343   4.426   3.594   4.520 -2.7345 -0.6425 -0.3649
 5961SOL     OW29344   4.431   2.101  10.408  0.1477 -0.1374 -0.3693
 5961SOL    HW129345   4.502   2.040  10.391  0.0124 -0.6178  0.8215
 5961SOL    HW229346   4.473   2.171  10.457  0.5872 -0.8023  0.1891
 5962SOL     OW29347   2.837   1.315   2.753 -0.2083  0.1425  0.5073
 5962SOL    HW129348   2.875   1.346   2.671 -1.5158  0.6385  0.0937
 5962SOL    HW229349   2.907   1.325   2.818 -0.9995 -0.9532  1.5299
 5963SOL     OW29350   3.193   1.789   9.021  0.3245 -0.5232 -0.4574
 5963SOL    HW129351   3.200   1.857   8.954 -0.1007 -0.2033 -0.1794
 5963SOL    HW229352   3.102   1.809   9.045  0.3973 -0.6332 -0.0857
 5964SOL     OW29353   1.641   2.892   8.858 -0.0071 -0.1009 -0.5314
 5964SOL    HW129354   1.677   2.972   8.897 -0.5187  0.5626 -1.4330
 5964SOL    HW229355   1.714   2.863   8.804  0.7196 -0.6101  0.7104
 5965SOL     OW29356   2.616   1.037   3.197 -0.0040  0.1838  0.2356
 5965SOL    HW129357   2.525   1.050   3.224 -0.4936 -0.5748 -1.0688
 5965SOL    HW229358   2.597   1.035   3.103 -1.0972 -1.6259  0.4883
 5966SOL     OW29359   1.301   1.040   5.141  0.3210 -0.0129 -0.4341
 5966SOL    HW129360   1.386   1.084   5.137  1.1051 -1.3859  1.2195
 5966SOL    HW229361   1.315   0.965   5.083 -0.4841 -0.9742  0.6317
 5967SOL     OW29362   3.352   1.545   4.422 -0.0779 -0.2355  0.1134
 5967SOL    HW129363   3.421   1.521   4.361 -0.1528  0.3431 -0.1979
 5967SOL    HW229364   3.370   1.474   4.484 -0.1957 -1.1698 -0.9320
 5968SOL     OW29365   0.771   2.403   2.593  0.5445  0.1398 -0.7598
 5968SOL    HW129366   0.831   2.385   2.521 -0.0274  1.2798 -1.5286
 5968SOL    HW229367   0.722   2.322   2.582  0.9217 -0.3330  1.1034
 5969SOL     OW29368   0.768   1.997  10.948 -0.7922  0.5184 -0.1874
 5969SOL    HW129369   0.726   1.913  10.964  1.7519 -0.8204 -0.5542
 5969SOL    HW229370   0.859   1.992  10.977 -0.5214  0.0208 -1.1467
 5970SOL     OW29371   2.570   1.679   7.398 -0.2264  0.3584 -0.5383
 5970SOL    HW129372   2.484   1.723   7.405 -0.5248 -0.4387  0.8366
 5970SOL    HW229373   2.601   1.695   7.487 -0.3104  1.0418 -0.6281
 5971SOL     OW29374   4.431   1.845   1.978 -0.1957  0.3417 -0.4616
 5971SOL    HW129375   4.525   1.850   1.959  0.1765 -0.5106  1.1637
 5971SOL    HW229376   4.439   1.868   2.070  0.7100 -1.0508 -0.1992
 5972SOL     OW29377   2.824   0.655   0.624 -0.6995  0.3174 -0.3524
 5972SOL    HW129378   2.892   0.642   0.690 -0.7905  1.4428 -0.0401
 5972SOL    HW229379   2.844   0.741   0.588  3.8053 -0.7108 -0.2399
 5973SOL     OW29380   0.642   1.330  11.728 -0.1031  0.0988 -0.4555
 5973SOL    HW129381   0.694   1.381  11.790 -1.1386  0.7742 -0.1375
 5973SOL    HW229382   0.552   1.352  11.754  0.7857  0.4935  2.2458
 5974SOL     OW29383   3.097   1.525  13.296  0.4394  1.0991  0.4506
 5974SOL    HW129384   3.155   1.532  13.372  1.6149  0.9931 -0.4505
 5974SOL    HW229385   3.014   1.500  13.336 -1.2744  0.9319 -3.2422
 5975SOL     OW29386   1.684   0.584   8.466  0.3040  0.5194  0.1117
 5975SOL    HW129387   1.751   0.628   8.519  1.0776 -1.1767  0.5409
 5975SOL    HW229388   1.705   0.614   8.377 -0.5786  2.8614  0.6755
 5976SOL     OW29389   4.419   0.060   7.034  0.0697 -0.0457  0.5990
 5976SOL    HW129390   4.418   0.084   7.126 -0.3997  0.0390  0.5719
 5976SOL    HW229391   4.452   0.139   6.991  0.8763 -1.3309 -1.1564
 5977SOL     OW29392   2.826   3.755   6.727 -0.2672 -0.0757  0.0391
 5977SOL    HW129393   2.901   3.809   6.702  0.3519 -0.4242  1.1260
 5977SOL    HW229394   2.773   3.814   6.781 -0.8180 -0.7432  0.2226
 5978SOL     OW29395   4.088   4.151   2.614 -0.3468 -0.4310 -0.5385
 5978SOL    HW129396   4.002   4.110   2.603 -0.0319 -1.3812  0.5781
 5978SOL    HW229397   4.113   4.150   2.706 -2.5488  1.1107  0.1027
 5979SOL     OW29398   2.459   2.281  13.650 -0.0988 -0.7279  0.3637
 5979SOL    HW129399   2.397   2.347  13.620 -0.5267 -2.5359 -2.7208
 5979SOL    HW229400   2.403   2.233  13.712 -1.4876  0.8580  0.3459
 5980SOL     OW29401   3.963   1.443  14.352  0.5330 -0.5984  0.3756
 5980SOL    HW129402   4.025   1.373  14.369 -0.2133 -0.4231  3.9656
 5980SOL    HW229403   3.973   1.457  14.258 -1.7551  0.0853  0.2342
 5981SOL     OW29404   4.693   0.629  15.891 -0.2541  0.1674 -0.2368
 5981SOL    HW129405   0.013   0.544  15.898 -1.2343 -0.1766  1.6412
 5981SOL    HW229406   4.606   0.623  15.931  0.5796  1.1085  1.6974
 5982SOL     OW29407   4.233   1.699   4.149 -0.4356 -0.1041 -0.0486
 5982SOL    HW129408   4.313   1.691   4.201  0.2805  0.4335 -1.0614
 5982SOL    HW229409   4.199   1.786   4.171  0.8871 -0.1223  2.0702
 5983SOL     OW29410   2.640   4.195   9.114 -0.0903 -0.2754 -0.4449
 5983SOL    HW129411   2.638   4.169   9.206 -1.6233 -1.5183 -0.8426
 5983SOL    HW229412   2.732   4.221   9.102 -0.2721  0.8961  0.6668
 5984SOL     OW29413   2.459   3.972  16.037 -0.2176  0.5623  0.0203
 5984SOL    HW129414   2.365   3.960  16.028 -0.5459  2.8980  0.4668
 5984SOL    HW229415   2.457   4.065  16.014  1.5599  0.8292  0.9357
 5985SOL     OW29416   2.299   0.862  17.306 -0.2490 -0.0302 -0.1883
 5985SOL    HW129417   2.264   0.797  17.246 -0.3827 -1.2451  1.2176
 5985SOL    HW229418   2.394   0.862  17.294 -0.0446 -3.2594  1.6196
 5986SOL     OW29419   4.235   2.613   6.000  0.2207  0.2841 -0.2207
 5986SOL    HW129420   4.316   2.581   5.962  0.3641  1.7329 -1.1313
 5986SOL    HW229421   4.240   2.707   5.983 -3.4852  0.4955 -0.3054
 5987SOL     OW29422   2.136   2.437  17.231  0.5488 -0.0241  0.5565
 5987SOL    HW129423   2.145   2.358  17.177 -2.2718 -0.1238  0.2461
 5987SOL    HW229424   2.113   2.391  17.311  0.8028  0.0763  0.6857
 5988SOL     OW29425   1.232   1.979   3.906  0.2172  0.2403  0.0208
 5988SOL    HW129426   1.166   1.958   3.973  2.0763 -2.8659  0.9070
 5988SOL    HW229427   1.223   1.897   3.858 -0.2326  0.4968 -0.3388
 5989SOL     OW29428   2.171   4.601   6.268 -0.0638  0.1452 -0.2750
 5989SOL    HW129429   2.211   4.514   6.270  0.2220  0.1933 -3.2686
 5989SOL    HW229430   2.248   4.658   6.263 -0.6055  0.6964 -2.3089
 5990SOL     OW29431   2.900   1.386   0.329  0.2668 -0.3372 -0.3126
 5990SOL    HW129432   2.982   1.386   0.278 -0.9417  1.0597 -2.2533
 5990SOL    HW229433   2.935   1.404   0.416 -1.8824 -0.2656  0.5155
 5991SOL     OW29434   2.792   3.474   1.912  0.0836 -0.0686 -0.0829
 5991SOL    HW129435   2.798   3.565   1.883  1.0342  0.0157  0.4109
 5991SOL    HW229436   2.845   3.435   1.842  1.5094  1.6375  0.0584
 5992SOL     OW29437   3.436   0.067   0.605 -0.4567 -0.1634  0.7290
 5992SOL    HW129438   3.353   0.022   0.591 -0.2407 -0.3318 -0.0036
 5992SOL    HW229439   3.490   4.716   0.578  0.1814  0.6887 -0.3753
 5993SOL     OW29440   2.257   4.437   7.727  0.0343 -0.2608 -0.1752
 5993SOL    HW129441   2.332   4.432   7.668  1.7655 -0.1219  2.0132
 5993SOL    HW229442   2.252   4.532   7.727 -0.0974 -0.2656 -0.4527
 5994SOL     OW29443   2.322   0.910  11.895  0.0883  0.1818  0.1367
 5994SOL    HW129444   2.269   0.990  11.898 -0.9165 -0.4964  0.2541
 5994SOL    HW229445   2.259   0.840  11.881  1.9912 -1.4092 -0.5363
 5995SOL     OW29446   1.775   2.906  10.073  0.2198 -0.2156  0.4220
 5995SOL    HW129447   1.686   2.941  10.064  0.4342  0.0436 -0.8176
 5995SOL    HW229448   1.768   2.812  10.057  0.5038 -0.0734 -0.5705
 5996SOL     OW29449   3.804   3.152   3.679  0.4417  0.2413  0.3171
 5996SOL    HW129450   3.857   3.209   3.735  2.3827 -0.4763 -0.7628
 5996SOL    HW229451   3.844   3.188   3.599 -1.1028  2.2015  0.4370
 5997SOL     OW29452   0.503   2.258  10.539 -0.3529 -0.5398  1.0646
 5997SOL    HW129453   0.499   2.348  10.572  0.0127 -0.6663  1.4513
 5997SOL    HW229454   0.466   2.210  10.614 -3.0799 -1.5993 -0.9717
 5998SOL     OW29455   3.701   3.350  11.226  0.0674 -0.5274  0.8203
 5998SOL    HW129456   3.713   3.403  11.304  1.3109 -2.2236  1.7914
 5998SOL    HW229457   3.606   3.334  11.222 -0.1134  0.1093  2.6833
 5999SOL     OW29458   4.575   4.523   8.815  0.8161 -0.5413  0.1216
 5999SOL    HW129459   4.551   4.447   8.868  1.1367 -1.6806 -1.3552
 5999SOL    HW229460   4.491   4.568   8.825  1.2477 -0.3426  2.7616
 6000SOL     OW29461   1.175   2.472   5.709 -0.3615  0.6029 -0.5059
 6000SOL    HW129462   1.240   2.536   5.738 -0.6682  1.3577 -1.4875
 6000SOL    HW229463   1.099   2.510   5.753 -0.4586 -1.9738  1.5401
 6001SOL     OW29464   0.319   2.640  11.626  0.2434  0.3809 -0.4472
 6001SOL    HW129465   0.361   2.583  11.561  0.8033  1.0702 -0.6849
 6001SOL    HW229466   0.294   2.564  11.679  1.6301 -0.2594 -0.7123
 6002SOL     OW29467   2.460   1.401  12.342 -0.4079 -0.3825 -0.0167
 6002SOL    HW129468   2.398   1.387  12.271 -0.4066 -0.7650  0.0577
 6002SOL    HW229469   2.541   1.409  12.291 -0.0897 -1.1919  0.3555
 6003SOL     OW29470   3.073   1.390   5.636 -0.1709 -0.5621  0.4377
 6003SOL    HW129471   3.005   1.340   5.591  1.1493 -0.2616 -1.8951
 6003SOL    HW229472   3.106   1.447   5.567  2.0092  0.0071  1.9719
 6004SOL     OW29473   1.895   0.956  11.775 -0.2028  0.5271  0.0956
 6004SOL    HW129474   1.924   0.973  11.685  0.9604 -1.1118  0.1517
 6004SOL    HW229475   1.868   0.864  11.770 -1.0945  0.8911 -1.7854
 6005SOL     OW29476   4.223   2.781  13.628  0.0269  0.2866 -0.6643
 6005SOL    HW129477   4.225   2.690  13.599 -2.2586  0.2420 -0.6741
 6005SOL    HW229478   4.209   2.832  13.548  2.4603 -0.6764 -1.7091
 6006SOL     OW29479   4.423   0.258   1.396  0.6326  0.5240 -0.2124
 6006SOL    HW129480   4.442   0.326   1.332 -1.1198  2.0531  0.8598
 6006SOL    HW229481   4.328   0.263   1.383  0.3408  1.4636  2.1863
 6007SOL     OW29482   3.419   4.535   7.407 -0.6405  0.2017 -0.2926
 6007SOL    HW129483   3.501   4.489   7.429 -1.2816 -1.2574 -0.9454
 6007SOL    HW229484   3.451   4.589   7.335 -0.1582 -0.0319 -0.2586
 6008SOL     OW29485   0.070   0.696  16.880  0.3746  0.4338  0.2355
 6008SOL    HW129486   0.086   0.636  16.808  0.6285  1.0233 -0.2014
 6008SOL    HW229487   4.698   0.689  16.885  0.3237 -0.3921 -2.4319
 6009SOL     OW29488   1.330   0.353  11.669  0.6382  0.5697 -0.3700
 6009SOL    HW129489   1.334   0.392  11.581  2.3810 -0.3632 -0.6911
 6009SOL    HW229490   1.393   0.409  11.714  0.4083  0.5054  0.0310
 6010SOL     OW29491   3.699   2.819   7.579 -0.0482  0.0042  0.0637
 6010SOL    HW129492   3.697   2.914   7.593  0.4125 -0.2875  2.1650
 6010SOL    HW229493   3.792   2.799   7.575 -0.1866 -0.7893  0.8296
 6011SOL     OW29494   1.579   2.346   6.056  0.1070  0.0994  0.4138
 6011SOL    HW129495   1.513   2.304   6.112  0.4606 -1.9955 -0.7769
 6011SOL    HW229496   1.538   2.425   6.021 -2.3029 -1.6638 -0.7387
 6012SOL     OW29497   1.417   3.552   5.997  0.2690 -0.5055 -0.4036
 6012SOL    HW129498   1.336   3.515   6.030  1.2165 -0.7512  1.6304
 6012SOL    HW229499   1.404   3.646   5.987 -1.3637 -0.6658  0.2686
 6013SOL     OW29500   4.559   1.884   4.051  0.2761  0.4031  0.4895
 6013SOL    HW129501   4.585   1.797   4.021 -0.6631  1.1958 -2.6279
 6013SOL    HW229502   4.646   1.905   4.086  1.7190 -1.3081 -2.0465
 6014SOL     OW29503   0.512   3.613   3.772  0.1269 -0.1078 -0.4308
 6014SOL    HW129504   0.422   3.583   3.786  0.4944 -0.8025  0.4260
 6014SOL    HW229505   0.522   3.602   3.678 -1.0291  0.1569 -0.5941
 6015SOL     OW29506   4.362   4.488   3.353  0.2005 -0.3291 -0.1402
 6015SOL    HW129507   4.421   4.534   3.294 -1.1790  2.5141  0.6778
 6015SOL    HW229508   4.416   4.450   3.422 -0.4764 -2.3153 -0.6979
 6016SOL     OW29509   2.279   2.393   2.149 -0.0990 -0.2054 -0.4904
 6016SOL    HW129510   2.353   2.428   2.198  0.5672  1.0772 -2.4266
 6016SOL    HW229511   2.316   2.392   2.061  0.9543  3.0040 -0.0562
 6017SOL     OW29512   1.958   3.069   8.342 -0.3418 -0.2966  0.0152
 6017SOL    HW129513   1.919   3.119   8.271  0.8425  0.8275  0.1751
 6017SOL    HW229514   1.889   3.011   8.376  0.4250  0.0829  2.2103
 6018SOL     OW29515   2.740   3.908   4.659  0.4407  0.8299  0.8464
 6018SOL    HW129516   2.737   3.814   4.673  1.6089  0.2510 -2.7764
 6018SOL    HW229517   2.655   3.934   4.695 -0.3445 -0.9705  0.2737
 6019SOL     OW29518   2.756   4.091   6.602 -0.5356  0.1163 -0.2229
 6019SOL    HW129519   2.811   4.036   6.657  0.1444  0.0229 -1.0051
 6019SOL    HW229520   2.721   4.027   6.540 -1.8831  0.2224  0.4184
 6020SOL     OW29521   1.716   1.531   2.487 -0.9402 -0.1691  0.0510
 6020SOL    HW129522   1.696   1.604   2.429 -0.7662 -0.1720 -0.0115
 6020SOL    HW229523   1.666   1.554   2.565  0.4795  1.7211  0.3875
 6021SOL     OW29524   2.199   4.397   3.471  0.3783  0.0399  0.3021
 6021SOL    HW129525   2.292   4.373   3.469  0.8030  1.7169 -1.0237
 6021SOL    HW229526   2.173   4.378   3.561 -0.7701  2.3306  0.4491
 6022SOL     OW29527   0.100   1.815  11.493 -0.6982 -0.2444  0.1109
 6022SOL    HW129528   0.046   1.862  11.430 -0.0662  0.4222  0.0797
 6022SOL    HW229529   0.095   1.727  11.454 -2.5613  0.2169 -0.6842
 6023SOL     OW29530   0.662   4.206   9.677  0.8167 -0.2894 -0.3987
 6023SOL    HW129531   0.751   4.195   9.712  0.1590  0.4498  1.5206
 6023SOL    HW229532   0.630   4.116   9.675  0.7405 -0.2479 -1.1403
 6024SOL     OW29533   3.842   2.691  13.366 -0.1003  0.2948  0.2293
 6024SOL    HW129534   3.771   2.698  13.431 -0.7890 -0.7137 -0.4242
 6024SOL    HW229535   3.857   2.782  13.341 -0.5886 -0.0334 -1.2740
 6025SOL     OW29536   3.985   1.636   5.871  0.0653 -0.7687 -0.1287
 6025SOL    HW129537   4.067   1.641   5.822 -0.0417  2.1929  0.0057
 6025SOL    HW229538   4.014   1.592   5.951  0.0457  0.6559  0.6483
 6026SOL     OW29539   2.449   1.000   2.322 -0.2210  0.5170  0.0457
 6026SOL    HW129540   2.489   1.042   2.246 -0.0540 -2.0024 -1.2761
 6026SOL    HW229541   2.501   0.919   2.320  0.0763  0.7369 -1.5742
 6027SOL     OW29542   4.498   3.308   5.656 -0.1379  0.7633 -0.5871
 6027SOL    HW129543   4.475   3.244   5.723 -1.2628 -0.5068 -2.1814
 6027SOL    HW229544   4.562   3.259   5.603 -0.8720 -0.4395 -0.3661
 6028SOL     OW29545   3.305   1.750   6.180  0.7544  0.5431 -0.0721
 6028SOL    HW129546   3.246   1.758   6.105 -1.5823 -1.5904  1.5416
 6028SOL    HW229547   3.306   1.656   6.199 -1.7198 -0.0560 -2.9585
 6029SOL     OW29548   1.085   3.326   6.329  0.1559  0.1250  0.1957
 6029SOL    HW129549   1.124   3.265   6.267 -0.5243  0.0055 -0.1146
 6029SOL    HW229550   1.091   3.283   6.415  2.0174 -1.2240 -0.5992
 6030SOL     OW29551   0.914   4.699   6.090 -0.2545 -0.5887 -0.5851
 6030SOL    HW129552   0.998   4.684   6.134 -0.9574 -0.6581  0.7320
 6030SOL    HW229553   0.952   4.687   6.003  0.6016  1.5304 -0.4913
 6031SOL     OW29554   2.479   2.127  17.228 -0.1591  0.1459  0.1606
 6031SOL    HW129555   2.513   2.195  17.286  2.4458 -1.8694  1.0006
 6031SOL    HW229556   2.434   2.184  17.166 -0.5331  1.8660  2.0340
 6032SOL     OW29557   4.457   2.237  10.990  0.1819 -0.3354  0.1850
 6032SOL    HW129558   4.542   2.225  10.946 -0.7582 -1.7522 -1.2505
 6032SOL    HW229559   4.426   2.148  11.008  2.7527 -1.3498 -0.2182
 6033SOL     OW29560   1.564   1.599   6.403 -0.8570 -0.1600  0.3352
 6033SOL    HW129561   1.601   1.581   6.316 -1.8041  1.4809 -0.4083
 6033SOL    HW229562   1.623   1.542   6.452 -2.5586 -0.3932  2.0984
 6034SOL     OW29563   3.730   0.209   6.456 -0.1790  0.0849 -0.5181
 6034SOL    HW129564   3.722   0.236   6.365 -0.1043  0.7638 -0.3255
 6034SOL    HW229565   3.820   0.243   6.463 -0.2318  0.1248 -0.0264
 6035SOL     OW29566   4.387   4.233   8.680  0.1962 -0.1984 -0.6388
 6035SOL    HW129567   4.410   4.248   8.772  0.5332  0.6862 -0.8686
 6035SOL    HW229568   4.397   4.138   8.676 -2.0605 -0.3529 -2.4936
 6036SOL     OW29569   4.459   3.736   2.888 -0.2227  0.3588  0.3885
 6036SOL    HW129570   4.467   3.789   2.809  2.2061 -1.2215 -0.4180
 6036SOL    HW229571   4.383   3.681   2.871 -0.4813  0.8734 -0.1303
 6037SOL     OW29572   1.221   3.124   4.098 -0.1909  0.4322 -0.8851
 6037SOL    HW129573   1.316   3.131   4.088 -0.0262 -0.3070  0.2050
 6037SOL    HW229574   1.207   3.091   4.187 -2.1147 -0.8071 -1.6314
 6038SOL     OW29575   0.363   1.755   2.471 -0.7527 -0.1184  0.1476
 6038SOL    HW129576   0.268   1.748   2.480 -0.5254 -0.5496  2.2076
 6038SOL    HW229577   0.377   1.692   2.400 -0.4794 -0.8333  0.8243
 6039SOL     OW29578   4.125   4.537   8.341 -0.0788 -0.5093  0.5022
 6039SOL    HW129579   4.147   4.488   8.420  1.6896  1.8759  1.4656
 6039SOL    HW229580   4.149   4.626   8.367 -2.2192 -0.3298  1.8327
 6040SOL     OW29581   4.667   4.395   2.220  0.0411  0.5589  0.1899
 6040SOL    HW129582   0.001   4.319   2.210 -0.1099  0.3231  1.1381
 6040SOL    HW229583   4.653   4.398   2.314 -0.6300  0.3121  0.0995
 6041SOL     OW29584   4.012   2.233   7.605  0.0974 -0.4244 -0.4918
 6041SOL    HW129585   3.917   2.221   7.605  0.0601 -0.1613  0.4956
 6041SOL    HW229586   4.050   2.161   7.656 -0.1445 -0.0637  0.2033
 6042SOL     OW29587   3.672   2.462  12.967 -0.1654  0.3488 -0.3597
 6042SOL    HW129588   3.670   2.550  13.005 -0.9894 -1.2412  3.2433
 6042SOL    HW229589   3.663   2.406  13.044  0.4948  2.6048  1.3542
 6043SOL     OW29590   0.023   0.774   3.581 -0.3916 -0.2753  0.0971
 6043SOL    HW129591   0.049   0.866   3.580 -1.2622 -0.0209  1.4226
 6043SOL    HW229592   4.669   0.763   3.635 -2.0317 -1.1643 -2.4162
 6044SOL     OW29593   1.761   3.549  10.205  0.0991 -0.3565  0.1298
 6044SOL    HW129594   1.761   3.567  10.111  0.8459  1.1204  0.4114
 6044SOL    HW229595   1.678   3.581  10.240  1.2338  0.8364  1.7734
 6045SOL     OW29596   0.141   1.049   5.118  0.2540  0.5550 -0.2363
 6045SOL    HW129597   0.163   0.972   5.066  1.0945  0.3951  0.3556
 6045SOL    HW229598   0.226   1.087   5.139  0.0310  0.8979  0.0410
 6046SOL     OW29599   2.622   0.043   1.720  0.3223 -0.0049  0.4926
 6046SOL    HW129600   2.584   0.033   1.633  0.3966  0.0232  0.4575
 6046SOL    HW229601   2.717   0.033   1.711  0.0647 -0.2316 -1.7919
 6047SOL     OW29602   1.028   2.737  12.154  0.0811 -0.3584  0.2035
 6047SOL    HW129603   1.027   2.826  12.189  1.0422  0.5319 -2.0088
 6047SOL    HW229604   1.099   2.698  12.205  0.1152 -0.5366  0.0233
 6048SOL     OW29605   3.755   2.598   2.883  0.1708  0.2441 -0.8113
 6048SOL    HW129606   3.673   2.549   2.889  0.3266 -0.0007 -0.6749
 6048SOL    HW229607   3.743   2.676   2.938  0.1545 -0.6949  0.5301
 6049SOL     OW29608   4.639   0.794   4.170 -0.4584 -0.7990 -0.2786
 6049SOL    HW129609   4.715   0.807   4.114 -0.0889 -2.3180 -0.1307
 6049SOL    HW229610   4.595   0.721   4.126 -1.5596  1.0378 -2.1690
 6050SOL     OW29611   0.427   1.921  10.838 -0.0527  0.7406  0.1123
 6050SOL    HW129612   0.366   1.933  10.911 -0.9928  0.7291 -0.6667
 6050SOL    HW229613   0.502   1.876  10.876 -2.3817 -1.4281  2.0677
 6051SOL     OW29614   3.054   3.620  17.205  0.1126 -0.2000 -0.5213
 6051SOL    HW129615   2.985   3.684  17.187 -2.6355 -3.2169 -0.7107
 6051SOL    HW229616   3.039   3.564  17.129  0.3209  0.5643 -1.1259
 6052SOL     OW29617   3.575   4.586   0.532  0.2411 -0.2469 -0.1977
 6052SOL    HW129618   3.635   4.527   0.578 -1.9338 -1.7084  0.7453
 6052SOL    HW229619   3.578   4.545   0.446  0.9452 -1.8029  0.5776
 6053SOL     OW29620   3.590   2.087   7.170 -0.4165 -0.7504  0.3389
 6053SOL    HW129621   3.619   2.172   7.204  0.4309 -0.4410 -1.1729
 6053SOL    HW229622   3.616   2.087   7.078 -0.3214 -0.9272  0.3664
 6054SOL     OW29623   0.943   0.879   5.343 -0.6624 -0.0471 -0.1564
 6054SOL    HW129624   0.997   0.938   5.290 -1.5768 -1.5879 -2.8211
 6054SOL    HW229625   0.891   0.839   5.273  0.0658  0.6490 -1.1005
 6055SOL     OW29626   3.731   1.609   7.050 -0.6468  0.5030  0.1592
 6055SOL    HW129627   3.684   1.692   7.064 -0.2194  1.3089 -3.0091
 6055SOL    HW229628   3.805   1.649   7.004  0.1619 -0.3379  0.7381
 6056SOL     OW29629   2.426   1.342  11.490 -0.7067  0.0449 -0.2793
 6056SOL    HW129630   2.355   1.289  11.453 -1.6874  0.2148  1.3328
 6056SOL    HW229631   2.483   1.274  11.525 -0.9549 -0.9682 -1.8331
 6057SOL     OW29632   3.211   3.138   9.990  0.2601  0.5774 -0.0538
 6057SOL    HW129633   3.136   3.083  10.010 -0.0454  1.2366  0.6276
 6057SOL    HW229634   3.203   3.211  10.052 -0.1010 -0.2469  0.8731
 6058SOL     OW29635   0.376   3.477   7.096 -0.1017  0.4614 -0.3137
 6058SOL    HW129636   0.299   3.435   7.060  1.1119 -1.5292 -0.5803
 6058SOL    HW229637   0.385   3.436   7.182 -0.4373 -2.3326 -1.6355
 6059SOL     OW29638   1.701   1.168   5.854 -0.2058 -0.5247 -0.5587
 6059SOL    HW129639   1.728   1.122   5.774  1.2828  1.1604 -0.9976
 6059SOL    HW229640   1.632   1.111   5.889  2.6850 -3.2437  0.7270
 6060SOL     OW29641   2.885   1.050   8.698  0.1448  0.2254  0.0692
 6060SOL    HW129642   2.926   1.136   8.684  0.8496 -0.1723 -0.3249
 6060SOL    HW229643   2.796   1.084   8.703  0.2006  0.4957 -0.6459
 6061SOL     OW29644   3.460   0.526  17.547 -0.0127  0.0590  0.6955
 6061SOL    HW129645   3.497   0.534  17.634 -1.1367  0.3984  1.1449
 6061SOL    HW229646   3.368   0.541  17.570 -0.1209 -1.0046  0.9742
 6062SOL     OW29647   2.518   1.232   3.697  0.6298 -0.3116 -0.4236
 6062SOL    HW129648   2.546   1.145   3.668 -1.7162 -1.5010  0.8680
 6062SOL    HW229649   2.602   1.278   3.696  0.4946 -0.0559  0.1621
 6063SOL     OW29650   0.549   3.568   5.688 -0.1621 -0.4017 -0.4678
 6063SOL    HW129651   0.461   3.533   5.678 -0.2087  0.1172 -1.8614
 6063SOL    HW229652   0.529   3.652   5.730 -1.3795  0.1619 -2.1610
 6064SOL     OW29653   2.716   1.779   1.372  0.2582  0.1460  0.6534
 6064SOL    HW129654   2.758   1.814   1.293  1.0463 -2.9232 -0.2708
 6064SOL    HW229655   2.637   1.833   1.379  0.8506  1.1177 -0.2846
 6065SOL     OW29656   0.497   0.742   5.034 -0.7154 -0.0138 -0.6054
 6065SOL    HW129657   0.518   0.740   4.941  1.0695 -2.1877 -0.1470
 6065SOL    HW229658   0.532   0.829   5.051 -1.6930  0.4329 -0.8861
 6066SOL     OW29659   3.622   1.643   6.167  0.3987 -0.1344 -0.4406
 6066SOL    HW129660   3.638   1.609   6.079 -1.5948 -1.2572 -0.3722
 6066SOL    HW229661   3.602   1.564   6.218  1.4564  0.5476  1.0120
 6067SOL     OW29662   2.551   0.147   0.937  0.1550  0.3396  0.7653
 6067SOL    HW129663   2.506   0.216   0.987 -1.5802 -1.8926  2.2527
 6067SOL    HW229664   2.619   0.199   0.894  2.7826  0.1002  4.6355
 6068SOL     OW29665   4.625   0.632  15.474  0.0053  0.1691 -0.1459
 6068SOL    HW129666   4.614   0.537  15.473 -0.6548  0.2566 -0.7876
 6068SOL    HW229667   4.693   0.640  15.408  0.9043 -2.8626  0.4115
 6069SOL     OW29668   3.890   1.870  17.629  0.1290  0.1833 -0.1362
 6069SOL    HW129669   3.881   1.800  17.694 -0.0225  0.5300  0.2155
 6069SOL    HW229670   3.835   1.830  17.562  0.2467 -1.3737  0.7030
 6070SOL     OW29671   3.134   2.847   1.213  0.1419  0.2026 -0.2179
 6070SOL    HW129672   3.118   2.795   1.292  0.1502  0.0686 -0.3035
 6070SOL    HW229673   3.218   2.817   1.177 -0.8887 -2.8146 -0.1354
 6071SOL     OW29674   0.085   3.677  12.861  0.5162  0.0742 -0.4053
 6071SOL    HW129675   0.151   3.665  12.928 -0.2262 -0.6582  0.1926
 6071SOL    HW229676   0.026   3.602  12.873  0.5699  0.8932  4.8117
 6072SOL     OW29677   2.225   3.332   7.041 -0.1956 -0.7236 -0.2370
 6072SOL    HW129678   2.159   3.321   7.110  0.3834 -1.9630  0.0984
 6072SOL    HW229679   2.296   3.277   7.074  0.5562  1.0527  1.1114
 6073SOL     OW29680   2.423   2.035   9.395 -0.1792 -0.1559 -0.2352
 6073SOL    HW129681   2.369   1.956   9.390  1.3365 -1.2094  0.1638
 6073SOL    HW229682   2.512   2.004   9.407 -0.1495 -0.9986 -2.6642
 6074SOL     OW29683   2.787   2.200   4.338 -0.3020 -0.0396  0.1646
 6074SOL    HW129684   2.868   2.242   4.365 -0.6592  1.2929 -0.8388
 6074SOL    HW229685   2.738   2.278   4.310  0.6402  0.6761  0.5301
 6075SOL     OW29686   2.069   2.096   7.417  0.1155  0.1080  0.2260
 6075SOL    HW129687   2.070   2.184   7.381 -0.5199 -0.2506 -0.6702
 6075SOL    HW229688   2.138   2.068   7.358  1.3567 -0.8911  2.1282
 6076SOL     OW29689   3.041   2.670   6.303 -0.3149 -0.7892 -0.0427
 6076SOL    HW129690   3.091   2.653   6.224  0.2553  1.1654 -0.1032
 6076SOL    HW229691   2.994   2.587   6.311  1.9886 -2.1036 -0.0885
 6077SOL     OW29692   0.496   2.438   7.534  0.4492 -0.2748 -0.1877
 6077SOL    HW129693   0.572   2.452   7.590  0.2006 -1.4067  0.4322
 6077SOL    HW229694   0.456   2.359   7.569  0.5463  0.1941  0.9581
 6078SOL     OW29695   1.598   2.916   6.365 -0.8618 -0.0319 -0.3367
 6078SOL    HW129696   1.571   3.005   6.341  0.1650  0.3593 -0.0740
 6078SOL    HW229697   1.590   2.905   6.460  1.8813 -1.5710 -0.2824
 6079SOL     OW29698   3.615   4.121  15.063  0.3156 -0.5112  0.1660
 6079SOL    HW129699   3.634   4.179  14.989 -4.1138 -0.6845 -1.0882
 6079SOL    HW229700   3.670   4.044  15.047  1.1508  0.1535 -0.1733
 6080SOL     OW29701   2.526   1.944   5.848 -0.2195 -0.0286  0.4378
 6080SOL    HW129702   2.595   1.902   5.900 -0.0934 -0.3316  0.0296
 6080SOL    HW229703   2.453   1.883   5.857  0.4251 -0.9119 -0.3565
 6081SOL     OW29704   2.823   0.606   6.816 -0.3256 -0.3906  0.0120
 6081SOL    HW129705   2.780   0.522   6.805 -1.6079  0.3593 -0.6862
 6081SOL    HW229706   2.795   0.670   6.750 -1.6577  0.3859  1.3255
 6082SOL     OW29707   1.914   1.976   2.056 -0.6432  0.4385 -0.3643
 6082SOL    HW129708   1.825   1.977   2.022 -1.9121  0.8523  2.9930
 6082SOL    HW229709   1.932   2.067   2.080 -0.4352  0.0649  0.9195
 6083SOL     OW29710   2.323   2.653   2.757  0.2313 -0.4529 -0.1219
 6083SOL    HW129711   2.315   2.670   2.663 -0.2160 -2.3751 -0.4266
 6083SOL    HW229712   2.313   2.743   2.790 -1.1898 -0.5978 -0.1312
 6084SOL     OW29713   0.772   0.698   3.215 -0.0965  0.4773  0.1697
 6084SOL    HW129714   0.707   0.629   3.203 -2.4544  2.4448  1.8477
 6084SOL    HW229715   0.848   0.648   3.246 -3.1597 -3.0441  1.9671
 6085SOL     OW29716   4.438   0.777   5.996  0.0527  0.1048  0.6267
 6085SOL    HW129717   4.402   0.712   6.056 -0.4467 -0.2768 -0.0810
 6085SOL    HW229718   4.508   0.810   6.053  1.4236  1.0044 -1.5498
 6086SOL     OW29719   3.350   3.047  15.103 -0.4298 -0.0560 -0.2242
 6086SOL    HW129720   3.407   2.999  15.044  0.8378  0.7956  0.3073
 6086SOL    HW229721   3.304   3.105  15.042  0.0335  1.3331  0.7355
 6087SOL     OW29722   0.576   4.454   8.619 -0.0574 -0.4513  0.4253
 6087SOL    HW129723   0.513   4.404   8.671  0.5779 -0.4624  1.1730
 6087SOL    HW229724   0.531   4.436   8.536 -2.0233  4.3613  0.4215
 6088SOL     OW29725   3.641   3.297   3.309 -0.2582  0.2428 -0.0023
 6088SOL    HW129726   3.651   3.214   3.261  0.6577  0.9701 -1.0801
 6088SOL    HW229727   3.705   3.275   3.376  1.5909  0.5191 -1.6648
 6089SOL     OW29728   0.918   0.795   9.876 -0.5476 -0.6138  0.0003
 6089SOL    HW129729   0.877   0.782   9.791  0.8874 -1.3999 -0.5795
 6089SOL    HW229730   0.900   0.888   9.892 -0.0272 -0.6440  0.7643
 6090SOL     OW29731   2.067   3.071  15.235  0.3103  0.7613  0.1759
 6090SOL    HW129732   2.092   3.106  15.321 -1.1453  0.8353  0.5766
 6090SOL    HW229733   2.035   2.981  15.244  0.1699  0.5661 -2.2248
 6091SOL     OW29734   2.397   3.753   5.333  0.1348 -0.1476  0.0923
 6091SOL    HW129735   2.336   3.739   5.405  1.7346  0.0628  1.5014
 6091SOL    HW229736   2.391   3.659   5.316  2.5920  0.0943 -2.2429
 6092SOL     OW29737   2.590   3.194   3.032 -0.7768  0.3615 -0.3449
 6092SOL    HW129738   2.665   3.164   3.084  0.1668  1.2611 -1.1599
 6092SOL    HW229739   2.550   3.247   3.101  1.8413  2.0037 -0.0602
 6093SOL     OW29740   2.240   0.702   8.434 -0.4155  0.1365  0.6865
 6093SOL    HW129741   2.281   0.646   8.500 -0.9604  1.0594  1.8150
 6093SOL    HW229742   2.293   0.704   8.354  0.4607  0.4851  1.2817
 6094SOL     OW29743   2.908   2.920  14.165 -0.0317 -0.0636 -0.4349
 6094SOL    HW129744   2.946   3.000  14.202  0.8092 -1.2657  1.3000
 6094SOL    HW229745   2.828   2.919  14.217 -1.1742  1.1860 -2.1695
 6095SOL     OW29746   3.563   2.981  14.928  0.3032  0.4614  0.1992
 6095SOL    HW129747   3.517   2.974  14.844  0.2736  3.2530 -0.0151
 6095SOL    HW229748   3.622   3.056  14.915  1.3560 -0.5096 -0.6947
 6096SOL     OW29749   1.181   3.738   2.177  0.5133  0.2094  0.5718
 6096SOL    HW129750   1.197   3.828   2.204  1.9959 -0.1060  0.7224
 6096SOL    HW229751   1.145   3.752   2.089 -0.9954  0.0634  1.1726
 6097SOL     OW29752   0.276   0.439  16.806  0.1321 -0.2437 -0.5139
 6097SOL    HW129753   0.181   0.445  16.799  0.2015  0.2633 -1.0792
 6097SOL    HW229754   0.291   0.494  16.883 -2.1235 -0.8899  0.3727
 6098SOL     OW29755   1.028   2.519   4.163 -0.0521  0.2136 -0.6610
 6098SOL    HW129756   0.999   2.611   4.160  0.9943  0.5657  0.1839
 6098SOL    HW229757   1.004   2.508   4.255  1.7012  0.3804 -0.1853
 6099SOL     OW29758   2.473   1.843   2.411 -0.3262  0.3583  0.5072
 6099SOL    HW129759   2.413   1.849   2.485  2.7280 -0.2474  3.0040
 6099SOL    HW229760   2.441   1.919   2.361  0.1764  0.8235  0.8908
 6100SOL     OW29761   0.932   2.098   8.530 -0.2740 -0.0530 -0.1500
 6100SOL    HW129762   0.984   2.120   8.607 -1.6113  1.2891  0.3652
 6100SOL    HW229763   0.979   2.149   8.464 -0.1300 -1.1409 -0.8784
 6101SOL     OW29764   4.716   4.023  11.400  0.4335 -0.5890 -0.1525
 6101SOL    HW129765   4.673   4.078  11.466 -1.7751 -1.2868 -1.0226
 6101SOL    HW229766   0.054   3.970  11.451  0.5095  0.3981  0.7966
 6102SOL     OW29767   1.378   2.251   7.033  0.3889 -0.9549 -0.3180
 6102SOL    HW129768   1.440   2.260   6.960  1.6545  1.8939  1.0961
 6102SOL    HW229769   1.345   2.162   7.024  2.7266 -1.7427 -1.2791
 6103SOL     OW29770   0.541   1.334   5.766  0.0210 -0.3563  0.3413
 6103SOL    HW129771   0.578   1.284   5.694 -0.6473 -0.5558  0.1361
 6103SOL    HW229772   0.553   1.286   5.848 -0.8392  0.4441  0.9343
 6104SOL     OW29773   2.662   2.840   9.075  0.6072  0.8227  0.0053
 6104SOL    HW129774   2.607   2.780   9.125  1.0666  0.6356  0.2807
 6104SOL    HW229775   2.730   2.778   9.050  0.5220  0.4463  0.6942
 6105SOL     OW29776   2.690   1.700   2.325 -0.2030 -0.2728 -0.2436
 6105SOL    HW129777   2.703   1.633   2.393 -2.4568 -1.5691 -1.0859
 6105SOL    HW229778   2.613   1.745   2.358 -1.2465 -2.6254  0.5412
 6106SOL     OW29779   0.790   3.509   4.909 -0.2510  0.3880  0.0950
 6106SOL    HW129780   0.793   3.600   4.937 -2.5310  0.1524  1.1391
 6106SOL    HW229781   0.718   3.485   4.968 -2.1550  1.1789 -1.8723
 6107SOL     OW29782   3.536   3.547  15.156 -0.1462  0.0439  0.0864
 6107SOL    HW129783   3.498   3.503  15.231  1.0058 -1.8120 -0.4237
 6107SOL    HW229784   3.471   3.518  15.092  0.8888  0.1660 -1.0250
 6108SOL     OW29785   4.316   2.094   8.094  0.2947  0.4102 -0.0491
 6108SOL    HW129786   4.224   2.079   8.076 -0.0477  2.7184 -0.2723
 6108SOL    HW229787   4.330   2.035   8.168  1.2761  2.2429  1.2413
 6109SOL     OW29788   0.137   1.578   9.135 -0.1124 -0.1248 -0.2798
 6109SOL    HW129789   0.209   1.632   9.104 -0.8839  1.5686  0.9523
 6109SOL    HW229790   0.150   1.592   9.228 -1.2295 -1.7672  0.1295
 6110SOL     OW29791   1.661   0.594   1.896 -0.3764 -0.0632  0.3025
 6110SOL    HW129792   1.635   0.566   1.984 -0.3023  0.1948  0.4066
 6110SOL    HW229793   1.657   0.687   1.916  0.9527  0.4289 -1.7965
 6111SOL     OW29794   3.314   2.868   6.314  0.0196  0.6011  0.3540
 6111SOL    HW129795   3.260   2.886   6.238  1.7765  0.8322 -0.8295
 6111SOL    HW229796   3.324   2.773   6.322 -1.6448  0.2970 -1.3717
 6112SOL     OW29797   0.356   1.465  10.580  0.0848  0.0129 -0.2963
 6112SOL    HW129798   0.334   1.464  10.673  2.6716 -2.2221  0.3139
 6112SOL    HW229799   0.440   1.511  10.578  0.1445 -0.0832  0.0268
 6113SOL     OW29800   4.050   3.915   2.874  0.5520  0.4058  0.1136
 6113SOL    HW129801   4.057   3.878   2.962  1.2034 -3.7561 -1.6804
 6113SOL    HW229802   4.067   4.008   2.884 -3.4506  1.0379  0.9851
 6114SOL     OW29803   1.775   1.766  10.670 -0.2594 -0.3163 -0.0901
 6114SOL    HW129804   1.717   1.713  10.617  0.5101 -2.2622  1.0021
 6114SOL    HW229805   1.713   1.782  10.741 -2.1359 -0.0582 -1.7780
 6115SOL     OW29806   0.656   3.111   3.264  0.3164  0.3966  0.1894
 6115SOL    HW129807   0.636   3.023   3.297  0.8008  0.0045 -0.5686
 6115SOL    HW229808   0.659   3.089   3.171  0.5340 -1.1323  0.5474
 6116SOL     OW29809   4.221   3.087   4.829  0.1926  0.2313  0.3781
 6116SOL    HW129810   4.217   3.000   4.788  1.1666  0.5133 -0.3263
 6116SOL    HW229811   4.257   3.074   4.916 -2.3708  0.0917  1.3920
 6117SOL     OW29812   3.089   0.011   3.019  0.4430 -0.1757  0.2799
 6117SOL    HW129813   3.160   4.672   3.005  0.6378  0.3415 -1.0549
 6117SOL    HW229814   3.017   4.674   3.038 -1.1471  0.7430 -2.7009
 6118SOL     OW29815   2.456   0.988   2.599 -0.1307 -0.0254 -0.1209
 6118SOL    HW129816   2.516   1.060   2.616 -1.3881  1.6477 -2.8745
 6118SOL    HW229817   2.447   0.996   2.504 -0.1215 -0.9585 -0.1975
 6119SOL     OW29818   0.142   0.115  12.499  0.2463 -0.2457  0.3591
 6119SOL    HW129819   0.230   0.119  12.534  1.1174  0.5843 -1.9190
 6119SOL    HW229820   0.087   0.163  12.560  0.9518 -0.7386  1.3754
 6120SOL     OW29821   3.250   0.417   5.670 -0.0920  0.5144  0.0953
 6120SOL    HW129822   3.284   0.496   5.627 -2.9405  1.2669 -0.7634
 6120SOL    HW229823   3.297   0.353   5.616 -0.1018  2.0120 -1.6945
 6121SOL     OW29824   4.676   2.695   4.329 -0.1363 -0.3543 -0.4349
 6121SOL    HW129825   4.711   2.776   4.292 -0.3057  0.3140  0.8864
 6121SOL    HW229826   0.030   2.645   4.355  1.3595  1.7429 -0.8954
 6122SOL     OW29827   2.704   3.932   3.849  0.8173  0.2378 -0.9137
 6122SOL    HW129828   2.663   3.901   3.768  1.2230 -0.8351 -0.7064
 6122SOL    HW229829   2.789   3.889   3.846  0.3616 -0.6214 -1.5134
 6123SOL     OW29830   2.118   4.569   2.803  0.4673  0.3028 -0.0215
 6123SOL    HW129831   2.137   4.522   2.722  0.9518  3.1841 -1.5868
 6123SOL    HW229832   2.043   4.522   2.839  0.1787  0.7623 -0.0276
 6124SOL     OW29833   1.911   0.563   6.390  0.1555 -0.4861 -0.1383
 6124SOL    HW129834   1.974   0.619   6.436  1.0651 -1.2098 -0.5127
 6124SOL    HW229835   1.961   0.484   6.370  0.5820  0.2592 -1.9947
 6125SOL     OW29836   0.842   4.395   7.136 -0.3025  0.0701 -0.3940
 6125SOL    HW129837   0.848   4.435   7.222 -0.2894  1.6747 -1.1472
 6125SOL    HW229838   0.746   4.387   7.137 -0.4889  2.3205  0.0723
 6126SOL     OW29839   0.524   1.965   8.991 -0.1977  0.4755 -0.1036
 6126SOL    HW129840   0.535   1.997   8.901 -1.8009 -1.3204 -0.9370
 6126SOL    HW229841   0.529   2.043   9.047 -0.6114  0.8395 -0.5657
 6127SOL     OW29842   0.974   1.719  10.232  0.4282 -0.1130  0.2034
 6127SOL    HW129843   1.028   1.643  10.254  0.1193  0.1583  1.8574
 6127SOL    HW229844   1.047   1.780  10.224 -1.0583  1.8522  1.9594
 6128SOL     OW29845   4.133   4.042   7.519 -0.1683  0.1086  0.7557
 6128SOL    HW129846   4.177   4.125   7.500 -0.7998  0.1853 -0.3426
 6128SOL    HW229847   4.083   4.062   7.598 -0.9403 -0.7094  0.4678
 6129SOL     OW29848   2.742   0.344   6.804  0.2823  0.1386  0.0470
 6129SOL    HW129849   2.738   0.360   6.710  0.1870  1.1868  0.2239
 6129SOL    HW229850   2.654   0.310   6.819  0.9104 -2.1571 -1.5907
 6130SOL     OW29851   0.056   4.098  13.516 -0.2094  0.4042 -0.2903
 6130SOL    HW129852   0.031   4.162  13.583  0.2539  1.3820 -1.0493
 6130SOL    HW229853   0.138   4.137  13.488 -0.3656  0.5882 -0.4893
 6131SOL     OW29854   4.276   2.776   0.408  0.6926  0.0614 -0.2965
 6131SOL    HW129855   4.248   2.684   0.406 -0.0719  0.2827  0.2926
 6131SOL    HW229856   4.355   2.757   0.457 -0.0270  1.4342  1.3898
 6132SOL     OW29857   2.381   1.338   1.080  0.4239  0.0151 -0.5105
 6132SOL    HW129858   2.293   1.307   1.061  0.4909 -0.1417 -0.5628
 6132SOL    HW229859   2.373   1.420   1.031 -3.0203  0.5048  0.8803
 6133SOL     OW29860   2.484   2.261  13.992  0.2039 -0.0329  0.2055
 6133SOL    HW129861   2.446   2.306  14.068 -0.8153  0.2672 -0.4734
 6133SOL    HW229862   2.407   2.233  13.941  0.1545  0.3036  0.0947
 6134SOL     OW29863   2.910   0.184  15.375 -0.4441 -0.0554 -0.3788
 6134SOL    HW129864   2.862   0.247  15.321 -2.9208 -0.8474  0.8844
 6134SOL    HW229865   2.907   0.108  15.318  1.5774 -0.9367  0.6858
 6135SOL     OW29866   0.319   4.394   9.765  0.0996  0.1451 -0.3616
 6135SOL    HW129867   0.293   4.479   9.802  3.1455  0.5168  0.9075
 6135SOL    HW229868   0.357   4.343   9.836 -0.3429 -1.8509 -1.5683
 6136SOL     OW29869   1.327   3.184   9.065  0.2086  0.5290 -0.5309
 6136SOL    HW129870   1.421   3.186   9.085  0.3316 -0.3815 -1.0068
 6136SOL    HW229871   1.314   3.272   9.100  0.2812  0.2548  0.1711
 6137SOL     OW29872   2.196   4.692   2.011 -0.2005  0.1204  1.1389
 6137SOL    HW129873   2.269   4.678   1.951  0.2495 -1.2668  2.0158
 6137SOL    HW229874   2.212   0.059   2.037  0.0458  0.0815  1.1209
 6138SOL     OW29875   4.699   4.110   4.031 -0.6594  0.3858 -0.2410
 6138SOL    HW129876   0.064   4.121   3.996 -0.9309 -0.1012 -1.0743
 6138SOL    HW229877   4.712   4.029   4.080  0.0190 -1.5646 -3.5972
 6139SOL     OW29878   4.205   2.272   5.296  0.5531  0.1026  0.0162
 6139SOL    HW129879   4.296   2.273   5.324  1.2825 -1.7836 -2.3047
 6139SOL    HW229880   4.173   2.317   5.374 -0.5951  0.5083 -0.6871
 6140SOL     OW29881   2.368   0.323   4.197 -0.1309  0.1437  0.5531
 6140SOL    HW129882   2.403   0.350   4.112 -0.5505  2.1433  1.0147
 6140SOL    HW229883   2.440   0.352   4.252 -0.3910  0.9228  0.4815
 6141SOL     OW29884   1.138   0.999   5.781  0.1625  0.2572 -0.0241
 6141SOL    HW129885   1.074   0.928   5.773  0.7558 -0.2849 -0.0163
 6141SOL    HW229886   1.091   1.066   5.830  0.6092 -2.0977  3.6603
 6142SOL     OW29887   2.427   1.377  15.096  0.3894  0.4628  0.7884
 6142SOL    HW129888   2.519   1.357  15.117  0.4683 -0.4693 -0.4678
 6142SOL    HW229889   2.393   1.321  15.166 -2.0675  1.4943  0.3868
 6143SOL     OW29890   1.384   2.539   4.876 -0.2339 -0.3066  0.5808
 6143SOL    HW129891   1.434   2.561   4.954 -1.3610 -0.0755  1.2300
 6143SOL    HW229892   1.360   2.446   4.876 -0.2701 -0.3029 -0.8445
 6144SOL     OW29893   2.212   0.961   4.301  0.2879 -0.4022  0.2482
 6144SOL    HW129894   2.148   0.924   4.239 -0.3039  0.7214  0.1870
 6144SOL    HW229895   2.273   0.890   4.316 -0.0438 -0.7998 -0.2629
 6145SOL     OW29896   2.797   3.695  13.959  0.0636 -0.1333 -0.2495
 6145SOL    HW129897   2.839   3.770  13.918  0.7912 -0.3297  0.1422
 6145SOL    HW229898   2.848   3.679  14.039 -1.4993 -0.0163  0.7872
 6146SOL     OW29899   2.859   0.029   2.069 -0.6135 -0.1736 -0.1227
 6146SOL    HW129900   2.789   4.688   2.082  1.7816 -2.2482  2.5737
 6146SOL    HW229901   2.893   4.717   1.986 -1.4455 -1.4546  0.0886
 6147SOL     OW29902   2.503   0.923   8.231  0.4624  0.1082  0.8749
 6147SOL    HW129903   2.530   0.967   8.150  0.6506 -0.9609  0.3435
 6147SOL    HW229904   2.426   0.973   8.255  0.7049  1.6644 -1.5737
 6148SOL     OW29905   3.404   0.728   4.188 -0.2229  0.1566 -0.4661
 6148SOL    HW129906   3.334   0.784   4.155  1.0172  2.2434  0.3741
 6148SOL    HW229907   3.476   0.745   4.127 -0.3653  1.3495 -0.3002
 6149SOL     OW29908   2.967   2.521  12.661  0.2769 -0.2829  0.1225
 6149SOL    HW129909   3.062   2.509  12.665  0.3874  0.7171  0.3741
 6149SOL    HW229910   2.941   2.477  12.580  0.5869 -1.8071  0.8520
 6150SOL     OW29911   3.315   0.871   1.956 -0.7157 -0.0489 -0.1002
 6150SOL    HW129912   3.395   0.818   1.949 -1.3783 -1.0255 -0.2629
 6150SOL    HW229913   3.344   0.931   2.025  0.0089 -0.7779  0.2270
 6151SOL     OW29914   3.120   1.348   4.668 -0.8002  0.4366 -0.1193
 6151SOL    HW129915   3.142   1.436   4.697  0.5236 -0.3847  1.3562
 6151SOL    HW229916   3.024   1.355   4.664 -1.0748 -1.9619  2.8298
 6152SOL     OW29917   2.106   4.156  11.162  0.3292  0.0527  0.0170
 6152SOL    HW129918   2.018   4.181  11.191  0.0958  0.1358 -0.7883
 6152SOL    HW229919   2.112   4.194  11.075  1.0200  2.4125  1.0986
 6153SOL     OW29920   0.273   4.010   8.493 -0.1740  0.3088  0.3974
 6153SOL    HW129921   0.187   4.046   8.516 -0.4089  0.3530 -0.5214
 6153SOL    HW229922   0.316   4.093   8.470  1.5571 -0.6054  0.3534
 6154SOL     OW29923   0.586   2.424   5.770  0.3085 -0.1497 -0.0010
 6154SOL    HW129924   0.495   2.402   5.753  0.4507  0.0495 -1.0629
 6154SOL    HW229925   0.579   2.423   5.865  0.5372 -1.5727 -0.0050
 6155SOL     OW29926   1.772   3.777  16.950  0.5219  0.0835  0.0978
 6155SOL    HW129927   1.812   3.859  16.924 -2.4361  1.9278  1.3788
 6155SOL    HW229928   1.682   3.808  16.944 -0.5842 -2.9568  0.9442
 6156SOL     OW29929   1.579   0.307   4.645 -0.4528  0.0789 -0.2725
 6156SOL    HW129930   1.497   0.296   4.596 -0.7820 -1.1559  0.5554
 6156SOL    HW229931   1.628   0.225   4.639 -0.8642 -0.3106  1.6345
 6157SOL     OW29932   4.513   4.691   8.477  0.3223  0.0701  1.0785
 6157SOL    HW129933   4.593   0.020   8.477 -0.3036  1.0120  0.4604
 6157SOL    HW229934   4.470   0.003   8.555 -1.4501  1.7855 -0.6906
 6158SOL     OW29935   2.121   1.188   1.517  0.4868  0.1973  0.2839
 6158SOL    HW129936   2.138   1.262   1.576 -2.4434 -0.7084  2.2391
 6158SOL    HW229937   2.178   1.126   1.562 -0.3972 -1.9704 -1.5778
 6159SOL     OW29938   1.756   3.884   5.688 -0.1059 -0.0467 -0.2410
 6159SOL    HW129939   1.741   3.950   5.619  1.1580 -1.7016 -2.1137
 6159SOL    HW229940   1.719   3.804   5.649 -1.0175  0.0488  0.4212
 6160SOL     OW29941   2.926   3.441  14.127 -0.8013 -0.3372 -0.6940
 6160SOL    HW129942   2.992   3.374  14.109 -0.4600 -0.4826  1.1075
 6160SOL    HW229943   2.950   3.477  14.212  0.0120 -0.6665 -0.7882
 6161SOL     OW29944   2.737   1.464  15.101  0.6230  0.0477 -0.3559
 6161SOL    HW129945   2.684   1.523  15.155  2.8776  2.0798 -0.3769
 6161SOL    HW229946   2.784   1.516  15.036  0.9037  2.5785  1.8703
 6162SOL     OW29947   1.503   2.874   5.445  0.1285  0.1101 -0.1700
 6162SOL    HW129948   1.448   2.898   5.519 -0.1778 -0.2016 -0.2936
 6162SOL    HW229949   1.580   2.856   5.499  0.1656 -0.4628 -0.4140
 6163SOL     OW29950   3.815   1.412   2.162  0.2283  0.5848  0.4022
 6163SOL    HW129951   3.839   1.494   2.205 -0.0458  0.2434  1.1957
 6163SOL    HW229952   3.835   1.430   2.070 -0.9878  1.7247  0.3559
 6164SOL     OW29953   1.503   3.438  16.628  0.1330  0.1208 -0.3752
 6164SOL    HW129954   1.554   3.415  16.551  0.0206  0.3394 -0.5119
 6164SOL    HW229955   1.520   3.378  16.701  3.7125 -1.2200 -2.3026
 6165SOL     OW29956   1.175   3.564  10.138 -0.3580  0.4227 -0.0951
 6165SOL    HW129957   1.113   3.625  10.178 -0.9862 -1.4134  1.7445
 6165SOL    HW229958   1.186   3.498  10.207 -1.2777 -1.1832 -1.4938
 6166SOL     OW29959   4.429   1.315   2.838 -0.3686 -0.1897  0.4931
 6166SOL    HW129960   4.436   1.264   2.918  1.2318 -0.8307 -0.0689
 6166SOL    HW229961   4.510   1.290   2.795  0.0870  1.1744  0.5476
 6167SOL     OW29962   3.493   4.390   7.795 -0.0237 -0.4263  0.2014
 6167SOL    HW129963   3.515   4.297   7.797 -0.6950 -0.6206 -1.2861
 6167SOL    HW229964   3.551   4.421   7.864 -0.0615 -2.1920  1.0223
 6168SOL     OW29965   4.658   2.140   2.776 -0.6520 -0.7214 -0.0077
 6168SOL    HW129966   4.630   2.218   2.728  1.1057 -0.7456 -1.0523
 6168SOL    HW229967   4.657   2.073   2.708  0.4665  0.0710 -0.7918
 6169SOL     OW29968   0.468   3.331  13.899 -0.5644  0.2399 -0.1953
 6169SOL    HW129969   0.405   3.399  13.876 -0.4511  0.9206  1.4988
 6169SOL    HW229970   0.410   3.278  13.953 -1.9269  1.9426  0.0055
 6170SOL     OW29971   1.836   2.174   3.927 -0.5476  0.4559 -0.0023
 6170SOL    HW129972   1.876   2.145   4.009 -0.4568 -1.3353 -0.6868
 6170SOL    HW229973   1.797   2.096   3.888 -0.0726 -0.4139  1.2746
 6171SOL     OW29974   0.129   2.038   4.067  0.0082  0.3493 -0.2610
 6171SOL    HW129975   0.217   2.012   4.040  0.3589 -1.3985  2.5571
 6171SOL    HW229976   0.153   2.130   4.079  0.7979  0.3599 -1.9923
 6172SOL     OW29977   3.411   4.338   4.591 -0.3212  0.3585  0.2883
 6172SOL    HW129978   3.317   4.318   4.596 -1.3965  5.5463  0.5356
 6172SOL    HW229979   3.406   4.418   4.540  1.1753 -0.9646 -1.9349
 6173SOL     OW29980   1.909   3.151   4.959 -1.1194 -0.2577  0.7257
 6173SOL    HW129981   1.962   3.212   4.908 -1.0933 -1.1017 -0.2612
 6173SOL    HW229982   1.896   3.082   4.893 -3.2352  1.4188 -0.6220
 6174SOL     OW29983   2.741   1.501   2.118  0.3298  0.8690  0.1513
 6174SOL    HW129984   2.714   1.580   2.166  2.8251  2.5117 -1.1643
 6174SOL    HW229985   2.762   1.536   2.031 -0.6342  0.5531 -0.2110
 6175SOL     OW29986   4.256   2.957   7.996  0.5147  0.2406  0.1890
 6175SOL    HW129987   4.312   2.920   8.063 -1.0071 -1.6581  0.4121
 6175SOL    HW229988   4.201   3.009   8.056 -0.7367 -2.0026  0.9888
 6176SOL     OW29989   4.001   1.468   4.787  0.0843  0.9587 -0.0400
 6176SOL    HW129990   3.918   1.485   4.831 -0.9464 -0.7326 -1.3417
 6176SOL    HW229991   4.061   1.528   4.830  1.0309  1.8681 -2.5997
 6177SOL     OW29992   1.553   3.991   0.114  0.1398  0.0806 -0.0089
 6177SOL    HW129993   1.589   4.026   0.032 -0.0464 -0.1297 -0.1801
 6177SOL    HW229994   1.551   3.896   0.101  1.7844 -0.5456  4.2278
 6178SOL     OW29995   1.599   0.168  15.085 -0.0865  0.3450  0.1599
 6178SOL    HW129996   1.563   0.186  14.998 -0.5734 -0.3634  0.2191
 6178SOL    HW229997   1.519   0.147  15.133 -0.9356 -0.3352 -1.5494
 6179SOL     OW29998   3.945   0.197  11.334 -0.4558 -0.0877 -0.2080
 6179SOL    HW129999   4.000   0.190  11.412  1.1200 -2.2779 -1.5289
 6179SOL    HW230000   3.950   0.291  11.317 -0.4325  0.1199  0.9254
 6180SOL     OW30001   0.389   2.690   7.048 -0.0763  0.3427  0.3232
 6180SOL    HW130002   0.420   2.618   7.103  1.8067 -0.0382 -1.2396
 6180SOL    HW230003   0.415   2.662   6.960 -1.6838  1.0530 -0.3875
 6181SOL     OW30004   1.463   3.549  10.506 -0.1549 -0.2544 -0.1281
 6181SOL    HW130005   1.372   3.575  10.493 -0.0419  0.0836 -0.2512
 6181SOL    HW230006   1.449   3.507  10.590  1.5366 -0.3457  0.1173
 6182SOL     OW30007   1.838   3.837   3.413 -0.5782 -0.2051  0.2069
 6182SOL    HW130008   1.832   3.866   3.322  0.3790 -1.9529 -0.4113
 6182SOL    HW230009   1.853   3.917   3.463  1.8144 -0.0782 -0.6928
 6183SOL     OW30010   1.653   0.055   4.574 -0.3416  0.3788  0.6793
 6183SOL    HW130011   1.627   0.085   4.488 -0.3937  1.4472  1.0755
 6183SOL    HW230012   1.742   0.023   4.559 -0.8427 -0.6559 -0.1135
 6184SOL     OW30013   1.903   2.387   9.507 -0.5446 -0.3171  0.1455
 6184SOL    HW130014   1.992   2.373   9.539 -0.1716 -0.6662 -1.0424
 6184SOL    HW230015   1.858   2.328   9.568  0.1025  0.9792  1.8914
 6185SOL     OW30016   3.054   0.054  17.376  0.0604 -0.4602  0.5067
 6185SOL    HW130017   2.990   0.119  17.349 -0.8706 -0.3149  3.0218
 6185SOL    HW230018   3.140   0.088  17.353 -0.5062 -0.1873 -1.1522
 6186SOL     OW30019   2.203   3.925   6.602  0.3439  0.7720 -0.0445
 6186SOL    HW130020   2.241   3.850   6.557 -1.0412 -0.2467  0.4746
 6186SOL    HW230021   2.155   3.967   6.531 -0.7195 -2.6967 -1.3258
 6187SOL     OW30022   1.653   4.479  16.041 -0.5412 -0.7386  0.0830
 6187SOL    HW130023   1.591   4.551  16.053  2.8275  2.0010  1.1662
 6187SOL    HW230024   1.595   4.412  16.077 -2.5454  0.2816 -1.1943
 6188SOL     OW30025   2.197   4.301   6.773 -0.2257 -0.1995 -0.2095
 6188SOL    HW130026   2.142   4.368   6.814  1.6797  0.6848  0.9078
 6188SOL    HW230027   2.142   4.256   6.709 -0.6751 -1.0948  0.8315
 6189SOL     OW30028   2.696   3.071   8.918  0.2569  0.0972 -0.0757
 6189SOL    HW130029   2.631   3.022   8.868 -1.4898  0.2506  2.0350
 6189SOL    HW230030   2.699   3.002   8.985 -0.9492  2.6801  2.6059
 6190SOL     OW30031   4.502   3.439   3.062 -0.2013  0.4157 -0.2966
 6190SOL    HW130032   4.482   3.387   2.984 -1.8469 -0.8500  0.9782
 6190SOL    HW230033   4.595   3.456   3.050 -0.5858  0.8989 -2.4646
 6191SOL     OW30034   1.865   1.184   7.367 -0.0330 -0.0913 -0.0356
 6191SOL    HW130035   1.786   1.160   7.416 -0.2521 -0.2923 -0.4853
 6191SOL    HW230036   1.928   1.218   7.431 -1.2252  1.8990  0.0879
 6192SOL     OW30037   2.888   0.889   5.544  0.1421 -0.0855  0.2512
 6192SOL    HW130038   2.924   0.810   5.502  2.1968  0.2531  1.3763
 6192SOL    HW230039   2.970   0.931   5.569 -0.0899  0.9746 -0.7472
 6193SOL     OW30040   1.595   3.511  15.867  0.2096  0.0546 -0.5168
 6193SOL    HW130041   1.643   3.430  15.884  0.0307  0.1469  0.3835
 6193SOL    HW230042   1.530   3.471  15.809  1.2143 -0.5846 -1.2218
 6194SOL     OW30043   1.062   2.521  12.767  0.1491 -0.0367  0.5472
 6194SOL    HW130044   1.113   2.591  12.725  1.1301 -0.8703  0.3713
 6194SOL    HW230045   1.068   2.450  12.703  1.7116  1.0926 -0.5800
 6195SOL     OW30046   2.340   1.724  12.337 -0.1618 -0.0029  0.5671
 6195SOL    HW130047   2.371   1.739  12.248  0.0060  0.2077  0.6631
 6195SOL    HW230048   2.387   1.648  12.371  0.7564 -0.0511 -0.8368
 6196SOL     OW30049   2.430   0.365   1.092 -0.1151  0.1099 -0.2858
 6196SOL    HW130050   2.484   0.427   1.141 -1.2578  0.5779  0.3665
 6196SOL    HW230051   2.358   0.416   1.055 -0.3886  0.6337  0.9676
 6197SOL     OW30052   0.004   4.482  14.594 -0.2040  0.0230  0.0801
 6197SOL    HW130053   0.063   4.494  14.519 -0.0899  3.2272  0.6840
 6197SOL    HW230054   4.647   4.515  14.554 -1.2062 -3.5103 -0.7900
 6198SOL     OW30055   3.693   1.036   6.577 -0.1354 -0.0053 -0.2825
 6198SOL    HW130056   3.616   0.981   6.591 -0.4034  0.4152 -0.0959
 6198SOL    HW230057   3.728   1.057   6.663  0.7516 -1.9510 -0.1684
 6199SOL     OW30058   2.006   1.699   7.445  0.2188  0.3431  0.1001
 6199SOL    HW130059   1.988   1.665   7.533  1.9343 -1.6390 -0.3134
 6199SOL    HW230060   1.938   1.765   7.434 -0.5291 -0.3141  0.7505
 6200SOL     OW30061   2.801   4.349   2.515  0.1218 -0.1679  0.3332
 6200SOL    HW130062   2.796   4.444   2.505 -0.2205 -0.2161  0.0522
 6200SOL    HW230063   2.877   4.336   2.459  0.6051  1.2820  0.6436
 6201SOL     OW30064   2.165   3.069   5.721 -0.7509  0.3070  0.2298
 6201SOL    HW130065   2.124   3.149   5.689 -0.5574  0.3295  0.0359
 6201SOL    HW230066   2.209   3.041   5.641 -1.2001  1.5221 -0.4389
 6202SOL     OW30067   1.768   3.677  17.250  0.3266  0.7327  0.4473
 6202SOL    HW130068   1.803   3.615  17.186  1.8903 -0.0726  2.0976
 6202SOL    HW230069   1.845   3.684  17.306  0.7985 -1.0004 -0.0044
 6203SOL     OW30070   0.529   1.679  15.562  0.0902  0.3885  0.3630
 6203SOL    HW130071   0.602   1.724  15.519 -2.6518  1.5508 -3.1200
 6203SOL    HW230072   0.458   1.738  15.536 -0.5925 -1.6968 -2.4565
 6204SOL     OW30073   1.579   3.660  15.139  0.0483  0.3004  0.0262
 6204SOL    HW130074   1.618   3.573  15.131  3.7150  1.8496  0.9042
 6204SOL    HW230075   1.489   3.634  15.120  0.7251 -1.4582 -0.8361
 6205SOL     OW30076   3.115   4.555  10.229  0.3753  0.2636  0.5932
 6205SOL    HW130077   3.065   4.533  10.308 -0.5799  2.6006  0.6284
 6205SOL    HW230078   3.196   4.583  10.272 -0.2787  3.4822 -0.3199
 6206SOL     OW30079   1.918   2.625   9.688 -0.5173  0.1569  0.1897
 6206SOL    HW130080   1.881   2.709   9.713 -0.4502 -0.3635  2.0636
 6206SOL    HW230081   1.845   2.563   9.695  0.8962 -1.3519  1.7131
 6207SOL     OW30082   2.755   2.823   7.990  0.0226 -0.1756  0.3103
 6207SOL    HW130083   2.728   2.798   8.079 -0.4666  0.4576  0.3345
 6207SOL    HW230084   2.710   2.907   7.984  0.2876 -0.0184  0.5147
 6208SOL     OW30085   0.008   3.814  11.791 -0.5253  0.0400  0.0461
 6208SOL    HW130086   0.018   3.781  11.880 -1.3112  2.2799  0.9689
 6208SOL    HW230087   4.686   3.895  11.817  2.1453  1.6094 -0.1532
 6209SOL     OW30088   2.076   3.545   7.351  0.1256 -0.0832 -0.0181
 6209SOL    HW130089   2.165   3.553   7.385  0.7365 -1.9061 -1.1380
 6209SOL    HW230090   2.076   3.451   7.332 -1.9446 -0.3391  1.3057
 6210SOL     OW30091   2.051   4.606   7.309 -0.1969 -0.9525 -0.3393
 6210SOL    HW130092   2.101   4.539   7.263 -0.8604 -0.7101 -1.4150
 6210SOL    HW230093   2.114   4.677   7.300 -0.9612 -0.1932  0.3758
 6211SOL     OW30094   1.634   2.507   8.732 -0.1848 -0.2058 -0.0410
 6211SOL    HW130095   1.729   2.507   8.718 -0.8218 -3.5613 -4.2395
 6211SOL    HW230096   1.632   2.485   8.825 -1.5318  0.3062  0.0416
 6212SOL     OW30097   3.908   2.128   9.660 -0.2955 -0.8380 -0.3831
 6212SOL    HW130098   3.984   2.182   9.683 -2.3307  1.6807  0.4711
 6212SOL    HW230099   3.935   2.048   9.705  0.2755  0.3331  1.3600
 6213SOL     OW30100   3.280   1.705   7.312 -0.0507  0.2036 -0.6281
 6213SOL    HW130101   3.295   1.776   7.375 -0.8916  1.4353 -1.8367
 6213SOL    HW230102   3.358   1.658   7.342 -0.3580  0.3554  0.4296
 6214SOL     OW30103   0.223   1.587   3.901 -0.3429  0.2922  0.4738
 6214SOL    HW130104   0.228   1.676   3.867  0.2215 -0.1714 -0.6698
 6214SOL    HW230105   0.297   1.586   3.962  0.0771  0.4824 -0.0259
 6215SOL     OW30106   0.365   1.424   9.999  0.6199  0.0606  0.0332
 6215SOL    HW130107   0.310   1.495   9.966  1.3149  0.4747 -0.2054
 6215SOL    HW230108   0.302   1.360  10.033 -1.8536  2.5238  0.1462
 6216SOL     OW30109   3.474   1.256   6.647 -0.0598  0.1089  0.4093
 6216SOL    HW130110   3.517   1.170   6.648 -2.7980 -1.2605  0.7706
 6216SOL    HW230111   3.393   1.247   6.696 -0.7124  1.3807 -0.4482
 6217SOL     OW30112   1.212   2.020  14.808 -0.1173  0.0489 -0.0232
 6217SOL    HW130113   1.171   2.081  14.870  1.0421  2.9695 -2.1394
 6217SOL    HW230114   1.281   1.983  14.863  0.7111  0.5478 -0.7342
 6218SOL     OW30115   0.729   0.331   9.807 -0.3531  0.3004  0.1890
 6218SOL    HW130116   0.758   0.335   9.716  1.2694  0.0206  0.6906
 6218SOL    HW230117   0.649   0.280   9.796  1.1484 -2.2631  1.0452
 6219SOL     OW30118   1.782   0.539   1.591 -0.1481  0.3052  0.2749
 6219SOL    HW130119   1.703   0.490   1.616 -0.3385 -0.0020 -0.9324
 6219SOL    HW230120   1.853   0.482   1.564 -0.2168 -0.3864  1.5652
 6220SOL     OW30121   1.026   1.334   6.637  0.0783 -0.3157  0.2180
 6220SOL    HW130122   0.966   1.283   6.692  1.0221 -0.7181  0.8605
 6220SOL    HW230123   0.971   1.365   6.565 -1.0810  0.3038  1.3758
 6221SOL     OW30124   2.152   1.752   8.496  0.5150 -0.3554  0.6924
 6221SOL    HW130125   2.154   1.781   8.587 -1.2736  0.1170  0.5848
 6221SOL    HW230126   2.059   1.751   8.474  0.2659  0.5945  1.6521
 6222SOL     OW30127   1.066   0.317   5.817  0.3816  0.5366 -0.4070
 6222SOL    HW130128   1.006   0.259   5.769  2.1692 -4.1562  3.0897
 6222SOL    HW230129   1.043   0.295   5.907 -0.1952  1.5229 -0.3064
 6223SOL     OW30130   0.213   0.783  16.041  0.3447 -0.2065 -0.3355
 6223SOL    HW130131   0.128   0.780  15.997  0.9871 -0.8586 -1.5575
 6223SOL    HW230132   0.198   0.845  16.111  3.3115 -2.5040  2.3637
 6224SOL     OW30133   4.722   1.490  16.211  0.3773 -1.1271 -0.2759
 6224SOL    HW130134   4.669   1.569  16.214  2.7917  0.5363 -1.8307
 6224SOL    HW230135   4.658   1.421  16.194  0.5523 -1.4294  0.2693
 6225SOL     OW30136   1.307   2.757  15.085  0.1836 -0.3456  0.3707
 6225SOL    HW130137   1.217   2.725  15.073  0.4097 -0.9716  0.3607
 6225SOL    HW230138   1.348   2.688  15.137 -0.8683 -2.5912 -1.7578
 6226SOL     OW30139   1.062   0.623   4.089  0.0883  0.6109 -0.4273
 6226SOL    HW130140   1.077   0.642   3.996 -1.6126  1.3458 -0.5547
 6226SOL    HW230141   0.971   0.596   4.097  0.4091 -0.1347  0.6623
 6227SOL     OW30142   3.688   0.216   4.363  0.0138  0.1345 -0.1907
 6227SOL    HW130143   3.612   0.206   4.306  0.5001 -0.7113 -0.6917
 6227SOL    HW230144   3.650   0.188   4.446 -2.1086  0.0485 -1.2062
 6228SOL     OW30145   4.124   4.663   3.627 -0.2428  0.2596 -0.1777
 6228SOL    HW130146   4.064   4.634   3.696 -0.4718 -1.4026 -1.0879
 6228SOL    HW230147   4.207   4.652   3.674 -0.3784 -1.4662 -0.3571
 6229SOL     OW30148   0.803   3.960   3.458  0.0971 -0.6580 -0.2475
 6229SOL    HW130149   0.845   3.993   3.537 -2.2223  0.2770  0.5610
 6229SOL    HW230150   0.772   4.041   3.419 -0.5733  0.6624  3.0516
 6230SOL     OW30151   3.688   0.916   3.065  0.2011 -0.0443 -0.3221
 6230SOL    HW130152   3.783   0.920   3.055  0.2038  2.1485  0.6255
 6230SOL    HW230153   3.675   0.931   3.159  0.4808  0.1276 -0.3103
 6231SOL     OW30154   0.788   3.826  13.056  0.2134  0.4456 -0.0367
 6231SOL    HW130155   0.806   3.892  12.989 -0.2735  0.3436 -0.2676
 6231SOL    HW230156   0.801   3.742  13.012 -0.7892  1.5182 -2.3547
 6232SOL     OW30157   3.399   3.263   4.124 -0.4885  0.1947 -0.3328
 6232SOL    HW130158   3.445   3.342   4.155  0.8169 -0.3056 -0.9985
 6232SOL    HW230159   3.465   3.204   4.087  1.9129  1.3003  2.1637
 6233SOL     OW30160   1.101   0.303   1.046 -0.4585  0.3158  0.1050
 6233SOL    HW130161   1.181   0.254   1.064 -0.1068  0.8091 -0.1264
 6233SOL    HW230162   1.124   0.383   1.094  1.9688 -1.4563  1.9391
 6234SOL     OW30163   1.883   0.910  13.830 -0.1617 -0.0867 -0.6341
 6234SOL    HW130164   1.913   0.898  13.740 -1.5504 -3.9675 -0.5661
 6234SOL    HW230165   1.925   0.991  13.860 -1.1758 -1.3748  4.2402
 6235SOL     OW30166   3.282   1.534   3.268 -0.4446 -0.4015  0.0350
 6235SOL    HW130167   3.191   1.549   3.241 -0.2893  0.0060 -0.2636
 6235SOL    HW230168   3.268   1.461   3.328 -2.7394 -0.5414 -0.6707
 6236SOL     OW30169   2.238   1.210   4.813  0.0486 -0.3032  0.0357
 6236SOL    HW130170   2.213   1.236   4.724 -1.7609 -0.2115  0.5576
 6236SOL    HW230171   2.304   1.275   4.837 -0.0495 -0.9386  1.9536
 6237SOL     OW30172   0.749   3.219   9.309  0.1883  0.5239  0.5339
 6237SOL    HW130173   0.727   3.206   9.401 -1.3652  0.8891  0.2281
 6237SOL    HW230174   0.722   3.134   9.274  0.3625  1.4517 -1.8765
 6238SOL     OW30175   3.258   3.230   9.550  0.8161 -0.3489 -0.0516
 6238SOL    HW130176   3.338   3.243   9.498  1.4655 -1.1698  0.7485
 6238SOL    HW230177   3.201   3.294   9.507 -1.6492 -1.5770  1.4064
 6239SOL     OW30178   3.362   2.373  10.599  0.1831 -0.4220  0.3289
 6239SOL    HW130179   3.308   2.417  10.664 -1.5642 -1.9360 -0.0807
 6239SOL    HW230180   3.433   2.436  10.586 -1.9729  1.4733 -2.2768
 6240SOL     OW30181   0.972   3.153   9.870 -0.0129  0.0244  0.5102
 6240SOL    HW130182   0.970   3.118   9.781 -2.4406 -2.0082  1.3808
 6240SOL    HW230183   1.064   3.157   9.896 -0.0674 -0.8558  0.8348
 6241SOL     OW30184   2.935   3.788  14.864  0.4683  0.2142  0.1431
 6241SOL    HW130185   3.006   3.852  14.866 -0.7076  1.5067  0.7404
 6241SOL    HW230186   2.892   3.815  14.945  0.2101  1.3798 -0.3823
 6242SOL     OW30187   1.292   3.643  16.179 -0.2843  0.4711 -0.3426
 6242SOL    HW130188   1.216   3.586  16.189  1.1681 -0.8737  2.8633
 6242SOL    HW230189   1.365   3.584  16.160 -0.0628  0.1472  1.5534
 6243SOL     OW30190   0.887   3.297  15.024  0.2886 -0.1906  0.3695
 6243SOL    HW130191   0.889   3.204  15.002 -1.2115  0.2876 -1.8483
 6243SOL    HW230192   0.977   3.326  15.015 -0.3910  0.7764 -3.4069
 6244SOL     OW30193   4.469   1.474   6.280  0.1366 -0.0863 -0.1318
 6244SOL    HW130194   4.539   1.540   6.284  1.6254 -1.5625 -1.7540
 6244SOL    HW230195   4.402   1.522   6.329  1.4760  1.6951 -0.0256
 6245SOL     OW30196   2.778   0.313   9.445  0.2144  0.3699  0.3601
 6245SOL    HW130197   2.727   0.361   9.379  1.0528  0.5998 -0.1222
 6245SOL    HW230198   2.795   0.233   9.394  1.2877 -0.8213  2.6030
 6246SOL     OW30199   4.698   0.025   9.099 -0.0828 -0.4325  0.2663
 6246SOL    HW130200   4.701   0.032   9.004  3.6756 -0.2664  0.4240
 6246SOL    HW230201   0.055   0.073   9.118  1.8580 -3.1008 -1.2525
 6247SOL     OW30202   0.905   0.106  12.860 -0.1582  0.3710  0.1059
 6247SOL    HW130203   0.973   0.052  12.900 -0.5387 -1.3327 -1.5845
 6247SOL    HW230204   0.922   0.195  12.892 -3.0790  0.5249  1.2329
 6248SOL     OW30205   1.586   2.224  12.028 -0.1730  0.3952 -0.4212
 6248SOL    HW130206   1.548   2.146  12.068 -1.2797  0.1945 -1.8585
 6248SOL    HW230207   1.634   2.184  11.956 -1.9715  0.3774 -1.6003
 6249SOL     OW30208   0.135   1.978   5.467 -0.4016 -0.5500 -0.0912
 6249SOL    HW130209   0.050   2.022   5.461 -0.2619 -0.5239 -1.8197
 6249SOL    HW230210   0.200   2.048   5.462 -0.5634 -0.4960 -1.2333
 6250SOL     OW30211   0.992   4.278  13.305  0.5297 -0.2596  0.1110
 6250SOL    HW130212   0.970   4.188  13.281  1.2382 -0.3017 -0.3647
 6250SOL    HW230213   0.911   4.303  13.349  0.7916  1.6127 -0.4590
 6251SOL     OW30214   0.768   3.923  17.031 -0.3781  0.2433 -0.6946
 6251SOL    HW130215   0.705   3.887  16.968 -0.3999 -0.5349 -0.2253
 6251SOL    HW230216   0.800   3.986  16.966  2.9021 -0.9627 -0.2268
 6252SOL     OW30217   2.148   0.110  16.595 -0.7409 -0.4086  0.3268
 6252SOL    HW130218   2.243   0.103  16.606 -1.3981 -4.0247  3.7960
 6252SOL    HW230219   2.113   0.056  16.525  1.0946 -1.3490  0.1328
 6253SOL     OW30220   0.144   2.415  12.522  0.4386 -0.7134  0.0975
 6253SOL    HW130221   0.087   2.346  12.555 -1.6109  0.5676 -0.7539
 6253SOL    HW230222   0.223   2.407  12.576  0.0851 -3.3548  0.2011
 6254SOL     OW30223   0.585   4.495   5.070 -0.5427  0.0263  0.6079
 6254SOL    HW130224   0.662   4.494   5.126 -1.4224 -1.5353  1.8137
 6254SOL    HW230225   0.520   4.544   5.121  0.3558  1.4670  0.3601
 6255SOL     OW30226   3.644   2.085   5.032  0.1853  0.1226  0.3362
 6255SOL    HW130227   3.552   2.099   5.011 -0.0193  2.5300  2.8275
 6255SOL    HW230228   3.666   2.175   5.053 -0.2524  0.7023 -1.7172
 6256SOL     OW30229   1.039   1.907   6.200  0.4796 -0.4616  0.0560
 6256SOL    HW130230   0.965   1.949   6.156 -0.2898 -2.7557 -0.7920
 6256SOL    HW230231   1.069   1.837   6.143  1.8255  0.6940 -0.6625
 6257SOL     OW30232   1.601   3.218   5.600  0.3752 -0.8853  0.0596
 6257SOL    HW130233   1.684   3.183   5.567 -0.3032 -1.5928 -0.8798
 6257SOL    HW230234   1.546   3.213   5.522 -0.9972 -2.5797  1.1534
 6258SOL     OW30235   3.280   0.865  13.009 -0.2171  0.3366  0.3660
 6258SOL    HW130236   3.248   0.778  13.033  0.4739 -0.0328 -0.0244
 6258SOL    HW230237   3.351   0.838  12.950 -1.4438  0.1469 -1.0136
 6259SOL     OW30238   0.642   0.305  16.492 -0.1727  0.0284 -0.2305
 6259SOL    HW130239   0.567   0.300  16.433 -1.0781 -0.0457  0.9097
 6259SOL    HW230240   0.594   0.276  16.570  1.2560 -2.5011 -0.3146
 6260SOL     OW30241   2.149   4.650   1.004  0.3476 -0.1403 -0.5316
 6260SOL    HW130242   2.175   4.661   0.912  0.4729 -0.0187 -0.4826
 6260SOL    HW230243   2.190   0.008   1.035  1.1315 -0.8081  0.1733
 6261SOL     OW30244   0.787   0.635   9.380  0.1077  0.2726 -0.0559
 6261SOL    HW130245   0.872   0.662   9.343 -1.2123 -0.9569 -3.9815
 6261SOL    HW230246   0.737   0.642   9.298  1.9241  2.0086 -1.0255
 6262SOL     OW30247   3.831   2.131   1.739 -0.3476  0.7605 -0.5515
 6262SOL    HW130248   3.776   2.072   1.791 -0.5550  0.5994 -0.9494
 6262SOL    HW230249   3.785   2.133   1.655 -0.2833 -1.5438 -0.6460
 6263SOL     OW30250   0.343   2.489   2.135 -0.1067  0.1751 -0.0060
 6263SOL    HW130251   0.354   2.434   2.212  0.9896 -0.7977 -0.8524
 6263SOL    HW230252   0.310   2.573   2.168  2.5206  0.3627  2.1467
 6264SOL     OW30253   1.476   2.872  14.327  0.1897 -0.5090 -0.0463
 6264SOL    HW130254   1.488   2.894  14.419 -1.1455  1.2850 -0.3161
 6264SOL    HW230255   1.493   2.955  14.282  0.6023 -0.1351  0.7924
 6265SOL     OW30256   3.969   4.552  17.488  0.0532  0.2503 -0.3488
 6265SOL    HW130257   3.992   4.643  17.469 -1.8647  0.7436 -0.3013
 6265SOL    HW230258   3.963   4.509  17.403 -1.1707 -1.7684  0.7525
 6266SOL     OW30259   0.029   3.945   2.342 -0.1942  0.0606  0.2545
 6266SOL    HW130260   0.089   3.873   2.360 -0.2996  0.8007  3.5469
 6266SOL    HW230261   0.000   3.958   2.432 -1.2268 -1.1593  0.0928
 6267SOL     OW30262   1.289   1.449   8.011  0.3324  0.1580 -0.8465
 6267SOL    HW130263   1.321   1.390   7.942 -0.2536 -1.7788  0.5425
 6267SOL    HW230264   1.208   1.408   8.040  1.2644 -0.4441  0.8749
 6268SOL     OW30265   2.536   3.325   4.560  0.2930 -0.2527  0.2050
 6268SOL    HW130266   2.546   3.275   4.479 -1.9561 -1.0842  0.4099
 6268SOL    HW230267   2.612   3.382   4.556 -2.5385  3.4174 -0.6787
 6269SOL     OW30268   0.833   4.495   4.599  0.0943  0.5462 -0.2705
 6269SOL    HW130269   0.849   4.581   4.638 -0.0745  1.3726 -2.0233
 6269SOL    HW230270   0.739   4.494   4.614  0.2987 -0.7663  0.9733
 6270SOL     OW30271   2.158   4.119   4.366 -0.6745 -0.4251  0.2491
 6270SOL    HW130272   2.220   4.106   4.295 -0.7973 -3.2759  0.6488
 6270SOL    HW230273   2.105   4.040   4.354 -1.1703 -0.0501 -0.0086
 6271SOL     OW30274   2.790   2.836  10.404  0.0704 -0.4023  0.0241
 6271SOL    HW130275   2.710   2.789  10.428 -1.1320  1.8104  0.3550
 6271SOL    HW230276   2.838   2.832  10.486  0.5788  2.2944 -0.1360
 6272SOL     OW30277   4.495   1.548   4.271 -0.2251  0.2556  0.3573
 6272SOL    HW130278   4.439   1.529   4.346 -1.5123  0.8800 -0.4526
 6272SOL    HW230279   4.573   1.495   4.287  0.3085  1.1516  0.7228
 6273SOL     OW30280   0.846   4.581   5.481  0.3299 -0.4363  0.1007
 6273SOL    HW130281   0.785   4.559   5.552 -0.6426 -0.7574 -0.8313
 6273SOL    HW230282   0.826   4.519   5.411 -0.2708  1.6790 -1.5841
 6274SOL     OW30283   3.804   3.356  12.997 -0.9069  0.0154 -0.3202
 6274SOL    HW130284   3.830   3.347  12.905 -2.3410 -1.3706 -0.5870
 6274SOL    HW230285   3.768   3.445  12.995  1.1347  0.9258  3.5805
 6275SOL     OW30286   3.399   0.796   0.174  0.0441  0.4638  0.8722
 6275SOL    HW130287   3.363   0.707   0.172  1.1075  0.0210  1.3905
 6275SOL    HW230288   3.493   0.779   0.162 -0.0977  0.4762 -0.3407
 6276SOL     OW30289   2.917   0.948   3.129 -0.1240  0.4470  0.4220
 6276SOL    HW130290   2.823   0.931   3.122 -0.0867 -0.8214  3.0759
 6276SOL    HW230291   2.947   0.913   3.045  0.4809  0.6741  0.5393
 6277SOL     OW30292   0.124   1.505   1.909  0.8785 -0.5934  0.9343
 6277SOL    HW130293   0.037   1.488   1.945 -0.1303  0.4826 -0.9639
 6277SOL    HW230294   0.106   1.486   1.816 -1.0025 -0.8863  1.3517
 6278SOL     OW30295   3.333   1.166   1.715 -0.3087  0.1808 -0.5304
 6278SOL    HW130296   3.422   1.178   1.748 -0.7904 -1.7328  1.4395
 6278SOL    HW230297   3.279   1.209   1.782 -1.1517 -0.9955 -0.4556
 6279SOL     OW30298   3.335   0.015   3.253 -0.4056 -0.2540 -0.7355
 6279SOL    HW130299   3.296   4.675   3.313  1.3055  0.0550  0.7240
 6279SOL    HW230300   3.418   4.692   3.240 -0.1055  0.0998 -0.0734
 6280SOL     OW30301   4.175   3.152  16.876 -0.0695  0.1012  0.2158
 6280SOL    HW130302   4.150   3.180  16.964  2.8058 -0.8040  1.3292
 6280SOL    HW230303   4.260   3.196  16.872  0.6231 -1.2969 -0.4423
 6281SOL     OW30304   1.477   3.050   9.380 -0.6037 -0.3375 -0.3153
 6281SOL    HW130305   1.492   3.124   9.321  0.1462 -2.5104 -2.8544
 6281SOL    HW230306   1.545   2.985   9.360 -0.5134  0.4349 -2.4911
 6282SOL     OW30307   4.375   2.851   5.904  0.1664  0.6927 -0.4703
 6282SOL    HW130308   4.433   2.927   5.913  1.1246 -0.0673 -0.2548
 6282SOL    HW230309   4.401   2.828   5.815  2.7116 -0.5653  0.6155
 6283SOL     OW30310   2.691   0.357   4.052  0.1165  0.4534 -0.4123
 6283SOL    HW130311   2.688   0.284   3.990  0.3272 -0.2790  0.4482
 6283SOL    HW230312   2.785   0.374   4.052  0.5181 -1.6373 -1.4779
 6284SOL     OW30313   3.518   4.404   8.907 -0.5831  0.0935 -0.3105
 6284SOL    HW130314   3.458   4.340   8.870 -0.3074 -0.5188  0.3151
 6284SOL    HW230315   3.499   4.473   8.843 -2.3496 -0.4010 -0.3128
 6285SOL     OW30316   1.950   3.706   1.387 -0.0449  0.1055  0.5539
 6285SOL    HW130317   1.968   3.754   1.306 -1.8929  0.1045  0.1407
 6285SOL    HW230318   1.940   3.617   1.351 -1.5946  0.9005 -1.0068
 6286SOL     OW30319   0.790   2.888   3.931  0.5144 -0.6034 -0.0985
 6286SOL    HW130320   0.859   2.929   3.983  0.8337  0.9977 -1.7866
 6286SOL    HW230321   0.807   2.942   3.854 -0.3235  0.9177  0.7773
 6287SOL     OW30322   1.775   1.463   7.150  0.0535 -0.0877  0.6809
 6287SOL    HW130323   1.711   1.449   7.219 -1.0674  0.8668 -0.1482
 6287SOL    HW230324   1.778   1.378   7.107 -1.1703 -0.1172  0.6451
 6288SOL     OW30325   2.949   3.638  16.186 -0.0199  0.2244  0.3307
 6288SOL    HW130326   2.880   3.674  16.131  1.6264  2.2154 -0.4618
 6288SOL    HW230327   3.019   3.653  16.122 -0.2965  0.9563  0.1956
 6289SOL     OW30328   0.641   2.301   4.424 -0.1786 -0.2149 -0.0387
 6289SOL    HW130329   0.617   2.354   4.501  2.3101 -0.1293  0.6816
 6289SOL    HW230330   0.560   2.251   4.423  0.1796 -0.8218  0.8334
 6290SOL     OW30331   3.797   0.192   2.984  0.1631 -0.3375  0.3265
 6290SOL    HW130332   3.869   0.163   3.041 -1.2523 -0.3022  2.1425
 6290SOL    HW230333   3.787   0.118   2.924 -1.4473  1.9546 -2.2418
 6291SOL     OW30334   3.057   2.325  10.986  0.5107 -0.2187  0.1267
 6291SOL    HW130335   3.127   2.357  10.928  1.7756 -0.6452  1.4023
 6291SOL    HW230336   3.082   2.372  11.065  0.6577 -1.2192  0.6713
 6292SOL     OW30337   1.014   2.086   4.118  0.1755  0.1906  0.2426
 6292SOL    HW130338   1.101   2.096   4.157  0.5215  0.1600 -0.5039
 6292SOL    HW230339   0.961   2.124   4.188  1.0997 -0.0429  1.0658
 6293SOL     OW30340   0.150   1.015   3.558 -0.0761 -0.3095  0.7653
 6293SOL    HW130341   0.120   1.099   3.592 -2.8149 -0.7602 -0.5694
 6293SOL    HW230342   0.240   1.040   3.539  0.1356 -1.2103  0.5809
 6294SOL     OW30343   2.827   2.645   6.718  0.6222 -0.3693  0.1120
 6294SOL    HW130344   2.762   2.699   6.763 -0.0875  0.3438 -1.7634
 6294SOL    HW230345   2.833   2.690   6.633  0.2912  0.9702  0.7898
 6295SOL     OW30346   2.461   1.044   5.383  0.0459 -0.5309  0.4401
 6295SOL    HW130347   2.391   1.089   5.430  0.0032 -0.5482  0.3939
 6295SOL    HW230348   2.540   1.059   5.434 -0.0466  1.5909 -0.0373
 6296SOL     OW30349   2.713   1.729   8.912  0.1231  0.0047  0.4015
 6296SOL    HW130350   2.672   1.794   8.854 -0.0129  0.7182  1.2886
 6296SOL    HW230351   2.648   1.723   8.982 -1.3787  1.4081 -0.8637
 6297SOL     OW30352   0.763   4.566   3.100 -0.4831 -0.7962  0.5709
 6297SOL    HW130353   0.825   4.629   3.062 -0.9226 -0.3435  0.5986
 6297SOL    HW230354   0.679   4.585   3.056 -1.7419 -1.4051  2.7277
 6298SOL     OW30355   2.203   1.549  11.549  0.1788  0.0889 -0.0893
 6298SOL    HW130356   2.268   1.619  11.542  0.6941 -0.4665 -0.8782
 6298SOL    HW230357   2.255   1.471  11.529 -0.7370 -0.6372  0.3926
 6299SOL     OW30358   4.184   1.848   6.542 -0.3790 -0.0077  0.5423
 6299SOL    HW130359   4.209   1.757   6.529 -1.2954 -0.1908  0.0804
 6299SOL    HW230360   4.137   1.864   6.461 -0.1828 -1.0474  0.2225
 6300SOL     OW30361   1.610   2.765   9.683 -0.1946 -0.2003 -0.2441
 6300SOL    HW130362   1.615   2.760   9.779 -2.0759 -1.8982 -0.2277
 6300SOL    HW230363   1.691   2.809   9.656  0.8954 -0.7564  2.0722
 6301SOL     OW30364   1.906   0.056   1.054 -0.4662  0.0286  0.5074
 6301SOL    HW130365   1.916   0.140   1.009 -1.7724 -0.0812  0.0232
 6301SOL    HW230366   1.993   0.015   1.053  0.5107  2.0802  0.7443
 6302SOL     OW30367   1.476   3.509   3.827  1.1196  0.3949  0.2464
 6302SOL    HW130368   1.521   3.524   3.744  1.5716  1.5405  0.6954
 6302SOL    HW230369   1.491   3.415   3.833 -0.4578  0.2185  1.6540
 6303SOL     OW30370   4.066   0.616   7.302 -0.1966  0.2179  0.4036
 6303SOL    HW130371   4.009   0.649   7.232 -1.4958 -0.6924  1.0384
 6303SOL    HW230372   4.150   0.628   7.258 -0.3532 -0.4136 -0.0835
 6304SOL     OW30373   4.432   1.538  17.652  0.1356  0.0708  0.3126
 6304SOL    HW130374   4.357   1.519   0.013  1.0782 -0.4152  1.3695
 6304SOL    HW230375   4.435   1.463  17.593 -2.5636  2.2625 -2.6444
 6305SOL     OW30376   0.072   3.357   7.807 -0.2396 -0.1777 -0.2149
 6305SOL    HW130377   0.102   3.422   7.869  1.5988  0.0890 -1.3633
 6305SOL    HW230378   0.147   3.297   7.807 -1.5012 -1.7380  2.0406
 6306SOL     OW30379   3.448   2.716  15.829 -0.6758 -0.6570  0.2708
 6306SOL    HW130380   3.414   2.777  15.764  1.0372  0.2471  0.2481
 6306SOL    HW230381   3.514   2.662  15.787  0.3677  0.8829 -0.0705
 6307SOL     OW30382   1.183   2.546   2.677 -0.2482  0.2541 -0.4863
 6307SOL    HW130383   1.089   2.550   2.696  0.1807 -1.1424  1.9039
 6307SOL    HW230384   1.178   2.499   2.594 -1.3789  0.8630 -0.7635
 6308SOL     OW30385   3.995   1.038  11.485  0.2134 -1.2071 -0.3237
 6308SOL    HW130386   4.019   1.127  11.461 -0.0271 -0.7834  0.9887
 6308SOL    HW230387   3.987   1.002  11.397 -2.6678  2.2217 -1.4550
 6309SOL     OW30388   3.530   1.428   2.797 -0.1045 -0.2012  0.5646
 6309SOL    HW130389   3.462   1.364   2.776 -0.6617  1.2009 -1.7963
 6309SOL    HW230390   3.486   1.495   2.849 -0.0555 -1.4331  2.2042
 6310SOL     OW30391   3.080   3.205   6.084  0.8930  0.0827  0.0534
 6310SOL    HW130392   3.053   3.140   6.148 -1.3768  2.1973  1.2616
 6310SOL    HW230393   3.099   3.281   6.139  2.5077 -0.4079  0.1753
 6311SOL     OW30394   2.426   3.372   8.540  0.3074 -0.1497 -0.5343
 6311SOL    HW130395   2.388   3.372   8.628 -1.4139 -0.8764 -1.2769
 6311SOL    HW230396   2.512   3.415   8.544  0.7927 -1.0162 -1.5386
 6312SOL     OW30397   1.067   0.460  10.210  0.0934  0.0549 -0.6080
 6312SOL    HW130398   1.155   0.458  10.248  0.7911  0.0681 -2.2358
 6312SOL    HW230399   1.074   0.365  10.196 -0.9218 -0.4734  2.3466
 6313SOL     OW30400   3.419   3.687   5.514  0.1754  0.1564  0.0917
 6313SOL    HW130401   3.358   3.748   5.473  0.0489  0.2656  0.4371
 6313SOL    HW230402   3.390   3.598   5.492 -3.9351  1.5811 -0.2930
 6314SOL     OW30403   4.443   1.300  10.122  0.4637 -0.0395  0.3780
 6314SOL    HW130404   4.518   1.354  10.148 -0.0413  0.4046  0.9002
 6314SOL    HW230405   4.473   1.263  10.038  0.1917 -0.6803  0.5594
 6315SOL     OW30406   2.806   0.192   1.375 -0.5412 -0.4047  0.0119
 6315SOL    HW130407   2.743   0.120   1.383 -2.3516  0.8150 -3.2885
 6315SOL    HW230408   2.765   0.266   1.419  0.3455 -0.8615  1.6129
 6316SOL     OW30409   3.017   3.600   4.310 -0.0245  0.1049 -0.1770
 6316SOL    HW130410   2.942   3.555   4.272  0.6282 -1.8864  0.9150
 6316SOL    HW230411   2.981   3.637   4.390 -0.7844  0.8441 -0.8539
 6317SOL     OW30412   2.524   0.888   5.154 -0.0829  0.0215 -0.1184
 6317SOL    HW130413   2.502   0.946   5.227 -1.9815 -0.3305 -0.4242
 6317SOL    HW230414   2.468   0.928   5.088  0.8503  2.5379  0.5891
 6318SOL     OW30415   2.558   0.594   6.564 -0.4833 -0.1912  0.2674
 6318SOL    HW130416   2.575   0.662   6.499 -0.2118 -1.5086 -1.0440
 6318SOL    HW230417   2.643   0.552   6.551  0.0640  1.8309 -2.7601
 6319SOL     OW30418   4.028   0.246   4.073  0.6702  0.0840 -0.1403
 6319SOL    HW130419   4.083   0.186   4.022  2.6620 -0.0663  2.1464
 6319SOL    HW230420   4.082   0.323   4.059  1.4352 -0.9838 -3.0462
 6320SOL     OW30421   2.142   3.295   6.764  0.4939  0.1438 -0.0876
 6320SOL    HW130422   2.158   3.313   6.857  0.5156 -0.9402  0.1181
 6320SOL    HW230423   2.150   3.382   6.725 -2.8549  1.4583  2.1554
 6321SOL     OW30424   0.022   2.480   2.262  0.0376  0.2197  0.2353
 6321SOL    HW130425   0.032   2.536   2.185 -0.0554 -0.1085 -0.0177
 6321SOL    HW230426   0.032   2.542   2.335  1.7132  0.1653  0.0589
 6322SOL     OW30427   1.631   4.568   5.318 -0.0962 -0.0238  0.5386
 6322SOL    HW130428   1.709   4.593   5.368  0.1681 -1.7538  0.9634
 6322SOL    HW230429   1.617   4.482   5.356 -2.9775 -0.1124 -0.7399
 6323SOL     OW30430   2.496   3.842   4.836 -0.0081  0.0944  0.4481
 6323SOL    HW130431   2.404   3.815   4.840  0.4360 -1.4293  0.2511
 6323SOL    HW230432   2.520   3.860   4.927 -2.0565 -1.1708  1.2379
 6324SOL     OW30433   0.362   1.294  16.285  0.5372  0.4599  0.5729
 6324SOL    HW130434   0.285   1.289  16.228 -0.7545  0.9194  2.2808
 6324SOL    HW230435   0.322   1.267  16.367  0.9694  0.3979  0.7607
 6325SOL     OW30436   2.406   2.208   6.819 -0.2413  0.7141  0.1782
 6325SOL    HW130437   2.347   2.238   6.750 -0.6402 -1.4901 -0.4175
 6325SOL    HW230438   2.380   2.118   6.838  0.6824  0.1419 -1.3602
 6326SOL     OW30439   0.877   0.291   4.270  0.1080  0.1650  0.2055
 6326SOL    HW130440   0.825   0.212   4.280 -3.2395  1.9743 -3.0895
 6326SOL    HW230441   0.908   0.306   4.360  2.4517 -0.4873 -0.4772
 6327SOL     OW30442   1.094   4.629   1.141 -0.3695  0.6795  0.4040
 6327SOL    HW130443   1.049   4.591   1.065  1.9074 -0.6461 -0.2735
 6327SOL    HW230444   1.169   4.572   1.157 -1.8433 -1.6947 -1.1959
 6328SOL     OW30445   3.383   1.428   8.720  0.3673  0.1898 -0.8985
 6328SOL    HW130446   3.468   1.386   8.705  0.7843  0.7118  0.0679
 6328SOL    HW230447   3.390   1.502   8.660  0.8966  0.0315 -1.0333
 6329SOL     OW30448   4.201   3.959  14.757  0.5790  0.3771  0.9010
 6329SOL    HW130449   4.273   4.012  14.793  0.5417  0.6885  0.5140
 6329SOL    HW230450   4.127   4.005  14.796 -0.7527 -0.0289 -1.1407
 6330SOL     OW30451   2.859   0.825   5.847  0.2965  0.0810  0.1312
 6330SOL    HW130452   2.915   0.748   5.861 -0.2050 -0.2238  0.4445
 6330SOL    HW230453   2.919   0.874   5.790  0.0827 -0.5131 -0.6107
 6331SOL     OW30454   4.510   0.803   3.355  0.4733 -0.0185  0.3165
 6331SOL    HW130455   4.438   0.808   3.418  0.1290 -1.3277  0.0321
 6331SOL    HW230456   4.572   0.745   3.399 -0.1614 -0.4503  0.6437
 6332SOL     OW30457   0.217   3.875  13.309  0.3976  0.0934 -0.2062
 6332SOL    HW130458   0.273   3.884  13.386  0.9984  2.1386 -0.8702
 6332SOL    HW230459   0.158   3.950  13.311 -0.3872 -0.5563  0.8770
 6333SOL     OW30460   3.055   0.776   4.487  0.0353  0.3527 -0.5295
 6333SOL    HW130461   3.071   0.818   4.571 -0.3353 -3.0161  1.2234
 6333SOL    HW230462   2.968   0.746   4.513 -0.0520  0.0644 -1.1559
 6334SOL     OW30463   0.856   0.235  11.767 -0.3190  0.5074  0.9843
 6334SOL    HW130464   0.770   0.269  11.791 -0.5842  1.0270 -0.6634
 6334SOL    HW230465   0.910   0.263  11.840 -1.7789 -2.3178  3.1639
 6335SOL     OW30466   0.818   1.637   3.946  0.3751  0.1191  0.3366
 6335SOL    HW130467   0.777   1.651   3.860 -2.4255 -2.9006  1.1819
 6335SOL    HW230468   0.805   1.725   3.981  0.4278  0.8733 -1.5169
 6336SOL     OW30469   1.846   3.728   3.834  0.0906  0.0444 -0.0863
 6336SOL    HW130470   1.825   3.636   3.843  2.7434 -0.6297 -0.6935
 6336SOL    HW230471   1.935   3.726   3.870 -0.5455 -0.4371  1.4657
 6337SOL     OW30472   3.988   0.545   9.275 -0.4680 -0.3771 -0.6166
 6337SOL    HW130473   4.070   0.551   9.226 -0.8787  0.6372 -1.1871
 6337SOL    HW230474   4.000   0.464   9.325  2.7240  0.0937 -0.6548
 6338SOL     OW30475   4.058   3.598   8.179  0.2131  0.1414 -0.0770
 6338SOL    HW130476   3.973   3.554   8.188  1.1992 -1.9259 -0.8055
 6338SOL    HW230477   4.053   3.673   8.238 -2.8156 -1.5027  1.7960
 6339SOL     OW30478   1.419   1.808   7.458 -0.5891 -0.5496  0.0323
 6339SOL    HW130479   1.433   1.755   7.380  2.1727 -1.4602  1.1322
 6339SOL    HW230480   1.324   1.809   7.468 -0.7326 -2.4402 -1.0777
 6340SOL     OW30481   3.148   1.920  11.965  0.0112 -0.1253  0.6542
 6340SOL    HW130482   3.172   1.970  11.887  2.9338  1.3379  2.4914
 6340SOL    HW230483   3.190   1.973  12.033  0.9923  2.5007 -1.9677
 6341SOL     OW30484   3.974   1.217  10.192 -0.7656  0.1273 -0.2587
 6341SOL    HW130485   4.061   1.249  10.216 -0.4559 -0.7517 -0.2000
 6341SOL    HW230486   3.946   1.201  10.282  0.9381  1.7132  0.5574
 6342SOL     OW30487   1.171   2.808   7.072  0.6748 -0.3783  0.1564
 6342SOL    HW130488   1.217   2.821   7.155 -0.1276 -0.8118  0.6773
 6342SOL    HW230489   1.235   2.835   7.007  1.3376 -0.1639  0.9005
 6343SOL     OW30490   1.123   0.625   9.298  0.1948 -0.4487 -0.7435
 6343SOL    HW130491   1.101   0.553   9.239 -0.4532 -0.9875  0.1724
 6343SOL    HW230492   1.168   0.675   9.229  3.0555 -0.8988  0.7775
 6344SOL     OW30493   1.805   0.331   1.191 -0.4995  0.1683  0.0975
 6344SOL    HW130494   1.797   0.347   1.097 -1.1199 -2.4657 -0.2999
 6344SOL    HW230495   1.731   0.271   1.203  0.4110 -1.1739 -1.0909
 6345SOL     OW30496   2.068   1.299  11.087  0.8476  0.1327 -0.4235
 6345SOL    HW130497   1.980   1.333  11.104  1.0263  0.2429  0.2942
 6345SOL    HW230498   2.095   1.350  11.011 -0.1553  1.4886  0.1365
 6346SOL     OW30499   4.570   2.248   9.267 -0.4865 -0.6571  0.4937
 6346SOL    HW130500   4.588   2.291   9.351 -0.1424 -0.9793  0.5852
 6346SOL    HW230501   4.522   2.319   9.225  0.1283 -0.0439  0.8274
 6347SOL     OW30502   1.545   0.926   1.052 -0.1357 -0.1646  0.0022
 6347SOL    HW130503   1.505   0.876   0.980  0.1962  1.0302 -1.0094
 6347SOL    HW230504   1.614   0.968   1.001 -0.5033 -0.4720 -0.7501
 6348SOL     OW30505   1.143   3.404   5.192  0.3461 -0.0706 -0.5800
 6348SOL    HW130506   1.141   3.498   5.173 -0.6542  0.1113  0.4674
 6348SOL    HW230507   1.065   3.375   5.145  0.5423 -2.4960  0.6158
 6349SOL     OW30508   3.285   0.707   5.030  0.3285 -0.3223 -0.8355
 6349SOL    HW130509   3.193   0.732   5.019 -0.7329 -3.3514  1.1865
 6349SOL    HW230510   3.334   0.790   5.032  0.7720 -0.6276  1.2941
 6350SOL     OW30511   2.997   1.998   5.029  1.0603 -0.2786 -0.1065
 6350SOL    HW130512   3.066   2.016   5.093  2.4208  0.2830 -1.7170
 6350SOL    HW230513   2.922   2.054   5.048  0.6087 -1.7029  2.2620
 6351SOL     OW30514   1.894   4.428   8.475  0.2648  0.3064  0.7109
 6351SOL    HW130515   1.907   4.362   8.543  0.7584  0.0364  0.3590
 6351SOL    HW230516   1.830   4.382   8.422 -2.1184  1.3289  2.7000
 6352SOL     OW30517   3.048   0.254   0.266 -0.4356  0.2981 -0.1372
 6352SOL    HW130518   2.953   0.266   0.265 -0.3014  1.3684 -0.0630
 6352SOL    HW230519   3.062   0.163   0.240 -1.0061  0.3607 -0.6410
 6353SOL     OW30520   4.601   3.476   1.291  0.4332 -0.5724  0.0370
 6353SOL    HW130521   4.528   3.453   1.348 -1.1022 -1.1026 -2.1140
 6353SOL    HW230522   4.559   3.494   1.207 -1.0124 -0.4199  0.7944
 6354SOL     OW30523   0.862   4.086   8.274 -0.2203 -0.0917 -0.1193
 6354SOL    HW130524   0.807   4.131   8.210 -0.5198  0.4110  0.4911
 6354SOL    HW230525   0.840   4.136   8.352 -2.0520  1.1815 -1.4574
 6355SOL     OW30526   3.248   4.649   8.941 -0.0610 -0.3424  0.3718
 6355SOL    HW130527   3.258   4.571   8.995 -0.0207  1.6348  3.2235
 6355SOL    HW230528   3.335   4.687   8.949 -0.2518  0.2722 -0.4800
 6356SOL     OW30529   0.555   3.925   6.965  0.3223  0.2772 -0.3133
 6356SOL    HW130530   0.587   3.836   6.980 -1.4209 -0.4243 -0.7529
 6356SOL    HW230531   0.491   3.936   7.036 -2.2918 -1.9865 -2.3194
 6357SOL     OW30532   0.276   0.553  16.162 -0.4929 -0.1502  0.2931
 6357SOL    HW130533   0.369   0.533  16.154 -0.0045  0.8730  3.4583
 6357SOL    HW230534   0.282   0.641  16.126  0.0901  1.0416  3.3040
 6358SOL     OW30535   2.505   1.280   5.117 -0.6768 -0.1230 -0.0510
 6358SOL    HW130536   2.428   1.234   5.151 -0.7207 -0.1683 -0.2114
 6358SOL    HW230537   2.471   1.322   5.038  0.4132 -2.3733 -1.7400
 6359SOL     OW30538   1.303   1.424  11.506  0.4518 -0.2233  0.1648
 6359SOL    HW130539   1.296   1.353  11.570  0.3600 -1.1135 -0.8336
 6359SOL    HW230540   1.398   1.422  11.494  0.3675  3.4300 -1.0307
 6360SOL     OW30541   3.561   3.437   3.718  0.2811  0.4079 -0.0420
 6360SOL    HW130542   3.607   3.446   3.635  1.2286  1.5868  0.5960
 6360SOL    HW230543   3.592   3.516   3.763  0.6093  0.2842 -0.0509
 6361SOL     OW30544   1.154   2.385  10.528 -0.1796 -0.3317 -0.3224
 6361SOL    HW130545   1.091   2.453  10.506 -0.0281 -0.2550 -0.5202
 6361SOL    HW230546   1.118   2.361  10.613 -0.1343  1.8970  0.3352
 6362SOL     OW30547   0.761   1.519   6.099  0.1396  0.2780  0.2292
 6362SOL    HW130548   0.855   1.511   6.119  0.5928  0.7854 -1.6655
 6362SOL    HW230549   0.734   1.547   6.186  0.3949 -0.0486  0.4116
 6363SOL     OW30550   2.813   2.802   3.383  0.1085 -0.4158 -0.1653
 6363SOL    HW130551   2.863   2.880   3.407  1.3460 -1.4161  0.5335
 6363SOL    HW230552   2.729   2.844   3.363 -0.3524 -0.1138  2.5065
 6364SOL     OW30553   0.224   0.483   5.389  0.5245 -0.4658  0.0929
 6364SOL    HW130554   0.164   0.511   5.319 -0.7948  0.1728  1.4959
 6364SOL    HW230555   0.287   0.434   5.337  1.1180 -2.1527  2.4342
 6365SOL     OW30556   4.576   1.032   4.532  0.8620  0.2767 -0.0481
 6365SOL    HW130557   4.506   1.097   4.523  0.4397 -0.0543  0.8984
 6365SOL    HW230558   4.595   1.031   4.438 -2.8908 -0.5344 -0.7962
 6366SOL     OW30559   3.823   4.064   6.016  0.0351 -0.3458 -0.5728
 6366SOL    HW130560   3.836   4.155   5.990  0.4629 -0.5160 -0.9474
 6366SOL    HW230561   3.750   4.078   6.077 -0.3780 -0.3471 -1.0662
 6367SOL     OW30562   2.335   3.890  14.149 -0.4187 -0.2182  0.1377
 6367SOL    HW130563   2.417   3.866  14.192 -0.8675  0.0060  1.1161
 6367SOL    HW230564   2.350   3.985  14.144 -1.5173  0.0719  2.4971
 6368SOL     OW30565   1.341   0.944  14.192 -0.0206  0.0316  0.3314
 6368SOL    HW130566   1.420   0.890  14.195 -1.4905 -2.0949  0.3186
 6368SOL    HW230567   1.279   0.873  14.205  1.4534 -1.1706  0.7990
 6369SOL     OW30568   3.829   3.748   6.426  0.3141  0.0722 -0.3532
 6369SOL    HW130569   3.918   3.734   6.459  1.0483  0.4843 -2.1606
 6369SOL    HW230570   3.854   3.735   6.334 -2.5769 -1.7403 -0.8732
 6370SOL     OW30571   1.480   2.420  14.383 -0.3475  0.0353 -0.5574
 6370SOL    HW130572   1.457   2.349  14.323  0.0003  0.0019 -0.6522
 6370SOL    HW230573   1.477   2.499  14.329 -2.0106  0.8416  0.7051
 6371SOL     OW30574   0.258   4.271  13.428  0.2611  0.0153 -0.2749
 6371SOL    HW130575   0.345   4.235  13.409  0.3597 -0.4029  0.9569
 6371SOL    HW230576   0.274   4.339  13.363  0.9895  1.9140  1.8725
 6372SOL     OW30577   4.549   1.624   9.470 -0.1604  0.6980 -0.7371
 6372SOL    HW130578   4.453   1.621   9.464 -0.2524  3.2815 -0.2466
 6372SOL    HW230579   4.573   1.651   9.381 -1.5832 -1.1675 -1.6972
 6373SOL     OW30580   2.536   3.709   6.922 -0.3187  0.0475  0.4277
 6373SOL    HW130581   2.556   3.797   6.890  1.4017 -0.1308  0.9711
 6373SOL    HW230582   2.541   3.730   7.016 -3.2763 -0.0159  0.5995
 6374SOL     OW30583   0.226   1.671  14.450 -0.2082 -0.2752 -1.0501
 6374SOL    HW130584   0.153   1.721  14.486 -1.3785 -2.1371 -0.8565
 6374SOL    HW230585   0.214   1.683  14.356 -0.2803  1.4533 -0.8269
 6375SOL     OW30586   0.322   2.294   0.862  0.8432  0.0093  0.2117
 6375SOL    HW130587   0.365   2.226   0.810  0.6027 -0.3752  0.5262
 6375SOL    HW230588   0.322   2.259   0.951  0.7900 -1.8203 -0.5212
 6376SOL     OW30589   2.566   0.965   3.602 -0.2118  0.6923  0.3637
 6376SOL    HW130590   2.533   0.891   3.551 -2.5800  1.2317  1.1151
 6376SOL    HW230591   2.651   0.971   3.558 -0.3378 -0.4788 -0.0306
 6377SOL     OW30592   4.504   3.354   6.882 -0.2969  0.4467 -0.6693
 6377SOL    HW130593   4.546   3.268   6.893  2.2231  1.7511 -0.0263
 6377SOL    HW230594   4.515   3.363   6.787  3.5409 -0.9349 -0.3621
 6378SOL     OW30595   0.499   1.171   7.179 -0.3921  0.9913 -0.1170
 6378SOL    HW130596   0.444   1.182   7.102 -2.0276 -4.2427  0.3373
 6378SOL    HW230597   0.436   1.147   7.247 -2.8262 -0.7068 -2.9949
 6379SOL     OW30598   4.062   2.951   0.487 -0.5560 -0.0597 -0.3978
 6379SOL    HW130599   4.131   2.890   0.460 -1.0698 -0.5842 -0.5081
 6379SOL    HW230600   4.073   3.024   0.427 -1.6761 -1.2371 -2.0273
 6380SOL     OW30601   3.156   3.017  16.906 -0.3393  0.4607 -0.7260
 6380SOL    HW130602   3.099   2.969  16.845 -1.2195 -0.6560  0.9933
 6380SOL    HW230603   3.106   3.091  16.940  0.4160  0.1525  1.0163
 6381SOL     OW30604   3.423   4.258  10.827  0.3618  0.3898  0.2196
 6381SOL    HW130605   3.378   4.202  10.890  1.0265 -0.7820 -0.3468
 6381SOL    HW230606   3.490   4.302  10.880  1.7833  0.0723 -1.2964
 6382SOL     OW30607   2.478   2.254   4.815 -0.0021 -0.4997  0.6931
 6382SOL    HW130608   2.423   2.298   4.750 -1.4597 -1.1997  1.4498
 6382SOL    HW230609   2.536   2.205   4.756 -0.4645  0.6044 -0.6902
 6383SOL     OW30610   0.964   3.741  10.206  0.1100  0.5304 -0.0416
 6383SOL    HW130611   1.006   3.774  10.286 -0.9795  1.7624  0.0175
 6383SOL    HW230612   0.874   3.745  10.237 -0.8565 -0.8633 -2.6610
 6384SOL     OW30613   1.960   4.573   3.645 -0.0172 -0.5127  0.9690
 6384SOL    HW130614   2.033   4.627   3.614 -0.5972  0.3779  1.1394
 6384SOL    HW230615   1.978   4.558   3.737  0.1322  0.6328  1.1347
 6385SOL     OW30616   1.416   1.632   7.230 -0.1477  0.0091 -0.0325
 6385SOL    HW130617   1.466   1.563   7.274  0.3219 -0.3031 -1.0716
 6385SOL    HW230618   1.475   1.652   7.158  0.3587 -0.7999  0.1546
 6386SOL     OW30619   0.447   2.628   1.201 -0.4365 -0.0010  0.5251
 6386SOL    HW130620   0.439   2.554   1.261  0.7213 -1.0614 -0.6191
 6386SOL    HW230621   0.523   2.674   1.237 -0.1571  1.7702 -2.3228
 6387SOL     OW30622   3.054   3.477   0.390 -0.8744  0.6106 -0.0095
 6387SOL    HW130623   3.105   3.441   0.317  1.9219 -0.1265  2.3030
 6387SOL    HW230624   3.011   3.402   0.432 -0.7862  0.6171  0.0928
 6388SOL     OW30625   1.400   2.671  16.269 -0.2189 -0.7779  0.4853
 6388SOL    HW130626   1.376   2.712  16.352 -0.2274 -0.7838  0.4856
 6388SOL    HW230627   1.326   2.616  16.244 -0.2311 -0.1630 -0.8203
 6389SOL     OW30628   0.725   3.827   8.128 -0.3109  0.3825 -0.2552
 6389SOL    HW130629   0.665   3.864   8.063 -0.7785  0.9047  0.4755
 6389SOL    HW230630   0.729   3.895   8.196  1.6129 -0.3951  0.3943
 6390SOL     OW30631   2.268   2.665   5.043 -0.2342  0.3072  0.2898
 6390SOL    HW130632   2.364   2.663   5.041 -0.2407  0.7010 -0.4803
 6390SOL    HW230633   2.255   2.597   5.110 -1.7951 -0.6410 -0.9737
 6391SOL     OW30634   0.184   1.041   3.011  0.2297 -0.2834 -0.2236
 6391SOL    HW130635   0.208   1.038   2.919  2.0807 -1.6136  0.2900
 6391SOL    HW230636   0.098   1.000   3.023 -0.6865  1.6863  0.0107
 6392SOL     OW30637   2.468   2.366   0.505 -0.0780  0.3547  0.9530
 6392SOL    HW130638   2.541   2.427   0.508  0.5356 -0.3230 -0.0840
 6392SOL    HW230639   2.390   2.420   0.494 -1.0664 -0.9628  1.4578
 6393SOL     OW30640   4.212   1.868   5.292 -0.0614  0.1945  0.2815
 6393SOL    HW130641   4.192   1.890   5.383 -1.3599  0.7281 -0.1342
 6393SOL    HW230642   4.137   1.906   5.246  0.3529  1.4240  0.6397
 6394SOL     OW30643   2.835   3.051   1.994 -0.0319 -0.2962  0.4427
 6394SOL    HW130644   2.774   2.981   1.973 -0.1925  0.3169 -1.1485
 6394SOL    HW230645   2.813   3.117   1.928 -1.2531 -1.1473  0.0211
 6395SOL     OW30646   3.779   1.143  12.654  0.1617  0.2646 -0.1928
 6395SOL    HW130647   3.807   1.235  12.657  1.1530 -0.1788  3.9263
 6395SOL    HW230648   3.821   1.110  12.733  0.9937 -0.4446 -0.9196
 6396SOL     OW30649   4.596   3.660   4.215  0.3455  0.8284  0.2361
 6396SOL    HW130650   4.549   3.684   4.135  0.1162 -2.4395 -0.6053
 6396SOL    HW230651   4.522   3.652   4.275  0.5580 -0.6568  0.2998
 6397SOL     OW30652   0.886   0.638   9.103  0.0045  0.4316  0.3116
 6397SOL    HW130653   0.946   0.700   9.060 -0.7995  1.3366  0.4845
 6397SOL    HW230654   0.931   0.558   9.076  0.8822 -0.2755  3.8978
 6398SOL     OW30655   1.639   1.068   8.450  0.1477  0.0243 -0.4863
 6398SOL    HW130656   1.688   1.146   8.424  0.1239  0.5630  1.0208
 6398SOL    HW230657   1.549   1.078   8.419  0.1878 -0.1577 -0.6567
 6399SOL     OW30658   1.057   2.852   5.582  0.4136  0.0386 -0.5251
 6399SOL    HW130659   1.018   2.790   5.521 -0.2342 -0.6503  0.5710
 6399SOL    HW230660   1.145   2.854   5.546  0.2046  0.5464 -1.0000
 6400SOL     OW30661   0.854   0.180   1.150 -0.0217  0.2076  0.2192
 6400SOL    HW130662   0.881   0.226   1.230  1.2519  0.1753 -0.1812
 6400SOL    HW230663   0.919   0.218   1.091  0.1145  2.1617  1.6241
 6401SOL     OW30664   3.318   0.020   6.708  0.0865 -0.4941  0.0564
 6401SOL    HW130665   3.404   0.060   6.695  0.7114 -1.2963  1.7014
 6401SOL    HW230666   3.291   0.030   6.617 -0.0157 -2.0858 -0.0914
 6402SOL     OW30667   1.398   3.827  17.426  0.3055  0.3513  0.0537
 6402SOL    HW130668   1.318   3.839  17.375 -0.0303  1.1261  0.7674
 6402SOL    HW230669   1.473   3.841  17.369  1.2017  0.2787  1.1976
 6403SOL     OW30670   1.553   0.410   5.558  0.6705 -0.0424  1.0509
 6403SOL    HW130671   1.550   0.383   5.650  0.6422 -1.8845  0.5002
 6403SOL    HW230672   1.649   0.416   5.550  0.6945  1.6276  2.5042
 6404SOL     OW30673   0.393   4.472  10.069 -0.1002 -0.6204 -0.5963
 6404SOL    HW130674   0.405   4.378  10.076  0.1893 -0.5674 -0.3446
 6404SOL    HW230675   0.462   4.507  10.126 -1.3737  1.3827 -0.2571
 6405SOL     OW30676   2.172   3.303   4.896  0.3197  0.3753 -0.3853
 6405SOL    HW130677   2.260   3.279   4.867 -0.0814 -0.4553 -0.9196
 6405SOL    HW230678   2.123   3.289   4.815 -1.6778 -1.3479  1.1302
 6406SOL     OW30679   1.559   4.211   2.872 -0.0019 -0.0427  0.0473
 6406SOL    HW130680   1.602   4.280   2.922  1.2388 -1.3116  0.7459
 6406SOL    HW230681   1.578   4.126   2.913  1.7712  0.7365  0.8379
 6407SOL     OW30682   2.172   0.052  15.246  0.1010  0.4932  0.0328
 6407SOL    HW130683   2.127   4.722  15.312  0.3891 -0.6634 -0.7111
 6407SOL    HW230684   2.123   0.133  15.234  0.4346  0.5839 -0.7038
 6408SOL     OW30685   3.121   0.263   2.578 -0.0170 -0.3275  0.4039
 6408SOL    HW130686   3.146   0.216   2.499 -0.2137  0.3662 -0.0698
 6408SOL    HW230687   3.073   0.335   2.537 -0.4653 -0.7922  0.1070
 6409SOL     OW30688   2.825   3.924   7.071 -0.6625  0.2833 -0.5414
 6409SOL    HW130689   2.828   3.924   7.167  0.7103 -0.2005 -0.5760
 6409SOL    HW230690   2.914   3.898   7.047  1.1194  2.1416  3.9135
 6410SOL     OW30691   1.702   4.190   5.585 -0.2409  0.0658  0.5218
 6410SOL    HW130692   1.795   4.192   5.561 -0.3106 -1.2718  0.1768
 6410SOL    HW230693   1.677   4.113   5.534  3.3088 -0.3680 -0.5314
 6411SOL     OW30694   4.308   0.245   2.879  0.0276  0.1704  0.8734
 6411SOL    HW130695   4.358   0.317   2.840 -1.4354  1.0288  0.5957
 6411SOL    HW230696   4.229   0.248   2.824  0.0202 -2.0008  0.7617
 6412SOL     OW30697   3.708   2.737  13.102  0.1250 -0.0563 -0.1912
 6412SOL    HW130698   3.788   2.732  13.051  0.1145 -0.1075 -0.2021
 6412SOL    HW230699   3.710   2.829  13.130  2.2936 -0.3814  0.6739
 6413SOL     OW30700   0.127   3.996   9.108  0.5726 -0.0209  0.2809
 6413SOL    HW130701   0.038   3.963   9.100  0.6194 -0.2981  0.9250
 6413SOL    HW230702   0.097   4.086   9.120 -1.2155 -0.5796 -0.0743
 6414SOL     OW30703   1.999   2.390  13.098 -0.3506  0.2294 -0.4424
 6414SOL    HW130704   2.075   2.347  13.058 -0.0148  1.0363 -0.6841
 6414SOL    HW230705   1.935   2.319  13.094 -1.0608  0.8500 -0.0228
 6415SOL     OW30706   4.618   4.120   4.910  0.4752 -1.2362  0.8436
 6415SOL    HW130707   4.598   4.049   4.848 -2.1354  0.3862 -0.1778
 6415SOL    HW230708   4.568   4.195   4.877  1.5463 -0.2967  1.3717
 6416SOL     OW30709   3.003   3.668   7.963 -0.0455 -0.3603 -0.6993
 6416SOL    HW130710   2.953   3.741   7.926  1.6511  1.1446  0.0062
 6416SOL    HW230711   3.093   3.699   7.959  0.2094 -0.7140  2.1366
 6417SOL     OW30712   2.200   3.930  12.560 -0.1641 -0.0117  0.5168
 6417SOL    HW130713   2.227   3.838  12.557 -0.0493  0.1244 -2.7279
 6417SOL    HW230714   2.230   3.944  12.650 -1.9415  0.1130  1.0721
 6418SOL     OW30715   3.012   2.538   4.649 -0.5124 -0.6313  0.2408
 6418SOL    HW130716   3.056   2.465   4.605  2.5706  0.9368  0.6724
 6418SOL    HW230717   3.055   2.619   4.620 -0.0878 -2.0171 -2.9586
 6419SOL     OW30718   0.914   4.306   5.937 -0.1098  0.2837 -0.4488
 6419SOL    HW130719   0.938   4.311   5.844  2.0316  2.0601  0.2125
 6419SOL    HW230720   1.004   4.318   5.968 -0.2439  0.4072 -0.1125
 6420SOL     OW30721   0.310   1.570   5.735 -0.6152 -0.0672  0.5616
 6420SOL    HW130722   0.257   1.497   5.706 -0.2656  0.4110 -1.2978
 6420SOL    HW230723   0.394   1.524   5.740 -0.7443 -0.2389  1.0642
 6421SOL     OW30724   3.817   1.586  10.199  0.2843  0.2761 -0.2399
 6421SOL    HW130725   3.778   1.673  10.188 -0.8137 -0.1309  0.3816
 6421SOL    HW230726   3.756   1.541  10.258 -0.9614  0.4980 -1.3491
 6422SOL     OW30727   0.002   2.310   5.995  0.2384  0.3561  0.0184
 6422SOL    HW130728   0.022   2.347   5.909  0.1744  0.8977  0.2344
 6422SOL    HW230729   0.020   2.381   6.057  0.7052 -0.5157  0.8731
 6423SOL     OW30730   0.875   1.786   7.234  0.1195  0.1717 -0.2131
 6423SOL    HW130731   0.877   1.690   7.227  0.9586  0.2754 -1.5153
 6423SOL    HW230732   0.804   1.811   7.175  0.7003  1.6114 -0.2889
 6424SOL     OW30733   2.895   4.156   3.986  0.7759 -0.4625  0.1706
 6424SOL    HW130734   2.980   4.131   3.951  0.7579  1.7733 -1.4574
 6424SOL    HW230735   2.847   4.200   3.916 -0.9237 -0.7578  1.1495
 6425SOL     OW30736   3.725   1.159   5.726 -0.3452 -0.0425  0.0689
 6425SOL    HW130737   3.800   1.137   5.781  0.4358  2.4911  0.0206
 6425SOL    HW230738   3.762   1.235   5.681  1.5031 -0.2014  1.3135
 6426SOL     OW30739   3.723   1.495   1.663 -0.3256 -0.1920  0.9109
 6426SOL    HW130740   3.655   1.543   1.616  0.0802 -1.7925 -1.2843
 6426SOL    HW230741   3.776   1.443   1.603  1.7685  1.9376  0.9323
 6427SOL     OW30742   3.011   3.989   4.216  0.1512 -0.2024 -0.1307
 6427SOL    HW130743   2.957   4.006   4.294 -0.7072 -1.8066 -0.3826
 6427SOL    HW230744   2.947   4.012   4.149 -0.1825  0.3604  0.3720
 6428SOL     OW30745   0.579   2.626   2.075  0.2681 -0.0324  0.1482
 6428SOL    HW130746   0.499   2.575   2.062  0.4066 -0.3413  0.4820
 6428SOL    HW230747   0.544   2.714   2.090 -2.4417 -1.0794 -0.0348
 6429SOL     OW30748   1.359   3.186  11.366  0.2538 -0.9323  0.3864
 6429SOL    HW130749   1.429   3.249  11.383 -1.8143  1.6812 -0.8916
 6429SOL    HW230750   1.346   3.193  11.272  3.2462  1.5436  0.1633
 6430SOL     OW30751   2.871   0.786  13.862 -0.6621  0.6802 -0.1375
 6430SOL    HW130752   2.905   0.842  13.792 -1.6462  0.1074 -1.0760
 6430SOL    HW230753   2.916   0.819  13.940  1.0534  0.7690 -1.1735
 6431SOL     OW30754   3.118   3.971  13.669 -0.0710 -0.3784  0.1152
 6431SOL    HW130755   3.162   3.986  13.585  1.8163  0.6934  1.2753
 6431SOL    HW230756   3.035   4.016  13.653  0.5432  0.2268 -1.4338
 6432SOL     OW30757   2.300   2.072   7.320  0.6264  0.0310  0.3101
 6432SOL    HW130758   2.352   2.030   7.389  1.3334  2.4781  1.2867
 6432SOL    HW230759   2.332   2.161   7.333 -0.9475  0.4636  1.1863
 6433SOL     OW30760   4.403   1.626   9.888  0.4378 -0.4903  0.5923
 6433SOL    HW130761   4.440   1.660   9.969  1.9726 -0.0209 -0.3046
 6433SOL    HW230762   4.480   1.634   9.832 -0.9514 -0.4821 -1.3032
 6434SOL     OW30763   4.650   0.588   7.535  0.7605 -0.2715 -0.3073
 6434SOL    HW130764   4.587   0.651   7.569  0.1063 -0.4165 -1.2709
 6434SOL    HW230765   4.663   0.631   7.450 -2.9598 -3.0482 -2.2296
 6435SOL     OW30766   1.610   0.826   3.030  0.1444  0.5391  0.1858
 6435SOL    HW130767   1.692   0.825   3.081 -0.1268  1.0058  0.6313
 6435SOL    HW230768   1.617   0.755   2.967 -0.0492 -0.3651  1.1753
 6436SOL     OW30769   0.474   0.168   8.178  0.4641 -0.0367 -0.0918
 6436SOL    HW130770   0.529   0.089   8.182 -0.2450 -0.5473 -0.4077
 6436SOL    HW230771   0.547   0.229   8.170  1.0628 -0.8206 -0.5517
 6437SOL     OW30772   3.265   3.777   9.284  0.2012 -0.0061 -0.6370
 6437SOL    HW130773   3.323   3.703   9.299  0.4555 -0.1235 -2.2018
 6437SOL    HW230774   3.182   3.730   9.275 -0.1825  0.8056 -1.4502
 6438SOL     OW30775   0.455   2.021   0.139 -0.1685 -0.4354  0.0606
 6438SOL    HW130776   0.367   2.015   0.177 -1.1957 -0.3354 -2.3493
 6438SOL    HW230777   0.447   1.962   0.064 -2.2168 -1.2692  0.9325
 6439SOL     OW30778   3.562   0.606   6.898 -0.5086 -0.1034  0.1886
 6439SOL    HW130779   3.498   0.639   6.836  1.0309  1.0401 -0.8046
 6439SOL    HW230780   3.643   0.648   6.867  0.9548 -1.8627  1.5997
 6440SOL     OW30781   0.741   3.742  10.382  0.2381 -0.0624  0.2686
 6440SOL    HW130782   0.730   3.650  10.357  1.4183 -0.3708  0.8797
 6440SOL    HW230783   0.730   3.721  10.475 -1.4934  0.6811  0.2194
 6441SOL     OW30784   3.283   2.510   3.381  0.3968 -0.4919 -0.5699
 6441SOL    HW130785   3.360   2.482   3.430  0.8199  0.8060 -0.5019
 6441SOL    HW230786   3.306   2.484   3.292 -0.4023  2.0017 -1.5017
 6442SOL     OW30787   4.635   4.041  12.941 -0.3351  0.3278 -0.2647
 6442SOL    HW130788   4.619   3.949  12.918  0.8303 -0.0267  0.3375
 6442SOL    HW230789   4.625   4.035  13.037  1.8216  1.0637  0.0075
 6443SOL     OW30790   0.971   4.153   9.766  0.3369  0.0594 -0.4156
 6443SOL    HW130791   1.035   4.106   9.820 -1.0130 -1.4485 -0.1067
 6443SOL    HW230792   0.987   4.243   9.795  0.1517  0.1044 -0.4497
 6444SOL     OW30793   1.569   4.210  17.020 -0.2565  0.1348 -0.0440
 6444SOL    HW130794   1.643   4.205  16.959  0.3068  0.7236  0.5824
 6444SOL    HW230795   1.530   4.291  16.988  0.3532  0.3192 -0.3308
 6445SOL     OW30796   3.346   4.348   0.244  0.6844 -0.4546 -0.0124
 6445SOL    HW130797   3.375   4.266   0.285  0.7050 -0.3559  0.1715
 6445SOL    HW230798   3.370   4.327   0.154 -0.4567 -0.9330 -0.2051
 6446SOL     OW30799   1.931   2.732   2.556 -0.4063 -0.4256 -0.1062
 6446SOL    HW130800   1.959   2.746   2.466  1.8641  2.0594  0.9988
 6446SOL    HW230801   1.955   2.640   2.568  0.3719  0.1187  2.5036
 6447SOL     OW30802   4.249   1.956   3.507  0.3241 -0.2143  0.3294
 6447SOL    HW130803   4.278   2.035   3.554 -1.5428 -1.7305  4.0274
 6447SOL    HW230804   4.329   1.908   3.486 -0.8499 -0.9065 -2.5754
 6448SOL     OW30805   1.114   0.306   0.287  0.1394 -0.4849 -0.1959
 6448SOL    HW130806   1.085   0.379   0.342  1.1509  0.5744 -1.0408
 6448SOL    HW230807   1.115   0.349   0.201  2.8416 -1.0156 -0.4331
 6449SOL     OW30808   1.805   3.531   7.062  0.0605 -0.0578 -0.1566
 6449SOL    HW130809   1.837   3.526   6.972  2.7778  0.1719  0.8009
 6449SOL    HW230810   1.846   3.611   7.095  0.6285 -0.7717  0.8593
 6450SOL     OW30811   4.445   1.375  15.154 -0.5554  0.4172 -0.0222
 6450SOL    HW130812   4.529   1.405  15.119 -0.7668  1.7073  0.5581
 6450SOL    HW230813   4.478   1.328  15.231  2.5382 -2.4263 -3.1295
 6451SOL     OW30814   2.551   2.581   3.412 -0.7395 -0.3198 -0.2626
 6451SOL    HW130815   2.530   2.650   3.475  0.3798  0.2283 -0.4913
 6451SOL    HW230816   2.500   2.507   3.445  2.2732 -1.5093  1.7510
 6452SOL     OW30817   4.060   0.997   9.838  0.6636  0.3237  0.3588
 6452SOL    HW130818   4.097   1.083   9.859 -0.5732  0.5513  1.6052
 6452SOL    HW230819   4.009   0.983   9.918 -0.6637  1.0255 -0.3666
 6453SOL     OW30820   1.960   1.956   4.051 -0.0461 -0.1557 -0.3972
 6453SOL    HW130821   1.986   1.930   4.139 -1.2425 -0.4652 -0.1300
 6453SOL    HW230822   1.870   1.926   4.035 -0.0950 -0.7902  1.0687
 6454SOL     OW30823   0.865   3.380   2.177  0.4347  0.1358 -0.1565
 6454SOL    HW130824   0.823   3.404   2.094  0.8253 -0.7395 -0.6078
 6454SOL    HW230825   0.952   3.412   2.154  0.9684 -1.1611  0.0655
 6455SOL     OW30826   0.596   4.343   7.155  0.5274 -0.3916 -0.4698
 6455SOL    HW130827   0.529   4.325   7.089  0.4235 -1.8367  0.0291
 6455SOL    HW230828   0.548   4.332   7.238  2.5378  1.7523  0.9790
 6456SOL     OW30829   1.590   3.700   9.044  0.5718  0.6051  0.0050
 6456SOL    HW130830   1.639   3.728   8.967 -0.0423 -0.4734 -0.7805
 6456SOL    HW230831   1.582   3.607   9.023 -1.8710  0.2783  2.4153
 6457SOL     OW30832   3.776   4.656   4.774  0.4550  0.3434  0.0399
 6457SOL    HW130833   3.720   4.653   4.851 -0.8011 -0.2250 -0.9081
 6457SOL    HW230834   3.832   4.581   4.795  0.4015  0.7475  1.6046
 6458SOL     OW30835   2.574   2.339   6.181  0.4197  0.8340  0.0023
 6458SOL    HW130836   2.578   2.244   6.186  0.4345  0.8145 -0.3772
 6458SOL    HW230837   2.610   2.356   6.094 -0.1376 -2.2728 -0.8292
 6459SOL     OW30838   1.396   4.366  16.114 -0.0746  0.0493  0.2792
 6459SOL    HW130839   1.351   4.442  16.150 -0.4930  0.2747 -0.7141
 6459SOL    HW230840   1.319   4.310  16.105 -0.4378  0.8156 -1.3312
 6460SOL     OW30841   1.669   0.311  11.594  0.4153 -0.3599  0.2044
 6460SOL    HW130842   1.623   0.324  11.677 -0.5013  1.9459 -0.6538
 6460SOL    HW230843   1.745   0.363  11.621  0.5497 -0.2604 -0.3626
 6461SOL     OW30844   1.657   1.691   7.612 -1.0661 -0.0893  0.1329
 6461SOL    HW130845   1.571   1.733   7.616  0.2912  2.5514  2.1818
 6461SOL    HW230846   1.712   1.746   7.557 -0.9675 -0.5337 -0.2108
 6462SOL     OW30847   3.891   3.690  10.132 -0.5346  0.5824  0.0577
 6462SOL    HW130848   3.931   3.628  10.071 -2.8040 -0.0010 -0.8221
 6462SOL    HW230849   3.803   3.688  10.095 -0.7988  0.0614  0.7119
 6463SOL     OW30850   3.754   0.656   4.571 -0.2052  0.4450  0.3518
 6463SOL    HW130851   3.690   0.727   4.577 -0.6188  0.1642 -0.7921
 6463SOL    HW230852   3.714   0.594   4.511  0.2026  1.7183 -1.2505
 6464SOL     OW30853   2.952   1.013   6.375  0.2316  0.3434 -0.1184
 6464SOL    HW130854   2.931   1.096   6.419  1.2109  0.2513  0.5058
 6464SOL    HW230855   3.020   1.035   6.311  0.6651 -1.4188 -0.2524
 6465SOL     OW30856   0.452   3.075   4.527  0.1506 -0.5373 -0.5871
 6465SOL    HW130857   0.484   3.111   4.445  0.8473 -1.2909 -0.6452
 6465SOL    HW230858   0.363   3.045   4.511  0.0401 -0.0668 -0.8444
 6466SOL     OW30859   0.041   0.675  12.879  0.1376 -0.1358 -0.1452
 6466SOL    HW130860   0.083   0.604  12.831 -0.5356 -0.2210 -0.6148
 6466SOL    HW230861   0.113   0.736  12.897  0.5963 -0.3916 -1.1126
 6467SOL     OW30862   1.389   0.048   3.663 -0.0782 -0.2293 -0.2706
 6467SOL    HW130863   1.449   0.116   3.633 -0.0116  0.8061  2.1983
 6467SOL    HW230864   1.385   0.069   3.756  1.4046  1.9136 -0.7057
 6468SOL     OW30865   3.389   1.886   7.499  0.0245 -0.0064 -0.2751
 6468SOL    HW130866   3.481   1.910   7.496 -0.2436  0.9979 -0.3036
 6468SOL    HW230867   3.351   1.940   7.568 -0.7226 -2.0541  0.9292
 6469SOL     OW30868   3.938   2.134  11.829 -0.5578  0.5471 -0.1259
 6469SOL    HW130869   3.962   2.119  11.920 -1.4158  1.4550  0.2580
 6469SOL    HW230870   3.867   2.069  11.825 -1.2160  1.0984  3.0807
 6470SOL     OW30871   2.110   2.504   2.341  0.5389 -0.6661 -0.0941
 6470SOL    HW130872   2.038   2.531   2.285 -0.5332  1.0580  2.1178
 6470SOL    HW230873   2.169   2.464   2.277  0.4841  0.3947 -0.7984
 6471SOL     OW30874   1.439   1.193  14.418  0.0119  0.3116 -0.0334
 6471SOL    HW130875   1.530   1.170  14.432 -0.1384  0.8559  1.7876
 6471SOL    HW230876   1.394   1.112  14.442  0.6099 -0.2248 -0.7412
 6472SOL     OW30877   3.699   0.454   0.456 -0.3935  0.3186  0.1757
 6472SOL    HW130878   3.622   0.414   0.497 -0.8175  0.1888 -0.7550
 6472SOL    HW230879   3.744   0.371   0.443 -0.3095  0.2930  0.6340
 6473SOL     OW30880   3.445   4.022   8.427 -0.2714 -0.6988 -0.1438
 6473SOL    HW130881   3.409   3.962   8.493 -0.8632 -1.4315 -1.1348
 6473SOL    HW230882   3.388   4.094   8.452  3.0138  1.5370  0.9608
 6474SOL     OW30883   0.067   4.459  16.221 -0.1649 -0.6978 -0.4833
 6474SOL    HW130884   4.697   4.477  16.222 -0.0759 -0.3152  1.3559
 6474SOL    HW230885   0.087   4.433  16.131  1.6805 -0.6081 -0.0964
 6475SOL     OW30886   4.688   2.486  11.940  0.5635 -0.1088  0.4090
 6475SOL    HW130887   4.651   2.439  11.865  0.0682  0.6973  0.1496
 6475SOL    HW230888   4.706   2.567  11.894  0.9783 -1.5056 -1.9017
 6476SOL     OW30889   0.870   0.342   1.403 -0.4999 -0.2496  0.3534
 6476SOL    HW130890   0.791   0.310   1.446 -2.0736  1.8743 -0.9346
 6476SOL    HW230891   0.940   0.337   1.468  0.9967  1.5913 -1.1245
 6477SOL     OW30892   0.708   2.596   6.319  0.8665  0.1089  0.0713
 6477SOL    HW130893   0.778   2.573   6.258  0.5072 -1.2528  0.1651
 6477SOL    HW230894   0.633   2.549   6.282  0.9613 -1.1097  1.4193
 6478SOL     OW30895   4.646   1.855   5.794 -0.3733 -0.2236 -0.5612
 6478SOL    HW130896   4.660   1.929   5.854  0.9231 -1.7820  1.0447
 6478SOL    HW230897   0.012   1.839   5.762  0.6345  1.5155  1.3771
 6479SOL     OW30898   0.193   0.981  16.210 -0.2845  0.0782 -0.6095
 6479SOL    HW130899   0.153   1.058  16.169 -0.2640  0.0096 -0.7553
 6479SOL    HW230900   0.230   1.013  16.292 -0.5664  0.4097 -0.6106
 6480SOL     OW30901   2.908   2.837   5.385  0.1426 -0.1261 -0.1193
 6480SOL    HW130902   2.971   2.906   5.366  0.6967 -0.3446  0.9280
 6480SOL    HW230903   2.913   2.783   5.306 -0.5711 -1.1170  0.5169
 6481SOL     OW30904   0.862   4.240   6.740 -0.1301  0.0856  0.0073
 6481SOL    HW130905   0.776   4.259   6.778  0.9236 -0.6650  2.7973
 6481SOL    HW230906   0.876   4.150   6.772  0.4128  1.1367  2.7045
 6482SOL     OW30907   0.370   2.240  10.211 -0.7329 -0.2863  0.2044
 6482SOL    HW130908   0.344   2.309  10.150 -1.4647  0.0041  0.8468
 6482SOL    HW230909   0.286   2.199  10.233 -1.8416  1.3314 -1.0548
 6483SOL     OW30910   1.534   1.762   1.626 -0.0058  0.1865  0.6342
 6483SOL    HW130911   1.615   1.776   1.675  0.5983  0.8603 -0.5679
 6483SOL    HW230912   1.528   1.852   1.595 -0.9466  0.3984  1.4317
 6484SOL     OW30913   2.958   3.770   4.529 -0.7153  0.1056  0.3687
 6484SOL    HW130914   3.043   3.794   4.566  0.5269 -2.2606 -1.0396
 6484SOL    HW230915   2.901   3.838   4.566 -0.9504 -0.5597  1.2392
 6485SOL     OW30916   3.457   0.198   4.230  0.2599  0.3871 -0.2551
 6485SOL    HW130917   3.403   0.130   4.269  1.3131 -1.0590 -1.3256
 6485SOL    HW230918   3.422   0.281   4.262 -0.3610  0.4459 -1.0725
 6486SOL     OW30919   1.584   2.892   7.186  0.2452  0.2193  0.1056
 6486SOL    HW130920   1.601   2.933   7.101 -0.5888  1.5817  0.6017
 6486SOL    HW230921   1.669   2.875   7.227  0.3456 -1.3242 -0.7213
 6487SOL     OW30922   4.351   1.130  14.150  0.4446  0.2209  0.6241
 6487SOL    HW130923   4.408   1.068  14.104 -1.3721 -1.5462  0.7788
 6487SOL    HW230924   4.340   1.087  14.234 -0.4343  0.9248  0.8673
 6488SOL     OW30925   1.982   3.906   7.669  0.3579 -0.1991 -0.0167
 6488SOL    HW130926   1.977   3.921   7.575  1.2499 -1.1422 -0.2092
 6488SOL    HW230927   1.995   3.812   7.666  2.2007  0.0392  0.7419
 6489SOL     OW30928   1.780   1.901   1.392 -0.5605 -0.2828 -0.4384
 6489SOL    HW130929   1.824   1.981   1.420 -2.0045  0.2112  0.4160
 6489SOL    HW230930   1.695   1.927   1.428  0.7647  0.7148  1.9291
 6490SOL     OW30931   1.555   3.402   8.386  0.3790 -0.4234  0.3681
 6490SOL    HW130932   1.589   3.313   8.381 -0.2574 -0.5091 -2.4614
 6490SOL    HW230933   1.599   3.432   8.465  0.6694  0.4496 -0.1308
 6491SOL     OW30934   1.292   4.352  13.146 -0.4299  0.4411  0.5464
 6491SOL    HW130935   1.297   4.287  13.075 -0.9549  0.6559  0.3130
 6491SOL    HW230936   1.289   4.295  13.223 -0.4925  1.3777  1.2346
 6492SOL     OW30937   3.975   3.780  12.126  0.3630 -0.1143 -0.4437
 6492SOL    HW130938   4.014   3.762  12.212 -0.3945 -1.4518 -0.3755
 6492SOL    HW230939   3.902   3.841  12.138 -1.2070 -2.3915  1.7166
 6493SOL     OW30940   1.433   3.444   3.036 -0.1175 -0.3173  0.0743
 6493SOL    HW130941   1.520   3.467   3.002 -1.1827  1.7129 -1.3042
 6493SOL    HW230942   1.384   3.525   3.022 -0.3458 -0.8184 -1.9403
 6494SOL     OW30943   0.404   2.962   3.427  0.0232  0.1138  0.1079
 6494SOL    HW130944   0.463   2.909   3.480 -1.7308 -1.1704  0.7876
 6494SOL    HW230945   0.418   2.948   3.333  1.7597  2.3535  0.0648
 6495SOL     OW30946   2.982   3.632   9.285 -0.0277 -0.5735 -0.3793
 6495SOL    HW130947   2.946   3.619   9.197  0.8005 -1.3214 -0.6102
 6495SOL    HW230948   2.916   3.689   9.325  0.2380 -2.7056  3.0720
 6496SOL     OW30949   2.080   2.289   4.744  0.4848 -0.4366  0.3483
 6496SOL    HW130950   2.152   2.312   4.684  1.4716 -1.2285  1.2332
 6496SOL    HW230951   2.117   2.215   4.792  1.5078 -0.9491 -1.2338
 6497SOL     OW30952   3.651   1.344   7.348 -0.1992  0.6480 -0.1691
 6497SOL    HW130953   3.579   1.364   7.288 -1.5930 -3.1091  0.2108
 6497SOL    HW230954   3.720   1.343   7.282 -0.1218 -1.1725 -0.0669
 6498SOL     OW30955   0.531   1.551   7.900  0.2639 -0.0555  0.0413
 6498SOL    HW130956   0.616   1.594   7.911 -0.4843  0.9652  1.9733
 6498SOL    HW230957   0.560   1.476   7.952  0.1805 -0.1676 -0.0758
 6499SOL     OW30958   3.814   3.047  12.483 -0.0771 -0.2695  0.4167
 6499SOL    HW130959   3.781   2.981  12.544  1.4924  0.9725  2.6335
 6499SOL    HW230960   3.909   3.037  12.492  0.3489  2.8143 -0.6448
 6500SOL     OW30961   2.411   0.729   1.008  0.2124  0.0260 -0.1251
 6500SOL    HW130962   2.426   0.785   0.932 -0.8104  0.0314 -0.3263
 6500SOL    HW230963   2.495   0.683   1.016 -1.1120 -2.0318  2.1455
 6501SOL     OW30964   0.698   0.032  16.407 -0.0623  0.3513  0.0218
 6501SOL    HW130965   0.614   0.004  16.445 -0.2189  0.1074 -0.5070
 6501SOL    HW230966   0.704   0.120  16.443  1.4245 -0.6440  2.2524
 6502SOL     OW30967   4.376   1.826   2.539 -0.1249  0.1165  0.8355
 6502SOL    HW130968   4.318   1.852   2.611 -0.4114 -1.8915  1.3368
 6502SOL    HW230969   4.451   1.884   2.553 -0.0312  0.1968 -0.0334
 6503SOL     OW30970   4.683   1.596  17.428  0.4104 -0.0407 -0.4212
 6503SOL    HW130971   0.048   1.575  17.459 -0.2160  0.8342  1.9805
 6503SOL    HW230972   4.643   1.509  17.434 -2.0773  1.1516  0.2547
 6504SOL     OW30973   0.039   3.472   2.489 -0.0737 -0.5870 -0.1253
 6504SOL    HW130974   0.003   3.503   2.405 -2.2940 -0.1066  0.9938
 6504SOL    HW230975   0.053   3.382   2.460 -0.2161 -1.5186  2.7423
 6505SOL     OW30976   1.787   2.873   8.450 -0.0082  0.1020 -0.0232
 6505SOL    HW130977   1.707   2.821   8.443 -0.0758  0.5241 -2.2832
 6505SOL    HW230978   1.809   2.834   8.535  0.9611  1.3734  0.3086
 6506SOL     OW30979   3.671   0.515   4.310  0.6761 -0.1387 -0.8063
 6506SOL    HW130980   3.707   0.439   4.265 -0.8206 -0.6354 -1.1604
 6506SOL    HW230981   3.577   0.500   4.310  0.6661 -0.0994 -0.3356
 6507SOL     OW30982   0.571   1.273   6.070  0.1440  0.2131 -0.0025
 6507SOL    HW130983   0.646   1.333   6.068  1.0763 -0.8343  3.4371
 6507SOL    HW230984   0.589   1.249   6.160 -2.8051  1.7934  1.0092
 6508SOL     OW30985   1.227   4.238   8.778  0.1453  0.3945  0.0513
 6508SOL    HW130986   1.215   4.228   8.872  2.8102 -1.5760  0.1835
 6508SOL    HW230987   1.203   4.331   8.770  0.7356  0.6105  0.8721
 6509SOL     OW30988   2.394   1.059  14.461 -0.6126 -0.2489 -0.4932
 6509SOL    HW130989   2.356   1.117  14.528  0.4415 -0.8714  0.6413
 6509SOL    HW230990   2.421   0.987  14.519 -1.9730  1.1799  1.9269
 6510SOL     OW30991   0.471   2.987   7.793 -0.7649 -0.1523 -0.0302
 6510SOL    HW130992   0.475   3.073   7.837  0.6582 -0.2838  0.1177
 6510SOL    HW230993   0.395   2.998   7.737 -0.4215 -0.1089 -0.4855
 6511SOL     OW30994   2.357   2.458   7.375  0.3455  0.0056  0.1525
 6511SOL    HW130995   2.366   2.408   7.456  1.9159 -0.9967 -0.6547
 6511SOL    HW230996   2.424   2.415   7.322 -2.2174 -1.7289 -1.7413
 6512SOL     OW30997   0.423   0.776   7.202 -0.1900  0.1965 -0.6858
 6512SOL    HW130998   0.376   0.698   7.232  0.4608  1.0149  2.4422
 6512SOL    HW230999   0.515   0.768   7.226 -0.7181 -0.5837  1.1209
 6513SOL     OW31000   0.683   0.515   5.680  1.3601  0.0396 -0.5453
 6513SOL    HW131001   0.635   0.585   5.723 -0.0628 -0.3442 -1.5130
 6513SOL    HW231002   0.651   0.443   5.736 -1.7346  1.6977 -0.2106
 6514SOL     OW31003   0.192   1.309   3.024  0.4699 -0.2366  1.0670
 6514SOL    HW131004   0.100   1.322   3.050  0.5016  1.6205  0.2073
 6514SOL    HW231005   0.190   1.215   3.005 -1.5143  0.1948 -0.8720
 6515SOL     OW31006   4.110   3.559   8.806  0.1158  0.2807 -0.7269
 6515SOL    HW131007   4.184   3.504   8.782  0.4205  0.6125 -0.5615
 6515SOL    HW231008   4.091   3.601   8.722 -1.1423 -1.7326 -1.4306
 6516SOL     OW31009   2.842   3.868   9.050 -0.8106 -0.6102 -0.5522
 6516SOL    HW131010   2.819   3.777   9.032 -1.7289 -0.4011 -0.4460
 6516SOL    HW231011   2.846   3.899   8.960  0.4131  2.0549  0.4069
 6517SOL     OW31012   3.479   0.072   9.036 -0.0252 -0.0916 -0.9463
 6517SOL    HW131013   3.489   0.167   9.041 -2.0415 -0.0931  2.3623
 6517SOL    HW231014   3.496   0.080   8.942  4.0500  2.3078  0.0004
 6518SOL     OW31015   0.762   4.087   2.460  0.4337 -0.7699 -0.1315
 6518SOL    HW131016   0.814   4.014   2.493 -0.4917 -0.5083  1.8710
 6518SOL    HW231017   0.724   4.043   2.384 -0.1184  1.5583 -1.2160
 6519SOL     OW31018   2.366   3.792   4.259  0.0843  0.5223  0.0410
 6519SOL    HW131019   2.342   3.701   4.242 -1.3335  0.9006  0.1020
 6519SOL    HW231020   2.440   3.812   4.201 -0.0153  0.4539 -0.1099
 6520SOL     OW31021   4.241   0.335   0.527  0.5110  0.1667 -0.7261
 6520SOL    HW131022   4.228   0.368   0.616  3.2144 -2.3845  0.5916
 6520SOL    HW231023   4.271   0.411   0.477 -0.2201 -0.0186 -1.4452
 6521SOL     OW31024   0.775   3.426   3.073  0.3416  0.2784 -0.2543
 6521SOL    HW131025   0.685   3.410   3.045  0.4496  1.3359 -1.1983
 6521SOL    HW231026   0.822   3.352   3.033  2.1463  0.2159  2.0196
 6522SOL     OW31027   1.966   3.802  17.429 -0.5363 -0.3919 -0.0504
 6522SOL    HW131028   1.919   3.790  17.511 -0.0696 -0.3780  0.2169
 6522SOL    HW231029   1.902   3.855  17.381 -0.7992 -2.2774 -1.7937
 6523SOL     OW31030   2.854   0.868   2.349  0.1495  0.9076  0.2587
 6523SOL    HW131031   2.806   0.946   2.375 -0.6180  0.3504  0.5173
 6523SOL    HW231032   2.940   0.900   2.323  0.5251 -1.9293 -2.0466
 6524SOL     OW31033   1.242   3.101   7.951  0.3842 -0.0716  0.3969
 6524SOL    HW131034   1.184   3.127   8.023  0.7441 -0.6545  0.8925
 6524SOL    HW231035   1.238   3.006   7.964  0.3049 -0.1460 -0.1767
 6525SOL     OW31036   2.807   3.161   1.426  0.4341 -0.1364  0.6539
 6525SOL    HW131037   2.880   3.114   1.468 -0.4509  1.6287  4.1624
 6525SOL    HW231038   2.835   3.163   1.335 -0.6837  2.0959  0.3608
 6526SOL     OW31039   3.238   2.927   1.711 -0.2126  0.8252 -0.4853
 6526SOL    HW131040   3.180   2.934   1.786 -1.5748  1.5991 -1.6306
 6526SOL    HW231041   3.300   2.864   1.749  1.7207  1.7203 -2.1292
 6527SOL     OW31042   3.351   4.161   4.884  0.3248  0.6493 -0.0795
 6527SOL    HW131043   3.296   4.160   4.805  1.6903  2.1005 -1.0625
 6527SOL    HW231044   3.375   4.254   4.880  0.2867  0.5933 -1.8817
 6528SOL     OW31045   3.335   2.695   3.776 -0.0840  0.3844 -0.7902
 6528SOL    HW131046   3.292   2.610   3.785  0.5291  0.2205  0.5083
 6528SOL    HW231047   3.390   2.673   3.700 -0.0417  0.3001 -0.7362
 6529SOL     OW31048   4.606   2.327  15.363  0.2364 -0.5560 -0.2437
 6529SOL    HW131049   4.579   2.370  15.282 -0.2112  1.0489  0.7539
 6529SOL    HW231050   4.601   2.400  15.424 -1.6709 -1.3750  0.5733
 6530SOL     OW31051   0.541   1.279   5.017 -0.7887 -0.1379  0.8749
 6530SOL    HW131052   0.542   1.373   5.001 -0.5584 -0.3764 -0.5019
 6530SOL    HW231053   0.589   1.266   4.935 -0.7202 -1.5089  1.1290
 6531SOL     OW31054   2.115   1.755   6.451 -0.0636 -0.1962 -0.3167
 6531SOL    HW131055   2.080   1.749   6.362  1.8725  1.2596 -1.1777
 6531SOL    HW231056   2.044   1.719   6.504  1.0549 -1.3526  0.3850
 6532SOL     OW31057   2.034   2.371   1.952  0.0922 -0.1254 -0.1403
 6532SOL    HW131058   2.023   2.462   1.924 -0.6390 -0.8510 -2.2414
 6532SOL    HW231059   2.118   2.376   1.997 -0.6811  0.9617  1.1631
 6533SOL     OW31060   3.093   0.954   5.287 -0.3570  0.3695 -0.9712
 6533SOL    HW131061   3.170   0.991   5.243  1.1904 -0.3917  1.1087
 6533SOL    HW231062   3.119   0.863   5.273  3.1450  0.9331  1.7780
 6534SOL     OW31063   2.683   2.964  14.621  0.1866 -0.5157  0.3333
 6534SOL    HW131064   2.753   2.957  14.556 -0.7586  3.0452 -1.1048
 6534SOL    HW231065   2.608   2.994  14.569  2.8147  0.6898 -2.7664
 6535SOL     OW31066   4.107   2.710   7.891 -0.2408  0.0360  0.3521
 6535SOL    HW131067   4.149   2.628   7.917 -0.4191  0.0659  0.7436
 6535SOL    HW231068   4.160   2.774   7.939  0.3792  1.3681 -2.1166
 6536SOL     OW31069   3.479   0.643   7.591 -0.4305  0.0670  0.4978
 6536SOL    HW131070   3.558   0.623   7.641  0.4981  2.7895  0.1297
 6536SOL    HW231071   3.446   0.560   7.559 -0.5587  1.1445 -2.1356
 6537SOL     OW31072   2.208   2.686   7.297 -0.2940 -0.4791 -0.2112
 6537SOL    HW131073   2.250   2.724   7.374 -0.3376 -0.2949 -0.2794
 6537SOL    HW231074   2.240   2.596   7.303  0.9862  0.1106  1.9248
 6538SOL     OW31075   0.206   3.672   1.700  0.1485 -0.0309  0.5122
 6538SOL    HW131076   0.159   3.632   1.627  1.3359 -0.4252 -0.0403
 6538SOL    HW231077   0.153   3.635   1.771 -0.5812  1.1416  0.5869
 6539SOL     OW31078   3.053   2.038  16.662 -0.2160 -0.3276 -0.1811
 6539SOL    HW131079   3.070   2.089  16.583 -1.7311 -0.2984 -0.4741
 6539SOL    HW231080   3.106   1.960  16.645  0.5556  0.3080 -0.7129
 6540SOL     OW31081   2.535   3.033  11.031  0.6289  0.3574  0.2360
 6540SOL    HW131082   2.449   3.074  11.022 -0.0388 -1.2099 -0.4789
 6540SOL    HW231083   2.587   3.107  11.065  2.9830 -0.5967 -1.2789
 6541SOL     OW31084   3.464   0.766   0.705 -0.6253 -0.0688 -0.8066
 6541SOL    HW131085   3.424   0.853   0.710 -0.2608  0.0287  0.3959
 6541SOL    HW231086   3.463   0.758   0.610  1.6060  1.0145 -0.9292
 6542SOL     OW31087   2.550   0.731   9.314 -0.1839  0.6413  0.7075
 6542SOL    HW131088   2.521   0.669   9.247 -1.0787 -0.1192  1.8094
 6542SOL    HW231089   2.495   0.714   9.390 -0.6274 -0.8506  0.0616
 6543SOL     OW31090   4.517   1.988   9.161  0.0946 -0.3679 -0.2360
 6543SOL    HW131091   4.423   1.993   9.146 -0.0447 -1.4957  0.3176
 6543SOL    HW231092   4.528   2.079   9.191 -2.0366 -1.0484  2.5084
 6544SOL     OW31093   0.238   0.385   7.545 -0.2099  0.4913 -0.1435
 6544SOL    HW131094   0.150   0.396   7.508 -0.0004  0.7433 -0.5672
 6544SOL    HW231095   0.289   0.437   7.483 -0.9513  0.9822 -0.3511
 6545SOL     OW31096   3.920   4.149   6.759 -0.1264 -0.2525  0.2260
 6545SOL    HW131097   3.863   4.128   6.833  0.9225 -2.4351  0.3923
 6545SOL    HW231098   4.003   4.119   6.797 -0.2977 -2.4070 -1.1418
 6546SOL     OW31099   1.700   0.119   5.587  0.3854 -0.7603 -0.1279
 6546SOL    HW131100   1.783   0.164   5.572  0.7311 -0.9643  1.1456
 6546SOL    HW231101   1.658   0.110   5.502  0.5485 -1.5163 -0.1353
 6547SOL     OW31102   3.706   2.361   5.029  0.2062  0.3697 -0.3571
 6547SOL    HW131103   3.648   2.404   5.093 -0.0449  2.6095 -2.1095
 6547SOL    HW231104   3.791   2.398   5.054 -0.5072  0.6679  1.7086
 6548SOL     OW31105   3.970   4.068  11.404 -0.1003  0.7967 -0.2776
 6548SOL    HW131106   3.965   4.145  11.347  0.4505  0.9137 -0.1692
 6548SOL    HW231107   4.063   4.045  11.395 -0.7794 -1.2988 -1.9109
 6549SOL     OW31108   4.023   2.386  11.687  0.0799 -0.1690 -0.3239
 6549SOL    HW131109   4.016   2.411  11.779  1.5402 -2.1059  0.3132
 6549SOL    HW231110   4.020   2.291  11.698 -1.3766 -0.1078 -0.1900
 6550SOL     OW31111   4.245   3.376   6.952 -0.0893 -0.2195 -0.1312
 6550SOL    HW131112   4.218   3.437   6.884 -0.1122  1.1903  1.1586
 6550SOL    HW231113   4.340   3.386   6.945 -0.0108 -0.6421  0.2401
 6551SOL     OW31114   2.293   1.494  14.890 -0.8357  0.6430  0.1471
 6551SOL    HW131115   2.311   1.468  14.980  0.1304  0.5321 -0.0861
 6551SOL    HW231116   2.320   1.583  14.910  1.8701  0.5045 -3.0320
 6552SOL     OW31117   0.681   0.915   7.816  0.2644  0.6017 -0.4067
 6552SOL    HW131118   0.767   0.949   7.841  0.1148  0.2567  0.5966
 6552SOL    HW231119   0.611   0.970   7.852  0.0787  0.3242 -0.3473
 6553SOL     OW31120   0.229   0.468   9.078 -0.0283 -0.1187  0.1317
 6553SOL    HW131121   0.272   0.446   8.995  0.0024  0.4332  0.0021
 6553SOL    HW231122   0.302   0.513   9.121  1.1712 -2.0482  0.0999
 6554SOL     OW31123   3.481   0.403  16.194  0.4195 -0.2549  0.0167
 6554SOL    HW131124   3.442   0.337  16.138 -3.0770  0.8209  1.1560
 6554SOL    HW231125   3.507   0.345  16.265 -0.3394 -1.2790 -0.5480
 6555SOL     OW31126   1.218   1.156   6.594 -0.0228  0.4333 -0.6803
 6555SOL    HW131127   1.296   1.158   6.650  0.5780 -0.0253 -1.4894
 6555SOL    HW231128   1.175   1.239   6.613  0.5747  0.3586  1.0243
 6556SOL     OW31129   2.145   0.260   7.772 -0.3856 -0.1953 -0.1359
 6556SOL    HW131130   2.135   0.294   7.683 -1.3165 -3.5260 -1.3126
 6556SOL    HW231131   2.133   0.341   7.822 -1.6989 -0.1704 -0.4991
 6557SOL     OW31132   3.790   0.143  17.334 -0.0019 -0.5530  0.0982
 6557SOL    HW131133   3.702   0.157  17.368 -0.6776  0.8720 -2.2269
 6557SOL    HW231134   3.782   0.064  17.282  0.7795 -1.3487  1.1723
 6558SOL     OW31135   1.915   3.872   5.246  0.8228 -0.1783  0.1710
 6558SOL    HW131136   1.903   3.960   5.209 -1.9467 -1.0419 -0.9888
 6558SOL    HW231137   1.873   3.819   5.179  0.3377 -0.1699  0.4633
 6559SOL     OW31138   3.433   4.302   2.253  0.2182  0.2664 -0.0241
 6559SOL    HW131139   3.356   4.348   2.219 -0.6812 -0.9776  0.3037
 6559SOL    HW231140   3.500   4.348   2.203  0.9059  0.4461  1.0652
 6560SOL     OW31141   4.530   2.036   4.799 -0.5773  0.4840 -0.2020
 6560SOL    HW131142   4.586   2.049   4.875 -2.0918 -1.5848  1.2756
 6560SOL    HW231143   4.597   1.998   4.743  0.1832  1.1845  0.2307
 6561SOL     OW31144   4.698   2.118   6.387  0.1187 -0.4695 -0.4099
 6561SOL    HW131145   4.651   2.201   6.400  2.1059  1.0914 -3.1512
 6561SOL    HW231146   0.026   2.118   6.468  1.1564 -0.9789 -1.0561
 6562SOL     OW31147   2.145   1.203  11.874  0.7395 -0.4651 -0.1517
 6562SOL    HW131148   2.123   1.211  11.781 -0.6149  0.7666  0.2751
 6562SOL    HW231149   2.175   1.290  11.898  0.0278 -0.2154 -0.1656
 6563SOL     OW31150   1.100   3.288   0.383  0.1110 -0.0891 -0.4822
 6563SOL    HW131151   1.176   3.259   0.434  1.7051  2.7524 -1.2762
 6563SOL    HW231152   1.032   3.223   0.401 -0.5856  0.7088 -0.2880
 6564SOL     OW31153   4.137   4.416   5.968 -0.4784  0.3899  0.1241
 6564SOL    HW131154   4.192   4.342   5.994 -1.0906  0.5110  1.7799
 6564SOL    HW231155   4.067   4.412   6.032 -0.7560 -2.2192 -0.3410
 6565SOL     OW31156   1.607   0.942   4.507  0.4618  0.2948  0.1985
 6565SOL    HW131157   1.554   0.886   4.450 -0.9496 -0.8960  2.6823
 6565SOL    HW231158   1.561   1.025   4.522 -0.2356 -0.0244 -0.1707
 6566SOL     OW31159   3.104   0.630   6.651  0.2002  0.1072  0.0368
 6566SOL    HW131160   3.021   0.648   6.696  1.7758  0.3177  2.8761
 6566SOL    HW231161   3.092   0.545   6.608  0.4193  0.8942 -1.5459
 6567SOL     OW31162   2.040   2.735   4.933  0.2840 -0.1881 -0.4837
 6567SOL    HW131163   2.081   2.811   4.890 -0.2391 -0.4843 -1.5060
 6567SOL    HW231164   2.119   2.703   4.976  0.6113  1.6081  0.2520
 6568SOL     OW31165   2.896   3.390   1.014  0.0078 -0.2078 -0.4962
 6568SOL    HW131166   2.873   3.333   1.088 -2.5099  1.2011 -0.2034
 6568SOL    HW231167   2.909   3.318   0.952 -1.0315  1.3952 -2.5579
 6569SOL     OW31168   1.811   2.336   3.680  0.7465  0.3898 -1.0098
 6569SOL    HW131169   1.845   2.259   3.727 -1.2043 -0.0956 -0.4128
 6569SOL    HW231170   1.718   2.320   3.692  0.7035 -0.2078 -2.1637
 6570SOL     OW31171   3.192   3.382  12.078 -0.3387 -0.2139  0.4967
 6570SOL    HW131172   3.258   3.316  12.101  0.9644  0.5275 -1.1386
 6570SOL    HW231173   3.157   3.381  12.167  0.7824 -1.1740  0.9383
 6571SOL     OW31174   2.386   4.183   8.268  0.6996 -0.0001  0.5870
 6571SOL    HW131175   2.482   4.176   8.262  0.7218  1.2198 -0.5444
 6571SOL    HW231176   2.375   4.268   8.225 -1.1576 -0.2310  0.6369
 6572SOL     OW31177   1.463   2.192   6.563  0.1111  0.0707  0.1232
 6572SOL    HW131178   1.528   2.187   6.493 -1.8862  1.7903 -1.8262
 6572SOL    HW231179   1.426   2.105   6.549 -0.7133  0.4324  0.0832
 6573SOL     OW31180   1.711   0.392   6.154 -1.0516  0.0299  0.4207
 6573SOL    HW131181   1.711   0.388   6.250 -0.5085  0.4211  0.4413
 6573SOL    HW231182   1.623   0.426   6.141 -1.1295 -0.3115  0.0813
 6574SOL     OW31183   2.570   0.266   2.152 -0.2157  0.2738  0.1286
 6574SOL    HW131184   2.634   0.196   2.136  1.6578  1.8542  0.7795
 6574SOL    HW231185   2.518   0.270   2.072  0.7190 -0.5817 -0.5273
 6575SOL     OW31186   3.962   2.018   3.772 -0.1443  0.3125 -0.0853
 6575SOL    HW131187   3.930   2.087   3.829  0.2787  1.7078 -1.5385
 6575SOL    HW231188   4.051   2.012   3.807  0.3060  1.4305 -1.0305
 6576SOL     OW31189   3.462   1.105  12.138  0.1825 -0.3372 -0.1099
 6576SOL    HW131190   3.426   1.074  12.055 -0.4770 -0.5244  0.2467
 6576SOL    HW231191   3.384   1.115  12.193 -0.0058 -1.2009 -0.2298
 6577SOL     OW31192   4.004   2.422   1.137  0.0991 -0.2655 -0.1322
 6577SOL    HW131193   4.032   2.505   1.175  0.5431  0.3296 -1.7216
 6577SOL    HW231194   4.077   2.361   1.136 -2.3181 -3.1881 -0.5232
 6578SOL     OW31195   3.932   0.826   2.726 -0.1263 -0.0791  0.5158
 6578SOL    HW131196   3.962   0.910   2.689 -1.2137 -0.3177 -0.9077
 6578SOL    HW231197   3.964   0.769   2.656  0.8895  0.4697  0.5207
 6579SOL     OW31198   0.696   0.424   8.433 -0.0741 -0.0058 -0.4873
 6579SOL    HW131199   0.759   0.410   8.503  0.0646  1.0439 -0.4066
 6579SOL    HW231200   0.635   0.365   8.478  0.6914 -0.3425  0.1008
 6580SOL     OW31201   3.827   4.442   7.684 -0.0430  0.0320  0.2125
 6580SOL    HW131202   3.791   4.416   7.769 -0.6466 -0.9063 -0.3425
 6580SOL    HW231203   3.852   4.533   7.700 -1.1767  0.6246 -1.4473
 6581SOL     OW31204   2.186   1.554   1.303  0.4008  0.3796 -0.7895
 6581SOL    HW131205   2.107   1.597   1.337  0.0288 -0.2467 -0.8723
 6581SOL    HW231206   2.195   1.574   1.210  3.1022  0.5791 -0.4968
 6582SOL     OW31207   3.081   1.654   8.194  0.3249  0.0491 -0.2705
 6582SOL    HW131208   3.072   1.648   8.098  0.4331 -0.0596 -0.2755
 6582SOL    HW231209   3.002   1.695   8.228  1.7077  3.6013 -1.3312
 6583SOL     OW31210   2.585   0.876   5.789 -0.3502  0.0894  0.3666
 6583SOL    HW131211   2.680   0.871   5.800 -0.2635  0.6723 -0.0962
 6583SOL    HW231212   2.561   0.788   5.758 -1.7008  0.4420  0.4190
 6584SOL     OW31213   1.603   0.910  10.878 -0.2232  0.2607 -0.1834
 6584SOL    HW131214   1.585   0.963  10.800 -0.7807 -0.5197 -0.5864
 6584SOL    HW231215   1.589   0.819  10.853  1.2780 -0.0133 -0.0421
 6585SOL     OW31216   0.405   0.605  17.064 -0.0200 -0.1285  0.1829
 6585SOL    HW131217   0.456   0.584  17.142 -3.1702 -1.1402  1.9793
 6585SOL    HW231218   0.471   0.649  17.011 -0.5672  1.3819  0.7737
 6586SOL     OW31219   0.046   1.505   7.228 -0.0410  0.2353 -0.3346
 6586SOL    HW131220   0.112   1.564   7.263 -0.4552  0.7830 -0.4875
 6586SOL    HW231221   4.713   1.512   7.305 -1.0170  0.2321 -1.0562
 6587SOL     OW31222   0.062   1.988   8.370  0.9348 -0.1762  0.2803
 6587SOL    HW131223   0.121   1.936   8.425  1.0315  0.6534  0.9598
 6587SOL    HW231224   4.708   2.002   8.423 -0.0767 -1.2551 -0.9136
 6588SOL     OW31225   1.192   3.386  10.319 -0.1991  0.0284  0.3325
 6588SOL    HW131226   1.098   3.372  10.333 -0.0035 -0.0471  1.5268
 6588SOL    HW231227   1.220   3.295  10.331 -1.4334 -0.7294 -2.4288
 6589SOL     OW31228   2.043   4.624   4.114  0.3203  0.3610 -0.2548
 6589SOL    HW131229   2.048   4.714   4.148 -1.0557  0.0660  0.7184
 6589SOL    HW231230   2.105   4.581   4.174 -1.0481  0.1677  1.0274
 6590SOL     OW31231   3.693   1.530   7.815  0.6899 -0.2685  0.1187
 6590SOL    HW131232   3.699   1.567   7.727  0.9009  0.2285  0.3426
 6590SOL    HW231233   3.743   1.449   7.805  1.8674  0.2095  2.0777
 6591SOL     OW31234   4.626   1.872   7.296  0.2262 -0.1806  0.0084
 6591SOL    HW131235   4.622   1.830   7.382 -0.3389  2.0757  1.0893
 6591SOL    HW231236   4.684   1.815   7.246 -0.6642  0.4001 -1.6910
 6592SOL     OW31237   2.796   1.563  17.406  0.0931  0.3200 -0.3304
 6592SOL    HW131238   2.794   1.468  17.396 -2.1516  0.4273 -0.8214
 6592SOL    HW231239   2.710   1.578  17.445  0.1252 -3.0332  1.0469
 6593SOL     OW31240   0.923   1.971   1.931  0.4075 -1.0135 -0.3642
 6593SOL    HW131241   0.854   2.005   1.874  0.2651 -1.0301 -0.2023
 6593SOL    HW231242   0.870   1.936   2.003  2.1366  2.6211  2.6381
 6594SOL     OW31243   2.853   3.575   9.027  0.0857 -0.7247 -0.0299
 6594SOL    HW131244   2.794   3.507   8.997 -2.1272  1.9198 -1.6644
 6594SOL    HW231245   2.932   3.567   8.973 -0.3537 -1.2000 -0.6000
 6595SOL     OW31246   0.495   0.535   6.214 -0.0872  0.1627  0.3029
 6595SOL    HW131247   0.590   0.545   6.215  0.0976 -1.1611 -2.6284
 6595SOL    HW231248   0.494   0.452   6.166  0.1603  0.5371 -0.3523
 6596SOL     OW31249   3.707   1.322   4.469  0.5990  0.1041  0.1667
 6596SOL    HW131250   3.755   1.359   4.395 -1.5713  1.5758 -0.5026
 6596SOL    HW231251   3.747   1.236   4.481  1.0303  0.0434 -1.7899
 6597SOL     OW31252   0.300   4.644   3.245  0.3450  0.2537 -0.1303
 6597SOL    HW131253   0.356   4.591   3.301 -0.5412 -0.6430 -0.0889
 6597SOL    HW231254   0.356   4.666   3.170  0.8385 -0.4513  0.0341
 6598SOL     OW31255   2.696   4.170   7.617 -0.2363  0.8950 -0.5178
 6598SOL    HW131256   2.770   4.127   7.661  0.4010  1.5099 -1.0016
 6598SOL    HW231257   2.669   4.110   7.547  1.3175  2.0312 -2.0832
 6599SOL     OW31258   0.535   4.169  10.995  0.5832  0.0435  0.6424
 6599SOL    HW131259   0.491   4.093  11.034  2.3961 -0.8854  0.8963
 6599SOL    HW231260   0.496   4.177  10.908 -0.1021  1.4864  1.0831
 6600SOL     OW31261   2.030   1.042   0.781 -0.1085  0.0092  0.0208
 6600SOL    HW131262   1.946   1.014   0.818 -0.2659  0.1350 -0.2362
 6600SOL    HW231263   1.989   1.121   0.744 -0.4245 -0.4493 -0.6058
 6601SOL     OW31264   2.677   2.202  15.401 -0.3937  0.6677 -0.2559
 6601SOL    HW131265   2.603   2.261  15.414 -0.5918  0.5354 -0.7939
 6601SOL    HW231266   2.749   2.236  15.454 -0.4986  0.2709  0.1387
 6602SOL     OW31267   4.259   0.345   6.500  0.0696  0.1083  0.1581
 6602SOL    HW131268   4.300   0.262   6.524 -2.1266 -0.6596  1.1597
 6602SOL    HW231269   4.335   0.395   6.530 -0.0999  0.0647  0.6568
 6603SOL     OW31270   4.348   2.931   6.322 -0.5895 -0.9029 -0.6629
 6603SOL    HW131271   4.411   2.980   6.375 -1.1027 -0.7104 -0.2297
 6603SOL    HW231272   4.348   2.972   6.235 -0.3234  4.0105  1.6321
 6604SOL     OW31273   2.135   2.113   5.036  0.0937  0.0139 -0.0857
 6604SOL    HW131274   2.223   2.075   5.037 -0.8852 -2.3252 -1.2908
 6604SOL    HW231275   2.138   2.184   5.100 -0.8720  1.1738 -1.3394
 6605SOL     OW31276   2.419   0.897   0.750  0.0864 -0.2684 -0.1646
 6605SOL    HW131277   2.471   0.826   0.712  1.2304  0.1290  0.6282
 6605SOL    HW231278   2.385   0.945   0.675  0.7416 -0.7472 -0.7749
 6606SOL     OW31279   2.272   1.230  15.320 -0.6093  0.3850 -0.8323
 6606SOL    HW131280   2.257   1.138  15.298  0.5988 -0.5948  2.3495
 6606SOL    HW231281   2.226   1.246  15.403 -0.1024 -1.4717 -0.1824
 6607SOL     OW31282   0.958   4.098  15.364 -0.2757 -0.0957  0.2336
 6607SOL    HW131283   0.997   4.020  15.325 -1.2204  0.2046 -1.3097
 6607SOL    HW231284   0.867   4.070  15.365 -0.3825  0.2321 -0.6234
 6608SOL     OW31285   3.382   0.050  10.655  0.2108 -0.0817 -0.2772
 6608SOL    HW131286   3.293   0.080  10.678 -0.1619 -1.5614  0.2311
 6608SOL    HW231287   3.370   0.003  10.572  0.1006 -0.7488  0.1092
 6609SOL     OW31288   0.460   3.766  12.102 -0.1707 -0.0360 -0.4310
 6609SOL    HW131289   0.412   3.818  12.166  0.3517  2.9744 -2.4592
 6609SOL    HW231290   0.438   3.815  12.022 -0.9130  0.1038 -0.1434
 6610SOL     OW31291   1.263   1.707   6.338 -0.3186 -0.6439  0.0917
 6610SOL    HW131292   1.175   1.678   6.362  0.3236 -1.8156  1.0171
 6610SOL    HW231293   1.322   1.639   6.370 -1.7388 -1.9363 -0.0143
 6611SOL     OW31294   0.392   3.637   8.132  0.5266 -0.1404 -0.3939
 6611SOL    HW131295   0.376   3.694   8.057 -0.1844  0.9251  0.5679
 6611SOL    HW231296   0.369   3.691   8.208  0.5310 -1.0672  0.2713
 6612SOL     OW31297   2.495   4.564   6.505 -0.5681 -0.2381  0.1043
 6612SOL    HW131298   2.577   4.543   6.549  1.0941 -0.0054 -2.8503
 6612SOL    HW231299   2.448   4.481   6.507 -0.4398 -0.3053  0.3697
 6613SOL     OW31300   3.042   2.745   2.404 -0.1558  0.0474 -0.3888
 6613SOL    HW131301   3.056   2.709   2.491  0.2841 -1.5798 -1.1265
 6613SOL    HW231302   3.131   2.757   2.372 -0.4750  1.3263 -0.8132
 6614SOL     OW31303   2.418   0.427  13.226 -0.4208 -0.1364 -0.1641
 6614SOL    HW131304   2.369   0.466  13.298  0.1244  1.9230 -0.9150
 6614SOL    HW231305   2.379   0.461  13.145  0.5295  2.0050  0.2736
 6615SOL     OW31306   1.071   2.587  15.382  1.0257 -1.0425 -0.4101
 6615SOL    HW131307   1.064   2.507  15.330 -0.7744 -1.4291  0.4216
 6615SOL    HW231308   1.163   2.587  15.409  0.6537 -1.2680  0.8248
 6616SOL     OW31309   2.295   0.635  17.143  0.4999  0.0670  0.1277
 6616SOL    HW131310   2.297   0.540  17.158  3.5040  0.2330  0.8486
 6616SOL    HW231311   2.379   0.644  17.097 -0.0914  0.5158 -0.8418
 6617SOL     OW31312   4.630   4.108   4.490  0.5300 -0.4234  0.3310
 6617SOL    HW131313   4.661   4.191   4.526 -2.8245  1.4209 -0.9772
 6617SOL    HW231314   4.542   4.130   4.459  0.5915  0.3739  0.7376
 6618SOL     OW31315   2.400   1.582   7.834  0.2916  0.4701 -0.2533
 6618SOL    HW131316   2.398   1.677   7.837 -1.9533  0.3905  0.3297
 6618SOL    HW231317   2.492   1.564   7.855 -0.0347 -0.7075  0.1836
 6619SOL     OW31318   0.307   1.214   4.675  0.3562 -0.4081 -0.0746
 6619SOL    HW131319   0.279   1.200   4.585  1.2235  0.8539 -0.5448
 6619SOL    HW231320   0.220   1.233   4.710  0.0404 -0.6531 -0.7379
 6620SOL     OW31321   2.395   0.224   6.829  0.1221  0.7769  0.0718
 6620SOL    HW131322   2.388   0.283   6.753 -0.0147  0.7055  0.0294
 6620SOL    HW231323   2.304   0.228   6.858 -0.3753 -0.7981 -1.2454
 6621SOL     OW31324   1.698   0.847   9.061 -0.0964 -0.1948 -0.1762
 6621SOL    HW131325   1.657   0.928   9.091  2.7881  0.4060  2.1247
 6621SOL    HW231326   1.704   0.868   8.968 -0.6929  0.6466 -0.0274
 6622SOL     OW31327   1.879   1.099   1.065 -0.6334  0.0905 -0.2043
 6622SOL    HW131328   1.950   1.162   1.075 -0.5448 -0.1888  0.9144
 6622SOL    HW231329   1.908   1.044   1.138 -0.8837  1.2705  0.7837
 6623SOL     OW31330   0.300   1.992   7.374 -0.0895  0.2513 -0.6239
 6623SOL    HW131331   0.306   1.906   7.333 -0.5566 -1.0433  2.0122
 6623SOL    HW231332   0.374   1.988   7.435  0.8274  2.0349 -1.5967
 6624SOL     OW31333   0.070   4.307   6.237 -0.2859  0.2629  0.3444
 6624SOL    HW131334   0.086   4.214   6.225 -0.2045  0.2786  0.3311
 6624SOL    HW231335   4.712   4.319   6.187 -0.1000  1.0247  0.2146
 6625SOL     OW31336   3.412   0.894   3.583  0.4812 -0.0114 -0.2455
 6625SOL    HW131337   3.350   0.967   3.579 -0.0451 -0.3689  1.5678
 6625SOL    HW231338   3.347   0.824   3.577  1.8750 -1.1946 -1.7496
 6626SOL     OW31339   4.322   4.621   7.520  0.6103 -0.2926 -0.1012
 6626SOL    HW131340   4.298   4.620   7.613  1.4496 -1.9201  0.0848
 6626SOL    HW231341   4.238   4.615   7.475 -0.0107  0.9819  0.8484
 6627SOL     OW31342   2.603   4.464   5.926  0.0839 -0.3892 -0.1355
 6627SOL    HW131343   2.633   4.495   6.011 -0.3816 -0.3277  0.0105
 6627SOL    HW231344   2.531   4.405   5.947 -0.5119  0.7657  1.1069
 6628SOL     OW31345   0.252   1.241   4.422 -1.0079 -0.2524 -0.5415
 6628SOL    HW131346   0.277   1.334   4.428  0.3620 -0.7102  0.9000
 6628SOL    HW231347   0.282   1.210   4.337  0.8839  2.3098 -0.8002
 6629SOL     OW31348   1.467   2.855  12.080  0.1829  0.2763  0.2960
 6629SOL    HW131349   1.459   2.762  12.102 -0.0466  0.3170  0.3835
 6629SOL    HW231350   1.510   2.851  11.995  0.6320 -1.5651  0.5953
 6630SOL     OW31351   2.623   2.593   6.284 -0.0930 -0.5375 -0.8509
 6630SOL    HW131352   2.623   2.568   6.376  1.4977 -0.2768 -0.7858
 6630SOL    HW231353   2.602   2.507   6.248 -0.3274 -0.5863 -0.6006
 6631SOL     OW31354   4.388   1.409  11.641 -0.0363  0.2024 -0.5419
 6631SOL    HW131355   4.448   1.407  11.567  1.3240  0.5255  0.5500
 6631SOL    HW231356   4.326   1.477  11.615 -0.2127 -1.2064 -3.7231
 6632SOL     OW31357   1.511   1.978   7.651  0.0352 -0.3337 -0.4272
 6632SOL    HW131358   1.490   1.936   7.568  2.0771 -2.5352  0.1602
 6632SOL    HW231359   1.560   2.056   7.626 -1.3852  0.8468  0.5352
 6633SOL     OW31360   3.253   4.630   2.146  0.4540  0.2880 -0.2309
 6633SOL    HW131361   3.206   4.547   2.134 -1.5064  1.3413  0.1682
 6633SOL    HW231362   3.341   4.601   2.123  0.3106 -0.3938  0.0583
 6634SOL     OW31363   4.550   3.504   7.779  0.0597  0.7478  0.1065
 6634SOL    HW131364   4.631   3.455   7.767 -1.7269 -1.5709 -2.4510
 6634SOL    HW231365   4.574   3.570   7.844  1.7172  0.2672 -0.0259
 6635SOL     OW31366   3.360   3.329   8.343  0.3591  0.0582  0.8963
 6635SOL    HW131367   3.326   3.382   8.415 -0.1413  1.1424 -0.1420
 6635SOL    HW231368   3.407   3.260   8.390  2.3450  0.9035  0.1813
 6636SOL     OW31369   1.120   0.889  17.511  0.8829 -0.2677  0.0905
 6636SOL    HW131370   1.214   0.895  17.490  0.9436  1.1359  0.7456
 6636SOL    HW231371   1.122   0.891  17.606 -0.5145 -1.0000  0.1265
 6637SOL     OW31372   4.336   3.078   9.021  0.2733 -0.6587  0.3185
 6637SOL    HW131373   4.260   3.135   9.016 -0.4697 -1.5899  0.8900
 6637SOL    HW231374   4.336   3.064   9.116 -0.4347  0.8801  0.5383
 6638SOL     OW31375   3.958   2.396   0.655 -0.5815 -0.4753  0.1021
 6638SOL    HW131376   4.026   2.427   0.715 -1.4254  4.5581 -1.5736
 6638SOL    HW231377   3.950   2.467   0.591  0.2028  0.1780  0.7221
 6639SOL     OW31378   1.042   2.975   6.389  0.6166 -0.0394 -0.3147
 6639SOL    HW131379   1.075   3.029   6.461 -1.4498  0.5057  0.2197
 6639SOL    HW231380   1.031   2.887   6.426  1.6928  0.8976  2.2891
 6640SOL     OW31381   1.179   3.032   7.393 -0.2798  0.0874  0.0763
 6640SOL    HW131382   1.228   2.974   7.335  0.0733  0.4236  0.0373
 6640SOL    HW231383   1.254   3.077   7.431 -0.7192  1.4100 -0.6155
 6641SOL     OW31384   4.531   3.569   1.997  0.1492 -0.1648 -0.1150
 6641SOL    HW131385   4.518   3.647   1.943 -0.7472 -1.7900 -2.2482
 6641SOL    HW231386   4.443   3.532   1.990 -0.2415  0.7348 -0.0021
 6642SOL     OW31387   0.170   3.915   5.623  0.4773 -0.0291 -0.5027
 6642SOL    HW131388   0.224   3.943   5.698  1.1902  1.3333 -1.5287
 6642SOL    HW231389   0.105   3.985   5.634 -0.1957 -0.7346 -0.0505
 6643SOL     OW31390   3.754   0.227   8.802 -0.1162  0.1128  0.3795
 6643SOL    HW131391   3.742   0.263   8.714 -2.5856  2.0756  1.4882
 6643SOL    HW231392   3.693   0.154   8.792  0.4838 -0.1077 -1.5238
 6644SOL     OW31393   1.195   3.685   7.897  0.3015 -1.1269 -0.3064
 6644SOL    HW131394   1.117   3.730   7.929  0.1201 -0.8208 -1.2032
 6644SOL    HW231395   1.171   3.597   7.925  0.4826 -0.7997  0.9089
 6645SOL     OW31396   1.265   1.600  13.083 -0.2334  0.1907 -0.4092
 6645SOL    HW131397   1.205   1.595  13.009  0.5495  0.6984 -1.0778
 6645SOL    HW231398   1.197   1.606  13.150  2.2988 -0.0742  2.2002
 6646SOL     OW31399   1.014   4.451   4.170  0.0958  0.3278 -0.0238
 6646SOL    HW131400   0.967   4.373   4.140  0.3097  0.4049 -0.5746
 6646SOL    HW231401   1.019   4.427   4.262 -1.9162  0.2661  0.0721
 6647SOL     OW31402   3.499   3.492   6.193  0.4948  0.3500 -0.2696
 6647SOL    HW131403   3.529   3.460   6.108  0.9831 -1.3386  0.5355
 6647SOL    HW231404   3.458   3.576   6.172  0.9491  1.4051  3.0278
 6648SOL     OW31405   1.260   0.550  13.224 -0.2509 -0.1889 -0.4400
 6648SOL    HW131406   1.303   0.596  13.152  1.5360 -1.4247 -0.1756
 6648SOL    HW231407   1.324   0.480  13.237  0.7197  0.5266 -1.3961
 6649SOL     OW31408   1.581   1.595  11.708 -0.2249  0.3118 -0.1827
 6649SOL    HW131409   1.653   1.576  11.648  2.1405  2.3999  1.9769
 6649SOL    HW231410   1.551   1.509  11.736  0.2771 -0.0071 -0.6215
 6650SOL     OW31411   1.341   2.523  15.215 -0.0633 -0.0695  0.3248
 6650SOL    HW131412   1.281   2.458  15.178 -0.1503  1.9784 -3.1393
 6650SOL    HW231413   1.421   2.476  15.191  0.3694  1.0033 -0.3259
 6651SOL     OW31414   2.219   3.129   3.793  0.1983 -0.0798 -0.0764
 6651SOL    HW131415   2.208   3.043   3.752  0.8353  0.3105 -1.0717
 6651SOL    HW231416   2.315   3.134   3.799  0.1664  1.1105 -0.6497
 6652SOL     OW31417   2.758   4.206   7.076 -0.2555 -0.2887  0.3894
 6652SOL    HW131418   2.850   4.182   7.076 -0.0503  0.4955  0.9218
 6652SOL    HW231419   2.724   4.116   7.078  2.3939 -1.2908  1.0409
 6653SOL     OW31420   3.910   2.165   0.504 -0.0851 -0.5765 -0.1258
 6653SOL    HW131421   3.860   2.112   0.566 -1.3771  1.1098  0.2738
 6653SOL    HW231422   3.946   2.240   0.552  0.0381  0.2272 -1.4519
 6654SOL     OW31423   3.970   3.225   9.496 -0.0276 -0.5303  0.3376
 6654SOL    HW131424   4.044   3.267   9.540  0.6141  0.2728 -1.5066
 6654SOL    HW231425   4.004   3.206   9.408 -0.8980  1.8900 -0.5156
 6655SOL     OW31426   3.337   4.199   6.438 -0.1242  0.1051  0.5888
 6655SOL    HW131427   3.384   4.215   6.356 -0.0670  0.0532  0.6113
 6655SOL    HW231428   3.253   4.239   6.414 -0.7420 -3.0915 -2.6702
 6656SOL     OW31429   1.120   4.168   6.982 -0.1068 -0.4614  0.4651
 6656SOL    HW131430   1.215   4.167   6.993  0.0991  2.8330 -1.2533
 6656SOL    HW231431   1.103   4.091   6.928 -0.4583  0.4681 -0.7526
 6657SOL     OW31432   4.305   2.307   9.115  0.3043  0.3862 -0.5213
 6657SOL    HW131433   4.302   2.287   9.022  0.8236 -2.1367 -0.0038
 6657SOL    HW231434   4.219   2.348   9.123 -0.3758 -0.9352 -0.9912
 6658SOL     OW31435   4.009   2.404   9.228  0.0460  0.2084  0.1291
 6658SOL    HW131436   4.002   2.335   9.295 -2.7563 -0.8617 -1.2866
 6658SOL    HW231437   3.950   2.388   9.156  2.1524  2.3390 -2.0828
 6659SOL     OW31438   3.197   0.609   9.944  0.3426  0.5475 -0.7167
 6659SOL    HW131439   3.189   0.518   9.915  1.4900  0.2217 -0.0217
 6659SOL    HW231440   3.291   0.618   9.929  0.7640  1.4263  2.3940
 6660SOL     OW31441   4.213   1.221   6.531  0.1519  0.6879 -0.2690
 6660SOL    HW131442   4.238   1.165   6.458  0.4026  0.8058 -0.2738
 6660SOL    HW231443   4.158   1.163   6.585  0.9703  0.8390  0.7294
 6661SOL     OW31444   3.109   0.653   3.313 -0.2652 -0.4009  0.8643
 6661SOL    HW131445   3.040   0.590   3.295 -1.8001  1.7737 -0.7634
 6661SOL    HW231446   3.086   0.742   3.285 -1.0514 -1.1247 -0.7798
 6662SOL     OW31447   1.994   1.734   6.185 -0.0921 -0.2610  0.1732
 6662SOL    HW131448   1.979   1.810   6.128  2.8118 -1.1528 -1.8155
 6662SOL    HW231449   1.905   1.704   6.203 -0.6553  0.4379 -1.4359
 6663SOL     OW31450   0.508   3.417  11.347 -0.0804 -0.2839 -0.0800
 6663SOL    HW131451   0.524   3.511  11.343 -1.8152  0.1050  2.2777
 6663SOL    HW231452   0.583   3.391  11.401  1.6934  1.5711 -1.6484
 6664SOL     OW31453   1.329   3.567   1.771 -0.1128 -0.1638 -0.4992
 6664SOL    HW131454   1.242   3.527   1.780  0.3532 -0.9227  0.6834
 6664SOL    HW231455   1.353   3.581   1.862 -1.3620 -1.1801 -0.0086
 6665SOL     OW31456   2.325   2.510  10.597  0.0581  0.4938  0.4374
 6665SOL    HW131457   2.340   2.595  10.637 -1.1493  1.7275 -1.7386
 6665SOL    HW231458   2.256   2.539  10.539 -0.2666  0.1773  0.6652
 6666SOL     OW31459   2.430   0.336   5.201  0.5770 -0.0780 -0.1880
 6666SOL    HW131460   2.442   0.315   5.109 -1.7000 -1.7810 -0.0847
 6666SOL    HW231461   2.437   0.432   5.196 -0.2895 -0.0708 -1.2152
 6667SOL     OW31462   0.407   0.965   4.754  0.6481 -0.1796 -0.0749
 6667SOL    HW131463   0.395   1.054   4.724  3.4325  0.2596  0.0694
 6667SOL    HW231464   0.462   0.971   4.832  0.2885  2.3538 -0.0195
 6668SOL     OW31465   0.913   3.292  11.158 -0.5063 -0.3681  0.2085
 6668SOL    HW131466   0.843   3.314  11.096 -0.6489 -1.8297 -0.1491
 6668SOL    HW231467   0.977   3.361  11.138  0.7013 -1.2499  1.0200
 6669SOL     OW31468   0.106   3.693   4.018  0.2909 -0.4656 -0.0285
 6669SOL    HW131469   0.023   3.691   4.066  0.8836  2.6467  1.0604
 6669SOL    HW231470   0.165   3.683   4.093  1.0388  1.9794 -0.3097
 6670SOL     OW31471   3.915   1.410  17.515  0.0697 -0.5703 -0.0121
 6670SOL    HW131472   3.996   1.366  17.541  0.0896 -0.0288  0.8264
 6670SOL    HW231473   3.861   1.336  17.488  1.2436 -1.5073  0.2035
 6671SOL     OW31474   3.227   1.663  12.274 -0.0928  0.6445 -0.2364
 6671SOL    HW131475   3.135   1.689  12.269 -0.1209  0.4956 -0.5112
 6671SOL    HW231476   3.255   1.645  12.184 -1.5462 -1.7105 -0.2361
 6672SOL     OW31477   0.392   3.586   4.140  0.2763 -0.2154  0.2095
 6672SOL    HW131478   0.359   3.554   4.224  0.8669  0.1614  0.5863
 6672SOL    HW231479   0.434   3.506   4.109  0.1567  0.2593 -1.1752
 6673SOL     OW31480   4.452   2.052  11.360  0.4624 -0.1652  0.2676
 6673SOL    HW131481   4.464   2.146  11.352  0.7902 -0.1747  0.6698
 6673SOL    HW231482   4.360   2.046  11.335  0.7112 -0.8817 -0.4946
 6674SOL     OW31483   0.369   4.311  13.024 -0.3610  0.1344  0.6560
 6674SOL    HW131484   0.356   4.362  13.104 -0.5559 -1.0265  1.3544
 6674SOL    HW231485   0.443   4.361  12.987 -0.8766  0.8300  0.5686
 6675SOL     OW31486   1.755   2.453   2.374 -0.0761  0.8902 -0.3593
 6675SOL    HW131487   1.805   2.517   2.325  0.1547 -0.2821 -1.6544
 6675SOL    HW231488   1.669   2.494   2.360 -1.0491 -2.2397 -3.4201
 6676SOL     OW31489   3.303   3.472   8.114 -0.2467  0.0390  0.0975
 6676SOL    HW131490   3.209   3.482   8.130 -0.0129 -0.1305  1.5735
 6676SOL    HW231491   3.333   3.412   8.182  2.4578  0.2550 -0.9032
 6677SOL     OW31492   0.158   2.641   0.374 -0.1466 -0.2531  0.4655
 6677SOL    HW131493   0.065   2.629   0.354 -0.0348  1.6041 -1.1146
 6677SOL    HW231494   0.178   2.705   0.306  2.6647  0.0733  1.5913
 6678SOL     OW31495   0.234   1.337   7.904 -0.1070  0.0773  0.4262
 6678SOL    HW131496   0.226   1.424   7.944 -2.7378 -0.2395  0.5803
 6678SOL    HW231497   0.261   1.285   7.980 -2.8003 -3.5707 -1.0910
 6679SOL     OW31498   4.349   1.432   9.610 -0.0838  0.5967  0.7342
 6679SOL    HW131499   4.416   1.365   9.623 -1.0474 -0.8511 -1.6691
 6679SOL    HW231500   4.338   1.461   9.700  0.0853  0.7807  0.6951
 6680SOL     OW31501   2.068   4.658   0.524  0.1615 -0.8671  0.0050
 6680SOL    HW131502   1.985   4.693   0.493  1.8595  3.0046 -0.2803
 6680SOL    HW231503   2.131   4.676   0.454  0.2225 -0.8692  0.0596
 6681SOL     OW31504   3.162   2.308   4.141 -0.4152 -0.3205  0.8634
 6681SOL    HW131505   3.176   2.289   4.049  1.9149  3.2032  0.4728
 6681SOL    HW231506   3.234   2.255   4.175 -0.7139 -2.5926 -2.1367
 6682SOL     OW31507   1.653   3.588  14.036 -0.2266 -0.1201 -0.2121
 6682SOL    HW131508   1.682   3.497  14.044 -0.2615 -0.1426 -0.3401
 6682SOL    HW231509   1.717   3.633  14.091  0.9526  1.0085 -2.5437
 6683SOL     OW31510   3.023   2.192   9.018 -0.0696  0.4130  0.0235
 6683SOL    HW131511   2.975   2.208   8.937  2.8351 -0.6786 -1.9322
 6683SOL    HW231512   3.062   2.104   9.021 -1.2654 -0.1049  0.3826
 6684SOL     OW31513   4.597   1.335   0.490  0.3833  0.0136  0.0559
 6684SOL    HW131514   4.652   1.284   0.550 -1.2468 -0.6266  1.0238
 6684SOL    HW231515   4.509   1.300   0.507  0.3521  0.5498  0.9990
 6685SOL     OW31516   0.049   2.726   8.964 -0.3793 -0.3869  0.4183
 6685SOL    HW131517   4.699   2.667   8.983 -1.4040 -0.0420 -2.4549
 6685SOL    HW231518   0.017   2.809   8.999  1.7983  0.9859 -0.8985
 6686SOL     OW31519   4.316   1.786   3.748  0.2811  0.2814 -0.0483
 6686SOL    HW131520   4.294   1.872   3.713 -2.4981 -0.3873  0.0721
 6686SOL    HW231521   4.352   1.811   3.833 -0.8031 -0.2472  0.5716
 6687SOL     OW31522   3.578   3.164   3.836 -0.0162 -0.1071 -0.1177
 6687SOL    HW131523   3.552   3.253   3.813 -0.3086 -0.3719 -0.7969
 6687SOL    HW231524   3.645   3.139   3.772  0.8394  1.0534  0.3268
 6688SOL     OW31525   1.348   2.725   8.065  0.0207  0.4603  0.3454
 6688SOL    HW131526   1.307   2.783   8.130 -0.3698  1.9387 -1.2214
 6688SOL    HW231527   1.306   2.753   7.983 -0.4599  0.8821  0.7311
 6689SOL     OW31528   2.863   3.645   6.221  0.7407 -0.3507 -0.8245
 6689SOL    HW131529   2.785   3.687   6.185 -0.9605 -1.8243  1.2077
 6689SOL    HW231530   2.828   3.610   6.302  2.3382  1.4916  0.6746
 6690SOL     OW31531   2.990   3.799  14.250 -0.3819 -0.2098  0.1144
 6690SOL    HW131532   3.056   3.787  14.318 -0.8174  1.7030  0.8885
 6690SOL    HW231533   3.046   3.824  14.176 -0.6736  0.9350  0.2822
 6691SOL     OW31534   1.445   1.863   4.508  0.2374  0.0274  0.2658
 6691SOL    HW131535   1.448   1.953   4.541  0.5215 -0.5442  1.7747
 6691SOL    HW231536   1.437   1.825   4.595 -1.5688 -1.1480 -0.4077
 6692SOL     OW31537   1.552   4.012   8.079 -0.1747  0.2296 -0.6258
 6692SOL    HW131538   1.500   3.933   8.068 -0.3146  0.0316  1.4171
 6692SOL    HW231539   1.573   4.008   8.172 -0.1527  0.2217 -0.6311
 6693SOL     OW31540   4.567   4.565   0.991 -0.0416  0.2949  0.3557
 6693SOL    HW131541   4.568   4.658   1.014  0.3416  0.3515  0.1034
 6693SOL    HW231542   4.568   4.528   1.079 -2.7180  0.2083  0.3597
 6694SOL     OW31543   4.485   4.268   8.958  0.1355 -0.6303  0.0158
 6694SOL    HW131544   4.409   4.228   8.998 -1.0174 -0.0194 -1.5553
 6694SOL    HW231545   4.528   4.188   8.927 -0.6572 -1.4797  1.1255
 6695SOL     OW31546   4.592   3.875  12.677 -0.0955  0.5862 -0.3326
 6695SOL    HW131547   4.547   3.820  12.741  0.1681 -0.8660 -1.4205
 6695SOL    HW231548   4.557   3.964  12.686 -1.6613  0.0379 -1.0401
 6696SOL     OW31549   2.097   2.666  15.135  0.1863  0.1480  0.0240
 6696SOL    HW131550   2.055   2.722  15.200 -0.2321 -0.6526  0.4405
 6696SOL    HW231551   2.171   2.724  15.118  0.1101  0.9720  2.5253
 6697SOL     OW31552   0.688   1.271   9.546 -0.1338  0.0976 -0.3086
 6697SOL    HW131553   0.756   1.204   9.542  0.3937  0.7006 -1.4331
 6697SOL    HW231554   0.608   1.218   9.542  0.3771 -0.7975  1.6643
 6698SOL     OW31555   3.519   0.816   9.119  0.0066 -0.3824  0.3585
 6698SOL    HW131556   3.510   0.801   9.025  0.7216 -1.4661  0.4605
 6698SOL    HW231557   3.606   0.851   9.098 -1.5748  1.7838 -2.4157
 6699SOL     OW31558   0.423   1.785  14.035  0.1985  0.1229  0.0970
 6699SOL    HW131559   0.491   1.846  14.061 -1.3049  2.3490 -1.2039
 6699SOL    HW231560   0.477   1.709  14.013 -1.0480 -0.2261 -1.8100
 6700SOL     OW31561   2.958   0.195  13.253 -0.1721 -0.0488  0.2654
 6700SOL    HW131562   2.987   0.152  13.334  2.3442 -1.6862 -1.5083
 6700SOL    HW231563   2.870   0.216  13.283 -0.5390  0.1359 -0.9441
 6701SOL     OW31564   0.871   4.310   1.297  0.0625  0.4267  0.0111
 6701SOL    HW131565   0.962   4.284   1.308  1.1035  2.9657 -2.4299
 6701SOL    HW231566   0.884   4.399   1.329 -0.4261  0.3729  0.3605
 6702SOL     OW31567   2.640   3.928   6.414 -0.0416  0.0742 -0.3559
 6702SOL    HW131568   2.606   3.842   6.440  1.0934 -0.7577 -1.6007
 6702SOL    HW231569   2.652   3.917   6.320 -0.9887  2.5587 -0.7624
 6703SOL     OW31570   3.753   3.162   0.141  0.3207 -0.2509 -0.2962
 6703SOL    HW131571   3.795   3.102   0.203  2.3504  0.9150 -0.5496
 6703SOL    HW231572   3.809   3.239   0.148  1.7656 -1.3415  0.2288
 6704SOL     OW31573   2.665   1.316   8.937  0.4604  0.0851  0.9731
 6704SOL    HW131574   2.591   1.255   8.943  0.1690  0.3639  0.2942
 6704SOL    HW231575   2.737   1.272   8.981  0.8072  1.2705  1.5851
 6705SOL     OW31576   0.812   1.039   3.384 -0.2214  0.0278  0.9009
 6705SOL    HW131577   0.903   1.020   3.363  0.2784  0.3413  2.8139
 6705SOL    HW231578   0.776   1.050   3.296  0.4976  1.9225  0.8501
 6706SOL     OW31579   1.876   1.186   2.023  0.1416  0.1504 -0.1253
 6706SOL    HW131580   1.965   1.203   2.055  0.1568  2.1852 -1.1898
 6706SOL    HW231581   1.833   1.138   2.093 -0.5323  0.0772 -0.5972
 6707SOL     OW31582   0.707   3.850   1.638 -0.2384 -0.2068 -0.4092
 6707SOL    HW131583   0.733   3.868   1.548  1.2126 -1.2507 -0.1961
 6707SOL    HW231584   0.648   3.776   1.619 -1.4027  0.1963  1.5919
 6708SOL     OW31585   1.710   4.304   8.312  0.1657 -0.3834  0.0348
 6708SOL    HW131586   1.684   4.212   8.310  1.4410 -0.7593  0.9126
 6708SOL    HW231587   1.670   4.341   8.233 -0.2051 -1.0246 -0.0754
 6709SOL     OW31588   1.104   2.966   4.637  0.5897  0.0836 -0.0323
 6709SOL    HW131589   1.096   2.925   4.724  0.3172 -0.8637 -0.5064
 6709SOL    HW231590   1.181   2.921   4.602 -2.0221 -1.7242 -3.4128
 6710SOL     OW31591   1.512   0.237   3.488  0.1737 -0.3802  0.0304
 6710SOL    HW131592   1.527   0.150   3.451 -0.0854 -0.7575  0.8187
 6710SOL    HW231593   1.460   0.280   3.419  0.1006 -1.9276 -0.8722
 6711SOL     OW31594   0.477   1.677   2.078  0.2246 -0.0945  0.0984
 6711SOL    HW131595   0.486   1.625   2.157  0.8027  2.6608  1.8478
 6711SOL    HW231596   0.566   1.679   2.045 -0.2031  1.2248 -0.9809
 6712SOL     OW31597   4.487   2.610  12.713 -1.2123 -0.3170 -0.2021
 6712SOL    HW131598   4.423   2.562  12.659 -0.3855  0.7396 -2.1369
 6712SOL    HW231599   4.499   2.692  12.665 -0.4679  0.5813  1.5324
 6713SOL     OW31600   0.182   0.696   9.541  0.9241 -0.2109 -0.2773
 6713SOL    HW131601   0.180   0.609   9.500 -0.8918 -1.0488  1.5408
 6713SOL    HW231602   0.270   0.697   9.579  1.1096  0.1478 -0.7269
 6714SOL     OW31603   2.672   1.471   2.506 -0.0588 -0.9000  0.2606
 6714SOL    HW131604   2.745   1.416   2.478  0.3552 -0.0646 -0.2737
 6714SOL    HW231605   2.601   1.443   2.449  2.2379 -2.9505 -1.6091
 6715SOL     OW31606   2.627   1.875  17.221  0.8515 -0.0974 -0.5839
 6715SOL    HW131607   2.675   1.890  17.139  0.6392 -0.8280 -0.8406
 6715SOL    HW231608   2.582   1.958  17.231  1.8952  0.3926  0.0405
 6716SOL     OW31609   4.129   0.978   3.842 -0.5851 -0.1134  0.0551
 6716SOL    HW131610   4.064   1.045   3.862  1.2784  1.9745 -0.7750
 6716SOL    HW231611   4.131   0.998   3.749  3.2274 -0.2646  0.0793
 6717SOL     OW31612   4.433   0.215   9.603 -0.4314 -0.1413 -0.1265
 6717SOL    HW131613   4.496   0.215   9.530  1.5722  0.7600  1.6125
 6717SOL    HW231614   4.363   0.269   9.567  1.7049  0.8056 -2.8939
 6718SOL     OW31615   3.011   2.589   1.126  0.1577 -0.0939 -0.4033
 6718SOL    HW131616   3.065   2.664   1.149  2.2602 -1.5927 -0.4192
 6718SOL    HW231617   2.990   2.606   1.034 -0.0746 -0.2999 -0.3905
 6719SOL     OW31618   2.040   3.732   8.793 -0.6684 -0.2242  0.1134
 6719SOL    HW131619   2.054   3.735   8.888 -0.0077  0.9105 -0.0224
 6719SOL    HW231620   2.117   3.770   8.751 -0.7491 -0.1548  0.0283
 6720SOL     OW31621   2.281   4.614   8.588 -0.4229  0.1841  0.1801
 6720SOL    HW131622   2.293   4.547   8.656 -1.7792  0.8436  1.0789
 6720SOL    HW231623   2.249   4.561   8.515 -2.1525  1.4236  0.0600
 6721SOL     OW31624   3.167   3.785   7.510  0.1803 -0.4364 -0.3961
 6721SOL    HW131625   3.147   3.720   7.577  2.5457 -0.2223  0.5235
 6721SOL    HW231626   3.197   3.865   7.554  0.1100 -0.8477  0.4071
 6722SOL     OW31627   4.716   3.587   6.225 -0.2274  0.1838 -0.1275
 6722SOL    HW131628   0.068   3.625   6.270 -0.1411 -0.5845  0.3867
 6722SOL    HW231629   4.699   3.513   6.283  0.8004 -0.4123 -0.5830
 6723SOL     OW31630   3.604   0.039   4.564  0.4785  0.3924  0.1924
 6723SOL    HW131631   3.673   0.029   4.629 -1.4818 -2.2274  1.8453
 6723SOL    HW231632   3.562   4.678   4.578  0.0252  1.0638  2.8712
 6724SOL     OW31633   3.538   3.630   1.148 -0.9662  0.1407 -0.3101
 6724SOL    HW131634   3.541   3.725   1.135  0.0693  0.2481  0.7273
 6724SOL    HW231635   3.563   3.596   1.062 -2.0399 -0.0548 -0.5448
 6725SOL     OW31636   0.496   1.137   0.582  0.2149 -0.3030 -0.1660
 6725SOL    HW131637   0.437   1.125   0.508  1.9351  1.4326 -1.8420
 6725SOL    HW231638   0.545   1.055   0.576  0.1660 -0.4424  1.3688
 6726SOL     OW31639   4.235   4.590  16.153 -0.1651 -0.8582 -0.4878
 6726SOL    HW131640   4.175   4.638  16.096  1.0299  2.0297  0.6466
 6726SOL    HW231641   4.256   4.647  16.227  1.3561 -0.9723 -0.8319
 6727SOL     OW31642   1.135   0.533   7.814  0.7554 -0.4175  0.3234
 6727SOL    HW131643   1.062   0.580   7.854 -1.1778 -1.2053 -2.2953
 6727SOL    HW231644   1.201   0.585   7.859  0.0517  2.0741 -1.5342
 6728SOL     OW31645   0.500   4.661  12.229 -0.6385  0.1367  0.1900
 6728SOL    HW131646   0.476   4.702  12.146  0.4884 -0.4774 -0.4453
 6728SOL    HW231647   0.582   4.622  12.200 -0.8691 -0.7630  0.7525
 6729SOL     OW31648   2.270   2.139   6.251 -0.0550  0.2131 -0.3685
 6729SOL    HW131649   2.176   2.140   6.264 -0.4287  2.0623 -3.0899
 6729SOL    HW231650   2.291   2.094   6.333  0.5074  1.1080 -0.0181
 6730SOL     OW31651   3.158   2.470   8.822  0.3235 -0.1225 -0.0841
 6730SOL    HW131652   3.187   2.508   8.739 -0.7498  2.0389  0.5403
 6730SOL    HW231653   3.145   2.383   8.784  2.7291 -1.3175  1.8720
 6731SOL     OW31654   2.951   2.280  10.735 -0.2683  0.4371  0.2248
 6731SOL    HW131655   2.955   2.307  10.827  1.6148 -0.1905  0.3253
 6731SOL    HW231656   3.043   2.293  10.713  0.0218 -1.7172  0.1474
 6732SOL     OW31657   2.438   3.297   5.891  0.1891 -0.1300  0.3573
 6732SOL    HW131658   2.396   3.310   5.977 -1.5554 -1.9802 -0.2277
 6732SOL    HW231659   2.385   3.347   5.829  0.6118  0.7067  0.6697
 6733SOL     OW31660   4.358   0.098   9.146 -0.6113 -0.6302 -0.3777
 6733SOL    HW131661   4.280   0.070   9.194 -1.0852  1.4467  0.0795
 6733SOL    HW231662   4.397   0.145   9.219 -2.2780  0.6939 -0.3292
 6734SOL     OW31663   0.204   2.330   4.050 -0.2148 -0.4542  0.0948
 6734SOL    HW131664   0.267   2.396   4.079 -0.4158 -1.4247  2.7473
 6734SOL    HW231665   0.230   2.324   3.958 -0.1404 -2.0653  0.2163
 6735SOL     OW31666   0.929   0.224   2.948 -0.2351  0.0057 -0.4341
 6735SOL    HW131667   0.994   0.294   2.943  1.3223 -1.2738  2.1466
 6735SOL    HW231668   0.874   0.264   3.016 -1.5531 -1.6372 -0.5246
 6736SOL     OW31669   1.919   2.596   2.161  0.4918  0.4820 -0.0253
 6736SOL    HW131670   1.832   2.632   2.177  0.1598 -0.3612  0.0235
 6736SOL    HW231671   1.947   2.661   2.097  0.3217  1.1255  0.5506
 6737SOL     OW31672   3.993   4.497   0.475  0.2843  0.4537 -0.0244
 6737SOL    HW131673   4.002   4.481   0.569 -1.5108  0.2895  0.1112
 6737SOL    HW231674   4.073   4.447   0.457 -0.5969 -0.9464 -0.0436
 6738SOL     OW31675   0.239   3.935   6.181  0.2341 -0.1711  0.0278
 6738SOL    HW131676   0.163   3.962   6.234 -0.3196 -1.4302 -0.1291
 6738SOL    HW231677   0.300   3.915   6.252  0.9837 -1.1823 -0.9031
 6739SOL     OW31678   4.703   0.616   2.950 -0.3923  0.0601  0.0240
 6739SOL    HW131679   0.004   0.575   3.033  1.5615  1.7572  0.2597
 6739SOL    HW231680   0.030   0.573   2.881 -2.5126 -1.0413 -0.8765
 6740SOL     OW31681   2.615   3.940   7.441 -0.2353  0.2045 -0.5875
 6740SOL    HW131682   2.563   3.915   7.517 -0.4908  0.1899 -0.7673
 6740SOL    HW231683   2.573   3.900   7.365 -0.3427  0.6052 -0.7407
 6741SOL     OW31684   3.915   2.616   0.417  0.4334 -0.0370  0.1357
 6741SOL    HW131685   3.839   2.594   0.363 -0.8490  2.2089  1.0101
 6741SOL    HW231686   3.895   2.688   0.476  0.6175 -1.1425  1.5635
 6742SOL     OW31687   1.268   2.674   8.447 -0.1193 -0.3151  0.8574
 6742SOL    HW131688   1.321   2.642   8.521 -0.2888 -2.4782  0.0581
 6742SOL    HW231689   1.188   2.710   8.486 -2.7285 -3.3506 -1.7117
 6743SOL     OW31690   3.214   0.539  16.155  0.3637 -0.2932  0.0330
 6743SOL    HW131691   3.186   0.585  16.076 -0.1135 -0.7971 -0.0866
 6743SOL    HW231692   3.304   0.511  16.136 -0.1233  0.1625 -2.8882
 6744SOL     OW31693   2.029   0.390   8.630 -0.0321  0.2576 -0.7241
 6744SOL    HW131694   2.085   0.324   8.590  0.6205 -0.0439  0.6732
 6744SOL    HW231695   2.068   0.384   8.717  0.8628 -1.6403 -1.2713
 6745SOL     OW31696   3.863   1.827  10.953  0.1239 -0.2506  0.2035
 6745SOL    HW131697   3.896   1.828  11.042  1.6141  0.2945 -0.3566
 6745SOL    HW231698   3.899   1.744  10.922 -2.4901 -1.0252 -0.8408
 6746SOL     OW31699   1.230   0.129   4.984 -0.0200 -0.2156 -0.2733
 6746SOL    HW131700   1.239   0.039   4.953  0.6669 -0.7408  1.4568
 6746SOL    HW231701   1.299   0.122   5.049 -1.5400 -1.1721  1.2178
 6747SOL     OW31702   1.152   4.647   8.304  0.5608  0.3191  0.5873
 6747SOL    HW131703   1.233   4.696   8.289  1.6328 -1.9470 -1.0971
 6747SOL    HW231704   1.161   4.612   8.392  0.1974 -1.4646 -0.0881
 6748SOL     OW31705   4.275   1.904   4.532 -0.2133  0.0080  0.0233
 6748SOL    HW131706   4.225   1.917   4.452  0.7815  0.6457 -0.4937
 6748SOL    HW231707   4.336   1.836   4.503 -0.0288  0.5456 -0.8315
 6749SOL     OW31708   3.196   2.739  16.383 -0.3128  0.4082  0.3075
 6749SOL    HW131709   3.225   2.799  16.451 -1.3610  0.5901  0.5820
 6749SOL    HW231710   3.271   2.752  16.325 -0.6238 -3.2153 -0.9467
 6750SOL     OW31711   0.083   2.829   5.520  0.0783 -0.0632  0.1779
 6750SOL    HW131712   0.143   2.765   5.480 -0.2600 -1.0009  1.1806
 6750SOL    HW231713   0.094   2.810   5.613  0.0073 -0.7601  0.0425
 6751SOL     OW31714   0.959   2.721   6.436 -0.2115 -0.3357 -0.8780
 6751SOL    HW131715   0.884   2.703   6.491 -0.6565  0.6887 -1.1480
 6751SOL    HW231716   1.008   2.639   6.448 -1.5754 -1.0940 -0.5869
 6752SOL     OW31717   2.545   0.022   2.380  0.1939 -0.2261  0.7898
 6752SOL    HW131718   2.615   0.051   2.438 -0.1073 -0.0548  1.0726
 6752SOL    HW231719   2.493   0.102   2.371  2.0622  0.7410 -1.1754
 6753SOL     OW31720   1.943   4.663  12.770  0.6122  0.5188 -0.4898
 6753SOL    HW131721   2.027   4.708  12.780 -0.0613  1.5355  0.5973
 6753SOL    HW231722   1.920   4.683  12.679  1.8741 -2.1090 -1.3893
 6754SOL     OW31723   3.171   0.333   9.894 -0.1827  0.4105 -0.2127
 6754SOL    HW131724   3.104   0.298   9.952  0.2505  0.0396  0.0651
 6754SOL    HW231725   3.211   0.250   9.868  0.5563  0.8850 -0.5970
 6755SOL     OW31726   1.702   1.181  16.313 -0.4699  0.2361 -0.4226
 6755SOL    HW131727   1.728   1.105  16.261 -2.1644 -0.6026 -0.0192
 6755SOL    HW231728   1.761   1.172  16.388 -1.7533  0.7720  0.6575
 6756SOL     OW31729   3.076   4.689   0.147  0.6310 -0.8087 -0.1848
 6756SOL    HW131730   3.028   4.633   0.087 -2.7923 -0.0631  1.8920
 6756SOL    HW231731   3.099   4.634   0.223  0.8490 -1.5474 -0.7864
 6757SOL     OW31732   4.263   1.064  14.399 -0.1091 -0.2421  0.1532
 6757SOL    HW131733   4.315   1.123  14.453 -0.6181 -0.5223  0.9504
 6757SOL    HW231734   4.265   0.984  14.453 -2.8063  0.3990  1.2279
 6758SOL     OW31735   0.837   0.848  14.936  0.4554 -0.0670 -1.0697
 6758SOL    HW131736   0.817   0.834  14.843 -1.2014  0.6663 -0.8222
 6758SOL    HW231737   0.886   0.768  14.954  1.3536  0.5928 -0.6177
 6759SOL     OW31738   0.907   3.109  11.369  1.0009  0.9553  0.2318
 6759SOL    HW131739   0.915   3.177  11.302  0.9602  1.1799  0.4547
 6759SOL    HW231740   0.970   3.044  11.336 -2.0388 -1.6285 -0.4657
 6760SOL     OW31741   0.569   4.632   3.929  1.1427 -0.8259 -0.1785
 6760SOL    HW131742   0.559   4.645   3.835  1.1439  0.1945 -0.0317
 6760SOL    HW231743   0.547   4.541   3.949  0.3923  0.0320  2.9016
 6761SOL     OW31744   4.123   1.413  13.103 -0.1503 -0.1050  0.7459
 6761SOL    HW131745   4.192   1.355  13.137 -0.0674 -0.3472  0.1783
 6761SOL    HW231746   4.045   1.359  13.118  0.7979 -1.7185 -0.0672
 6762SOL     OW31747   3.971   0.595  14.906 -0.1160  0.0849  0.2411
 6762SOL    HW131748   3.918   0.669  14.878 -1.1121 -1.3144 -1.6345
 6762SOL    HW231749   4.043   0.644  14.944 -0.3284 -0.6546  1.5926
 6763SOL     OW31750   2.014   3.901   4.646 -0.0820 -0.1319  0.1782
 6763SOL    HW131751   2.047   3.891   4.557  0.2657 -0.5442  0.3536
 6763SOL    HW231752   2.061   3.979   4.675  1.3457 -1.2189  0.7819
 6764SOL     OW31753   1.802   4.621   7.223 -0.2406  0.3223  0.9958
 6764SOL    HW131754   1.785   4.702   7.175 -0.4315  0.4404  1.2597
 6764SOL    HW231755   1.892   4.638   7.250  0.5245 -0.4864 -1.0720
 6765SOL     OW31756   0.707   2.892   2.494  0.3398 -0.2670 -0.4741
 6765SOL    HW131757   0.652   2.815   2.508  1.2080 -1.1250 -1.7329
 6765SOL    HW231758   0.797   2.858   2.502  0.6579  0.8231  0.5519
 6766SOL     OW31759   2.308   2.594  16.897  0.5741 -0.1617 -0.2794
 6766SOL    HW131760   2.222   2.576  16.936  0.4319 -1.3814 -1.1567
 6766SOL    HW231761   2.351   2.633  16.973 -0.8267 -0.2311  0.5552
 6767SOL     OW31762   2.465   2.347  15.425  0.3811  0.0969 -0.5285
 6767SOL    HW131763   2.461   2.440  15.405  0.3907  0.0193 -0.8769
 6767SOL    HW231764   2.375   2.322  15.406 -0.2888  1.6321  0.5795
 6768SOL     OW31765   2.154   4.380  14.300 -0.5191  0.0173  0.2856
 6768SOL    HW131766   2.199   4.463  14.316  2.5285 -1.8699  1.5676
 6768SOL    HW231767   2.070   4.414  14.271 -0.1948  0.7835  0.2451
 6769SOL     OW31768   0.191   4.242  10.798 -0.3311  0.5284  0.3771
 6769SOL    HW131769   0.221   4.331  10.784  1.4319 -0.3768 -1.7249
 6769SOL    HW231770   0.102   4.237  10.832 -0.3105 -1.2305  0.1822
 6770SOL     OW31771   3.211   1.331  13.129 -0.1313  0.4309 -0.2210
 6770SOL    HW131772   3.222   1.404  13.190  0.6324  1.3677 -1.4487
 6770SOL    HW231773   3.122   1.349  13.099 -0.1051 -1.0135 -1.1449
 6771SOL     OW31774   0.050   3.343   2.935 -0.1105  0.2487 -0.7611
 6771SOL    HW131775   0.067   3.433   2.961 -0.7090  0.0899  0.1801
 6771SOL    HW231776   4.720   3.342   2.856 -1.2167 -0.2951 -0.0149
 6772SOL     OW31777   2.539   4.704  13.786 -0.1412  0.3758  0.1926
 6772SOL    HW131778   2.477   4.635  13.809  2.9032 -2.0901  1.1036
 6772SOL    HW231779   2.613   4.672  13.839 -0.3446  0.4301  0.5080
 6773SOL     OW31780   3.795   2.717  10.652 -0.6148  0.8024  0.7873
 6773SOL    HW131781   3.709   2.675  10.661 -0.3553  0.3282  1.0649
 6773SOL    HW231782   3.812   2.720  10.746 -3.7883 -0.8088  1.4273
 6774SOL     OW31783   2.512   3.453   3.635 -0.1763  0.2579  0.6334
 6774SOL    HW131784   2.550   3.375   3.674 -1.1354  0.9028  2.8342
 6774SOL    HW231785   2.584   3.479   3.578  0.5700  1.3048  2.0589
 6775SOL     OW31786   4.259   1.495   1.375 -0.3094  0.1033 -0.0055
 6775SOL    HW131787   4.263   1.407   1.338 -1.2677 -0.7893  1.9964
 6775SOL    HW231788   4.171   1.497   1.411 -0.3101 -1.9443  0.1232
 6776SOL     OW31789   0.412   2.490   0.636 -0.2809  0.2933  0.3490
 6776SOL    HW131790   0.359   2.444   0.570  1.4609 -0.6075 -0.4373
 6776SOL    HW231791   0.396   2.445   0.719  0.4213  1.1633  0.9451
 6777SOL     OW31792   4.704   3.143   6.886  0.2314  0.0571 -0.8435
 6777SOL    HW131793   4.640   3.081   6.849  0.9862 -1.7279  0.8390
 6777SOL    HW231794   4.684   3.131   6.979 -0.0049 -0.6191 -0.9821
 6778SOL     OW31795   0.681   0.709  15.258  0.1315 -0.1834 -0.2212
 6778SOL    HW131796   0.664   0.794  15.218 -1.7837 -0.3813  0.1963
 6778SOL    HW231797   0.739   0.666  15.196 -0.1126  0.6184 -0.9966
 6779SOL     OW31798   1.229   1.588   6.108  0.0826 -0.0788  0.1078
 6779SOL    HW131799   1.250   1.632   6.190  0.6004 -0.5379  0.2198
 6779SOL    HW231800   1.283   1.624   6.038 -1.4190  2.1639  0.1031
 6780SOL     OW31801   3.202   1.065   6.214 -0.0408 -0.2235 -0.0042
 6780SOL    HW131802   3.224   0.973   6.230  0.0214  0.1214  1.9223
 6780SOL    HW231803   3.156   1.071   6.130 -0.0291 -0.0128  0.0039
 6781SOL     OW31804   0.493   1.005  15.265 -0.2688  0.3128 -0.1119
 6781SOL    HW131805   0.436   1.082  15.255  0.0230  0.3186 -1.7531
 6781SOL    HW231806   0.432   0.932  15.265  0.4775 -0.3170 -0.5741
 6782SOL     OW31807   4.034   0.112  17.485  0.1243  0.7366 -0.9452
 6782SOL    HW131808   4.004   0.161  17.561  0.1272  0.7715 -0.9669
 6782SOL    HW231809   3.974   0.153  17.423 -1.6812 -1.6119 -0.7471
 6783SOL     OW31810   0.567   4.669  10.439 -0.8371  0.4676  0.1628
 6783SOL    HW131811   0.493   4.670  10.500 -0.8163  0.2687  0.1927
 6783SOL    HW231812   0.602   4.584  10.465 -1.2117  1.0535  2.5620
 6784SOL     OW31813   3.638   2.048   3.545 -0.0172 -0.3502 -0.0363
 6784SOL    HW131814   3.676   2.030   3.458  0.0906  1.6235 -0.3926
 6784SOL    HW231815   3.617   1.961   3.578  0.5687 -0.3796  0.2628
 6785SOL     OW31816   0.630   3.019   9.583  0.1990  0.3916  0.3744
 6785SOL    HW131817   0.700   2.987   9.640 -1.3609 -1.8748  1.0387
 6785SOL    HW231818   0.555   2.961   9.599 -0.2757  0.7380 -0.5686
 6786SOL     OW31819   0.780   4.014  17.306  0.4939 -0.1007 -0.3400
 6786SOL    HW131820   0.857   4.070  17.312  1.1733 -1.1936  0.9667
 6786SOL    HW231821   0.775   3.990  17.213  0.9297  0.5702 -0.5272
 6787SOL     OW31822   2.614   4.258  15.766 -0.1835  0.0828  0.5138
 6787SOL    HW131823   2.602   4.211  15.684  1.6237  0.5889 -0.0348
 6787SOL    HW231824   2.543   4.233  15.826 -0.8551  4.3541  1.4885
 6788SOL     OW31825   1.615   1.190   3.017  0.3942  0.1921  0.1337
 6788SOL    HW131826   1.524   1.161   3.003 -0.2195  2.1196  0.1017
 6788SOL    HW231827   1.654   1.124   2.960 -2.3746  0.5148 -2.1698
 6789SOL     OW31828   3.385   2.789   6.935 -0.1668  0.0026 -0.3752
 6789SOL    HW131829   3.326   2.768   6.862 -0.5578 -1.7653  0.4531
 6789SOL    HW231830   3.427   2.866   6.895  1.4124 -1.0177 -0.6550
 6790SOL     OW31831   2.146   1.585  12.185  0.0534  0.4900 -0.1956
 6790SOL    HW131832   2.160   1.627  12.101 -0.4782 -0.3466 -0.6960
 6790SOL    HW231833   2.201   1.635  12.247 -0.0642  0.9978 -0.5028
 6791SOL     OW31834   2.723   0.050   8.940 -0.5815  0.1569 -0.3531
 6791SOL    HW131835   2.769   0.010   8.867 -1.5504 -0.2697 -0.7339
 6791SOL    HW231836   2.697   4.694   8.986  2.0253 -0.8422 -0.6049
 6792SOL     OW31837   2.724   4.558   5.206  0.3960 -0.1364 -0.2768
 6792SOL    HW131838   2.813   4.526   5.189  0.5463 -2.8161  5.4312
 6792SOL    HW231839   2.700   4.509   5.285 -1.4226 -0.8137 -1.2769
 6793SOL     OW31840   1.947   4.204  17.060 -0.5933 -0.3821 -0.3461
 6793SOL    HW131841   1.900   4.168  16.985 -1.7160 -0.0816  0.2256
 6793SOL    HW231842   2.014   4.135  17.060  1.4268  1.5974  0.0834
 6794SOL     OW31843   0.512   3.239  12.428  0.1065  0.1978  0.1207
 6794SOL    HW131844   0.459   3.228  12.349  1.7121  1.7957 -1.1587
 6794SOL    HW231845   0.576   3.180  12.388 -0.4238  0.3822 -0.9930
 6795SOL     OW31846   1.885   0.827   3.114 -0.1128 -0.4145 -0.0426
 6795SOL    HW131847   1.905   0.850   3.205  1.0380 -0.4714 -0.2875
 6795SOL    HW231848   1.921   0.906   3.074  1.8126  0.5152  3.5155
 6796SOL     OW31849   0.838   0.297   7.473  0.0991 -0.2260 -0.3135
 6796SOL    HW131850   0.930   0.320   7.483 -0.2065  0.2056  1.4823
 6796SOL    HW231851   0.801   0.364   7.530 -1.6770 -1.0327 -0.5159
 6797SOL     OW31852   1.011   2.008   3.462  0.0452 -0.3725  0.0755
 6797SOL    HW131853   1.077   2.051   3.518 -1.1140 -0.1404  1.2742
 6797SOL    HW231854   0.943   2.075   3.469  0.3669  0.0001 -0.3311
 6798SOL     OW31855   2.125   3.727  14.676 -0.1096 -0.4006  0.5407
 6798SOL    HW131856   2.203   3.671  14.680  0.4966  0.4379  0.5663
 6798SOL    HW231857   2.112   3.757  14.766  0.7283 -1.0349  0.8752
 6799SOL     OW31858   0.866   1.176   5.819 -0.2559  0.7271 -0.4727
 6799SOL    HW131859   0.793   1.114   5.820 -1.4343  2.1319  0.9387
 6799SOL    HW231860   0.894   1.176   5.910 -1.1936 -2.4262 -0.1926
 6800SOL     OW31861   3.538   3.772   5.140 -0.1140  0.0150 -0.5919
 6800SOL    HW131862   3.616   3.814   5.177 -1.2541  1.4833  0.1778
 6800SOL    HW231863   3.466   3.830   5.164  0.8938  1.0675 -0.0864
 6801SOL     OW31864   1.584   3.963   5.906 -0.2442 -0.1318  0.1933
 6801SOL    HW131865   1.630   3.907   5.844  1.3233 -1.0005  2.1527
 6801SOL    HW231866   1.650   3.972   5.975  0.9334 -1.1512 -0.8024
 6802SOL     OW31867   1.067   3.873   8.694 -0.0627  0.9870  0.3717
 6802SOL    HW131868   1.033   3.805   8.752  0.3683  0.4644  0.0061
 6802SOL    HW231869   1.012   3.938   8.738  1.1172  0.9360  1.9320
 6803SOL     OW31870   0.313   0.824   2.791  0.1205 -0.2858 -0.0463
 6803SOL    HW131871   0.354   0.778   2.719 -0.7619  0.0513 -0.7658
 6803SOL    HW231872   0.264   0.896   2.751  0.3055  0.5877  1.2828
 6804SOL     OW31873   0.763   3.762   1.036 -0.6623 -0.0064 -0.3238
 6804SOL    HW131874   0.750   3.756   1.131  4.2622  0.2554  0.3993
 6804SOL    HW231875   0.816   3.840   1.017 -1.0778  0.6475  1.1055
 6805SOL     OW31876   3.660   2.380   6.516  0.4204 -0.1569 -0.6148
 6805SOL    HW131877   3.619   2.453   6.471 -0.2344 -1.3045 -1.8690
 6805SOL    HW231878   3.750   2.410   6.526  0.5219 -0.2468 -1.2660
 6806SOL     OW31879   3.198   2.747  13.248 -0.4472 -0.0524  0.1111
 6806SOL    HW131880   3.205   2.795  13.330  0.2378 -0.1381  0.0966
 6806SOL    HW231881   3.273   2.688  13.250  0.6209  1.2392 -1.4181
 6807SOL     OW31882   3.353   0.754  17.167  0.1910  0.5098 -0.5770
 6807SOL    HW131883   3.415   0.807  17.118 -0.1661 -0.2150 -1.8224
 6807SOL    HW231884   3.271   0.797  17.140  0.3712  0.7455 -0.7500
 6808SOL     OW31885   0.030   0.501  16.682 -0.2765 -0.5955  0.1014
 6808SOL    HW131886   4.661   0.508  16.658  0.0036  1.3516 -0.3543
 6808SOL    HW231887   0.059   0.437  16.617  2.8593  0.3734  0.5427
 6809SOL     OW31888   1.039   0.809   4.380 -0.1094 -0.0829  0.2030
 6809SOL    HW131889   1.093   0.741   4.339 -1.6950  1.3420 -4.2500
 6809SOL    HW231890   1.008   0.863   4.307  1.9607 -0.0409 -0.6700
 6810SOL     OW31891   1.692   2.111  11.800  0.2250  0.3014 -0.1044
 6810SOL    HW131892   1.663   2.027  11.767 -0.3167  0.4647 -0.0317
 6810SOL    HW231893   1.697   2.169  11.724 -2.1504 -0.1386 -0.5637
 6811SOL     OW31894   3.683   2.504   5.421  0.2582  0.2599  0.7696
 6811SOL    HW131895   3.631   2.529   5.498  2.6963  0.1439  2.4494
 6811SOL    HW231896   3.740   2.580   5.429  0.7055 -0.1201  1.2149
 6812SOL     OW31897   0.179   2.341   5.066  0.0376 -0.1254  0.4619
 6812SOL    HW131898   0.109   2.306   5.121 -1.0982  0.4748 -0.6101
 6812SOL    HW231899   0.137   2.415   5.022 -0.2989  0.9297  2.5710
 6813SOL     OW31900   4.617   4.054   6.100 -0.0048 -0.3403 -0.3443
 6813SOL    HW131901   4.649   4.013   6.180 -0.6734 -1.4196 -0.6340
 6813SOL    HW231902   4.572   3.984   6.053 -0.7013 -0.4345  0.4662
 6814SOL     OW31903   1.167   4.159   3.167  0.1488  0.3120  0.1748
 6814SOL    HW131904   1.093   4.211   3.198 -0.7345 -0.1180 -1.1834
 6814SOL    HW231905   1.167   4.097   3.239  0.0968  0.4316  0.2780
 6815SOL     OW31906   1.421   2.872   6.915  0.2721 -0.3879  0.3008
 6815SOL    HW131907   1.454   2.910   6.834 -0.7793 -0.8620 -0.3598
 6815SOL    HW231908   1.445   2.780   6.904 -0.2497 -0.8592  3.0492
 6816SOL     OW31909   3.909   0.936  11.248  0.3801 -0.2262  0.5341
 6816SOL    HW131910   3.971   0.865  11.233  0.8045  0.1540  0.5095
 6816SOL    HW231911   3.849   0.937  11.173  0.5572  0.3649  0.4066
 6817SOL     OW31912   0.198   2.338   4.701 -0.5606  0.0676  0.5372
 6817SOL    HW131913   0.241   2.422   4.716 -2.1728  0.8372  0.8906
 6817SOL    HW231914   0.274   2.281   4.713  0.0139  0.5064 -0.9930
 6818SOL     OW31915   0.426   4.384   3.402 -0.1320 -0.2334  0.6731
 6818SOL    HW131916   0.342   4.377   3.356  0.2564 -0.7332  0.0441
 6818SOL    HW231917   0.430   4.294   3.432 -1.0242 -0.0970  1.2046
 6819SOL     OW31918   3.957   0.069   4.625  0.0848 -0.4219 -0.4785
 6819SOL    HW131919   4.046   0.044   4.648  0.9173  0.8644 -2.3610
 6819SOL    HW231920   3.904   0.007   4.676 -0.7092 -0.4010 -1.2741
 6820SOL     OW31921   0.922   3.163   8.430 -0.9890 -0.1663 -0.5041
 6820SOL    HW131922   0.859   3.165   8.501 -0.6950 -2.1211 -0.1863
 6820SOL    HW231923   0.884   3.230   8.373 -1.0538  2.1596  2.3258
 6821SOL     OW31924   0.892   2.762   4.205  0.6518  0.4889  0.2390
 6821SOL    HW131925   0.924   2.846   4.172 -0.9812  0.1246 -2.2703
 6821SOL    HW231926   0.910   2.780   4.298  1.9186 -0.3572  0.1598
 6822SOL     OW31927   1.144   3.900   9.346 -0.5446  0.1298 -0.0523
 6822SOL    HW131928   1.078   3.897   9.276  0.1370 -0.4272 -0.6688
 6822SOL    HW231929   1.086   3.914   9.421 -1.0761  1.5608 -0.7242
 6823SOL     OW31930   1.132   4.302   1.416  0.6021  0.4889  0.4484
 6823SOL    HW131931   1.183   4.282   1.338  0.4183 -0.1506  0.4918
 6823SOL    HW231932   1.137   4.224   1.471 -2.3747 -0.0937 -0.0966
 6824SOL     OW31933   2.768   4.639   8.684 -0.6287 -0.4321 -0.1622
 6824SOL    HW131934   2.724   4.559   8.712 -1.2844 -0.8814 -2.5501
 6824SOL    HW231935   2.686   4.678   8.652 -0.7350 -0.5542 -0.0404
 6825SOL     OW31936   4.600   2.719   6.598  0.2842 -0.0261 -0.0827
 6825SOL    HW131937   4.651   2.709   6.678  0.5101  1.1140 -0.0821
 6825SOL    HW231938   4.647   2.792   6.557  2.8255 -0.9418  1.2102
 6826SOL     OW31939   0.314   3.444   8.559  0.1622 -0.0382  0.4257
 6826SOL    HW131940   0.392   3.413   8.513 -0.1986 -1.7634  0.9745
 6826SOL    HW231941   0.342   3.527   8.598 -1.5880  1.3588 -1.3044
 6827SOL     OW31942   4.201   3.909   8.021  0.4747 -0.1232 -0.2062
 6827SOL    HW131943   4.220   3.815   8.029 -0.4126 -0.1845  1.2773
 6827SOL    HW231944   4.161   3.931   8.105  0.8177  0.5783 -0.2296
 6828SOL     OW31945   3.233   1.102   6.505  0.4472 -0.5464  0.1268
 6828SOL    HW131946   3.211   1.091   6.412  1.5403 -0.1432 -0.1830
 6828SOL    HW231947   3.202   1.018   6.537  1.1899 -0.2303  1.6671
 6829SOL     OW31948   2.829   2.118   3.278 -0.2614  0.1261  0.1612
 6829SOL    HW131949   2.791   2.187   3.332  1.2869  1.0188  0.1254
 6829SOL    HW231950   2.921   2.136   3.301  0.1095 -1.1265 -0.3303
 6830SOL     OW31951   4.330   3.221   4.073  0.2421  0.0266  0.1612
 6830SOL    HW131952   4.306   3.292   4.014 -0.6608 -1.9320 -1.8017
 6830SOL    HW231953   4.282   3.145   4.042  0.1606  0.5461 -0.9877
 6831SOL     OW31954   1.378   0.220   5.898  0.2344 -0.3224 -0.2507
 6831SOL    HW131955   1.313   0.241   5.832 -1.3820 -1.0352  1.1150
 6831SOL    HW231956   1.341   0.263   5.975 -0.2205 -1.8176  0.3709
 6832SOL     OW31957   1.406   1.121   5.627  0.0416  0.0348  0.2642
 6832SOL    HW131958   1.407   1.163   5.713 -0.5890 -0.6698  0.6175
 6832SOL    HW231959   1.314   1.134   5.603  0.0143  0.1105  0.4099
 6833SOL     OW31960   3.277   0.888  14.611  0.2951  0.5002 -0.5388
 6833SOL    HW131961   3.362   0.879  14.568  1.3279  0.0329  1.5497
 6833SOL    HW231962   3.279   0.811  14.669 -0.3987  1.6747  1.0334
 6834SOL     OW31963   2.179   0.659   3.664  0.3768  0.2847  0.2198
 6834SOL    HW131964   2.178   0.752   3.686 -1.0888  0.3785 -0.2311
 6834SOL    HW231965   2.098   0.649   3.614  1.3586 -2.9942 -0.7037
 6835SOL     OW31966   1.754   1.370   4.136 -0.6470  0.3444  0.1698
 6835SOL    HW131967   1.740   1.290   4.085 -2.2785  0.8739 -0.2231
 6835SOL    HW231968   1.678   1.363   4.194  0.0528 -1.3992  0.8755
 6836SOL     OW31969   0.832   2.791   5.409  0.4503 -0.1022 -0.7594
 6836SOL    HW131970   0.875   2.722   5.359  0.1635 -1.4372  0.8332
 6836SOL    HW231971   0.761   2.742   5.451  2.0503 -1.4355  0.3262
 6837SOL     OW31972   1.900   0.263   7.392 -0.4139 -0.4072 -0.2068
 6837SOL    HW131973   1.872   0.205   7.463  0.9543 -0.0535  0.6298
 6837SOL    HW231974   1.871   0.220   7.312  0.4336 -1.2892 -0.0424
 6838SOL     OW31975   4.462   1.485   5.604 -0.5943 -0.1458 -0.3684
 6838SOL    HW131976   4.524   1.546   5.564  1.2046 -0.9239  1.1975
 6838SOL    HW231977   4.433   1.434   5.528 -0.3488 -2.6063  1.1653
 6839SOL     OW31978   4.577   1.510  10.293  1.0861 -0.1149  0.0118
 6839SOL    HW131979   4.539   1.586  10.250  2.9891 -0.3569 -2.0984
 6839SOL    HW231980   4.510   1.483  10.356 -0.1456  1.7090 -0.5339
 6840SOL     OW31981   0.529   2.971   3.990  0.1476 -0.2683  0.3331
 6840SOL    HW131982   0.603   2.920   3.957  1.3262  2.4694 -1.2773
 6840SOL    HW231983   0.574   3.032   4.049 -0.2508 -0.2879  0.6565
 6841SOL     OW31984   1.600   4.111   6.673 -0.4351 -0.4492 -0.2177
 6841SOL    HW131985   1.625   4.029   6.715  1.0492  0.1605  0.1005
 6841SOL    HW231986   1.598   4.166   6.751  1.5302  0.6072 -0.9093
 6842SOL     OW31987   1.362   1.260   2.941  0.0573 -0.4643 -0.7115
 6842SOL    HW131988   1.366   1.312   2.861  2.2721  0.1681 -0.1650
 6842SOL    HW231989   1.347   1.175   2.899  1.1316  0.7603 -3.5265
 6843SOL     OW31990   3.843   3.935  14.623  0.2756 -0.2898 -0.2025
 6843SOL    HW131991   3.913   3.980  14.576 -0.6920  0.9548 -0.4422
 6843SOL    HW231992   3.792   3.895  14.552 -4.1771 -0.7927  3.2892
 6844SOL     OW31993   4.393   4.623   0.427  0.3907  0.2880  0.4750
 6844SOL    HW131994   4.478   4.643   0.466 -0.1352  1.6324  0.9123
 6844SOL    HW231995   4.330   4.639   0.497  0.3497  0.1952  0.4590
 6845SOL     OW31996   3.003   4.267   8.576  0.6457  0.0004  0.0977
 6845SOL    HW131997   2.938   4.290   8.509 -0.5663 -2.1769  0.5089
 6845SOL    HW231998   2.961   4.307   8.652  1.0713 -0.4922  0.5906
 6846SOL     OW31999   1.694   1.075   2.228  0.0372 -0.3655  0.1039
 6846SOL    HW132000   1.603   1.096   2.210  0.2970 -1.0342 -1.9173
 6846SOL    HW232001   1.701   0.980   2.221 -0.2353 -0.1849 -2.4197
 6847SOL     OW32002   4.717   4.401   4.524  0.1357  0.1491 -0.3197
 6847SOL    HW132003   0.024   4.434   4.608  1.0348  0.9799 -0.9806
 6847SOL    HW232004   4.627   4.434   4.527 -0.7754 -2.2908  0.0063
 6848SOL     OW32005   0.105   1.373   3.410  0.7281 -0.3704 -0.4860
 6848SOL    HW132006   0.017   1.408   3.394  1.4832  0.8995 -1.8157
 6848SOL    HW232007   0.115   1.321   3.330  0.1427 -0.9430 -0.1954
 6849SOL     OW32008   2.980   4.007   8.430  0.5411  0.2440 -0.7112
 6849SOL    HW132009   2.910   3.943   8.418 -0.1147  1.0192 -0.9704
 6849SOL    HW232010   2.937   4.065   8.493 -1.6742 -1.9385 -0.2089
 6850SOL     OW32011   0.613   2.900   2.223 -0.1462 -0.1669 -0.1148
 6850SOL    HW132012   0.674   2.877   2.293 -1.4733  0.9025  1.3996
 6850SOL    HW232013   0.549   2.959   2.263  0.7427  0.8378 -0.1838
 6851SOL     OW32014   3.273   0.804   6.057 -0.6288 -0.0084 -0.0653
 6851SOL    HW132015   3.263   0.887   6.010 -0.9726 -0.5539 -0.9679
 6851SOL    HW232016   3.202   0.743   6.037 -0.9451  1.1845 -2.6340
 6852SOL     OW32017   0.214   3.678  13.086 -0.0882  0.4142 -0.1515
 6852SOL    HW132018   0.305   3.659  13.064 -0.1831 -0.2209  0.0041
 6852SOL    HW232019   0.219   3.731  13.165  0.7018  0.9224 -0.5427
 6853SOL     OW32020   3.056   1.202  13.499 -0.0561  0.5722  0.7644
 6853SOL    HW132021   3.112   1.126  13.514  1.5252  1.3278 -1.2885
 6853SOL    HW232022   3.047   1.243  13.586  1.5187  0.5777  0.9256
 6854SOL     OW32023   2.478   0.595   5.139 -0.3136  0.4351  0.6033
 6854SOL    HW132024   2.572   0.579   5.131 -0.4638 -0.5242  0.7805
 6854SOL    HW232025   2.488   0.690   5.138  2.4340  0.1473 -0.1927
 6855SOL     OW32026   4.149   2.679   6.483 -0.8766 -0.3269  0.6494
 6855SOL    HW132027   4.200   2.675   6.563 -0.9488  2.4708  0.8502
 6855SOL    HW232028   4.176   2.605   6.428 -0.2889 -0.4628  1.1197
 6856SOL     OW32029   4.146   2.330   8.912 -0.0092  0.7285 -0.1475
 6856SOL    HW132030   4.168   2.401   8.852 -1.0851  0.7318 -0.5234
 6856SOL    HW232031   4.062   2.307   8.873  0.7676 -1.5442 -0.4819
 6857SOL     OW32032   2.118   3.859   6.840 -0.8059 -0.6311 -0.7892
 6857SOL    HW132033   2.179   3.786   6.850 -0.7782 -0.6554 -1.1065
 6857SOL    HW232034   2.144   3.898   6.756  0.5180  1.9228  0.8161
 6858SOL     OW32035   0.130   1.972  17.533  0.2029 -0.0457  0.0224
 6858SOL    HW132036   0.126   2.054  17.583 -0.4765  0.4720 -0.8747
 6858SOL    HW232037   0.222   1.946  17.536  0.4412  0.9455  1.2304
 6859SOL     OW32038   1.204   3.576   8.290  0.1942  0.0679  0.4990
 6859SOL    HW132039   1.291   3.566   8.252  0.9536 -1.2953  2.5829
 6859SOL    HW232040   1.181   3.650   8.234  1.2156  0.4736  0.6146
 6860SOL     OW32041   1.243   4.580   8.566  0.2536  0.1982 -0.1557
 6860SOL    HW132042   1.224   4.544   8.653 -2.9849  1.3472 -0.4054
 6860SOL    HW232043   1.338   4.567   8.560  0.2348 -0.7699  1.6321
 6861SOL     OW32044   0.641   3.578   3.462  0.1894 -0.0479 -0.0510
 6861SOL    HW132045   0.548   3.559   3.456 -0.0093  1.8416 -3.5556
 6861SOL    HW232046   0.644   3.659   3.410 -0.5447 -1.7547 -2.7412
 6862SOL     OW32047   2.984   2.889  12.802  0.2680  0.5114 -0.0671
 6862SOL    HW132048   2.994   2.807  12.755 -1.0073 -0.9023  2.1188
 6862SOL    HW232049   3.025   2.873  12.887 -1.1425  1.0995  0.7385
 6863SOL     OW32050   4.439   4.702   5.138  0.1428 -0.2801 -0.2229
 6863SOL    HW132051   4.355   0.005   5.177 -0.1444  2.1058 -2.4167
 6863SOL    HW232052   4.480   0.065   5.135 -1.0209  0.2411 -1.6760
 6864SOL     OW32053   1.154   2.166   2.299 -0.5700  0.3498  0.3279
 6864SOL    HW132054   1.146   2.157   2.204  2.0494 -1.1497  0.2599
 6864SOL    HW232055   1.225   2.230   2.302  1.1086 -1.4550 -0.6457
 6865SOL     OW32056   3.402   0.465   4.315  0.0873  0.5770  0.1135
 6865SOL    HW132057   3.422   0.552   4.281  1.6342  0.4375  0.6398
 6865SOL    HW232058   3.321   0.474   4.366  1.3393  0.8843  2.0350
 6866SOL     OW32059   0.902   4.039   7.805  0.2350  0.3987  0.2198
 6866SOL    HW132060   0.866   4.118   7.765  2.9414  1.0152 -0.9420
 6866SOL    HW232061   0.923   3.992   7.725  0.9376 -0.2313  0.7789
 6867SOL     OW32062   1.515   1.373   8.968 -0.5124  0.3310  0.5745
 6867SOL    HW132063   1.486   1.383   9.059  0.8091  1.8743  0.8268
 6867SOL    HW232064   1.528   1.464   8.943  0.7741 -0.3474 -1.2305
 6868SOL     OW32065   1.875   0.622   7.050 -0.5413 -0.6487 -0.4352
 6868SOL    HW132066   1.907   0.690   6.990 -0.9638 -0.4158 -0.3980
 6868SOL    HW232067   1.941   0.623   7.119 -0.6266  2.0887 -0.3968
 6869SOL     OW32068   2.439   0.530   8.551  0.6343 -0.5511 -0.3658
 6869SOL    HW132069   2.461   0.443   8.518 -1.5118 -0.2858 -2.4918
 6869SOL    HW232070   2.443   0.522   8.646  0.4998  3.3828 -0.0057
 6870SOL     OW32071   1.652   4.582   2.335 -0.4814  0.5311  0.2992
 6870SOL    HW132072   1.637   4.515   2.269  0.5149 -1.4163  2.0491
 6870SOL    HW232073   1.580   4.556   2.394  0.4183 -2.2342  0.1359
 6871SOL     OW32074   1.282   1.178   6.335  0.2537 -0.3304 -0.1554
 6871SOL    HW132075   1.258   1.162   6.427 -1.8775  1.7437 -0.3613
 6871SOL    HW232076   1.246   1.097   6.299  0.5492  0.2095 -1.6480
 6872SOL     OW32077   2.934   0.744  15.100 -0.0796  0.2368 -0.5176
 6872SOL    HW132078   3.025   0.717  15.118  0.0177  1.0455  0.2111
 6872SOL    HW232079   2.945   0.791  15.017 -1.0749  0.8279 -0.3056
 6873SOL     OW32080   1.965   4.470   3.903 -0.4297 -0.0918 -0.7918
 6873SOL    HW132081   2.007   4.491   3.987  1.8529  0.0973 -1.9654
 6873SOL    HW232082   1.875   4.480   3.932 -0.8286  0.8699 -2.4027
 6874SOL     OW32083   0.197   0.244  10.646 -0.2646  0.1350 -0.3384
 6874SOL    HW132084   0.166   0.166  10.599 -0.1421 -0.0980 -0.0306
 6874SOL    HW232085   0.258   0.282  10.582  0.7295  0.8606  1.0497
 6875SOL     OW32086   4.639   0.994  16.216  0.2471  0.1147  0.2376
 6875SOL    HW132087   4.572   0.926  16.224 -0.7215  1.0067 -0.2001
 6875SOL    HW232088   4.721   0.946  16.228  0.8031  0.9546 -0.2473
 6876SOL     OW32089   4.269   3.948  16.658  0.4302 -0.2178 -0.1020
 6876SOL    HW132090   4.319   4.005  16.600  1.7245 -2.9280 -1.6388
 6876SOL    HW232091   4.337   3.920  16.719 -0.5958 -1.0191  0.6733
 6877SOL     OW32092   3.175   1.737   4.422  0.0873  0.0404 -0.2084
 6877SOL    HW132093   3.200   1.798   4.492  2.2501 -1.6251  0.4492
 6877SOL    HW232094   3.235   1.663   4.432  0.8472  0.8234  0.9818
 6878SOL     OW32095   3.657   0.257   5.142  0.2969 -0.1190  0.4635
 6878SOL    HW132096   3.727   0.322   5.138 -2.0389  2.4320  1.0911
 6878SOL    HW232097   3.689   0.205   5.215  0.6216  0.0393  0.4317
 6879SOL     OW32098   0.778   0.862   4.545  0.3600 -0.6030  0.3847
 6879SOL    HW132099   0.709   0.859   4.479  2.1842 -0.0387 -1.5369
 6879SOL    HW232100   0.842   0.806   4.501  2.5530  1.9288  0.3559
 6880SOL     OW32101   1.212   2.923   8.208  0.6045  0.3436  0.4342
 6880SOL    HW132102   1.196   2.939   8.301  1.9076  0.2912  0.6706
 6880SOL    HW232103   1.123   2.941   8.179  0.1567 -0.3333  1.4120
 6881SOL     OW32104   0.796   0.238  16.149  0.0392  0.0580  0.2355
 6881SOL    HW132105   0.816   0.219  16.058 -1.4756 -1.7465  0.2899
 6881SOL    HW232106   0.870   0.292  16.177 -0.2475 -0.9462  2.9723
 6882SOL     OW32107   1.342   0.200  10.513  0.6041  0.6462  0.6635
 6882SOL    HW132108   1.265   0.166  10.557  1.3786 -0.3126  1.2673
 6882SOL    HW232109   1.378   0.258  10.580 -0.2813  0.6422  1.1468
 6883SOL     OW32110   2.283   3.003   8.729 -0.8835 -0.1251 -0.3152
 6883SOL    HW132111   2.270   3.059   8.806  0.2628 -0.8521  0.4005
 6883SOL    HW232112   2.360   2.953   8.758  0.4271  0.7154 -2.3160
 6884SOL     OW32113   4.483   2.830   8.857  0.2000 -0.5226  0.1181
 6884SOL    HW132114   4.505   2.777   8.780 -2.6778  1.1252 -1.8168
 6884SOL    HW232115   4.468   2.764   8.925  0.1817 -1.1954 -0.5357
 6885SOL     OW32116   4.293   2.895  17.636 -0.0749  0.6596 -0.3710
 6885SOL    HW132117   4.272   2.898  17.543 -1.5325  0.3097 -0.0538
 6885SOL    HW232118   4.388   2.894  17.623  0.0385  0.5851  0.4968
 6886SOL     OW32119   3.123   1.575   5.418 -0.1273 -0.1496 -0.1367
 6886SOL    HW132120   3.106   1.525   5.338 -0.4479  0.4719 -0.4593
 6886SOL    HW232121   3.204   1.617   5.389 -1.1144  0.5196 -1.9603
 6887SOL     OW32122   1.922   0.906   1.262  0.2448  0.0907 -0.1494
 6887SOL    HW132123   1.857   0.836   1.252 -0.8755  0.9524  1.1540
 6887SOL    HW232124   1.937   0.904   1.356  0.2570  0.0465 -0.1522
 6888SOL     OW32125   2.010   3.597  11.717  0.1748 -0.1884  0.4855
 6888SOL    HW132126   2.090   3.635  11.681 -0.5711  1.5781  0.7058
 6888SOL    HW232127   2.042   3.510  11.739 -2.1963 -1.1897 -0.0266
 6889SOL     OW32128   0.697   2.570   7.722 -0.3115  0.7676 -0.3296
 6889SOL    HW132129   0.742   2.612   7.795  0.3347 -2.7113  1.2724
 6889SOL    HW232130   0.606   2.598   7.737 -0.5625 -1.3995  2.1433
 6890SOL     OW32131   0.105   0.993   4.625  0.0076  0.0296  0.2588
 6890SOL    HW132132   0.015   1.026   4.635 -0.4393 -0.9916 -0.3760
 6890SOL    HW232133   0.136   1.027   4.541 -0.7237 -0.3744 -0.1776
 6891SOL     OW32134   2.290   4.431   3.001  0.4488  0.1578 -0.6869
 6891SOL    HW132135   2.224   4.421   3.070 -0.6717  1.6959 -1.5188
 6891SOL    HW232136   2.228   4.461   2.935  0.6779 -1.2980 -1.5504
 6892SOL     OW32137   3.529   1.013   2.851 -0.1960 -0.1845 -0.2914
 6892SOL    HW132138   3.585   1.002   2.928  1.3212 -2.2507 -1.6852
 6892SOL    HW232139   3.504   1.103   2.868 -0.5540 -0.3697  0.1566
 6893SOL     OW32140   3.416   0.106   6.935 -0.3177 -0.2019  0.0388
 6893SOL    HW132141   3.485   0.172   6.921 -1.2175  0.5480 -0.8742
 6893SOL    HW232142   3.388   0.082   6.847 -2.2844 -1.3553  0.9965
 6894SOL     OW32143   3.891   4.720   8.338 -0.6064  0.3511  0.5606
 6894SOL    HW132144   3.955   0.055   8.379  0.9329 -1.8656  1.2852
 6894SOL    HW232145   3.919   4.635   8.371 -1.2795  0.2724  0.9239
 6895SOL     OW32146   4.394   0.439   3.518 -0.5377 -0.1296 -0.4831
 6895SOL    HW132147   4.434   0.354   3.537  2.1753  1.9534  3.0384
 6895SOL    HW232148   4.304   0.411   3.500 -0.6003 -0.9804  1.1458
 6896SOL     OW32149   2.648   3.577   8.509  0.1399 -0.8632  0.3177
 6896SOL    HW132150   2.614   3.586   8.420 -0.6588 -1.6801  0.5449
 6896SOL    HW232151   2.679   3.667   8.523  2.1157 -0.9711 -3.3241
 6897SOL     OW32152   4.455   1.131   3.969  0.3631  0.2444  0.6577
 6897SOL    HW132153   4.387   1.161   3.909 -0.9352 -2.1558  0.9108
 6897SOL    HW232154   4.450   1.039   3.943 -2.0196  1.5713 -3.6373
 6898SOL     OW32155   0.144   4.551  15.340 -0.2423 -0.1273 -0.3171
 6898SOL    HW132156   0.164   4.643  15.358  1.3329 -1.0525  2.6186
 6898SOL    HW232157   0.166   4.550  15.246 -0.5522 -1.6096 -0.3630
 6899SOL     OW32158   0.614   1.217   7.561 -0.1489  0.0549  0.4492
 6899SOL    HW132159   0.645   1.238   7.649 -2.5939 -1.1084  1.6222
 6899SOL    HW232160   0.599   1.303   7.524  2.2631  0.8352  1.3358
 6900SOL     OW32161   2.734   3.532   5.161 -0.0509  0.0551 -0.3578
 6900SOL    HW132162   2.792   3.463   5.193 -0.0279  0.9783  1.6135
 6900SOL    HW232163   2.770   3.607   5.209  0.4369 -0.4315  0.0383
 6901SOL     OW32164   0.733   2.186   4.793 -0.2068  0.1304 -0.3963
 6901SOL    HW132165   0.777   2.117   4.843 -0.5995 -0.9862 -1.5966
 6901SOL    HW232166   0.772   2.172   4.707  3.1938  2.0462  0.8091
 6902SOL     OW32167   4.533   2.353   0.258  0.1431 -0.1103 -0.5997
 6902SOL    HW132168   4.534   2.445   0.231 -1.4515  0.7292  2.2104
 6902SOL    HW232169   4.543   2.294   0.184 -2.7844  0.9678 -1.8596
 6903SOL     OW32170   2.878   2.746  10.638 -0.3922 -0.0787 -0.0893
 6903SOL    HW132171   2.838   2.672  10.592  1.7425  0.3528 -2.5753
 6903SOL    HW232172   2.798   2.770  10.687 -0.2334  0.3322 -0.0300
 6904SOL     OW32173   4.587   1.346   1.518 -0.4102 -0.3655  0.3305
 6904SOL    HW132174   4.666   1.382   1.557 -0.2213  0.0935 -0.4826
 6904SOL    HW232175   4.563   1.407   1.448 -0.5715 -3.6033 -2.4341
 6905SOL     OW32176   2.923   1.798   5.708 -0.0720  0.1598 -0.6130
 6905SOL    HW132177   2.939   1.730   5.643  1.3493 -0.2841  0.1974
 6905SOL    HW232178   2.855   1.761   5.764 -0.3000  0.8695 -0.4233
 6906SOL     OW32179   0.144   3.323   7.004 -0.2183 -0.3051  0.3485
 6906SOL    HW132180   0.207   3.252   7.011 -0.8999 -0.7364  2.0657
 6906SOL    HW232181   0.085   3.286   6.939  0.0945  1.0353 -0.7013
 6907SOL     OW32182   0.304   4.401  16.886 -0.4853  0.1491 -0.2156
 6907SOL    HW132183   0.380   4.406  16.829 -1.1231  0.8532 -1.0005
 6907SOL    HW232184   0.318   4.323  16.939  1.8466 -0.3587 -1.5852
 6908SOL     OW32185   0.929   2.033  12.675 -0.1337  0.1327 -0.4152
 6908SOL    HW132186   0.918   2.099  12.744 -0.8641 -1.5995  1.1234
 6908SOL    HW232187   0.957   1.961  12.732  1.5872 -0.6969 -2.3062
 6909SOL     OW32188   4.212   0.068   3.989 -0.5946 -0.0143  0.6103
 6909SOL    HW132189   4.246   0.002   3.929  0.4120  1.3611 -0.3410
 6909SOL    HW232190   4.281   0.089   4.052  0.6533 -0.3977 -0.6116
 6910SOL     OW32191   1.951   3.905   5.894  0.2542 -0.2602  0.7092
 6910SOL    HW132192   1.897   3.864   5.827 -0.4422  1.7312  0.0427
 6910SOL    HW232193   1.928   3.998   5.889  2.2185  0.0812 -1.5684
 6911SOL     OW32194   2.231   3.292   8.068 -0.0930  0.3525  0.4276
 6911SOL    HW132195   2.280   3.211   8.085  1.7830  1.2950 -0.5189
 6911SOL    HW232196   2.183   3.308   8.150 -1.5135 -1.2618 -0.0886
 6912SOL     OW32197   1.009   3.478  12.073  0.2371  0.3991 -0.2295
 6912SOL    HW132198   0.987   3.442  11.987 -1.1015  1.2069 -0.2217
 6912SOL    HW232199   1.023   3.571  12.052 -1.6404  0.4913 -1.0185
 6913SOL     OW32200   1.964   4.023   2.263  0.0125 -0.0534 -0.1854
 6913SOL    HW132201   1.952   4.048   2.172 -2.1690 -0.2450  0.0529
 6913SOL    HW232202   1.882   3.976   2.280  0.2621 -0.3338  0.2486
 6914SOL     OW32203   0.161   2.862   7.823 -0.3988  0.2219  0.5300
 6914SOL    HW132204   0.079   2.885   7.867 -0.2924  2.3309 -0.4131
 6914SOL    HW232205   0.124   2.789   7.774  2.3395 -0.9382  0.1920
 6915SOL     OW32206   3.867   2.210  16.597 -0.1990  0.3974 -0.3514
 6915SOL    HW132207   3.816   2.210  16.515  0.0110  2.3535 -0.4649
 6915SOL    HW232208   3.811   2.155  16.652  0.9856  0.9014  1.3309
 6916SOL     OW32209   1.544   1.508   0.161  0.1718  0.1809 -0.1505
 6916SOL    HW132210   1.583   1.577   0.108  2.3755 -0.0041  1.2089
 6916SOL    HW232211   1.462   1.486   0.116 -0.7001  1.3138  0.8764
 6917SOL     OW32212   0.345   2.098   5.259  0.2350  0.3537  0.0008
 6917SOL    HW132213   0.324   2.004   5.258 -1.5216  0.7471 -0.8944
 6917SOL    HW232214   0.367   2.126   5.170  0.5711  2.1798  0.6586
 6918SOL     OW32215   3.635   0.033   7.748 -0.5051 -0.5991 -0.7264
 6918SOL    HW132216   3.727   0.030   7.724 -0.6191 -0.5707 -1.1689
 6918SOL    HW232217   3.592   4.697   7.685 -1.4097 -2.5025  1.6728
 6919SOL     OW32218   1.085   1.535   3.456 -0.8217  0.1576  0.1474
 6919SOL    HW132219   0.995   1.560   3.438 -0.6257 -0.7175 -2.0550
 6919SOL    HW232220   1.131   1.615   3.481  0.5305 -0.1175 -1.4043
 6920SOL     OW32221   2.999   2.361   5.416  0.6538 -0.0327 -0.3894
 6920SOL    HW132222   3.032   2.451   5.406  0.3032  0.1213 -0.1755
 6920SOL    HW232223   2.918   2.365   5.366 -0.7802  1.8730  2.0938
 6921SOL     OW32224   1.614   2.413   5.458 -0.2356 -0.3003  0.4728
 6921SOL    HW132225   1.609   2.324   5.491  1.3140 -0.6177 -0.1242
 6921SOL    HW232226   1.663   2.395   5.378 -0.1675 -1.0507  0.6847
 6922SOL     OW32227   4.156   4.630   6.648  0.3510 -0.9042 -0.1376
 6922SOL    HW132228   4.201   4.548   6.625  2.5221  0.6184 -1.3032
 6922SOL    HW232229   4.122   4.596   6.731  1.0295  3.6435  1.9861
 6923SOL     OW32230   2.460   1.407   1.345 -0.4066  0.5038  0.1160
 6923SOL    HW132231   2.396   1.414   1.275 -0.6706  1.1712  0.4225
 6923SOL    HW232232   2.419   1.454   1.418  0.2545 -0.1850  0.9414
 6924SOL     OW32233   3.237   2.475  10.845 -0.5633  0.2051 -1.2283
 6924SOL    HW132234   3.325   2.482  10.882 -1.4289 -1.5925  1.1875
 6924SOL    HW232235   3.237   2.555  10.792 -0.7878  1.1865  0.2527
 6925SOL     OW32236   3.644   2.549  17.618  0.0690 -0.5216 -0.0407
 6925SOL    HW132237   3.613   2.459  17.623 -0.8386 -0.1366  1.4400
 6925SOL    HW232238   3.737   2.537  17.638  0.3067  2.7948  0.9223
 6926SOL     OW32239   2.952   4.632   2.429 -0.7512  0.4354 -0.5253
 6926SOL    HW132240   2.999   4.641   2.346  1.3885  3.7131  1.0653
 6926SOL    HW232241   3.004   4.564   2.472 -0.0055  0.0403 -2.0641
 6927SOL     OW32242   2.483   4.337   3.381 -0.4758  0.0908  0.5872
 6927SOL    HW132243   2.556   4.356   3.439  1.1457 -0.1411 -1.3721
 6927SOL    HW232244   2.468   4.429   3.361 -0.0801 -0.6091 -2.9540
 6928SOL     OW32245   2.396   2.011   7.059 -0.0064 -0.0033 -0.1630
 6928SOL    HW132246   2.375   2.050   7.145 -2.6929 -0.1608 -0.7770
 6928SOL    HW232247   2.307   2.008   7.026  0.0409 -1.1769 -0.1605
 6929SOL     OW32248   0.817   2.162   8.093  0.2579  0.5867 -0.2515
 6929SOL    HW132249   0.727   2.189   8.074  0.4812  1.9859  0.6219
 6929SOL    HW232250   0.847   2.235   8.148  0.1295  0.6287 -0.2364
 6930SOL     OW32251   2.905   2.306  13.171 -0.2004 -0.0098 -0.5314
 6930SOL    HW132252   2.979   2.348  13.128  0.8379  0.6254  1.8807
 6930SOL    HW232253   2.851   2.276  13.097  1.0479 -0.5152 -1.2505
 6931SOL     OW32254   1.671   1.941   0.375  0.0433  0.3710 -0.6261
 6931SOL    HW132255   1.593   1.928   0.321  0.5143 -0.5604 -1.0849
 6931SOL    HW232256   1.722   1.861   0.361 -0.1461 -0.3592  2.8093
 6932SOL     OW32257   1.060   0.949   7.648 -0.1752 -0.4464  0.6852
 6932SOL    HW132258   1.100   0.966   7.562 -0.3396 -1.0164  0.4973
 6932SOL    HW232259   1.136   0.977   7.700  0.4786 -0.3816 -0.2950
 6933SOL     OW32260   0.989   1.969   6.994 -0.4114  0.0625  0.3716
 6933SOL    HW132261   0.951   1.891   6.955 -0.0182 -0.3857  0.8853
 6933SOL    HW232262   1.061   1.934   7.046 -0.0385 -2.5345 -1.9146
 6934SOL     OW32263   3.700   0.994   5.185  0.5022 -0.0884 -0.0696
 6934SOL    HW132264   3.697   1.075   5.135  0.7386 -0.1930 -0.2546
 6934SOL    HW232265   3.648   1.019   5.261  0.7367  0.0568  0.0432
 6935SOL     OW32266   1.728   0.864   1.973  0.0181 -0.0378  0.1753
 6935SOL    HW132267   1.686   0.834   2.054 -0.5184  0.1573 -0.0302
 6935SOL    HW232268   1.809   0.883   2.020 -1.0052  1.7628  1.2018
 6936SOL     OW32269   2.465   2.397   3.849  0.6175  0.0515  0.3824
 6936SOL    HW132270   2.528   2.467   3.867  1.5455 -0.9001  0.7911
 6936SOL    HW232271   2.519   2.348   3.786  2.5464  1.5230  0.8780
 6937SOL     OW32272   3.888   0.604   2.201  0.5049  0.0890 -0.1334
 6937SOL    HW132273   3.893   0.588   2.295 -2.7512 -1.1263 -0.1678
 6937SOL    HW232274   3.807   0.558   2.178 -0.6974  0.3140  3.6407
 6938SOL     OW32275   1.847   2.381   7.620 -0.0055 -0.4865  0.4311
 6938SOL    HW132276   1.926   2.425   7.653  1.1673  0.0213 -3.0698
 6938SOL    HW232277   1.825   2.450   7.558 -1.5160  0.6590  2.2444
 6939SOL     OW32278   4.252   3.609  11.204 -0.3255 -0.3801  0.5625
 6939SOL    HW132279   4.313   3.590  11.275  1.2962  2.0369 -0.1906
 6939SOL    HW232280   4.295   3.683  11.162 -1.4886  1.5110  2.6974
 6940SOL     OW32281   1.079   3.088   5.065 -0.3461  0.2919  0.5633
 6940SOL    HW132282   1.004   3.148   5.068 -0.1768  0.4826  1.0827
 6940SOL    HW232283   1.040   3.034   4.996  2.5891 -0.0805 -0.7912
 6941SOL     OW32284   0.842   3.591   1.809 -0.2172 -0.4465  0.1946
 6941SOL    HW132285   0.798   3.639   1.739  0.0023  0.8412  0.9577
 6941SOL    HW232286   0.766   3.561   1.859 -1.4010  3.3685  0.6343
 6942SOL     OW32287   2.508   1.286   3.397  0.0193 -0.1332 -0.0390
 6942SOL    HW132288   2.493   1.243   3.481 -0.7033  3.5089  1.6899
 6942SOL    HW232289   2.417   1.290   3.366  0.1672 -1.5369 -0.6544
 6943SOL     OW32290   4.206   2.077   9.365  0.5016  0.0346  0.2019
 6943SOL    HW132291   4.244   2.033   9.288  1.2781  2.3942 -0.7716
 6943SOL    HW232292   4.111   2.074   9.359  0.3852  1.8343  1.1406
 6944SOL     OW32293   0.476   3.810   4.029 -0.4056  0.2247 -0.1714
 6944SOL    HW132294   0.435   3.731   4.064 -1.2554  0.6535 -0.2051
 6944SOL    HW232295   0.447   3.812   3.938  1.1647 -0.4948 -0.6861
 6945SOL     OW32296   1.551   1.641  17.209 -0.4927  0.4707 -0.2490
 6945SOL    HW132297   1.641   1.610  17.197 -1.2526 -1.3038 -1.3640
 6945SOL    HW232298   1.490   1.590  17.155 -3.6640  1.0002  2.9097
 6946SOL     OW32299   3.709   3.209  14.929 -0.0008  0.2425 -0.1705
 6946SOL    HW132300   3.764   3.280  14.963 -1.6715  1.3122  0.3153
 6946SOL    HW232301   3.672   3.249  14.850 -0.2541 -1.6789 -1.0238
 6947SOL     OW32302   0.988   0.624  13.453  0.2637 -0.1704 -0.0495
 6947SOL    HW132303   1.032   0.539  13.457  0.5514  0.0023  0.5421
 6947SOL    HW232304   1.056   0.691  13.460  0.3140 -0.1774 -0.4748
 6948SOL     OW32305   3.404   3.233   5.022  0.3943  0.2963 -0.1045
 6948SOL    HW132306   3.403   3.260   5.113  2.9914  0.4955 -0.1396
 6948SOL    HW232307   3.496   3.237   4.993 -0.0274 -1.3453 -1.7408
 6949SOL     OW32308   0.089   2.083  11.949  0.3140 -0.5097 -0.5692
 6949SOL    HW132309   0.084   2.178  11.950  1.2328 -0.4650 -0.1922
 6949SOL    HW232310   0.180   2.082  11.917  0.4948 -0.0443 -0.0631
 6950SOL     OW32311   3.752   0.863  16.056  0.5072  0.2002  0.4489
 6950SOL    HW132312   3.776   0.955  16.059  0.6598  0.2037 -0.9740
 6950SOL    HW232313   3.834   0.831  16.092  0.1825 -1.5141 -0.3353
 6951SOL     OW32314   4.688   1.611   7.002 -0.1124  0.1611 -0.7072
 6951SOL    HW132315   0.005   1.570   7.079 -0.6207  0.5218 -0.2449
 6951SOL    HW232316   4.662   1.530   6.958 -0.6951 -0.3863  0.6245
 6952SOL     OW32317   0.141   0.736   5.799 -0.3150  0.3908  0.4472
 6952SOL    HW132318   0.051   0.721   5.770 -0.3894  1.6696  0.0092
 6952SOL    HW232319   0.191   0.753   5.719 -1.2016 -1.6049 -0.5317
 6953SOL     OW32320   4.203   2.016  16.859  0.5051 -0.0623 -0.2706
 6953SOL    HW132321   4.166   2.104  16.867 -0.5773 -0.4434 -1.0163
 6953SOL    HW232322   4.136   1.972  16.912  2.5555 -1.2350  1.3575
 6954SOL     OW32323   1.762   0.175   6.377  0.4325 -0.0649  0.0082
 6954SOL    HW132324   1.820   0.111   6.418 -1.0998 -0.8664  0.9472
 6954SOL    HW232325   1.804   0.167   6.292 -0.8542 -0.8182 -0.5548
 6955SOL     OW32326   0.638   2.568   8.221  0.0676 -0.0039  0.2208
 6955SOL    HW132327   0.568   2.545   8.160 -0.0603  1.0401 -0.0165
 6955SOL    HW232328   0.593   2.586   8.304 -0.8351  1.9654 -0.7042
 6956SOL     OW32329   4.677   2.542  10.544 -0.3978 -0.4760  0.1057
 6956SOL    HW132330   4.648   2.512  10.458 -1.1901  0.2080  0.1343
 6956SOL    HW232331   0.011   2.615  10.525 -0.9517  0.5684  2.4508
 6957SOL     OW32332   0.419   1.721   8.369 -0.1725 -0.0220 -0.1667
 6957SOL    HW132333   0.339   1.707   8.318  0.6708  0.6435 -1.6828
 6957SOL    HW232334   0.410   1.644   8.425 -0.5740  0.1313 -0.0117
 6958SOL     OW32335   2.678   1.978  12.993  0.0406 -0.2268 -0.3317
 6958SOL    HW132336   2.605   1.920  13.015 -0.0371  0.2841  0.7325
 6958SOL    HW232337   2.762   1.938  13.015  0.1000  0.4895  0.6982
 6959SOL     OW32338   0.577   1.094   3.605 -1.0112  0.0534  0.6285
 6959SOL    HW132339   0.635   1.071   3.533 -0.7941 -1.4743  1.3049
 6959SOL    HW232340   0.500   1.115   3.552 -1.2918  0.6832  1.2644
 6960SOL     OW32341   0.975   2.584   7.048  0.1320 -0.0864  0.6181
 6960SOL    HW132342   1.019   2.503   7.076 -0.3629 -0.4029  0.4884
 6960SOL    HW232343   1.048   2.643   7.031  0.5523 -0.7318  0.1506
 6961SOL     OW32344   3.101   3.479   6.170  0.0007 -0.0105 -0.1473
 6961SOL    HW132345   3.063   3.543   6.230 -0.4884  0.3459 -0.8447
 6961SOL    HW232346   3.066   3.512   6.088 -0.1013 -0.5676 -0.3295
 6962SOL     OW32347   2.930   1.824   9.083  0.1496  0.8127  0.1525
 6962SOL    HW132348   2.867   1.767   9.037  0.6373  0.5427 -0.1801
 6962SOL    HW232349   2.869   1.891   9.114 -0.5818 -0.3939  1.3430
 6963SOL     OW32350   1.865   3.393   3.232  0.3664  0.4264 -0.3262
 6963SOL    HW132351   1.947   3.354   3.261  0.0010  0.6426  1.0168
 6963SOL    HW232352   1.868   3.466   3.294  0.5071 -1.2437  1.6092
 6964SOL     OW32353   0.698   3.064   4.243  0.4857 -0.1006  0.0816
 6964SOL    HW132354   0.769   3.118   4.208  0.1488  1.3423  1.6123
 6964SOL    HW232355   0.741   3.003   4.304 -1.7524 -0.4959  1.2756
 6965SOL     OW32356   4.273   1.333  16.861  0.2786  0.3760 -0.4355
 6965SOL    HW132357   4.251   1.426  16.859 -0.6029  0.1855  0.5335
 6965SOL    HW232358   4.204   1.303  16.801 -0.5472 -1.2419  1.3281
 6966SOL     OW32359   2.627   4.589   8.285 -0.1175  0.5422 -0.8213
 6966SOL    HW132360   2.553   4.646   8.261 -0.5866 -0.1556 -1.0142
 6966SOL    HW232361   2.636   4.558   8.195 -0.5335  1.2141 -1.1025
 6967SOL     OW32362   1.311   3.778   3.729 -0.1509 -0.0759 -0.5820
 6967SOL    HW132363   1.402   3.757   3.708  0.8302  1.5910  1.9711
 6967SOL    HW232364   1.285   3.694   3.766 -1.7255  0.3807 -0.6378
 6968SOL     OW32365   3.142   3.867   2.850  0.0541  0.0059 -0.5249
 6968SOL    HW132366   3.214   3.914   2.808 -0.6227  1.1163 -0.4424
 6968SOL    HW232367   3.100   3.941   2.894 -0.0177 -0.6408  0.4923
 6969SOL     OW32368   2.688   3.485   6.948  0.1776  0.0449 -0.1727
 6969SOL    HW132369   2.633   3.564   6.947 -0.4339 -0.3488  2.4796
 6969SOL    HW232370   2.777   3.518   6.962  0.2989 -0.4319  0.1873
 6970SOL     OW32371   4.545   0.199   1.904  0.1719  0.1255 -0.3159
 6970SOL    HW132372   4.540   0.294   1.906  0.9925  0.2123 -2.4280
 6970SOL    HW232373   4.512   0.184   1.816  3.0835 -0.8112 -1.2307
 6971SOL     OW32374   1.248   0.701  14.249 -0.2030  0.0599 -0.6691
 6971SOL    HW132375   1.204   0.618  14.234  0.7865 -0.5615 -0.0686
 6971SOL    HW232376   1.338   0.681  14.224  0.5654  0.6575  1.6905
 6972SOL     OW32377   0.826   4.175   7.442 -0.3246  0.3980 -0.0440
 6972SOL    HW132378   0.887   4.188   7.370 -1.0370  0.4486 -0.6315
 6972SOL    HW232379   0.852   4.093   7.485 -1.5354  0.5964  1.0883
 6973SOL     OW32380   3.976   4.360  12.777 -0.3679 -0.2985 -0.4168
 6973SOL    HW132381   4.056   4.370  12.828 -0.8340 -0.5072  0.3567
 6973SOL    HW232382   4.010   4.316  12.699  0.2605 -0.7571  0.1155
 6974SOL     OW32383   4.614   3.396  14.841  0.1103  0.2458  0.4344
 6974SOL    HW132384   4.609   3.303  14.865 -0.4785  0.3824  0.8322
 6974SOL    HW232385   4.530   3.415  14.800 -0.0810 -0.8684  0.3147
 6975SOL     OW32386   4.608   3.161  15.157  0.1360 -0.3232 -0.3335
 6975SOL    HW132387   4.567   3.169  15.071  1.0124  0.4786 -0.6829
 6975SOL    HW232388   4.698   3.191  15.141  0.6398 -1.2184  0.8497
 6976SOL     OW32389   3.996   3.365  10.551 -0.0886  0.2142 -0.0359
 6976SOL    HW132390   3.998   3.288  10.494  0.3067  0.1435  0.0776
 6976SOL    HW232391   4.059   3.333  10.615 -1.0589 -2.6315 -0.4980
 6977SOL     OW32392   4.385   2.240   3.381 -0.4739 -0.2843  0.2537
 6977SOL    HW132393   4.306   2.284   3.351  0.3653  0.6259 -0.6246
 6977SOL    HW232394   4.373   2.247   3.475 -0.7825  1.1143  0.0999
 6978SOL     OW32395   0.351   0.139   5.550  0.0028 -0.2230  0.3422
 6978SOL    HW132396   0.408   0.210   5.521  0.8505 -1.5017 -1.0956
 6978SOL    HW232397   0.380   0.068   5.493  2.1545 -0.4500  1.7171
 6979SOL     OW32398   1.503   0.455  14.397 -0.0333  0.8756 -0.4357
 6979SOL    HW132399   1.495   0.468  14.491  2.8960  0.2201 -0.1140
 6979SOL    HW232400   1.597   0.466  14.386  0.0592  0.9624  0.4884
 6980SOL     OW32401   0.527   1.187   2.609  0.4951  0.0817 -0.5209
 6980SOL    HW132402   0.553   1.278   2.596  1.4505  0.0249  1.0206
 6980SOL    HW232403   0.591   1.151   2.548 -0.0889  0.8718 -1.5957
 6981SOL     OW32404   4.275   0.015  17.458 -0.1020 -0.2869 -0.0846
 6981SOL    HW132405   4.194   0.063  17.474  0.5983  0.6146  0.7595
 6981SOL    HW232406   4.342   0.055  17.513 -0.3833  0.8282 -0.5606
 6982SOL     OW32407   3.461   3.259  11.990 -0.0793 -0.5386  0.6289
 6982SOL    HW132408   3.512   3.312  12.050 -1.5456  0.6605  0.8316
 6982SOL    HW232409   3.538   3.228  11.942 -1.0266 -0.9647 -0.6284
 6983SOL     OW32410   0.608   0.073   1.123 -0.2166 -0.1523  0.6485
 6983SOL    HW132411   0.703   0.088   1.118 -0.0030 -1.3934  1.0819
 6983SOL    HW232412   0.584   0.139   1.188  0.5199 -0.4742  1.2444
 6984SOL     OW32413   4.115   4.190   2.891  0.6135  0.3779 -0.3887
 6984SOL    HW132414   4.162   4.273   2.889  2.6463 -0.7961 -1.9590
 6984SOL    HW232415   4.042   4.212   2.948  1.0230  2.2058 -0.5783
 6985SOL     OW32416   3.012   1.420   3.720  0.9906 -0.5127 -0.2971
 6985SOL    HW132417   3.034   1.502   3.676 -2.2954 -0.0692 -1.0763
 6985SOL    HW232418   3.009   1.350   3.655 -0.8585  0.0637 -0.8275
 6986SOL     OW32419   4.454   0.879   2.373 -0.0465 -0.4952  0.6355
 6986SOL    HW132420   4.374   0.925   2.402 -0.8042 -2.1777  1.2049
 6986SOL    HW232421   4.437   0.888   2.279  0.4177 -1.0882  0.4995
 6987SOL     OW32422   1.689   2.088   9.429 -0.4094  0.1242 -0.1652
 6987SOL    HW132423   1.783   2.089   9.413 -0.5077 -0.0353 -0.7573
 6987SOL    HW232424   1.659   2.027   9.361 -1.1007  1.4528 -1.0301
 6988SOL     OW32425   1.738   1.768   3.011 -0.5971  0.2303 -0.1798
 6988SOL    HW132426   1.788   1.800   3.087 -3.3074 -0.1732  1.7592
 6988SOL    HW232427   1.736   1.853   2.966 -3.3271  1.3735  2.1603
 6989SOL     OW32428   3.366   0.228  16.043  0.0757 -0.2636  0.4132
 6989SOL    HW132429   3.302   0.208  15.975  2.5107  0.5298 -2.1088
 6989SOL    HW232430   3.387   0.138  16.069  0.4004  0.2199  1.8221
 6990SOL     OW32431   1.967   2.782   6.121 -0.0267 -0.6414  0.4504
 6990SOL    HW132432   2.002   2.700   6.086  1.6122  0.0497  0.4319
 6990SOL    HW232433   2.036   2.845   6.098 -0.1296 -1.0967 -1.0792
 6991SOL     OW32434   3.674   1.227   4.166 -0.4578  0.4954 -0.0317
 6991SOL    HW132435   3.741   1.172   4.208  1.4640  2.6043 -0.3589
 6991SOL    HW232436   3.673   1.196   4.076 -0.8723  3.8134 -1.1490
 6992SOL     OW32437   1.339   0.528   0.182  0.2798 -0.0349  0.0428
 6992SOL    HW132438   1.349   0.620   0.206 -0.5335  0.5764 -1.8794
 6992SOL    HW232439   1.339   0.485   0.267 -1.3793  0.5320  0.3464
 6993SOL     OW32440   2.041   0.042   5.444 -0.1698  0.9752 -0.1603
 6993SOL    HW132441   2.129   0.005   5.457  0.5362  2.8199  0.3413
 6993SOL    HW232442   2.037   0.105   5.516  0.1706 -0.7332  1.3382
 6994SOL     OW32443   2.054   2.465  10.980  0.0530 -0.0319  0.2575
 6994SOL    HW132444   2.001   2.400  11.026 -2.2282  0.5842 -1.4896
 6994SOL    HW232445   2.143   2.430  10.986  0.3396  0.9186  1.7519
 6995SOL     OW32446   1.340   4.116   0.611 -0.0489  0.3033 -0.6539
 6995SOL    HW132447   1.268   4.128   0.674 -2.3907 -0.8552 -3.1102
 6995SOL    HW232448   1.399   4.181   0.648  1.1757  0.1892 -2.4259
 6996SOL     OW32449   2.788   1.933   8.574 -0.2501  0.3514 -0.0804
 6996SOL    HW132450   2.861   1.963   8.521 -0.0074 -1.8351 -0.9602
 6996SOL    HW232451   2.812   1.841   8.577 -4.2939 -0.8060 -3.7591
 6997SOL     OW32452   0.563   0.554   3.152 -0.0389 -0.2098 -0.3040
 6997SOL    HW132453   0.565   0.458   3.152  0.7726 -0.1896 -0.6219
 6997SOL    HW232454   0.510   0.566   3.073 -0.0716 -0.2603 -0.2897
 6998SOL     OW32455   0.737   0.816  12.446  0.6443 -0.7248  0.4032
 6998SOL    HW132456   0.710   0.732  12.411  0.7465 -0.0610 -1.2735
 6998SOL    HW232457   0.775   0.796  12.531  0.5337 -2.1962  0.1027
 6999SOL     OW32458   1.563   2.179   5.578 -0.9107  0.2421  0.3286
 6999SOL    HW132459   1.545   2.090   5.549  0.2299  0.1016  0.0442
 6999SOL    HW232460   1.565   2.163   5.672 -2.1364 -0.1255  0.2906
 7000SOL     OW32461   2.556   1.094   2.058  0.0584 -0.8137 -0.2438
 7000SOL    HW132462   2.628   1.127   2.005 -1.3486  1.2597 -0.8617
 7000SOL    HW232463   2.517   1.181   2.066 -0.0706 -0.8497 -0.4731
 7001SOL     OW32464   0.702   3.911   9.476  0.6445 -0.4065  0.2648
 7001SOL    HW132465   0.654   3.842   9.429  1.6517 -0.7125 -0.3054
 7001SOL    HW232466   0.645   3.896   9.552 -1.4593 -0.3224 -1.2767
 7002SOL     OW32467   0.297   2.783  14.254 -0.0454  0.6942  0.0103
 7002SOL    HW132468   0.350   2.765  14.176 -1.3733  1.7596 -1.1330
 7002SOL    HW232469   0.341   2.741  14.327 -0.0907 -0.8891 -0.8599
 7003SOL     OW32470   0.053   1.434   9.745 -0.2703 -0.1448 -0.4648
 7003SOL    HW132471   0.120   1.480   9.794 -0.1326  0.7753 -1.5098
 7003SOL    HW232472   0.012   1.512   9.707  1.4537  1.4088  0.8796
 7004SOL     OW32473   1.492   1.753   8.519  0.9745 -0.2792 -0.5297
 7004SOL    HW132474   1.563   1.814   8.541  0.3054  0.2623  0.1214
 7004SOL    HW232475   1.538   1.716   8.444 -1.4394  2.3789 -3.3623
 7005SOL     OW32476   2.951   4.520   6.104 -0.0082  0.0626  0.4377
 7005SOL    HW132477   2.976   4.561   6.021  0.0389  1.8779  1.3424
 7005SOL    HW232478   3.024   4.540   6.163  1.2465  1.8608 -1.7320
 7006SOL     OW32479   1.920   4.056  10.213  0.6764 -0.0025  0.5457
 7006SOL    HW132480   1.859   4.000  10.262  1.3879 -1.2546 -0.0258
 7006SOL    HW232481   1.901   4.025  10.125 -0.3144  0.6365  0.5268
 7007SOL     OW32482   2.287   0.889  10.646 -0.4742  0.0097 -0.2468
 7007SOL    HW132483   2.376   0.922  10.663 -0.2587  0.3630 -2.0684
 7007SOL    HW232484   2.245   0.970  10.673 -0.6039 -0.0052 -0.4028
 7008SOL     OW32485   2.777   1.690   8.156 -0.3468  0.3676  0.3783
 7008SOL    HW132486   2.823   1.769   8.185 -0.0152  0.9369 -1.6814
 7008SOL    HW232487   2.705   1.688   8.219 -0.9720  3.4965 -0.2268
 7009SOL     OW32488   0.341   3.263  13.303 -0.4469  0.0479  0.5504
 7009SOL    HW132489   0.314   3.343  13.349  2.5716  1.6814 -0.4830
 7009SOL    HW232490   0.377   3.315  13.230  1.9607 -0.1339  1.6115
 7010SOL     OW32491   0.397   1.160  11.348 -0.4798 -0.1522 -0.0536
 7010SOL    HW132492   0.341   1.160  11.426  0.3960  2.1790  0.5713
 7010SOL    HW232493   0.483   1.169  11.389  0.1981 -2.8968 -0.8200
 7011SOL     OW32494   4.403   1.351   0.212  0.3887  0.2777 -0.1488
 7011SOL    HW132495   4.449   1.270   0.190 -0.5401 -0.8607  2.1256
 7011SOL    HW232496   4.465   1.408   0.257 -1.1581  2.2609 -0.5198
 7012SOL     OW32497   2.840   1.111   7.892  0.0295 -0.2027  0.6456
 7012SOL    HW132498   2.874   1.055   7.961 -1.6729 -0.2619  1.4501
 7012SOL    HW232499   2.917   1.161   7.865  0.7570 -0.9203  1.4008
 7013SOL     OW32500   1.285   2.068   8.352  0.0765 -0.0032  0.3318
 7013SOL    HW132501   1.296   2.024   8.268  0.7296  0.7649  0.0222
 7013SOL    HW232502   1.205   2.117   8.333 -0.2122 -1.5878 -2.5021
 7014SOL     OW32503   2.935   4.458  10.744  0.3437  0.2013 -0.2040
 7014SOL    HW132504   2.891   4.499  10.818 -1.6771 -2.8228  0.2917
 7014SOL    HW232505   3.022   4.439  10.780  0.5134  0.7633 -0.3225
 7015SOL     OW32506   2.476   2.654  15.493  0.2180 -0.1842  0.4224
 7015SOL    HW132507   2.444   2.744  15.495 -0.3272 -0.3632 -0.3365
 7015SOL    HW232508   2.570   2.664  15.508  0.2879 -1.7080  1.0598
 7016SOL     OW32509   0.052   2.781  10.820  0.2190  0.8514  0.1998
 7016SOL    HW132510   4.693   2.735  10.805 -0.1141  2.7264 -3.9394
 7016SOL    HW232511   0.076   2.765  10.911 -2.9662 -0.3612  0.8336
 7017SOL     OW32512   4.633   2.383   9.490  0.1206 -0.0406  0.0916
 7017SOL    HW132513   4.632   2.472   9.454 -1.2198 -0.0930 -0.0008
 7017SOL    HW232514   4.723   2.379   9.523 -0.0959 -1.7900  0.4707
 7018SOL     OW32515   2.062   3.681   4.169  0.1742 -1.2072  0.5674
 7018SOL    HW132516   2.050   3.631   4.088 -2.2657 -0.1525  0.2613
 7018SOL    HW232517   2.054   3.605   4.228  0.2320 -0.4405  1.5585
 7019SOL     OW32518   4.466   2.019   0.909 -0.2057  0.2462  0.3838
 7019SOL    HW132519   4.539   2.079   0.898  0.2342  0.1120  2.5488
 7019SOL    HW232520   4.417   2.033   0.828  0.0041  2.2301  0.6055
 7020SOL     OW32521   1.489   3.180   4.189 -0.5491 -0.7287  0.1932
 7020SOL    HW132522   1.579   3.205   4.168 -0.2858 -0.3002  1.8254
 7020SOL    HW232523   1.446   3.264   4.206 -1.2900 -1.1654  0.4578
 7021SOL     OW32524   1.131   4.351   7.425  0.0650 -0.1155  0.7037
 7021SOL    HW132525   1.221   4.350   7.394 -0.4713 -0.0591 -0.8514
 7021SOL    HW232526   1.090   4.286   7.367 -0.3460 -0.4526  1.3553
 7022SOL     OW32527   1.979   0.753   7.868 -0.3282  0.3264 -0.3817
 7022SOL    HW132528   1.956   0.773   7.778  0.7756  0.7155 -0.5783
 7022SOL    HW232529   1.892   0.757   7.907  0.2579  0.1648  0.9479
 7023SOL     OW32530   0.056   0.481  13.307 -0.3077  0.3319  0.0518
 7023SOL    HW132531   0.072   0.390  13.333 -0.7782  0.8276  2.1215
 7023SOL    HW232532   4.713   0.503  13.373 -0.0957  0.1617  0.3267
 7024SOL     OW32533   4.034   1.066   4.576  0.3581 -0.0624 -0.0386
 7024SOL    HW132534   3.941   1.059   4.556  0.6640 -1.5953 -1.0036
 7024SOL    HW232535   4.055   1.150   4.535  2.3283  0.4733  2.0452
 7025SOL     OW32536   0.787   1.536   4.994  0.1302  0.4025  0.0540
 7025SOL    HW132537   0.840   1.460   4.969  0.7029  0.7698  0.1468
 7025SOL    HW232538   0.802   1.544   5.088 -2.2210  0.4049  0.4204
 7026SOL     OW32539   3.116   4.547   8.156  0.1858  0.0511 -0.4278
 7026SOL    HW132540   3.098   4.554   8.062 -2.2736  0.5305  0.0786
 7026SOL    HW232541   3.049   4.602   8.198  2.1142  3.3080 -1.5969
 7027SOL     OW32542   0.035   0.365  15.922  0.5338 -0.3320  0.0963
 7027SOL    HW132543   4.717   0.282  15.900  2.0378 -1.6365  2.2103
 7027SOL    HW232544   0.118   0.325  15.946  0.6451  0.9528  1.8468
 7028SOL     OW32545   4.104   2.188   1.740 -0.3903 -0.2980  0.1503
 7028SOL    HW132546   4.066   2.192   1.652 -0.6943  0.0024  0.2957
 7028SOL    HW232547   4.030   2.141   1.778 -2.2479  1.0486 -1.7681
 7029SOL     OW32548   2.509   0.009   1.487 -0.1864 -0.2035  0.3772
 7029SOL    HW132549   2.448   4.668   1.451  1.3495 -0.8184 -1.1551
 7029SOL    HW232550   2.470   0.095   1.475  0.2991  0.3072  2.5186
 7030SOL     OW32551   1.874   3.944   7.915  0.2519 -0.2804  0.1824
 7030SOL    HW132552   1.916   3.928   7.830 -0.8924 -0.6741 -0.2987
 7030SOL    HW232553   1.901   3.862   7.958  0.0377 -0.3053  0.2687
 7031SOL     OW32554   3.843   3.719  11.908 -0.5159  0.0732 -0.4990
 7031SOL    HW132555   3.894   3.757  11.979 -2.2139  2.8132 -0.7437
 7031SOL    HW232556   3.861   3.626  11.924  0.4236  0.2315 -0.6183
 7032SOL     OW32557   1.305   0.090   6.439 -0.4373  0.5571 -0.2596
 7032SOL    HW132558   1.341   0.001   6.442  0.2437  0.7416 -2.7647
 7032SOL    HW232559   1.384   0.141   6.422  2.5259 -3.6700  0.8885
 7033SOL     OW32560   2.820   4.276  15.531 -0.5031  0.6739 -0.0653
 7033SOL    HW132561   2.778   4.280  15.616 -2.8064 -1.8381 -1.0923
 7033SOL    HW232562   2.844   4.184  15.523  0.0579  0.5565  3.3959
 7034SOL     OW32563   2.837   1.996   2.893 -0.5944 -0.0381 -0.1959
 7034SOL    HW132564   2.782   2.011   2.816 -1.8460 -0.2552  0.6410
 7034SOL    HW232565   2.776   2.023   2.962 -1.8578 -1.4128 -0.7608
 7035SOL     OW32566   2.627   0.104   7.769 -0.6745 -0.2592  0.5424
 7035SOL    HW132567   2.616   0.107   7.864  0.4290 -1.1000  0.6940
 7035SOL    HW232568   2.569   0.177   7.746  0.4077  0.2181 -0.6902
 7036SOL     OW32569   0.264   0.060  16.159  0.2545  0.7357 -0.4102
 7036SOL    HW132570   0.304   4.719  16.100  1.3000  0.6435  0.3986
 7036SOL    HW232571   0.309   0.046  16.242  0.3045 -2.4775 -0.9813
 7037SOL     OW32572   4.322   4.685   2.945 -0.0950 -0.0300 -0.2986
 7037SOL    HW132573   4.314   0.057   2.936 -1.1042 -0.2533 -1.9187
 7037SOL    HW232574   4.389   4.684   3.013  0.3889  0.5137 -0.7715
 7038SOL     OW32575   4.121   3.336  14.741 -0.4881  0.3499 -0.5339
 7038SOL    HW132576   4.089   3.321  14.830 -0.3188 -0.5712 -0.6269
 7038SOL    HW232577   4.033   3.351  14.704 -0.9682  1.7007  1.1341
 7039SOL     OW32578   4.433   2.503  12.082  1.3970  0.3169 -0.0172
 7039SOL    HW132579   4.413   2.561  12.008 -0.0893 -2.8040 -2.0636
 7039SOL    HW232580   4.526   2.492  12.061  2.0986  1.6293  2.3824
 7040SOL     OW32581   0.670   1.471   2.066  0.3731 -0.3208  0.1361
 7040SOL    HW132582   0.625   1.441   1.987 -2.1808  0.3706  1.3251
 7040SOL    HW232583   0.668   1.395   2.125 -1.5611 -0.6348 -0.3383
 7041SOL     OW32584   4.617   0.716   6.361 -0.1598  0.0783 -0.2511
 7041SOL    HW132585   4.622   0.641   6.301  3.0688 -1.9546  2.5378
 7041SOL    HW232586   4.628   0.786   6.297 -2.1118  1.0572  0.4950
 7042SOL     OW32587   3.584   2.608   1.366  0.2148  0.6481  0.3990
 7042SOL    HW132588   3.670   2.603   1.410 -0.9960 -2.1988  2.4106
 7042SOL    HW232589   3.544   2.659   1.436 -0.8614  1.4235 -0.7975
 7043SOL     OW32590   1.650   1.034   8.050  0.1785  0.3138 -0.1666
 7043SOL    HW132591   1.637   1.118   8.094  1.6413  0.9760 -1.0080
 7043SOL    HW232592   1.716   1.060   7.987  1.1115 -1.3166  0.1222
 7044SOL     OW32593   1.760   0.020  14.406 -0.1672 -0.3213 -0.6912
 7044SOL    HW132594   1.721   0.066  14.331 -2.5393  0.8817  1.2488
 7044SOL    HW232595   1.749   4.656  14.370 -0.9152 -1.8043  3.1174
 7045SOL     OW32596   3.783   3.561   6.850 -0.5739 -0.1382 -0.0216
 7045SOL    HW132597   3.835   3.627   6.896  0.3970 -0.0430 -1.2480
 7045SOL    HW232598   3.757   3.503   6.921 -0.2264  0.9476  1.0044
 7046SOL     OW32599   1.793   1.508   5.664 -0.2616  0.1170  0.0252
 7046SOL    HW132600   1.702   1.504   5.636  0.0364 -0.3315 -0.8770
 7046SOL    HW232601   1.781   1.486   5.757  0.1973  1.0484  0.3018
 7047SOL     OW32602   1.923   2.491   8.798 -0.4547  0.0353 -0.2114
 7047SOL    HW132603   2.015   2.510   8.817 -0.3310 -1.0709  0.3009
 7047SOL    HW232604   1.904   2.423   8.863  0.8099 -0.4860 -0.3787
 7048SOL     OW32605   0.009   1.088   1.303 -0.2463 -0.6362  0.7906
 7048SOL    HW132606   0.083   1.044   1.260 -0.0823 -0.5482  0.9827
 7048SOL    HW232607   4.663   1.060   1.243 -1.3430 -0.5563  2.0212
 7049SOL     OW32608   2.717   2.111   6.338  0.0227 -0.5621  0.3074
 7049SOL    HW132609   2.725   2.136   6.430 -0.9055  0.5732  0.0816
 7049SOL    HW232610   2.659   2.036   6.345 -0.8952  0.1944  0.8960
 7050SOL     OW32611   0.697   0.099  10.263  0.3124 -0.2824  0.4102
 7050SOL    HW132612   0.643   0.057  10.330  0.8746 -0.1444  0.9507
 7050SOL    HW232613   0.763   0.147  10.313 -0.4000  1.9348 -0.7792
 7051SOL     OW32614   2.511   1.927   3.976  0.4190 -0.0905 -0.0883
 7051SOL    HW132615   2.527   1.900   3.886  1.0780  1.0316 -0.3123
 7051SOL    HW232616   2.416   1.916   3.975  0.2890  0.9585  0.4614
 7052SOL     OW32617   0.661   0.996   3.847 -0.2373  0.4612 -0.6778
 7052SOL    HW132618   0.608   0.918   3.830  0.4972 -0.7344  2.7204
 7052SOL    HW232619   0.669   1.036   3.760  1.9659 -0.2306 -0.7724
 7053SOL     OW32620   2.368   1.278   7.962  0.3206 -0.6549 -0.5178
 7053SOL    HW132621   2.421   1.314   8.034 -2.3412  1.2443  0.4884
 7053SOL    HW232622   2.299   1.244   8.020  0.9586  1.0981  1.2500
 7054SOL     OW32623   0.612   1.485  15.397 -0.5889  0.7393 -0.6840
 7054SOL    HW132624   0.699   1.497  15.433 -1.2306  0.7588  0.8714
 7054SOL    HW232625   0.565   1.539  15.459 -0.0868  0.4310 -0.0401
 7055SOL     OW32626   1.899   0.181   1.559  0.0884 -0.2025 -0.0779
 7055SOL    HW132627   1.963   0.195   1.630  1.4093  1.7090 -1.6274
 7055SOL    HW232628   1.828   0.234   1.594 -0.1363 -0.3459 -0.3244
 7056SOL     OW32629   3.426   0.459   8.740 -0.3755  0.3534 -0.2757
 7056SOL    HW132630   3.414   0.553   8.730 -2.9999 -0.1115 -1.2668
 7056SOL    HW232631   3.503   0.444   8.684  0.9720  1.8093  1.1623
 7057SOL     OW32632   3.795   3.207  14.008  0.8293 -0.1518 -0.1190
 7057SOL    HW132633   3.844   3.173  14.083 -0.3394 -1.8111 -0.0992
 7057SOL    HW232634   3.762   3.123  13.974  0.8846 -0.3713  0.3719
 7058SOL     OW32635   4.621   3.787  13.130 -0.2509  0.2894 -0.4537
 7058SOL    HW132636   4.654   3.863  13.178  1.2487 -1.1607  0.8106
 7058SOL    HW232637   4.596   3.741  13.210 -0.4877 -0.5823 -1.0373
 7059SOL     OW32638   2.297   2.396   5.922  0.6609 -0.5612  0.2148
 7059SOL    HW132639   2.351   2.414   5.998  0.1382  1.1924  0.1803
 7059SOL    HW232640   2.286   2.483   5.882  0.2292  0.2438  2.1185
 7060SOL     OW32641   3.867   1.338   5.313  0.2213 -0.2212  0.1297
 7060SOL    HW132642   3.896   1.316   5.225 -0.9410  1.2121 -0.6049
 7060SOL    HW232643   3.792   1.392   5.289  0.8310  0.5758  0.0310
 7061SOL     OW32644   4.469   2.176   5.808  0.6913 -0.2810 -0.5547
 7061SOL    HW132645   4.461   2.107   5.873  1.9427  0.5941  0.5562
 7061SOL    HW232646   4.492   2.251   5.863 -0.9432  0.7056 -1.2106
 7062SOL     OW32647   4.114   1.566  11.658  0.6434  0.6209  0.1188
 7062SOL    HW132648   4.056   1.549  11.732 -1.8917 -1.4785 -2.3515
 7062SOL    HW232649   4.145   1.652  11.688 -1.7944  1.2169  0.9212
 7063SOL     OW32650   0.265   3.065   7.010  0.4337 -0.3109 -0.1865
 7063SOL    HW132651   0.353   3.030   6.997  0.4213 -0.7704  0.9673
 7063SOL    HW232652   0.249   3.075   7.104  0.2280 -0.2361 -0.2295
 7064SOL     OW32653   0.071   1.624   1.092 -0.4990 -0.2250  0.4033
 7064SOL    HW132654   0.020   1.690   1.046 -1.5981 -0.6947  0.9526
 7064SOL    HW232655   0.057   1.542   1.046 -0.3599  0.4911 -0.9105
 7065SOL     OW32656   1.382   0.473   3.077 -0.3653  0.6123 -0.3218
 7065SOL    HW132657   1.373   0.401   3.139 -1.1183 -0.1052 -1.2564
 7065SOL    HW232658   1.352   0.422   3.002  1.5715 -2.8352  1.2693
 7066SOL     OW32659   2.509   2.931   2.619 -0.1114  0.0455 -0.5065
 7066SOL    HW132660   2.550   2.991   2.681 -0.0312  1.6442 -2.0954
 7066SOL    HW232661   2.423   2.972   2.611 -0.6982 -0.6505  2.2944
 7067SOL     OW32662   3.193   2.691   7.512  0.5069  0.2899 -0.0106
 7067SOL    HW132663   3.203   2.621   7.448 -0.9955 -0.4481  0.5372
 7067SOL    HW232664   3.138   2.755   7.466  0.2569  1.1100  1.4195
 7068SOL     OW32665   0.090   1.603   2.748 -0.3420 -0.2068  0.4422
 7068SOL    HW132666   0.066   1.677   2.804 -0.2586  0.0909  0.0815
 7068SOL    HW232667   0.026   1.605   2.677  0.9543  3.4407 -0.5995
 7069SOL     OW32668   4.513   2.599   6.338  0.0793  0.0282  0.6988
 7069SOL    HW132669   4.538   2.680   6.382  1.6944 -0.4387  0.6641
 7069SOL    HW232670   4.540   2.624   6.250  0.4377  2.5066  1.5057
 7070SOL     OW32671   1.402   4.105   5.781 -0.2137 -0.0022  0.0789
 7070SOL    HW132672   1.469   4.060   5.832  1.2074 -0.7541 -2.4377
 7070SOL    HW232673   1.328   4.098   5.841 -0.8424  1.1656 -0.5488
 7071SOL     OW32674   2.741   0.932   4.566 -0.0481  0.2325 -0.5599
 7071SOL    HW132675   2.750   0.837   4.574  0.9207  0.4445  0.8115
 7071SOL    HW232676   2.784   0.935   4.481 -1.8587 -1.3706 -1.5407
 7072SOL     OW32677   1.672   0.764   2.227 -0.0441  0.2484  0.0737
 7072SOL    HW132678   1.666   0.755   2.322 -3.5684 -4.3562 -0.5409
 7072SOL    HW232679   1.663   0.670   2.211 -3.3617  0.6564 -0.3802
 7073SOL     OW32680   2.257   4.393   6.080 -0.0687 -0.3880  0.1744
 7073SOL    HW132681   2.344   4.351   6.076  0.3010  0.0659  3.2350
 7073SOL    HW232682   2.218   4.333   6.144  0.2947 -1.0380 -0.2121
 7074SOL     OW32683   1.533   3.263   9.821  0.7445  0.6311  0.2636
 7074SOL    HW132684   1.515   3.344   9.870 -0.4601  0.3383  0.2970
 7074SOL    HW232685   1.628   3.261   9.807  0.7312  1.6896 -0.0042
 7075SOL     OW32686   4.680   0.954   5.703 -0.3128  0.1161 -0.0354
 7075SOL    HW132687   4.692   0.995   5.789  0.6275 -0.8405  0.2849
 7075SOL    HW232688   4.595   0.911   5.717  0.2721 -0.8753  0.4625
 7076SOL     OW32689   3.587   3.127   8.131 -0.3273  0.0489 -0.4864
 7076SOL    HW132690   3.642   3.178   8.071 -2.6651  2.3004 -0.7428
 7076SOL    HW232691   3.594   3.182   8.210 -1.4385 -1.1203  0.4262
 7077SOL     OW32692   1.948   3.130  13.368  0.7207  0.5929 -0.1104
 7077SOL    HW132693   1.955   3.205  13.427 -1.1782  2.3966 -2.1493
 7077SOL    HW232694   1.861   3.145  13.331  0.5835 -2.2042 -0.9852
 7078SOL     OW32695   1.715   1.851   8.811 -0.0067  0.1195 -0.0794
 7078SOL    HW132696   1.699   1.906   8.734  0.0840  0.0435 -0.1544
 7078SOL    HW232697   1.748   1.767   8.776 -0.6556  1.0632 -2.9908
 7079SOL     OW32698   0.592   2.895   7.142  0.0189  0.3457 -0.3112
 7079SOL    HW132699   0.535   2.818   7.140  1.2600 -0.5563 -0.5322
 7079SOL    HW232700   0.598   2.925   7.051  1.5111  1.0261  0.0186
 7080SOL     OW32701   4.400   2.655   1.562 -0.4955 -0.0012 -0.4584
 7080SOL    HW132702   4.366   2.671   1.474  0.2731 -1.8622 -1.0972
 7080SOL    HW232703   4.482   2.704   1.562 -1.7517  2.0850 -0.4464
 7081SOL     OW32704   2.291   1.099   2.778 -0.0240 -0.0182  0.0442
 7081SOL    HW132705   2.338   1.030   2.731 -1.1350 -0.8191  0.1158
 7081SOL    HW232706   2.206   1.087   2.737  0.7574  0.0448 -1.6108
 7082SOL     OW32707   2.369   2.324  17.072 -0.3684 -0.4392  0.0125
 7082SOL    HW132708   2.433   2.390  17.044 -2.0139  0.2756 -2.1047
 7082SOL    HW232709   2.291   2.342  17.019 -0.7804  0.5532  0.9632
 7083SOL     OW32710   4.587   2.034   0.487 -0.3757 -0.6268 -0.2018
 7083SOL    HW132711   4.628   1.949   0.501 -2.0564 -1.5541 -0.8956
 7083SOL    HW232712   4.659   2.096   0.475 -0.0056 -0.9017  0.5712
 7084SOL     OW32713   0.893   2.781   9.441  0.9492 -0.1193  0.0603
 7084SOL    HW132714   0.936   2.849   9.494 -0.6558  0.6055  0.4214
 7084SOL    HW232715   0.969   2.747   9.393  0.4460 -1.5048  0.2479
 7085SOL     OW32716   2.216   0.504   0.698 -0.3590 -0.0069 -0.6567
 7085SOL    HW132717   2.179   0.574   0.645 -0.2161  2.4949  2.5442
 7085SOL    HW232718   2.297   0.495   0.647 -1.9308 -1.7069 -2.8695
 7086SOL     OW32719   1.752   3.384   5.308 -0.8893 -0.1823 -0.1028
 7086SOL    HW132720   1.695   3.308   5.321 -0.6354 -0.4594 -0.6259
 7086SOL    HW232721   1.735   3.391   5.214 -0.2022  2.2819 -0.0478
 7087SOL     OW32722   3.379   3.198   5.705  0.4554 -0.0274  0.3785
 7087SOL    HW132723   3.426   3.115   5.695  1.8438  0.8593 -0.4772
 7087SOL    HW232724   3.343   3.175   5.790  0.4448  1.0927  0.6739
 7088SOL     OW32725   4.687   1.821   6.620  0.2313  0.2236 -0.8337
 7088SOL    HW132726   4.614   1.839   6.561 -0.6306 -1.2251 -0.2092
 7088SOL    HW232727   4.637   1.827   6.701  2.3204  1.3973  0.3786
 7089SOL     OW32728   3.466   4.354  16.782 -0.2456  0.2273  0.0673
 7089SOL    HW132729   3.410   4.429  16.763  0.8941  1.4283  1.5261
 7089SOL    HW232730   3.534   4.398  16.833 -1.3557 -0.1257  1.8487
 7090SOL     OW32731   3.078   1.898   8.502 -0.3815 -0.2407 -0.0071
 7090SOL    HW132732   3.152   1.950   8.534  1.3035 -2.3491 -0.5154
 7090SOL    HW232733   3.110   1.810   8.522  0.2044  0.2366  1.1684
 7091SOL     OW32734   1.608   2.583   5.720 -0.3118 -0.2509  0.2075
 7091SOL    HW132735   1.643   2.586   5.630 -0.5587  0.5274  0.1394
 7091SOL    HW232736   1.629   2.491   5.737  1.5314  0.2585  0.6700
 7092SOL     OW32737   0.009   0.471  16.186  0.1884 -0.1298  0.1584
 7092SOL    HW132738   0.089   0.523  16.198  0.0956 -0.2350  1.1909
 7092SOL    HW232739   0.030   0.430  16.102 -1.3709  2.7519 -1.6105
 7093SOL     OW32740   0.556   0.954   7.440 -0.4816  0.6038 -0.1522
 7093SOL    HW132741   0.558   1.037   7.487 -0.3904  0.5046  0.0212
 7093SOL    HW232742   0.465   0.958   7.413 -0.9850  0.5172  1.5609
 7094SOL     OW32743   0.928   3.283   4.989 -0.5109  0.2183  0.4676
 7094SOL    HW132744   0.879   3.365   4.979  1.4387  1.2992 -0.3021
 7094SOL    HW232745   0.989   3.296   4.916  1.4411 -2.0344  1.6979
 7095SOL     OW32746   0.719   4.301   7.804  0.0158  0.0165  0.2711
 7095SOL    HW132747   0.779   4.369   7.835 -0.6819  0.8778 -0.2546
 7095SOL    HW232748   0.701   4.314   7.711  0.6352 -0.2399  0.1137
 7096SOL     OW32749   3.257   0.095   4.557 -0.6829  0.0329  0.1251
 7096SOL    HW132750   3.332   0.154   4.543  0.0925 -0.4824  2.2072
 7096SOL    HW232751   3.245   0.092   4.652 -0.0361  2.1897  0.2879
 7097SOL     OW32752   1.309   2.167   3.275 -0.2947  0.3180  0.3963
 7097SOL    HW132753   1.223   2.146   3.237 -0.4485  0.6440  0.5635
 7097SOL    HW232754   1.315   2.260   3.254 -3.4777  0.4093 -0.1410
 7098SOL     OW32755   3.732   4.703   2.810 -0.3965  0.1899  0.1485
 7098SOL    HW132756   3.759   0.033   2.736 -2.5709 -0.0731 -0.8243
 7098SOL    HW232757   3.645   4.675   2.784  0.4848 -4.1973  1.9314
 7099SOL     OW32758   3.704   0.004  10.935  0.4188 -0.3432  0.2172
 7099SOL    HW132759   3.784   4.675  10.925  0.6033  0.1914 -1.0590
 7099SOL    HW232760   3.711   0.035  11.025 -0.5001 -0.7534  0.4283
 7100SOL     OW32761   2.197   0.211   2.505 -0.1913 -0.2987 -0.2032
 7100SOL    HW132762   2.286   0.246   2.509  0.5248 -2.0062 -1.2472
 7100SOL    HW232763   2.171   0.241   2.417 -1.6132 -0.4481  0.1649
 7101SOL     OW32764   1.916   2.895   3.537  0.0616 -0.0834  0.5028
 7101SOL    HW132765   1.847   2.925   3.596 -1.5401  1.0324 -1.9159
 7101SOL    HW232766   1.932   2.979   3.495  1.8616  0.1202  1.6175
 7102SOL     OW32767   2.298   4.687   7.625  0.1146 -0.2484  0.5860
 7102SOL    HW132768   2.305   0.055   7.652 -0.3455 -0.5393  1.6830
 7102SOL    HW232769   2.364   4.673   7.557  0.1836  0.0026  0.5998
 7103SOL     OW32770   4.662   2.441   7.016  0.3336  0.0309 -0.0754
 7103SOL    HW132771   0.023   2.421   7.056  1.1804  2.6558 -0.5325
 7103SOL    HW232772   4.671   2.536   7.000  0.6103 -0.3082 -1.9515
 7104SOL     OW32773   3.315   0.962   9.188  0.3123 -0.0510 -0.5460
 7104SOL    HW132774   3.263   0.949   9.108  1.0009 -0.1819 -0.9734
 7104SOL    HW232775   3.398   0.919   9.168  0.0566 -0.3080 -1.0684
 7105SOL     OW32776   1.758   0.626   7.614  0.6365 -0.2060  0.2951
 7105SOL    HW132777   1.757   0.698   7.676  2.0154 -0.6975  0.8853
 7105SOL    HW232778   1.708   0.560   7.662 -1.6625 -0.8639 -2.9992
 7106SOL     OW32779   4.163   0.746   3.276  0.2626  0.0169 -0.5139
 7106SOL    HW132780   4.252   0.751   3.240  0.0210 -0.5541 -1.2091
 7106SOL    HW232781   4.184   0.732   3.368  1.1423 -0.2806 -0.7601
 7107SOL     OW32782   2.141   0.868  12.419  0.0026  0.2842 -0.2553
 7107SOL    HW132783   2.197   0.822  12.356 -0.9668 -0.5667 -0.5053
 7107SOL    HW232784   2.201   0.879  12.493  0.2602 -0.0682 -0.4094
 7108SOL     OW32785   3.337   0.769  14.860  0.2690  0.0832 -0.4994
 7108SOL    HW132786   3.431   0.767  14.842  0.7206 -0.1554  1.8703
 7108SOL    HW232787   3.332   0.745  14.952  0.8222  1.1197 -0.2041
 7109SOL     OW32788   3.901   0.556  17.279  0.5764 -0.3732 -0.3177
 7109SOL    HW132789   3.845   0.526  17.351  0.3654 -1.5254 -0.9786
 7109SOL    HW232790   3.834   0.595  17.222  1.0919 -1.0312 -1.3636
 7110SOL     OW32791   0.737   0.314   8.191  0.3524 -0.1188  0.5671
 7110SOL    HW132792   0.702   0.370   8.260 -0.6231  1.3052 -1.1024
 7110SOL    HW232793   0.796   0.248   8.228  1.7054  1.3223  1.0020
 7111SOL     OW32794   1.141   2.556   4.578 -0.7120 -0.0788  0.3164
 7111SOL    HW132795   1.225   2.525   4.544 -1.4124 -2.1650  0.4478
 7111SOL    HW232796   1.160   2.644   4.612 -0.8787 -0.2095  0.7507
 7112SOL     OW32797   4.560   2.621  10.787 -0.4240 -0.4449 -0.0481
 7112SOL    HW132798   4.472   2.600  10.755 -0.1955 -2.4488  0.6668
 7112SOL    HW232799   4.611   2.592  10.711 -2.6041 -1.1578 -1.2433
 7113SOL     OW32800   4.558   2.489  11.036 -0.3284 -0.0673 -0.3671
 7113SOL    HW132801   4.524   2.406  11.003 -2.5877  1.3245 -1.5778
 7113SOL    HW232802   4.557   2.540  10.955  0.1025  1.7584  0.7764
 7114SOL     OW32803   1.666   3.720   0.210  0.3055  0.4489 -0.1204
 7114SOL    HW132804   1.645   3.663   0.137  0.8418  4.2497 -3.2434
 7114SOL    HW232805   1.666   3.652   0.278 -0.1020  1.6062  1.0428
 7115SOL     OW32806   0.998   1.871  12.464  0.2243  0.2543  0.5942
 7115SOL    HW132807   1.009   1.934  12.535 -3.6939 -0.0310  1.4268
 7115SOL    HW232808   1.084   1.829  12.470 -0.4684 -1.3109 -0.4241
 7116SOL     OW32809   3.089   0.690   0.273  0.2897  0.0440 -0.1415
 7116SOL    HW132810   3.026   0.639   0.223  0.5903 -2.1960  1.7395
 7116SOL    HW232811   3.099   0.643   0.356 -1.5768 -0.7174 -0.3384
 7117SOL     OW32812   2.345   3.533   2.438 -0.2335 -0.2690 -0.2987
 7117SOL    HW132813   2.424   3.513   2.488 -1.6914 -1.3807  1.5538
 7117SOL    HW232814   2.329   3.624   2.462 -1.4968 -0.4825 -0.3727
 7118SOL     OW32815   1.966   1.557   5.349 -0.2755 -0.1439  0.5567
 7118SOL    HW132816   1.915   1.585   5.273 -0.7892  0.1772  1.0173
 7118SOL    HW232817   1.945   1.464   5.339  1.5766 -0.8282  3.2256
 7119SOL     OW32818   4.638   1.120  16.489 -0.1570 -0.2233 -0.1098
 7119SOL    HW132819   4.550   1.092  16.467  0.1060  0.4185 -1.9860
 7119SOL    HW232820   4.684   1.049  16.445 -1.1506 -1.1035  0.2947
 7120SOL     OW32821   0.091   4.456   7.937  0.1474  0.0596 -0.6511
 7120SOL    HW132822   0.012   4.450   7.883  1.2305 -3.5039 -1.8350
 7120SOL    HW232823   0.129   4.372   7.915 -0.1817  0.1098 -1.3995
 7121SOL     OW32824   4.510   0.164  10.774  0.6032  0.1628  0.3312
 7121SOL    HW132825   4.562   0.120  10.841  0.0792 -0.7620  0.1349
 7121SOL    HW232826   4.466   0.227  10.831 -0.7551  0.5117 -1.1019
 7122SOL     OW32827   1.212   4.060   0.381  0.2376 -0.5654 -0.3330
 7122SOL    HW132828   1.153   4.134   0.394  0.1220 -0.5120 -1.1290
 7122SOL    HW232829   1.270   4.087   0.451  1.0388 -3.5387  0.1824
 7123SOL     OW32830   2.647   3.747   2.851 -0.1166  0.1913  0.0911
 7123SOL    HW132831   2.595   3.685   2.902  1.9265 -1.6672 -0.1521
 7123SOL    HW232832   2.730   3.744   2.898 -0.3994 -3.2384  0.3076
 7124SOL     OW32833   1.339   1.510   9.697 -0.5564 -0.0300 -0.1214
 7124SOL    HW132834   1.277   1.487   9.629 -0.3998 -1.4945  0.2431
 7124SOL    HW232835   1.402   1.545   9.634 -1.7394 -0.5623 -1.5677
 7125SOL     OW32836   3.364   0.509   2.852  0.0714 -0.1893 -0.9000
 7125SOL    HW132837   3.357   0.498   2.947 -1.8316 -0.4533 -1.0529
 7125SOL    HW232838   3.407   0.594   2.842  0.1518 -0.1814 -0.4937
 7126SOL     OW32839   0.088   4.320   5.477  0.8043  0.4772 -0.1859
 7126SOL    HW132840   0.029   4.246   5.493 -0.7929  1.6380 -0.6468
 7126SOL    HW232841   0.164   4.296   5.530  0.6746  0.7155  0.1116
 7127SOL     OW32842   3.708   4.441   8.550  0.1065  0.4428  0.2749
 7127SOL    HW132843   3.629   4.466   8.598  0.7048  2.0802  0.3920
 7127SOL    HW232844   3.769   4.503   8.591  0.4895  1.4170 -1.7726
 7128SOL     OW32845   2.824   0.421   4.316  0.0249  0.0600  0.1481
 7128SOL    HW132846   2.859   0.440   4.230  0.0511 -0.0869  0.1254
 7128SOL    HW232847   2.897   0.370   4.352 -2.0992 -0.5722  3.6245
 7129SOL     OW32848   2.962   3.834   5.138 -0.1153 -0.2647 -0.4099
 7129SOL    HW132849   3.007   3.783   5.071  0.7477  0.7335 -0.5982
 7129SOL    HW232850   3.028   3.903   5.139 -0.9877  0.5229  2.5719
 7130SOL     OW32851   0.525   2.584   5.093 -0.1208 -0.0896 -0.1907
 7130SOL    HW132852   0.522   2.655   5.029  1.5536  0.8554  0.7888
 7130SOL    HW232853   0.611   2.554   5.066 -0.1829 -0.6284  0.2109
 7131SOL     OW32854   3.295   2.225   5.438  0.6159  0.0646  0.1618
 7131SOL    HW132855   3.205   2.255   5.451  0.6439 -0.6135  2.0561
 7131SOL    HW232856   3.312   2.180   5.521 -0.5490 -1.7618 -0.5987
 7132SOL     OW32857   3.039   1.997   4.668 -0.6350  0.1794 -0.3859
 7132SOL    HW132858   2.979   2.057   4.712 -1.4521  0.3840 -1.7940
 7132SOL    HW232859   3.046   2.033   4.580  1.1966  1.4030  0.2716
 7133SOL     OW32860   2.355   4.670   5.991  0.0801  0.7102 -0.4466
 7133SOL    HW132861   2.419   4.696   6.058  1.7243 -0.4814 -1.5585
 7133SOL    HW232862   2.337   4.577   6.003  1.0819  0.3763 -1.6088
 7134SOL     OW32863   4.177   1.622  15.081 -0.3241 -0.0959  0.3186
 7134SOL    HW132864   4.230   1.700  15.096 -0.7256  0.4536 -1.1649
 7134SOL    HW232865   4.217   1.589  15.000 -2.4817 -2.9125  0.3891
 7135SOL     OW32866   1.664   2.071   6.242  0.4894  0.2153  0.1107
 7135SOL    HW132867   1.574   2.099   6.228  0.2312 -0.6627 -0.0245
 7135SOL    HW232868   1.706   2.123   6.174 -0.8922  3.1440  1.5309
 7136SOL     OW32869   0.130   2.621   8.556  0.2403  0.5351 -0.2617
 7136SOL    HW132870   0.207   2.631   8.612  0.2289  0.4866 -0.2374
 7136SOL    HW232871   0.102   2.712   8.554 -0.2763  0.3336 -3.2017
 7137SOL     OW32872   1.304   0.732   7.608 -0.1116 -0.7263  0.0770
 7137SOL    HW132873   1.385   0.683   7.595  0.8357  0.2532  2.2798
 7137SOL    HW232874   1.255   0.669   7.662  1.5528 -1.3591  0.8412
 7138SOL     OW32875   0.848   0.761   1.485  0.7183  0.1550  0.0190
 7138SOL    HW132876   0.883   0.844   1.453  0.8113 -0.4559 -1.4513
 7138SOL    HW232877   0.866   0.698   1.416 -1.4992  0.8288 -1.1627
 7139SOL     OW32878   3.405   1.025  16.912 -0.0061 -0.2388 -0.2757
 7139SOL    HW132879   3.387   0.982  16.828 -0.8634  1.4016 -0.9442
 7139SOL    HW232880   3.492   1.066  16.913  0.7447 -1.8406 -0.8935
 7140SOL     OW32881   3.628   2.638   4.784  0.3276 -0.0430  0.3146
 7140SOL    HW132882   3.595   2.551   4.763 -2.0998  0.8417  0.4558
 7140SOL    HW232883   3.721   2.619   4.795  0.6221  0.8417 -0.7297
 7141SOL     OW32884   0.790   2.413   3.784  0.2204 -0.0857  0.3438
 7141SOL    HW132885   0.717   2.443   3.731  1.1890  1.8533  0.1401
 7141SOL    HW232886   0.786   2.476   3.856  0.5905 -1.5294  1.6445
 7142SOL     OW32887   3.978   2.035  10.059 -0.0959 -0.1262 -0.6744
 7142SOL    HW132888   3.938   2.120  10.042  0.9516  0.2893 -1.0348
 7142SOL    HW232889   4.072   2.055  10.054 -0.5419  2.0863 -0.0010
 7143SOL     OW32890   3.530   0.073   8.739 -0.7439 -0.1353  0.2285
 7143SOL    HW132891   3.489   4.713   8.715 -2.4334  0.7743 -0.0295
 7143SOL    HW232892   3.495   0.140   8.680 -2.4297 -1.1708  0.0670
 7144SOL     OW32893   2.047   1.687   3.865  0.2281  0.1720  0.0939
 7144SOL    HW132894   2.062   1.649   3.952  0.1631  0.7952  0.3779
 7144SOL    HW232895   2.067   1.781   3.870 -0.1466  0.3210 -1.1944
 7145SOL     OW32896   1.536   3.080   8.660  1.1426 -0.1947 -0.1149
 7145SOL    HW132897   1.536   3.009   8.724 -3.3349  0.5620  0.7072
 7145SOL    HW232898   1.465   3.135   8.690  3.5930  3.1181 -0.3799
 7146SOL     OW32899   0.026   2.677   6.856 -0.0504 -0.6058 -0.5089
 7146SOL    HW132900   0.057   2.711   6.940  0.9220  1.8744 -1.8958
 7146SOL    HW232901   0.104   2.648   6.809 -0.2734 -0.2142 -1.1218
 7147SOL     OW32902   1.319   1.843   7.767 -0.2051 -0.2116  0.3314
 7147SOL    HW132903   1.257   1.915   7.763 -2.4626 -2.3084 -2.1462
 7147SOL    HW232904   1.400   1.889   7.745  0.4289 -2.0875 -1.2024
 7148SOL     OW32905   3.775   2.228   5.930  0.6426 -0.0842 -0.2017
 7148SOL    HW132906   3.684   2.204   5.944  0.1761  0.6312 -1.9499
 7148SOL    HW232907   3.808   2.140   5.913 -0.2548 -0.7401  1.5300
 7149SOL     OW32908   4.668   2.520  15.536  0.1201  0.3753  0.4283
 7149SOL    HW132909   4.723   2.480  15.603  0.5898 -0.8916 -0.6903
 7149SOL    HW232910   4.617   2.579  15.591 -2.0664 -1.0518 -0.0198
 7150SOL     OW32911   2.913   2.356   3.953  0.6756  0.3812  0.3941
 7150SOL    HW132912   2.993   2.366   4.004  0.0696  2.0242  0.9868
 7150SOL    HW232913   2.856   2.429   3.976  0.2558  0.2694 -0.2683
 7151SOL     OW32914   1.313   3.337   7.192  0.5853 -0.1186  0.0379
 7151SOL    HW132915   1.234   3.335   7.245 -2.2750 -1.5977 -4.3337
 7151SOL    HW232916   1.324   3.252   7.149 -0.1001 -0.3259  0.2884
 7152SOL     OW32917   4.153   1.318  12.057 -0.1074  0.0777  0.0002
 7152SOL    HW132918   4.222   1.366  12.010 -0.6714 -0.8299 -1.7422
 7152SOL    HW232919   4.145   1.379  12.130  0.3132 -1.3365  1.2325
 7153SOL     OW32920   4.163   1.284  17.670 -0.2563  0.0321 -0.4062
 7153SOL    HW132921   4.097   1.292   0.043  1.9967  2.3700  1.4523
 7153SOL    HW232922   4.231   1.291   0.041  0.1979 -0.8669 -0.7800
 7154SOL     OW32923   3.451   3.128  11.131 -0.5508 -0.0849  0.2097
 7154SOL    HW132924   3.532   3.109  11.083 -0.5281  1.3982 -0.3358
 7154SOL    HW232925   3.473   3.089  11.215  0.8076  1.6410  0.6481
 7155SOL     OW32926   2.020   0.035   7.850 -0.0630 -0.0369  0.4543
 7155SOL    HW132927   2.012   4.710   7.768  3.6698 -0.4679  0.3142
 7155SOL    HW232928   2.054   0.122   7.828  0.4885 -0.0065  1.4111
 7156SOL     OW32929   2.114   2.694   6.489  0.4106 -0.0413  0.4236
 7156SOL    HW132930   2.204   2.698   6.456 -0.6375  1.4150 -2.2526
 7156SOL    HW232931   2.126   2.715   6.581  1.7803  1.3911 -0.0566
 7157SOL     OW32932   3.137   3.471   7.229 -0.3555 -0.1157  0.4466
 7157SOL    HW132933   3.137   3.453   7.323 -2.0314 -1.4010  0.2068
 7157SOL    HW232934   3.143   3.567   7.223  1.5914 -0.2862 -0.2691
 7158SOL     OW32935   2.806   4.349   8.396  0.0504  0.1698  0.3332
 7158SOL    HW132936   2.768   4.318   8.314 -1.3447  1.9487  0.3015
 7158SOL    HW232937   2.767   4.437   8.393  0.9369  0.5800  0.6838
 7159SOL     OW32938   1.389   2.754   3.306 -0.2024 -0.6998  0.2920
 7159SOL    HW132939   1.302   2.716   3.318  0.0513 -2.5014 -3.4180
 7159SOL    HW232940   1.413   2.771   3.397  3.8395  0.1614 -0.9504
 7160SOL     OW32941   0.603   2.489   4.232 -0.9443  0.2257  0.0088
 7160SOL    HW132942   0.678   2.485   4.172 -1.4219 -0.9652 -0.5085
 7160SOL    HW232943   0.618   2.419   4.296  1.5186 -0.7298 -1.5952
 7161SOL     OW32944   0.820   4.572   2.717 -0.3465 -0.1126  0.1783
 7161SOL    HW132945   0.870   4.654   2.716 -0.1671 -0.2019  1.3092
 7161SOL    HW232946   0.817   4.537   2.628 -0.0544 -1.0456  0.5247
 7162SOL     OW32947   2.482   4.624   3.619  0.0225 -0.0160 -0.2829
 7162SOL    HW132948   2.539   4.550   3.598 -0.0413 -0.5128  1.2997
 7162SOL    HW232949   2.496   4.617   3.713  0.3306 -1.1933 -0.4125
 7163SOL     OW32950   1.859   1.318   5.336  0.0818  0.2589  0.0384
 7163SOL    HW132951   1.905   1.235   5.349 -0.0589  0.3483  1.0872
 7163SOL    HW232952   1.784   1.309   5.395 -0.3156  1.3260 -0.3096
 7164SOL     OW32953   4.450   4.114   7.271 -0.2323  0.4056  0.2165
 7164SOL    HW132954   4.431   4.161   7.352 -2.6245 -0.7447  0.3334
 7164SOL    HW232955   4.464   4.187   7.211 -1.8548  1.2279  0.8514
 7165SOL     OW32956   2.051   2.140  17.318 -0.0832 -0.2455 -0.2751
 7165SOL    HW132957   2.086   2.178  17.237 -0.9286  1.8056  0.3416
 7165SOL    HW232958   1.995   2.072  17.281 -0.4844  0.1998 -0.4880
 7166SOL     OW32959   1.029   1.642   6.428 -0.3301 -0.1408  0.6722
 7166SOL    HW132960   0.987   1.725   6.450 -1.3927 -1.1247  2.4174
 7166SOL    HW232961   0.950   1.594   6.403 -0.8568  0.4100  1.2914
 7167SOL     OW32962   1.424   0.899   5.790  0.6157 -0.7900  0.0062
 7167SOL    HW132963   1.334   0.931   5.779  0.0671 -1.2480  3.2109
 7167SOL    HW232964   1.452   0.921   5.879  0.1306  1.7924 -0.4826
 7168SOL     OW32965   3.346   0.291   7.151 -0.3035 -0.4781 -0.3439
 7168SOL    HW132966   3.348   0.220   7.087  0.3551  0.3189 -1.2227
 7168SOL    HW232967   3.347   0.371   7.099  0.4285 -1.5902 -2.0507
 7169SOL     OW32968   3.004   3.948   6.638  0.2218  0.1768 -0.3719
 7169SOL    HW132969   3.098   3.930   6.638 -0.2040 -2.0184 -0.8665
 7169SOL    HW232970   2.992   3.968   6.545  1.4993  0.2774 -0.5192
 7170SOL     OW32971   3.955   3.069   4.707 -0.4126 -0.1387  0.2961
 7170SOL    HW132972   4.047   3.091   4.713 -0.2520 -0.4855 -0.8419
 7170SOL    HW232973   3.913   3.155   4.708 -1.8172 -0.8328  3.2312
 7171SOL     OW32974   1.834   2.543  10.873  0.4195  0.2163 -1.2848
 7171SOL    HW132975   1.922   2.514  10.899 -0.9696 -1.5785  1.3812
 7171SOL    HW232976   1.812   2.614  10.933  0.9280  0.3506 -1.2539
 7172SOL     OW32977   3.733   0.676  12.658 -0.1699  0.1570  0.1670
 7172SOL    HW132978   3.684   0.680  12.740  1.9250 -2.3993  1.5310
 7172SOL    HW232979   3.695   0.743  12.601  0.1639 -0.8743 -1.2645
 7173SOL     OW32980   2.925   3.061   4.415  0.0451  0.4278  0.4454
 7173SOL    HW132981   2.907   3.145   4.374 -1.3602  0.0784  0.3621
 7173SOL    HW232982   2.866   3.059   4.490 -1.0049 -0.8064 -0.3980
 7174SOL     OW32983   1.266   0.362   6.127 -0.0444  0.5043  0.4550
 7174SOL    HW132984   1.178   0.373   6.163 -0.8026 -1.3070 -0.8412
 7174SOL    HW232985   1.288   0.276   6.164 -1.5630 -0.4678 -0.9038
 7175SOL     OW32986   4.051   1.610   7.279  0.0924 -0.1536 -0.2175
 7175SOL    HW132987   4.031   1.652   7.195 -1.0541 -1.4552 -0.5876
 7175SOL    HW232988   4.105   1.683   7.311  2.8227 -1.0814 -2.6501
 7176SOL     OW32989   2.625   0.777   5.388 -0.2147  0.1118 -0.2780
 7176SOL    HW132990   2.584   0.823   5.314  0.0210 -0.1292 -0.5612
 7176SOL    HW232991   2.627   0.846   5.454  1.2965 -0.6359  0.4577
 7177SOL     OW32992   1.184   2.101   3.651 -0.5201  0.0505  0.3919
 7177SOL    HW132993   1.274   2.112   3.681  0.1236  1.4537 -2.1041
 7177SOL    HW232994   1.141   2.058   3.726 -1.5083  0.2656 -0.0456
 7178SOL     OW32995   4.299   1.702   2.309  0.8597  0.3111 -0.0590
 7178SOL    HW132996   4.319   1.733   2.397  2.7642  0.8788 -0.7044
 7178SOL    HW232997   4.338   1.779   2.269  3.2743  0.1086  1.9381
 7179SOL     OW32998   3.871   1.692   3.063 -0.2130 -0.9124  0.0342
 7179SOL    HW132999   3.785   1.714   3.028  0.3025 -0.3730 -0.9030
 7179SOL    HW233000   3.865   1.596   3.061 -1.2061 -0.8311 -0.8588
 7180SOL     OW33001   1.211   1.158  16.934 -0.2077  0.4589  0.2931
 7180SOL    HW133002   1.130   1.123  16.895  0.2718 -1.1929  0.7476
 7180SOL    HW233003   1.206   1.250  16.909 -1.7743  0.3927  0.3439
 7181SOL     OW33004   3.071   4.288   9.269  0.3962 -0.5628  0.0473
 7181SOL    HW133005   3.047   4.204   9.230 -2.2075 -0.0645  0.6364
 7181SOL    HW233006   2.991   4.338   9.283  2.1369  1.5326  2.4947
 7182SOL     OW33007   0.325   0.163   4.814 -0.2267  0.0024 -0.2951
 7182SOL    HW133008   0.326   0.255   4.785 -0.8255  1.2505  3.5724
 7182SOL    HW233009   0.368   0.113   4.745  1.1434 -1.8671  1.9221
 7183SOL     OW33010   0.532   4.203  13.406 -0.2271 -0.3436 -0.3860
 7183SOL    HW133011   0.609   4.207  13.464  3.0217  0.3304 -4.7314
 7183SOL    HW233012   0.541   4.295  13.382 -1.7254  0.2955  1.4997
 7184SOL     OW33013   1.934   2.597   3.758 -0.1350 -0.0806  0.0156
 7184SOL    HW133014   1.912   2.509   3.728 -1.8574  1.0648 -2.1702
 7184SOL    HW233015   1.865   2.647   3.715  0.0725  0.2354  0.0499
 7185SOL     OW33016   2.183   0.323  14.045 -0.1350  0.1219  0.1284
 7185SOL    HW133017   2.088   0.319  14.032  0.2058  0.8259 -2.5578
 7185SOL    HW233018   2.196   0.418  14.052 -0.4840  0.0089  2.2462
 7186SOL     OW33019   0.014   2.226   0.872  0.0622 -0.8275 -0.4453
 7186SOL    HW133020   0.087   2.256   0.817 -1.1738  2.9298 -0.0324
 7186SOL    HW233021   4.667   2.285   0.844  0.3052  0.2250  1.1343
 7187SOL     OW33022   0.360   0.950   8.778 -0.5325 -0.5553  0.5276
 7187SOL    HW133023   0.360   0.857   8.758 -0.7099 -0.8243  1.7600
 7187SOL    HW233024   0.435   0.984   8.729  1.1372 -5.4428 -0.3150
 7188SOL     OW33025   1.268   0.497   1.138  0.1583 -0.4703 -0.7003
 7188SOL    HW133026   1.211   0.568   1.107  1.5999 -0.3664 -3.0810
 7188SOL    HW233027   1.283   0.536   1.225 -3.6067 -1.2361  0.3182
 7189SOL     OW33028   1.470   4.591   6.433 -0.2900 -0.2290 -0.5159
 7189SOL    HW133029   1.428   4.505   6.432  0.7872 -0.7610  2.1619
 7189SOL    HW233030   1.542   4.574   6.493  0.6430 -0.0271 -1.5655
 7190SOL     OW33031   0.758   3.817   4.113 -0.1845  0.2495  0.0012
 7190SOL    HW133032   0.787   3.757   4.045  0.7007 -0.5017  1.0463
 7190SOL    HW233033   0.670   3.835   4.079 -0.1312  0.6971  0.1028
 7191SOL     OW33034   0.679   3.511  10.251  0.0092 -0.3713 -0.3829
 7191SOL    HW133035   0.698   3.537  10.161  2.3346  1.3713  0.6181
 7191SOL    HW233036   0.599   3.459  10.245 -0.4354  0.5096 -2.1614
 7192SOL     OW33037   2.977   2.808   7.374  0.0943 -0.4528 -0.1861
 7192SOL    HW133038   2.906   2.870   7.392  1.4334  0.4213  2.0331
 7192SOL    HW233039   2.957   2.771   7.288 -0.7426 -1.0645  0.2704
 7193SOL     OW33040   2.788   0.226  15.618  0.2118 -0.0380 -0.0675
 7193SOL    HW133041   2.775   0.320  15.632  1.4593 -0.2564  2.6278
 7193SOL    HW233042   2.822   0.223  15.529  1.5755 -0.4498  0.4792
 7194SOL     OW33043   2.639   3.405  11.825  0.0561  0.0546 -0.1620
 7194SOL    HW133044   2.729   3.406  11.859 -0.6184  3.6497  1.5002
 7194SOL    HW233045   2.632   3.320  11.782 -0.4602  0.5253 -1.0112
 7195SOL     OW33046   2.488   1.561   5.773  0.4268  0.9145 -0.1829
 7195SOL    HW133047   2.397   1.537   5.791  0.3665  0.7141 -0.7741
 7195SOL    HW233048   2.485   1.620   5.698 -1.0443 -0.1536 -0.9659
 7196SOL     OW33049   1.265   3.012  12.008  0.2640  0.0618  0.3241
 7196SOL    HW133050   1.215   3.022  12.088  0.4779  1.2166  0.3158
 7196SOL    HW233051   1.335   2.955  12.039  0.3587  0.3503  0.6332
 7197SOL     OW33052   2.225   1.549   5.844 -0.2444  0.2400  0.4233
 7197SOL    HW133053   2.225   1.610   5.771  0.1809  2.0217  1.9213
 7197SOL    HW233054   2.132   1.530   5.851  0.4543 -2.8073  1.5565
 7198SOL     OW33055   3.419   1.161   4.272  0.1536 -0.3747 -0.2263
 7198SOL    HW133056   3.398   1.143   4.364 -2.4542 -0.2733 -0.8026
 7198SOL    HW233057   3.508   1.128   4.259 -0.1897 -1.1083 -0.7723
 7199SOL     OW33058   1.422   2.601  12.139 -0.0132  0.3409  0.2365
 7199SOL    HW133059   1.331   2.575  12.148  0.0300 -0.1396 -0.7156
 7199SOL    HW233060   1.462   2.566  12.219  0.5722 -0.1322 -0.2572
 7200SOL     OW33061   2.822   2.939   2.591  0.2670  0.3467 -0.3385
 7200SOL    HW133062   2.731   2.928   2.620 -0.2324 -1.2136 -2.5084
 7200SOL    HW233063   2.862   2.921   2.676 -2.6741  0.6533  1.1372
 7201SOL     OW33064   4.323   1.423   5.831 -0.2802 -0.0207  0.4065
 7201SOL    HW133065   4.396   1.435   5.770 -0.6937  1.4083  0.2024
 7201SOL    HW233066   4.272   1.498   5.802  0.3319  0.3189  0.1940
 7202SOL     OW33067   2.878   2.590  12.896  0.5367  0.6129  0.0952
 7202SOL    HW133068   2.898   2.572  12.804  1.0666  0.1286  0.3064
 7202SOL    HW233069   2.807   2.528  12.916  1.1085  0.6163  2.1382
 7203SOL     OW33070   1.346   4.345   3.168 -0.4673 -0.0540  0.4282
 7203SOL    HW133071   1.301   4.265   3.140 -1.6436  0.3875  1.0663
 7203SOL    HW233072   1.280   4.394   3.217 -1.0570  0.8719 -1.3089
 7204SOL     OW33073   4.642   2.020   1.393  0.2450  0.0451 -0.1711
 7204SOL    HW133074   4.643   1.982   1.481  0.6780  0.0751 -0.1614
 7204SOL    HW233075   4.647   2.113   1.414  0.1127  0.0124  0.0055
 7205SOL     OW33076   1.608   1.168   7.486  0.1675  0.0353 -0.2158
 7205SOL    HW133077   1.572   1.120   7.561 -0.3822  0.1914 -0.3794
 7205SOL    HW233078   1.571   1.126   7.409  0.5467 -1.0097  0.1820
 7206SOL     OW33079   3.366   0.219   9.323  0.7220 -0.0385 -0.7319
 7206SOL    HW133080   3.437   0.186   9.379  0.5324 -0.2660 -0.6254
 7206SOL    HW233081   3.403   0.246   9.239  0.9752  0.1425 -0.5656
 7207SOL     OW33082   4.015   3.304   7.120  0.1397  0.1597 -0.0054
 7207SOL    HW133083   4.004   3.366   7.192  0.3015 -1.8492  1.7213
 7207SOL    HW233084   4.090   3.344   7.076 -0.1547 -0.4588 -1.0789
 7208SOL     OW33085   1.178   3.547   3.800  0.1392 -0.1560  0.0313
 7208SOL    HW133086   1.149   3.474   3.855  1.8546 -0.4797  0.4871
 7208SOL    HW233087   1.097   3.563   3.752 -0.0190  0.1727  0.4100
 7209SOL     OW33088   3.698   1.137   3.915  0.1671 -0.2661  0.1381
 7209SOL    HW133089   3.629   1.188   3.872 -2.2214 -1.0836  3.0091
 7209SOL    HW233090   3.703   1.066   3.850  0.8245  1.5227 -1.7681
 7210SOL     OW33091   1.792   0.699  11.767 -0.6411 -0.0882 -0.5175
 7210SOL    HW133092   1.805   0.608  11.741 -1.7748 -0.5807  0.6284
 7210SOL    HW233093   1.737   0.686  11.844 -1.0213 -0.4115 -0.8435
 7211SOL     OW33094   0.736   1.283   7.779 -0.0327 -0.1144 -0.3737
 7211SOL    HW133095   0.771   1.200   7.810  0.3494  0.2015  0.0519
 7211SOL    HW233096   0.719   1.337   7.856 -0.5520 -0.3059 -0.3504
 7212SOL     OW33097   3.499   4.719   5.121 -0.4893  0.2669 -0.4317
 7212SOL    HW133098   3.450   0.007   5.203  2.6370 -0.0054  1.4682
 7212SOL    HW233099   3.547   0.078   5.113  1.6961 -0.7414  2.0832
 7213SOL     OW33100   0.972   2.569   5.276 -0.1259  0.4824  0.1230
 7213SOL    HW133101   0.989   2.534   5.364  0.0320  1.6679  0.5703
 7213SOL    HW233102   0.913   2.509   5.230 -0.5919  0.1531  1.1414
 7214SOL     OW33103   2.917   0.468   9.119  0.6426  0.2092 -0.5629
 7214SOL    HW133104   2.915   0.372   9.112 -1.7405  0.1264  1.1078
 7214SOL    HW233105   2.987   0.473   9.184  1.3814  1.6386 -1.4801
 7215SOL     OW33106   2.360   2.948   4.587  0.0186  0.2248 -0.2621
 7215SOL    HW133107   2.446   2.928   4.549  0.0355 -2.4890  1.2646
 7215SOL    HW233108   2.319   2.874   4.543  3.9691 -1.4105 -1.1629
 7216SOL     OW33109   1.669   0.115   3.794  0.1138  0.7052  0.4110
 7216SOL    HW133110   1.746   0.172   3.790  0.1101  0.8072  1.7715
 7216SOL    HW233111   1.677   0.079   3.706  1.5149  0.7474  0.5248
 7217SOL     OW33112   2.979   3.310   0.597 -0.1204 -0.0449  0.4175
 7217SOL    HW133113   2.966   3.313   0.692 -1.8271  0.2941  0.1595
 7217SOL    HW233114   3.057   3.257   0.579 -0.8270 -1.1563  0.6190
 7218SOL     OW33115   4.039   2.787  13.000  0.1571 -0.2203 -0.0071
 7218SOL    HW133116   4.096   2.859  13.025  1.7610 -1.4402 -0.1093
 7218SOL    HW233117   4.072   2.765  12.913  1.8159  1.0967  0.2999
 7219SOL     OW33118   1.830   0.777  16.879  0.4458  0.4286 -0.0903
 7219SOL    HW133119   1.750   0.735  16.910 -0.7789  1.7512 -1.4506
 7219SOL    HW233120   1.796   0.861  16.848 -0.5885  0.4297  1.0474
 7220SOL     OW33121   4.280   0.403   7.426  0.2134  0.1676 -0.1873
 7220SOL    HW133122   4.286   0.387   7.521  1.7124  0.1053 -0.2927
 7220SOL    HW233123   4.190   0.379   7.405  0.4704  0.3383 -1.4917
 7221SOL     OW33124   3.916   4.709   7.694  0.3697 -0.4304 -0.3225
 7221SOL    HW133125   3.912   0.067   7.744  0.8923 -0.7023  0.1642
 7221SOL    HW233126   4.011   4.695   7.699 -0.2163 -3.3192  2.4426
 7222SOL     OW33127   1.117   0.631   5.927  0.0527 -0.0786  0.1959
 7222SOL    HW133128   1.088   0.623   6.019  0.1513 -0.2362  0.2130
 7222SOL    HW233129   1.113   0.540   5.899 -2.0397  1.1308 -3.3581
 7223SOL     OW33130   3.939   0.463   0.984  0.0675  0.6453  0.5566
 7223SOL    HW133131   3.936   0.517   1.063  2.6540  2.4590 -0.6239
 7223SOL    HW233132   3.865   0.403   0.996  0.2013  0.0817 -1.4530
 7224SOL     OW33133   2.522   2.770   3.640  0.0509  0.3471  0.1747
 7224SOL    HW133134   2.460   2.825   3.592  0.6260 -0.3999 -1.4230
 7224SOL    HW233135   2.478   2.758   3.724  0.8378 -2.3533  0.2223
 7225SOL     OW33136   1.915   4.501   6.605 -0.1087  0.5493 -0.4960
 7225SOL    HW133137   1.946   4.567   6.543 -0.5551 -0.7445 -2.0876
 7225SOL    HW233138   1.892   4.566   6.671 -1.3685  1.0097 -1.4005
 7226SOL     OW33139   0.755   1.380   3.392 -0.0299  0.5507  0.3356
 7226SOL    HW133140   0.731   1.346   3.478 -0.3674 -0.5701 -0.1986
 7226SOL    HW233141   0.679   1.431   3.366  1.4093  1.2288 -2.5997
 7227SOL     OW33142   2.753   3.499   4.532  0.0708 -0.2471  0.4457
 7227SOL    HW133143   2.718   3.556   4.463  1.6296  0.2596  0.0743
 7227SOL    HW233144   2.748   3.558   4.607  1.1830  0.1853  0.1833
 7228SOL     OW33145   0.577   2.498   0.966 -0.3690 -0.0584 -0.3862
 7228SOL    HW133146   0.528   2.504   1.048 -0.5293  0.5078 -0.5230
 7228SOL    HW233147   0.606   2.407   0.970  0.8376  0.2384 -2.2217
 7229SOL     OW33148   4.471   0.799   6.565  0.4531 -1.0613 -0.1357
 7229SOL    HW133149   4.541   0.865   6.559  1.0147 -1.3711  3.2752
 7229SOL    HW233150   4.478   0.773   6.473 -1.4450 -0.6024 -0.4144
 7230SOL     OW33151   3.523   1.094   8.204  0.3863 -0.2012 -0.1038
 7230SOL    HW133152   3.433   1.115   8.179  0.3995  0.4793  0.4102
 7230SOL    HW233153   3.556   1.050   8.126 -0.3161 -0.6192 -0.1635
 7231SOL     OW33154   4.339   3.419   3.786  0.1590 -0.1168  0.0724
 7231SOL    HW133155   4.270   3.364   3.750 -1.9689  1.9697  0.9681
 7231SOL    HW233156   4.382   3.455   3.708  0.6153 -0.2247  0.2727
 7232SOL     OW33157   0.060   0.601  15.262  0.3713  0.3994  0.1358
 7232SOL    HW133158   4.720   0.572  15.197  0.9904 -0.8508  0.0976
 7232SOL    HW233159   0.140   0.570  15.219  0.4757 -1.0419  1.3914
 7233SOL     OW33160   1.313   4.002   8.683  0.4517 -0.5285  0.1269
 7233SOL    HW133161   1.243   3.937   8.682  0.2446 -0.3584  3.9344
 7233SOL    HW233162   1.273   4.080   8.720 -0.6283 -0.9699 -0.1015
 7234SOL     OW33163   4.515   2.622   7.506 -0.4540  0.0161 -0.3326
 7234SOL    HW133164   4.450   2.552   7.501  0.5882 -0.8646 -1.7360
 7234SOL    HW233165   4.468   2.692   7.550 -1.2324  0.4568 -1.8430
 7235SOL     OW33166   2.488   4.278  16.656  0.9549 -0.4192  0.4789
 7235SOL    HW133167   2.558   4.214  16.655  0.1446 -1.3158  4.0633
 7235SOL    HW233168   2.411   4.223  16.644  0.5412 -0.0543  1.4900
 7236SOL     OW33169   0.159   3.731   2.423  0.1812 -0.2312  0.1798
 7236SOL    HW133170   0.102   3.657   2.405  0.6052  0.0231 -2.2370
 7236SOL    HW233171   0.223   3.688   2.480  2.6276  2.3205 -0.5935
 7237SOL     OW33172   4.373   1.392  13.985  1.1441 -0.6473  0.8997
 7237SOL    HW133173   4.430   1.325  13.948 -0.2383 -1.7952  0.8534
 7237SOL    HW233174   4.405   1.469  13.938 -0.2001 -0.9465 -0.5097
 7238SOL     OW33175   0.630   1.087   3.163 -0.1498  0.7082 -0.8583
 7238SOL    HW133176   0.576   1.165   3.175 -0.5113  0.1223  1.3182
 7238SOL    HW233177   0.563   1.028   3.130  1.4811 -0.8552 -1.3985
 7239SOL     OW33178   0.056   3.387   8.650  0.0056 -0.2108 -0.4951
 7239SOL    HW133179   0.013   3.472   8.652 -1.3560 -0.8799 -1.3704
 7239SOL    HW233180   0.145   3.415   8.632  0.4876 -1.0308  0.6164
 7240SOL     OW33181   0.898   4.509   2.447  0.7943  0.8943 -0.7028
 7240SOL    HW133182   0.981   4.555   2.458  1.9862 -0.5989 -3.4807
 7240SOL    HW233183   0.924   4.426   2.488  0.7144  0.7407 -0.9646
 7241SOL     OW33184   4.646   2.293   4.053  0.3592 -0.2705  0.0875
 7241SOL    HW133185   0.018   2.298   4.051  0.5667 -4.1532  0.6122
 7241SOL    HW233186   4.637   2.287   4.148 -2.6699 -2.5681 -0.3457
 7242SOL     OW33187   3.381   2.331   7.253 -0.2621 -0.0945  0.0534
 7242SOL    HW133188   3.474   2.335   7.234 -0.1872 -0.4619  0.3356
 7242SOL    HW233189   3.386   2.286   7.338 -1.8291  0.0957  0.2511
 7243SOL     OW33190   0.133   4.146  15.286  0.0377 -0.8821  0.2059
 7243SOL    HW133191   0.075   4.070  15.293 -0.7525  0.0073  3.2201
 7243SOL    HW233192   0.169   4.125  15.200  3.0548 -2.3020  1.8172
 7244SOL     OW33193   1.450   0.112   2.216 -0.3487  0.4791  0.3987
 7244SOL    HW133194   1.458   0.190   2.161  0.1374 -0.3446 -0.7097
 7244SOL    HW233195   1.383   0.065   2.167 -0.6754 -0.5136  1.8016
 7245SOL     OW33196   1.867   1.835   8.392 -0.4302 -0.4302 -0.0302
 7245SOL    HW133197   1.876   1.873   8.479  0.3669  1.0005 -0.7432
 7245SOL    HW233198   1.867   1.910   8.332 -1.0820 -1.1762 -0.9655
 7246SOL     OW33199   0.855   3.442   9.558 -0.2779 -0.0068  0.6588
 7246SOL    HW133200   0.786   3.427   9.623 -1.3035 -0.1448 -0.4483
 7246SOL    HW233201   0.929   3.400   9.602  1.6864  2.7060 -0.0953
 7247SOL     OW33202   3.544   2.596  10.661 -0.2576 -0.8519  0.4523
 7247SOL    HW133203   3.468   2.640  10.699 -0.8186 -0.6296 -0.9304
 7247SOL    HW233204   3.574   2.571  10.748 -1.7951  0.5359  1.3625
 7248SOL     OW33205   4.091   2.166   5.069 -0.0529  0.4926 -0.1235
 7248SOL    HW133206   4.101   2.177   5.164 -0.9539  0.1443  0.0096
 7248SOL    HW233207   4.181   2.191   5.047 -0.3146  0.4936 -1.1782
 7249SOL     OW33208   4.030   3.303  15.004 -0.2166 -0.9132  0.0731
 7249SOL    HW133209   4.026   3.241  15.078 -0.0282  0.8325  1.5484
 7249SOL    HW233210   3.969   3.367  15.039 -0.9491 -2.2922  1.3235
 7250SOL     OW33211   4.084   2.297   6.881 -0.0356 -0.1480 -0.2268
 7250SOL    HW133212   4.157   2.280   6.821  1.5176  2.1455  0.9924
 7250SOL    HW233213   4.130   2.307   6.964  0.2171  1.4193 -0.5541
 7251SOL     OW33214   0.681   0.575  12.346  0.1803 -0.0679 -0.5117
 7251SOL    HW133215   0.631   0.500  12.315  0.6681 -0.5221 -0.1861
 7251SOL    HW233216   0.751   0.532  12.394  0.4201  0.9090  0.0170
 7252SOL     OW33217   3.822   1.822   9.870  0.1266  0.0010  0.3276
 7252SOL    HW133218   3.767   1.811   9.948 -1.0896  0.3606 -0.4796
 7252SOL    HW233219   3.765   1.887   9.829 -0.3226 -0.5307  0.1217
 7253SOL     OW33220   4.475   4.208   6.992 -0.2122  0.0580  0.0354
 7253SOL    HW133221   4.530   4.271   6.945  0.4139  0.2827  1.0893
 7253SOL    HW233222   4.394   4.253   7.018 -0.6762  0.6712 -2.4237
 7254SOL     OW33223   4.695   0.777  11.803 -0.5056  0.0465  0.3569
 7254SOL    HW133224   0.046   0.777  11.862 -0.8363 -1.6705  0.8005
 7254SOL    HW233225   4.714   0.862  11.763  0.1384 -0.0645  0.4274
 7255SOL     OW33226   1.562   2.146   5.863  0.3599 -0.7786  0.0187
 7255SOL    HW133227   1.590   2.215   5.923 -0.2104 -0.0191 -0.5897
 7255SOL    HW233228   1.499   2.101   5.921  1.5148 -1.2578  0.8974
 7256SOL     OW33229   4.631   4.191  10.197  0.2036 -0.0824  0.2903
 7256SOL    HW133230   4.582   4.162  10.119  1.7698 -1.2929 -0.2390
 7256SOL    HW233231   4.697   4.239  10.147  1.8766 -0.4698  2.1607
 7257SOL     OW33232   2.197   0.501   8.155 -0.6995  0.3893 -0.4902
 7257SOL    HW133233   2.265   0.568   8.146  0.3433 -0.3218  1.9344
 7257SOL    HW233234   2.249   0.439   8.208  0.6776  2.8903  1.1236
 7258SOL     OW33235   2.414   3.335   2.805  0.8952 -0.2273 -0.2047
 7258SOL    HW133236   2.439   3.359   2.716  0.5253 -3.2649 -1.1482
 7258SOL    HW233237   2.496   3.326   2.852 -0.0170 -2.8095  0.9168
 7259SOL     OW33238   0.676   2.959  15.038 -0.0536 -0.1797  0.0603
 7259SOL    HW133239   0.692   2.881  15.091  1.3301  1.1313  1.5851
 7259SOL    HW233240   0.766   2.991  15.032 -1.1040  2.7230 -0.4530
 7260SOL     OW33241   2.800   2.554   3.292  0.6517 -0.3512 -0.0397
 7260SOL    HW133242   2.736   2.565   3.363 -1.0467 -0.8575 -1.4699
 7260SOL    HW233243   2.864   2.616   3.325  1.9752 -1.0519 -1.2654
 7261SOL     OW33244   2.457   0.221   1.919  0.3117 -0.1277  0.2583
 7261SOL    HW133245   2.389   0.243   1.855 -1.0752 -1.0900  1.3983
 7261SOL    HW233246   2.511   0.157   1.874  0.8543  0.5829 -0.1151
 7262SOL     OW33247   0.827   0.138   2.716 -0.3338  0.9094  0.2194
 7262SOL    HW133248   0.871   0.191   2.650 -0.3910 -1.7959 -2.0082
 7262SOL    HW233249   0.870   0.165   2.797  0.7186  1.2940 -0.4772
 7263SOL     OW33250   1.349   3.731  17.694  0.1587 -0.0173  0.6566
 7263SOL    HW133251   1.337   3.763  17.605 -1.2177 -1.5888  0.2832
 7263SOL    HW233252   1.260   3.713   0.027 -0.6889  2.0191 -0.7163
 7264SOL     OW33253   0.749   3.741   7.216 -0.3119  0.8079  0.1988
 7264SOL    HW133254   0.672   3.757   7.162  0.2023  2.0570 -0.1501
 7264SOL    HW233255   0.811   3.781   7.155 -0.3968  0.8797  0.1594
 7265SOL     OW33256   2.517   0.151   5.658 -0.0059  0.3807 -0.0362
 7265SOL    HW133257   2.570   0.076   5.685 -1.5529 -0.5824  0.3408
 7265SOL    HW233258   2.529   0.133   5.565 -2.1997 -1.2222 -0.0328
 7266SOL     OW33259   2.103   3.968   8.145  0.1481 -0.6597  0.0188
 7266SOL    HW133260   2.068   4.055   8.165  0.6191 -0.3592 -0.4364
 7266SOL    HW233261   2.032   3.928   8.095  0.7055 -0.3946 -0.9975
 7267SOL     OW33262   0.963   2.249   4.527  0.7750  0.5235 -0.3031
 7267SOL    HW133263   0.965   2.330   4.475 -0.1905  0.3683 -0.5758
 7267SOL    HW233264   1.053   2.220   4.509  0.4256 -0.4245 -0.5099
 7268SOL     OW33265   1.505   0.265   6.342 -0.4071  0.4522 -0.2731
 7268SOL    HW133266   1.587   0.217   6.355  1.4659  3.8277  0.2481
 7268SOL    HW233267   1.519   0.344   6.394  2.4941  0.1762 -0.6679
 7269SOL     OW33268   1.424   0.097  11.764 -0.2085 -0.3822  0.8247
 7269SOL    HW133269   1.373   0.035  11.712 -0.3532 -1.5220  2.3184
 7269SOL    HW233270   1.388   0.183  11.741 -0.6695 -1.0900 -1.0643
 7270SOL     OW33271   4.359   3.244   1.230  0.2163 -0.1535 -0.2327
 7270SOL    HW133272   4.400   3.321   1.190  1.3042 -1.1044 -0.9221
 7270SOL    HW233273   4.353   3.267   1.323  0.6461 -0.4224 -0.1370
 7271SOL     OW33274   3.056   4.649   7.566  0.0592  0.5295  0.4549
 7271SOL    HW133275   3.062   0.009   7.612 -1.1511 -0.3482  2.2046
 7271SOL    HW233276   3.129   4.590   7.586 -0.6379 -0.7877 -0.8211
 7272SOL     OW33277   4.031   0.242   5.550 -0.5666 -0.5402 -0.6216
 7272SOL    HW133278   4.097   0.214   5.486 -0.0343  0.2247 -0.4063
 7272SOL    HW233279   4.095   0.261   5.619 -1.0450 -1.1201 -0.0215
 7273SOL     OW33280   0.516   4.266   3.049 -0.3900 -0.0341  0.5287
 7273SOL    HW133281   0.549   4.323   2.979 -1.9541 -0.7038 -0.7408
 7273SOL    HW233282   0.567   4.186   3.036 -1.7107 -0.4221 -2.3063
 7274SOL     OW33283   1.746   0.200   7.145 -0.1234  0.0023  0.3371
 7274SOL    HW133284   1.667   0.214   7.093 -0.8174 -1.8495  0.8980
 7274SOL    HW233285   1.758   0.287   7.185 -1.6383  0.8568 -1.1057
 7275SOL     OW33286   0.268   0.313  15.148 -0.2816  0.4721  0.0204
 7275SOL    HW133287   0.303   0.399  15.122  0.6702  0.1476  0.2255
 7275SOL    HW233288   0.305   0.253  15.083  0.7586 -0.8117  1.7998
 7276SOL     OW33289   3.139   1.945   2.677  0.2518 -0.1175 -0.4111
 7276SOL    HW133290   3.092   1.894   2.611  1.4438 -1.1609 -0.4530
 7276SOL    HW233291   3.129   2.036   2.650  2.5092 -0.0697 -1.0542
 7277SOL     OW33292   2.036   2.741   5.270 -0.3082 -0.2757  0.1730
 7277SOL    HW133293   2.066   2.659   5.308 -2.5038 -0.4210  1.6192
 7277SOL    HW233294   1.991   2.714   5.190  1.8272  0.0807 -1.1459
 7278SOL     OW33295   1.262   0.089   0.915 -0.1206 -0.9086  0.0968
 7278SOL    HW133296   1.188   0.037   0.945 -1.2522  1.0969  0.7612
 7278SOL    HW233297   1.238   0.130   0.832 -0.1109 -1.4041 -0.1449
 7279SOL     OW33298   0.598   4.610   3.612  0.1192 -0.0744  0.1450
 7279SOL    HW133299   0.613   4.575   3.524 -0.8356 -1.0879  0.3682
 7279SOL    HW233300   0.637   4.696   3.604 -0.6729  0.4811  2.5062
 7280SOL     OW33301   4.706   0.796   6.980  0.1236  0.3833  0.0245
 7280SOL    HW133302   0.033   0.733   6.928  0.9121  2.7845 -2.0751
 7280SOL    HW233303   0.049   0.861   6.999 -1.1702  1.5320  0.5947
 7281SOL     OW33304   1.673   0.745  17.234  0.0872 -0.2271 -0.0110
 7281SOL    HW133305   1.663   0.751  17.329 -2.9288 -0.0430 -0.3432
 7281SOL    HW233306   1.624   0.826  17.219 -1.2630 -0.6899  2.0127
 7282SOL     OW33307   1.031   4.209  17.582  0.7820  0.0207  0.0991
 7282SOL    HW133308   1.035   4.171  17.494  0.5410  0.0874  0.0581
 7282SOL    HW233309   1.086   4.146  17.628 -2.6206 -0.3454  3.6340
 7283SOL     OW33310   4.456   3.135   8.294 -0.4369 -0.4041 -0.0307
 7283SOL    HW133311   4.425   3.148   8.383  1.0166  0.1054  0.3974
 7283SOL    HW233312   4.412   3.055   8.266  0.0430 -1.7745  3.1944
 7284SOL     OW33313   0.751   0.129   6.686 -0.0738 -0.0734  0.0648
 7284SOL    HW133314   0.691   0.179   6.631 -0.9597 -0.8926  0.3018
 7284SOL    HW233315   0.717   0.153   6.772 -1.2122 -2.1847  0.2036
 7285SOL     OW33316   0.711   1.246   5.264 -0.2106  0.5826  0.2573
 7285SOL    HW133317   0.794   1.198   5.254 -1.0219 -0.9665  0.8284
 7285SOL    HW233318   0.656   1.203   5.198 -0.9336  0.8781  0.6681
 7286SOL     OW33319   3.961   2.878   6.660 -0.5347  0.2023  0.4594
 7286SOL    HW133320   3.925   2.816   6.596 -0.4765 -0.2059  0.8166
 7286SOL    HW233321   3.934   2.963   6.626 -1.4328 -0.0079  0.6397
 7287SOL     OW33322   2.489   4.336  11.003 -0.7828  0.1613  0.1797
 7287SOL    HW133323   2.419   4.277  10.976  0.0172 -0.2867 -0.9115
 7287SOL    HW233324   2.509   4.380  10.921 -1.8787 -0.8108 -0.6053
 7288SOL     OW33325   3.778   1.702   5.607  0.1015  0.3909  0.0708
 7288SOL    HW133326   3.866   1.682   5.575 -0.0397  1.0179 -0.7153
 7288SOL    HW233327   3.760   1.629   5.666  2.6240  0.2416  0.6508
 7289SOL     OW33328   1.177   3.736  11.554 -0.6756  0.3799  0.9173
 7289SOL    HW133329   1.230   3.808  11.588 -2.2553  1.4765  1.0917
 7289SOL    HW233330   1.089   3.754  11.587 -1.6620 -0.1778 -1.4131
 7290SOL     OW33331   0.251   1.019   9.392 -0.2213 -1.0678 -0.6930
 7290SOL    HW133332   0.318   0.994   9.328 -0.6992  0.9987 -2.0329
 7290SOL    HW233333   0.299   1.070   9.457 -0.6788 -0.7512 -0.5962
 7291SOL     OW33334   3.323   4.392   2.518 -0.4913  0.0799  0.1105
 7291SOL    HW133335   3.292   4.483   2.521  2.2776  1.0090  0.8532
 7291SOL    HW233336   3.395   4.406   2.456 -0.6922  0.0382 -0.1359
 7292SOL     OW33337   0.387   1.058   6.108  0.0347  0.2816 -0.4609
 7292SOL    HW133338   0.461   1.117   6.094  1.4740 -1.0696  1.4776
 7292SOL    HW233339   0.374   1.019   6.022  0.0813  0.9161 -0.7615
 7293SOL     OW33340   3.117   1.059   4.986  0.3200 -0.4327  0.8472
 7293SOL    HW133341   3.064   1.107   5.051 -0.9496  2.1544 -2.0759
 7293SOL    HW233342   3.202   1.102   4.998 -0.8617  1.8799  1.0044
 7294SOL     OW33343   0.474   1.402   2.859  0.2690 -0.5699 -0.3900
 7294SOL    HW133344   0.531   1.343   2.810 -1.4126 -2.3334 -0.2060
 7294SOL    HW233345   0.396   1.347   2.853 -0.7946  0.7897  1.0440
 7295SOL     OW33346   0.462   3.235   8.404 -0.0351  0.7356 -0.2872
 7295SOL    HW133347   0.473   3.173   8.477 -2.3010 -2.6797 -2.8721
 7295SOL    HW233348   0.448   3.178   8.329  2.0091 -0.8390  0.5308
 7296SOL     OW33349   1.392   2.439   4.185  0.6325 -1.1212  0.2821
 7296SOL    HW133350   1.345   2.486   4.116  2.4535  2.0653  1.2115
 7296SOL    HW233351   1.480   2.477   4.179 -0.1328 -0.0022 -4.3261
 7297SOL     OW33352   3.533   3.517  12.783  0.5302  0.2231  0.3212
 7297SOL    HW133353   3.520   3.445  12.845  0.7706  0.9124  1.1605
 7297SOL    HW233354   3.580   3.581  12.836  1.0116 -0.1745  0.3737
 7298SOL     OW33355   4.400   3.179  12.061  0.3554 -0.0312  0.3696
 7298SOL    HW133356   4.479   3.216  12.100  0.3172  0.0808  0.3401
 7298SOL    HW233357   4.420   3.090  12.031  0.0189  0.3248 -0.9311
 7299SOL     OW33358   1.327   1.682   4.730 -0.5062  0.2390 -0.2853
 7299SOL    HW133359   1.362   1.662   4.643 -0.2508 -3.6431  0.7046
 7299SOL    HW233360   1.251   1.624   4.724 -0.2845  0.0674 -1.3322
 7300SOL     OW33361   1.255   2.734   2.351  0.1543  0.2932  0.1562
 7300SOL    HW133362   1.336   2.686   2.333  0.9451  1.5403  0.3575
 7300SOL    HW233363   1.192   2.669   2.381  1.0854 -0.0289  1.3912
 7301SOL     OW33364   1.296   0.241   8.054 -0.5636 -0.0907 -0.1594
 7301SOL    HW133365   1.340   0.163   8.089 -1.8906 -0.6403  0.2574
 7301SOL    HW233366   1.314   0.222   7.961 -1.5949 -1.2852 -0.1087
 7302SOL     OW33367   1.792   0.612   0.282 -0.7249  0.9221 -0.1012
 7302SOL    HW133368   1.867   0.624   0.341 -1.1162  0.4340  0.4951
 7302SOL    HW233369   1.744   0.544   0.329 -3.6804  2.7514 -0.4854
 7303SOL     OW33370   0.170   2.035   6.587 -0.2471  0.1861  0.0624
 7303SOL    HW133371   0.115   1.957   6.595 -0.2137 -0.0592 -2.1204
 7303SOL    HW233372   0.249   1.996   6.624 -0.3818 -3.2926 -3.2236
 7304SOL     OW33373   1.173   4.340   5.999 -0.6996  0.1472 -0.5309
 7304SOL    HW133374   1.158   4.271   6.064  0.9138  0.4680  0.1758
 7304SOL    HW233375   1.268   4.343   5.996 -0.6682 -0.8551 -0.6915
 7305SOL     OW33376   2.964   2.500   0.511  0.3998  0.5208 -0.3184
 7305SOL    HW133377   3.027   2.496   0.583  1.4573 -3.8972 -1.4972
 7305SOL    HW233378   2.888   2.510   0.569  0.7164  2.7607 -0.2945
 7306SOL     OW33379   3.493   0.180   5.698 -0.3819  0.5380  0.0949
 7306SOL    HW133380   3.568   0.124   5.681 -1.4359 -1.3584  1.6851
 7306SOL    HW233381   3.534   0.266   5.686 -1.1101  1.1503  1.9951
 7307SOL     OW33382   4.260   0.932   4.381 -0.0627 -0.3385 -0.6400
 7307SOL    HW133383   4.189   0.930   4.446  0.1535 -2.2934 -0.4552
 7307SOL    HW233384   4.236   0.860   4.323 -3.7062 -0.0279  0.4438
 7308SOL     OW33385   4.488   1.155   7.021 -0.3944 -0.3230 -0.0231
 7308SOL    HW133386   4.407   1.200   6.997 -0.1907 -1.0786 -2.0902
 7308SOL    HW233387   4.460   1.124   7.107 -0.4308  0.5201  0.2654
 7309SOL     OW33388   2.839   3.785   8.226  0.2539  0.3457  0.4134
 7309SOL    HW133389   2.753   3.785   8.185  0.7330 -0.0123 -0.6048
 7309SOL    HW233390   2.900   3.819   8.160 -1.1149  1.1634 -0.4258
 7310SOL     OW33391   4.377   1.261   3.720  1.1108  0.6722 -0.3784
 7310SOL    HW133392   4.310   1.307   3.669  0.2829 -0.7046 -0.5441
 7310SOL    HW233393   4.418   1.337   3.761  0.1758 -0.2371  2.1890
 7311SOL     OW33394   1.964   4.359   2.986 -0.0432  0.1804 -0.0588
 7311SOL    HW133395   1.998   4.383   3.072 -1.3305  0.0133  0.4845
 7311SOL    HW233396   1.914   4.280   3.005  0.4029 -0.4831 -1.6022
 7312SOL     OW33397   1.034   0.942   2.281  0.3534 -0.0716  0.3621
 7312SOL    HW133398   1.047   0.995   2.359  3.7888 -0.3145 -0.0167
 7312SOL    HW233399   1.056   1.001   2.208  3.7319 -0.6284  0.9251
 7313SOL     OW33400   2.878   2.373   6.898  1.0272 -0.6330  0.2586
 7313SOL    HW133401   2.794   2.371   6.852  0.9875  0.1416  0.2877
 7313SOL    HW233402   2.849   2.418   6.977 -0.0847  1.0773 -1.1132
 7314SOL     OW33403   2.761   3.476   4.198 -0.1719 -0.0855 -0.3896
 7314SOL    HW133404   2.781   3.494   4.106  0.8449  3.1133  0.4495
 7314SOL    HW233405   2.724   3.560   4.225  0.5974  0.5736 -1.3851
 7315SOL     OW33406   0.830   3.061   4.639 -0.4685  0.0063 -0.0684
 7315SOL    HW133407   0.842   3.156   4.633 -1.3463  0.1124 -0.0493
 7315SOL    HW233408   0.914   3.026   4.672 -0.4359 -0.3632 -0.5475
 7316SOL     OW33409   0.955   1.890   3.780  0.2647 -0.0128  0.0040
 7316SOL    HW133410   0.950   1.872   3.686  0.5999  0.8535 -0.1779
 7316SOL    HW233411   0.919   1.978   3.788  0.4444  0.2316 -1.8086
 7317SOL     OW33412   3.268   1.889   2.382  0.8223 -0.1695  0.2881
 7317SOL    HW133413   3.353   1.848   2.400  2.5097  3.4743  0.5566
 7317SOL    HW233414   3.305   1.973   2.358  0.0787  0.3491  0.9546
 7318SOL     OW33415   3.052   3.644   5.418  0.6661 -0.5945 -0.1597
 7318SOL    HW133416   3.064   3.584   5.491  1.7937 -0.9446 -0.6296
 7318SOL    HW233417   2.957   3.656   5.411  0.5649 -1.0985  0.3422
 7319SOL     OW33418   4.127   2.078   7.813 -0.7119 -0.0681  0.0285
 7319SOL    HW133419   4.049   2.022   7.823 -0.2006 -1.0023 -1.1810
 7319SOL    HW233420   4.200   2.031   7.853 -0.2055  1.1523  0.5258
 7320SOL     OW33421   2.463   0.071   8.202 -0.5490 -0.2670  0.3212
 7320SOL    HW133422   2.425   0.151   8.238  0.1185 -1.5014  3.7923
 7320SOL    HW233423   2.396   0.055   8.136 -1.7692 -1.0195  1.7590
 7321SOL     OW33424   1.688   1.189   3.400 -0.1304 -0.0855 -0.3622
 7321SOL    HW133425   1.746   1.227   3.466 -0.0602  0.4453 -0.7308
 7321SOL    HW233426   1.721   1.228   3.318 -2.7575 -0.5515 -1.6301
 7322SOL     OW33427   4.308   4.368  11.837  0.2821  0.4283 -0.7467
 7322SOL    HW133428   4.253   4.303  11.795 -1.2362  2.6468 -2.2094
 7322SOL    HW233429   4.241   4.415  11.887  0.3283 -0.6854  0.3330
 7323SOL     OW33430   4.056   3.322  16.613 -0.3124 -0.1845 -0.4070
 7323SOL    HW133431   4.020   3.364  16.534  0.2875  1.5807  0.2525
 7323SOL    HW233432   3.989   3.335  16.680  0.1216  0.9203 -0.1967
 7324SOL     OW33433   2.290   4.474   2.256  0.2084  0.1732  0.5425
 7324SOL    HW133434   2.277   4.501   2.165  1.9102 -1.6144 -0.2243
 7324SOL    HW233435   2.227   4.526   2.307 -1.7402 -1.5547 -0.0682
 7325SOL     OW33436   0.141   2.255   9.780  0.1070  0.1944 -0.4097
 7325SOL    HW133437   0.166   2.320   9.845 -0.8457 -1.3800  1.5071
 7325SOL    HW233438   0.046   2.251   9.792  0.4755 -1.6550  1.6103
 7326SOL     OW33439   4.584   0.300   3.113  0.1677 -0.5659 -0.3937
 7326SOL    HW133440   4.678   0.286   3.104  0.7049  2.1070  1.0148
 7326SOL    HW233441   4.549   0.231   3.057  1.5558  0.0702 -2.0631
 7327SOL     OW33442   3.998   3.662  10.418  0.2474  0.8700  0.4163
 7327SOL    HW133443   4.092   3.676  10.410  0.5039 -1.4189 -0.3259
 7327SOL    HW233444   3.970   3.642  10.329 -1.2362  2.9264  0.4013
 7328SOL     OW33445   0.546   0.922  14.611 -0.2827  0.3219 -0.3972
 7328SOL    HW133446   0.608   0.865  14.657  0.9665  1.0381 -1.1985
 7328SOL    HW233447   0.465   0.917  14.662  0.3180  3.0589  0.8438
 7329SOL     OW33448   3.626   3.905   8.793  0.8149 -0.4357  1.1645
 7329SOL    HW133449   3.592   3.915   8.882 -2.7532 -1.8483 -0.0313
 7329SOL    HW233450   3.556   3.854   8.754 -0.1919  1.0574  1.0071
 7330SOL     OW33451   1.824   2.282   7.979 -0.0613  0.0342  0.1194
 7330SOL    HW133452   1.837   2.232   7.898 -2.4271 -1.4513  0.6840
 7330SOL    HW233453   1.730   2.287   7.991  0.0646  2.6919 -0.1199
 7331SOL     OW33454   2.414   0.757  16.475  0.3237 -0.4775  0.0926
 7331SOL    HW133455   2.352   0.696  16.514 -1.3133  1.9935  1.3229
 7331SOL    HW233456   2.477   0.693  16.440  1.6886  1.2598 -0.6575
 7332SOL     OW33457   2.415   4.272   2.786  0.1057 -0.3058  0.0593
 7332SOL    HW133458   2.401   4.329   2.862 -0.5027 -0.9435  0.4332
 7332SOL    HW233459   2.376   4.194   2.825 -1.1976 -0.0803 -0.7843
 7333SOL     OW33460   1.272   1.951   8.605 -0.5562  0.4005  0.1405
 7333SOL    HW133461   1.301   1.993   8.525  0.2097  1.6759  1.0839
 7333SOL    HW233462   1.337   1.881   8.601 -1.7369 -0.7419  0.8352
 7334SOL     OW33463   2.666   2.927  10.813 -0.0379 -0.1800 -0.0421
 7334SOL    HW133464   2.596   2.947  10.751 -0.6550  0.3057  0.8203
 7334SOL    HW233465   2.634   2.959  10.897 -1.3583  1.8077 -1.3135
 7335SOL     OW33466   4.624   0.415   3.800  0.1864  0.4424  0.4732
 7335SOL    HW133467   4.577   0.336   3.771  1.6969 -0.8450  1.5488
 7335SOL    HW233468   4.695   0.435   3.740 -0.3131 -0.5730 -0.4732
 7336SOL     OW33469   3.345   1.470  16.647  0.3325 -0.6830 -0.3090
 7336SOL    HW133470   3.355   1.376  16.633 -0.3938 -0.8231  0.1362
 7336SOL    HW233471   3.425   1.500  16.692  1.2909 -1.2172 -1.6492
 7337SOL     OW33472   2.475   1.788   8.147 -0.7257 -0.2237  0.3753
 7337SOL    HW133473   2.384   1.759   8.155 -0.5768 -0.8313 -0.1702
 7337SOL    HW233474   2.525   1.741   8.214 -1.8501 -1.2344  0.5071
 7338SOL     OW33475   0.387   2.759   1.825 -0.6595 -0.0351 -0.2321
 7338SOL    HW133476   0.381   2.700   1.751 -1.1936 -1.5320  1.0077
 7338SOL    HW233477   0.336   2.832   1.791 -1.0003 -0.6324 -1.0067
 7339SOL     OW33478   2.915   4.043   7.703 -0.2198 -0.2981  0.5896
 7339SOL    HW133479   2.965   4.062   7.624 -1.0789 -0.1061  0.0938
 7339SOL    HW233480   2.974   4.081   7.768  0.5722  1.1879 -1.0005
 7340SOL     OW33481   2.842   0.697  13.033 -0.0706 -0.1794  0.0784
 7340SOL    HW133482   2.904   0.659  13.095  1.7018  0.3759 -1.3535
 7340SOL    HW233483   2.767   0.637  13.031  0.4156 -0.7748 -0.6443
 7341SOL     OW33484   2.080   2.327   8.272 -0.4082 -0.3644 -0.3487
 7341SOL    HW133485   2.169   2.331   8.307 -1.1884 -1.4319  1.6990
 7341SOL    HW233486   2.091   2.275   8.192  0.1730 -0.6157 -0.1017
 7342SOL     OW33487   0.305   3.551  13.812 -0.5357  0.0875 -0.0219
 7342SOL    HW133488   0.300   3.634  13.860  0.7484  0.2476 -0.1721
 7342SOL    HW233489   0.234   3.561  13.748  1.6967  1.6652 -2.2237
 7343SOL     OW33490   1.280   1.726   0.250  0.8584  0.2584  0.0896
 7343SOL    HW133491   1.281   1.655   0.187  1.8106  0.9695 -0.7026
 7343SOL    HW233492   1.225   1.681   0.314 -0.6758  1.2129 -0.5316
 7344SOL     OW33493   1.858   4.568   5.467 -0.2270  0.1683 -0.3727
 7344SOL    HW133494   1.886   4.520   5.390 -0.0370  0.5227 -0.5252
 7344SOL    HW233495   1.916   4.643   5.454  1.0792 -1.1976 -2.4340
 7345SOL     OW33496   2.388   3.008   5.905  0.3352 -0.4122 -0.0479
 7345SOL    HW133497   2.320   3.013   5.837 -0.2555 -0.8395  0.5192
 7345SOL    HW233498   2.411   3.101   5.911 -0.1363 -0.3027  0.0533
 7346SOL     OW33499   0.306   1.602   6.013  0.0145  0.2263 -0.0781
 7346SOL    HW133500   0.322   1.581   5.921  0.7379 -0.0880  0.1222
 7346SOL    HW233501   0.226   1.556   6.040  0.9029 -2.7650 -2.5615
 7347SOL     OW33502   1.784   3.745  11.727 -0.6174 -0.2945  0.4647
 7347SOL    HW133503   1.861   3.694  11.703 -0.2883 -0.9906  2.9715
 7347SOL    HW233504   1.812   3.832  11.699  1.2184 -1.0072  0.0877
 7348SOL     OW33505   0.944   3.900   7.105  0.0305 -0.6544 -0.0022
 7348SOL    HW133506   1.027   3.913   7.058  0.0241 -2.1110 -0.4250
 7348SOL    HW233507   0.950   3.967   7.173  0.3153 -0.8954  0.2137
 7349SOL     OW33508   0.250   2.599   5.677 -0.1166  0.1203  0.3767
 7349SOL    HW133509   0.308   2.532   5.715  0.3061 -0.1589 -0.7570
 7349SOL    HW233510   0.305   2.599   5.598 -0.7192  0.2440 -0.0371
 7350SOL     OW33511   4.291   2.137   2.393 -0.1804  0.5021 -0.0766
 7350SOL    HW133512   4.220   2.156   2.455 -1.8397 -1.7361 -1.2630
 7350SOL    HW233513   4.311   2.228   2.371 -0.7419 -0.2640 -3.7868
 7351SOL     OW33514   1.470   0.035   0.372 -0.0588  0.1521 -0.9217
 7351SOL    HW133515   1.505   4.676   0.405 -1.3362  1.2671  3.1877
 7351SOL    HW233516   1.460   0.008   0.280  0.5661  0.1967 -1.0035
 7352SOL     OW33517   3.957   0.350   2.004  0.0744 -0.7216 -0.3742
 7352SOL    HW133518   4.027   0.298   1.966 -0.1476 -0.9880 -0.4180
 7352SOL    HW233519   3.979   0.441   1.983  0.1628 -0.2613  1.7125
 7353SOL     OW33520   2.681   1.917   6.762  0.2366  0.0180 -0.2580
 7353SOL    HW133521   2.700   1.890   6.672  0.9932  0.2502 -0.1632
 7353SOL    HW233522   2.617   1.847   6.780  3.3193 -2.2787  1.7934
 7354SOL     OW33523   4.437   0.196   6.254 -0.5781 -0.1283  0.3602
 7354SOL    HW133524   4.423   0.257   6.181 -1.5698 -1.1255 -0.2745
 7354SOL    HW233525   4.380   0.123   6.231  0.9473 -1.0339 -0.5481
 7355SOL     OW33526   3.937   1.445  10.021  0.3547 -0.8165 -0.3182
 7355SOL    HW133527   3.898   1.497  10.092  1.8482  0.6540 -0.5660
 7355SOL    HW233528   3.953   1.369  10.077 -2.0684 -0.5253  0.7778
 7356SOL     OW33529   1.087   2.248   8.322 -0.0533  0.0776  0.1061
 7356SOL    HW133530   1.004   2.294   8.326  0.3713  0.8646 -0.1330
 7356SOL    HW233531   1.150   2.320   8.312 -0.9132  0.7250 -0.6924
 7357SOL     OW33532   0.140   3.095   4.820 -0.0497  0.3296 -0.2338
 7357SOL    HW133533   0.154   3.106   4.726  0.5264  0.1623 -0.1667
 7357SOL    HW233534   0.046   3.113   4.822  0.2577  1.8216  1.2499
 7358SOL     OW33535   0.019   3.245   1.858 -0.4238 -0.3438 -0.0516
 7358SOL    HW133536   0.004   3.320   1.800  0.3560 -0.1410  0.0178
 7358SOL    HW233537   0.073   3.293   1.920 -1.6542 -0.3510  1.0375
 7359SOL     OW33538   2.799   0.045  13.916 -0.1742 -0.0404 -0.2940
 7359SOL    HW133539   2.887   0.083  13.920 -1.6419  3.3319 -0.5001
 7359SOL    HW233540   2.767   0.059  14.005  0.7316 -0.1922  0.0560
 7360SOL     OW33541   4.192   2.311   0.219 -0.2504 -0.1353 -0.9882
 7360SOL    HW133542   4.240   2.229   0.208  1.8391  1.2821 -2.4637
 7360SOL    HW233543   4.177   2.338   0.128 -1.2801  2.0587 -0.1615
 7361SOL     OW33544   1.401   1.672   5.652  0.6094  0.1286  0.3279
 7361SOL    HW133545   1.453   1.595   5.627  0.5791  0.4020 -0.5573
 7361SOL    HW233546   1.339   1.673   5.579  0.1910  0.9524  0.6902
 7362SOL     OW33547   3.603   2.378   3.179  0.4345  0.7124  0.4314
 7362SOL    HW133548   3.568   2.455   3.224  1.3392  1.4715 -0.1476
 7362SOL    HW233549   3.696   2.401   3.178  0.2689  1.3836  0.3907
 7363SOL     OW33550   0.309   0.114  13.811  0.0494 -0.5420 -0.1835
 7363SOL    HW133551   0.374   0.123  13.880 -0.0567 -2.0796  0.1234
 7363SOL    HW233552   0.363   0.135  13.735 -0.0074  0.7004  0.1259
 7364SOL     OW33553   2.346   2.396   8.393 -0.0128  0.0129 -0.0108
 7364SOL    HW133554   2.436   2.386   8.424 -0.1895 -0.4753  0.3420
 7364SOL    HW233555   2.323   2.448   8.469  1.2083  0.6113 -0.0602
 7365SOL     OW33556   0.162   4.191   4.956 -0.4918  0.2062  0.3168
 7365SOL    HW133557   0.157   4.263   5.019  0.2045  0.0378  0.5640
 7365SOL    HW233558   0.072   4.170   4.932 -0.6924 -0.8313  2.0275
 7366SOL     OW33559   1.765   4.057   2.642  0.0651  0.3090  0.1247
 7366SOL    HW133560   1.820   4.020   2.711  1.9760  2.5147 -0.2009
 7366SOL    HW233561   1.764   4.146   2.677  1.3903  0.5160 -0.3677
 7367SOL     OW33562   1.715   3.628  16.719 -0.1349 -0.3572  0.4407
 7367SOL    HW133563   1.634   3.578  16.723 -0.2898 -0.1818 -0.5461
 7367SOL    HW233564   1.751   3.643  16.806 -0.7178 -2.4599  1.0325
 7368SOL     OW33565   0.957   0.507   9.836 -0.5386  0.1791  0.6825
 7368SOL    HW133566   0.980   0.599   9.822  1.4353 -0.6810 -1.6963
 7368SOL    HW233567   0.881   0.505   9.777 -0.0766 -0.4583  0.1074
 7369SOL     OW33568   4.029   3.052   2.196  0.0857  0.2351 -0.3418
 7369SOL    HW133569   4.046   2.961   2.169  0.7778  0.5325 -0.9287
 7369SOL    HW233570   4.086   3.094   2.131 -0.1261  1.3415  0.2017
 7370SOL     OW33571   2.069   0.205   1.290  0.1423  0.7913 -0.2630
 7370SOL    HW133572   2.049   0.205   1.383 -0.9858 -1.4532 -0.4921
 7370SOL    HW233573   1.980   0.214   1.256  0.3519  0.4329 -0.9107
 7371SOL     OW33574   4.413   3.015   3.755 -0.4861  0.1160 -0.2883
 7371SOL    HW133575   4.358   3.051   3.685  0.5874  1.3678 -0.4826
 7371SOL    HW233576   4.354   3.013   3.830  0.0621  2.0530  0.1696
 7372SOL     OW33577   2.646   2.429   4.183 -0.4128  0.2446 -0.2274
 7372SOL    HW133578   2.557   2.454   4.159 -0.3542  0.7780  0.1133
 7372SOL    HW233579   2.653   2.348   4.133 -0.1476 -1.0288  1.8666
 7373SOL     OW33580   1.174   1.537   6.788 -0.3545 -0.3153 -0.0819
 7373SOL    HW133581   1.143   1.486   6.713  0.7617 -0.5130 -0.4067
 7373SOL    HW233582   1.225   1.469   6.833 -2.3363 -1.5694  0.2806
 7374SOL     OW33583   1.132   3.803  11.092  0.2712 -0.0482  0.7315
 7374SOL    HW133584   1.081   3.794  11.172  0.1822 -2.6782  0.3733
 7374SOL    HW233585   1.177   3.719  11.086 -0.1321 -0.2357  0.3597
 7375SOL     OW33586   1.269   1.032   3.594 -0.1983  0.0390 -0.0525
 7375SOL    HW133587   1.178   1.051   3.573 -0.5916  0.1698  1.8562
 7375SOL    HW233588   1.317   1.106   3.556 -2.9282  1.3331 -0.9213
 7376SOL     OW33589   2.022   2.940   3.187 -0.1258 -0.1786  0.2444
 7376SOL    HW133590   2.041   2.958   3.095 -2.3679  1.3425  0.0759
 7376SOL    HW233591   2.068   2.859   3.207  0.2605  0.1312  0.5913
 7377SOL     OW33592   0.139   0.772   3.974 -0.1195  0.0942 -0.0900
 7377SOL    HW133593   0.132   0.679   3.994  0.1356 -0.2320 -1.4995
 7377SOL    HW233594   0.230   0.793   3.996  0.2071 -1.2808 -0.1363
 7378SOL     OW33595   2.085   4.410   3.229 -0.4863 -0.2984  0.1819
 7378SOL    HW133596   2.137   4.417   3.310 -0.7924 -0.9247  0.4350
 7378SOL    HW233597   1.996   4.424   3.261 -0.5182 -0.2163  0.0561
 7379SOL     OW33598   2.242   4.412   4.217  0.3836 -0.2664  0.1018
 7379SOL    HW133599   2.281   4.327   4.200 -0.1157 -1.3853  4.5043
 7379SOL    HW233600   2.320   4.462   4.241  0.4845  0.2262 -1.2556
 7380SOL     OW33601   2.318   2.765   7.540 -0.2084  0.3666 -0.0590
 7380SOL    HW133602   2.385   2.751   7.608  1.2655  0.8128 -1.4294
 7380SOL    HW233603   2.276   2.838   7.585 -0.6681  0.7012 -1.0454
 7381SOL     OW33604   0.747   0.881   2.975 -0.3057  0.1260 -0.5369
 7381SOL    HW133605   0.753   0.870   3.069  1.3437 -1.0735 -0.7955
 7381SOL    HW233606   0.797   0.809   2.939 -0.3170 -0.4038  0.5190
 7382SOL     OW33607   3.014   3.766  15.479 -0.4428  0.0346 -0.3522
 7382SOL    HW133608   3.063   3.694  15.438 -0.3051  0.3679 -0.7786
 7382SOL    HW233609   2.994   3.811  15.397 -1.2934  0.5442  0.1314
 7383SOL     OW33610   1.850   3.194   7.245 -0.0761  0.9679  0.1769
 7383SOL    HW133611   1.858   3.187   7.150 -0.1764  0.8948  0.1729
 7383SOL    HW233612   1.782   3.262   7.242  0.0253  1.1367  1.7790
 7384SOL     OW33613   0.165   1.210   8.968  0.2040 -0.1551  0.5882
 7384SOL    HW133614   0.184   1.239   9.057  0.7244  0.1516  0.3797
 7384SOL    HW233615   0.109   1.134   8.982 -0.6590  0.1322 -1.3721
 7385SOL     OW33616   2.625   0.137   3.901  0.4739 -0.0687  0.1598
 7385SOL    HW133617   2.672   0.160   3.821  1.3064 -1.0328  0.3693
 7385SOL    HW233618   2.605   0.044   3.887 -0.2737 -0.0040  0.7679
 7386SOL     OW33619   4.250   2.280  14.637 -0.6116  0.0489  0.1670
 7386SOL    HW133620   4.224   2.201  14.683 -1.0834 -0.4292 -0.9347
 7386SOL    HW233621   4.318   2.237  14.584 -0.6128 -0.6932  0.7744
 7387SOL     OW33622   3.010   1.048   8.323 -0.3221  0.3851  0.2852
 7387SOL    HW133623   2.931   1.092   8.355 -1.2178  0.8501 -2.5369
 7387SOL    HW233624   3.023   0.985   8.394 -0.0882  1.0302  0.8075
 7388SOL     OW33625   3.247   0.660  15.089 -0.3292  0.0439  0.2280
 7388SOL    HW133626   3.190   0.619  15.024  0.5834 -1.8989  0.6614
 7388SOL    HW233627   3.279   0.586  15.142  1.2337  0.7257  0.2337
 7389SOL     OW33628   0.050   3.247  13.273  0.2219  0.1815  0.2194
 7389SOL    HW133629   0.042   3.342  13.275 -2.7480 -0.1150  2.0532
 7389SOL    HW233630   0.143   3.234  13.293  0.3552  1.6043  0.5412
 7390SOL     OW33631   2.115   0.189   6.106 -0.4285 -0.2479  0.0076
 7390SOL    HW133632   2.025   0.157   6.097 -0.7111 -0.2565  2.8297
 7390SOL    HW233633   2.165   0.113   6.078  1.1991  0.0513  2.1546
 7391SOL     OW33634   4.473   2.463   2.345  0.1946  0.6233  0.2572
 7391SOL    HW133635   4.561   2.471   2.307 -1.2978  2.8704 -2.7420
 7391SOL    HW233636   4.420   2.428   2.274  2.6757 -2.6855  0.0302
 7392SOL     OW33637   1.929   2.249  11.074 -0.2707 -0.0248  0.4973
 7392SOL    HW133638   1.857   2.236  11.135 -0.8307 -1.1395 -0.4025
 7392SOL    HW233639   1.976   2.166  11.085  0.9514  0.8727  1.9398
 7393SOL     OW33640   4.216   3.546  12.814 -0.3088 -0.1691 -0.4745
 7393SOL    HW133641   4.251   3.460  12.791  0.3775  0.4241 -1.6798
 7393SOL    HW233642   4.121   3.541  12.817 -0.1216 -3.9486 -0.2242
 7394SOL     OW33643   4.642   4.512   3.013 -0.5967 -0.3395 -0.1940
 7394SOL    HW133644   4.554   4.498   2.978 -1.0405  1.7984  0.0734
 7394SOL    HW233645   4.682   4.430   2.986 -3.8772 -1.7242 -0.8343
 7395SOL     OW33646   1.671   4.225   1.562 -0.3511 -0.2693 -0.3585
 7395SOL    HW133647   1.601   4.209   1.624  0.2765 -2.0944 -0.1074
 7395SOL    HW233648   1.702   4.135   1.548  1.3434 -0.0245  1.7941
 7396SOL     OW33649   1.908   0.969   8.461  0.6571  0.2895  1.0351
 7396SOL    HW133650   1.825   0.948   8.417  0.3502  0.9173  1.3077
 7396SOL    HW233651   1.967   0.904   8.424 -2.1777 -1.2672 -0.7839
 7397SOL     OW33652   1.777   3.474  17.047  0.1052  0.3212 -0.2783
 7397SOL    HW133653   1.686   3.443  17.049  0.4196 -0.6110 -0.9515
 7397SOL    HW233654   1.825   3.406  17.093 -1.6458  0.4874  1.8181
 7398SOL     OW33655   1.576   4.346   1.353  0.5934  0.1087  0.2603
 7398SOL    HW133656   1.626   4.314   1.428 -0.3392 -1.0767  0.3706
 7398SOL    HW233657   1.649   4.379   1.300  0.8515  0.0980  0.6034
 7399SOL     OW33658   3.990   0.017  11.806  0.1860 -0.0486 -0.2666
 7399SOL    HW133659   3.920   0.031  11.743 -0.0726  1.7773  0.4249
 7399SOL    HW233660   3.943   4.711  11.884  0.2746  1.4124  0.3269
 7400SOL     OW33661   2.331   4.017   5.325  0.2584 -0.3043  0.0457
 7400SOL    HW133662   2.365   3.929   5.340 -1.0106 -1.0248 -1.2980
 7400SOL    HW233663   2.372   4.063   5.398 -1.6243 -1.1755  1.6379
 7401SOL     OW33664   2.429   3.837   4.535  0.2988 -0.0213 -0.2481
 7401SOL    HW133665   2.372   3.767   4.503  0.9561  0.4398 -2.4857
 7401SOL    HW233666   2.378   3.872   4.608 -0.3073 -3.0928  0.8228
 7402SOL     OW33667   2.217   3.810  11.956  0.1632  0.2041  0.0600
 7402SOL    HW133668   2.191   3.852  12.038  1.6929  0.0115  0.6531
 7402SOL    HW233669   2.228   3.889  11.903 -1.2865  0.5703  0.3166
 7403SOL     OW33670   4.528   1.983   3.439 -0.1991 -0.6528  0.3697
 7403SOL    HW133671   4.518   1.940   3.355  0.2787 -0.9409  0.4601
 7403SOL    HW233672   4.475   2.060   3.420  0.7181  0.0709  0.7399
 7404SOL     OW33673   2.779   0.899   4.963  0.6828  0.2231  0.2297
 7404SOL    HW133674   2.781   0.989   4.995 -0.1878 -0.0328  1.0064
 7404SOL    HW233675   2.696   0.869   4.999  1.4052 -0.3435  1.4328
 7405SOL     OW33676   2.866   4.041  13.583 -0.3026 -0.2857 -0.2957
 7405SOL    HW133677   2.841   4.130  13.606  0.9700  0.2660 -1.0571
 7405SOL    HW233678   2.840   3.997  13.664  0.9904 -1.5531 -0.5823
 7406SOL     OW33679   4.325   3.668   8.148  0.1175  0.0630 -0.0997
 7406SOL    HW133680   4.397   3.609   8.170 -1.1391 -0.8594  1.5128
 7406SOL    HW233681   4.245   3.616   8.153 -0.0679  0.4831  1.5441
 7407SOL     OW33682   0.714   0.426   0.988  0.6077 -0.5540  0.4001
 7407SOL    HW133683   0.641   0.396   0.934 -0.5371 -0.9632  2.1615
 7407SOL    HW233684   0.683   0.413   1.078  1.0433 -0.0271  0.6223
 7408SOL     OW33685   4.261   2.502   6.298 -0.4994 -0.1385 -0.4293
 7408SOL    HW133686   4.251   2.542   6.212 -0.3233 -0.1286 -0.4454
 7408SOL    HW233687   4.352   2.522   6.321 -1.0168  0.4479  1.1029
 7409SOL     OW33688   4.016   3.014  17.678 -0.0892 -0.0401  0.3424
 7409SOL    HW133689   4.056   2.945   0.035  0.7308  0.1848  0.0164
 7409SOL    HW233690   4.086   3.079  17.671 -0.9203  0.7182 -1.0061
 7410SOL     OW33691   4.192   3.023   5.295  0.1288  0.2200  0.0863
 7410SOL    HW133692   4.143   3.097   5.259 -1.1114 -0.9970 -0.7186
 7410SOL    HW233693   4.221   3.061   5.377 -0.7730  2.7237 -0.7622
 7411SOL     OW33694   1.549   4.540   3.783 -0.0972  0.1139  0.5468
 7411SOL    HW133695   1.496   4.578   3.852 -2.3983 -1.1488 -0.5257
 7411SOL    HW233696   1.580   4.622   3.744  0.2930 -1.6304 -2.8699
 7412SOL     OW33697   0.044   0.023   1.936  0.3329 -0.8153  0.0016
 7412SOL    HW133698   4.702   0.090   1.914  1.4788 -0.2974 -1.8413
 7412SOL    HW233699   0.008   4.711   2.017 -0.8906 -1.0981 -0.6598
 7413SOL     OW33700   3.919   3.047   6.425  0.4638  0.1569 -0.6133
 7413SOL    HW133701   3.831   3.028   6.393 -0.4310  2.4140  0.5288
 7413SOL    HW233702   3.977   2.974   6.402  1.7771  0.4812  1.6651
 7414SOL     OW33703   4.261   3.469  10.171  0.2236  0.1259  0.6350
 7414SOL    HW133704   4.356   3.471  10.166  0.1910  1.1265  0.4807
 7414SOL    HW233705   4.241   3.554  10.209 -0.5692  1.1108 -1.9442
 7415SOL     OW33706   2.640   2.091   3.067  0.0293 -0.0582 -0.3370
 7415SOL    HW133707   2.547   2.103   3.089 -0.3159 -0.8797 -1.3826
 7415SOL    HW233708   2.676   2.071   3.154  0.0886  0.7015 -0.1894
 7416SOL     OW33709   4.455   3.328   0.852 -0.0061  0.4303  0.0613
 7416SOL    HW133710   4.547   3.349   0.871 -0.6369  2.6559  0.5682
 7416SOL    HW233711   4.418   3.416   0.858 -0.9237  0.0441 -0.0721
 7417SOL     OW33712   4.015   2.571  13.166 -0.0709 -0.3313 -0.0851
 7417SOL    HW133713   4.003   2.636  13.097  1.0156 -0.6184 -0.5386
 7417SOL    HW233714   3.957   2.601  13.236  0.2578 -1.7167  0.7880
 7418SOL     OW33715   0.150   3.038   1.974  0.2096 -0.1051  0.1177
 7418SOL    HW133716   0.088   3.099   1.933 -1.6381 -1.9745  0.1677
 7418SOL    HW233717   0.131   3.062   2.064 -3.2250 -0.4338 -0.5325
 7419SOL     OW33718   4.349   0.969   5.285 -0.0373 -0.2311 -0.7573
 7419SOL    HW133719   4.392   1.021   5.353  0.7645 -1.1065 -0.5916
 7419SOL    HW233720   4.389   0.883   5.300  0.7018 -0.0498 -1.7097
 7420SOL     OW33721   0.175   2.878   7.490  0.0441  0.0775  0.4387
 7420SOL    HW133722   0.100   2.850   7.544  0.1563 -0.9073  0.0980
 7420SOL    HW233723   0.231   2.804   7.515  0.1482  0.4781  1.3939
 7421SOL     OW33724   1.805   1.544   7.877 -0.0283 -0.1796  0.2501
 7421SOL    HW133725   1.867   1.585   7.816  0.6097 -0.6423  0.5913
 7421SOL    HW233726   1.754   1.502   7.808 -0.0506  3.2610 -1.8353
 7422SOL     OW33727   3.669   2.026   6.879  0.3580 -0.2781  0.0200
 7422SOL    HW133728   3.716   1.974   6.814  2.1116  1.8571 -0.4395
 7422SOL    HW233729   3.577   2.003   6.867 -0.0084  0.9945  0.3829
 7423SOL     OW33730   0.683   1.741   4.806  0.7312 -0.4666 -0.0198
 7423SOL    HW133731   0.686   1.661   4.858  0.4478 -0.2255  0.3709
 7423SOL    HW233732   0.750   1.791   4.854  0.7878  0.1700 -0.7587
 7424SOL     OW33733   1.418   1.052  10.700  0.0637 -0.2055  0.1434
 7424SOL    HW133734   1.407   0.966  10.659 -1.9789 -0.8556  2.0906
 7424SOL    HW233735   1.330   1.088  10.690 -0.5285 -0.9899  2.5078
 7425SOL     OW33736   1.967   1.888  16.474  0.0125 -0.2386 -0.4088
 7425SOL    HW133737   1.967   1.983  16.466 -1.3556 -0.2651 -0.6919
 7425SOL    HW233738   1.877   1.872  16.446  0.5603  2.6434 -3.8283
 7426SOL     OW33739   2.446   1.843   7.845  0.3709  0.3501 -0.0603
 7426SOL    HW133740   2.416   1.933   7.835  1.2492  0.4085 -2.2279
 7426SOL    HW233741   2.476   1.861   7.934  3.1118 -5.2416  0.1539
 7427SOL     OW33742   0.686   0.316   3.371  0.0940  0.4988 -0.4282
 7427SOL    HW133743   0.597   0.290   3.346 -1.4171  2.6819  2.7595
 7427SOL    HW233744   0.678   0.358   3.457  1.6744  0.1361 -0.0869
 7428SOL     OW33745   4.135   2.711   4.893  0.1716  0.7756 -0.2044
 7428SOL    HW133746   4.041   2.728   4.884 -0.2799 -1.0467  1.0295
 7428SOL    HW233747   4.155   2.735   4.983 -1.1380 -0.2923  0.3714
 7429SOL     OW33748   3.662   1.994   5.275  0.1105  0.4503 -0.3503
 7429SOL    HW133749   3.654   2.027   5.186 -0.9185 -2.9673 -1.5122
 7429SOL    HW233750   3.608   2.065   5.310  3.1338  2.2214  0.7009
 7430SOL     OW33751   0.751   3.328   3.492  0.0825 -0.5529  0.1872
 7430SOL    HW133752   0.702   3.271   3.432 -2.4332  2.0553 -0.2595
 7430SOL    HW233753   0.711   3.413   3.475 -0.1214 -0.1411  2.7808
 7431SOL     OW33754   1.291   2.778  11.640 -1.0358 -0.0765  0.1175
 7431SOL    HW133755   1.337   2.751  11.561  2.6015 -1.2090  2.5785
 7431SOL    HW233756   1.276   2.696  11.687 -1.1140 -0.2679 -0.2435
 7432SOL     OW33757   1.888   2.000   5.249 -0.0527  0.0430 -1.0535
 7432SOL    HW133758   1.817   2.061   5.227 -0.8285 -0.4527  0.0823
 7432SOL    HW233759   1.878   1.943   5.173 -1.7565 -0.2681 -0.6040
 7433SOL     OW33760   3.358   1.945   3.720 -0.1969 -0.2374 -0.4089
 7433SOL    HW133761   3.297   1.894   3.774 -0.8308 -0.2865 -1.1661
 7433SOL    HW233762   3.423   1.961   3.789 -1.9005  0.4308  1.0285
 7434SOL     OW33763   2.865   3.923   2.241  0.3034  0.5382 -0.0001
 7434SOL    HW133764   2.836   3.959   2.324 -0.7155  0.5422 -0.3604
 7434SOL    HW233765   2.800   3.955   2.179  0.2648  1.3282  0.4593
 7435SOL     OW33766   3.874   3.470  14.595 -0.7740  0.7177 -0.5996
 7435SOL    HW133767   3.833   3.484  14.681 -2.1904  0.4638 -1.2399
 7435SOL    HW233768   3.886   3.562  14.575  1.6623 -0.0083 -2.4384
 7436SOL     OW33769   0.345   1.387   0.568  0.1783  0.2503 -0.7301
 7436SOL    HW133770   0.425   1.335   0.565 -1.0988 -1.8252  0.5845
 7436SOL    HW233771   0.367   1.474   0.600 -0.3425 -0.1647  0.7281
 7437SOL     OW33772   1.752   4.242   4.333 -0.0923  0.0449  0.2518
 7437SOL    HW133773   1.843   4.270   4.327  0.1260 -0.8174 -0.4650
 7437SOL    HW233774   1.759   4.166   4.276 -2.1175  0.0310  0.0282
 7438SOL     OW33775   2.088   4.080  14.166  0.2191  0.1512  0.1108
 7438SOL    HW133776   2.049   4.165  14.146  1.5688  0.1169 -2.6489
 7438SOL    HW233777   2.179   4.106  14.178 -0.1576  0.6001  2.0383
 7439SOL     OW33778   2.996   3.547   8.295  0.4009 -0.3167  0.0795
 7439SOL    HW133779   2.926   3.488   8.270  0.5450 -0.5215  0.1565
 7439SOL    HW233780   2.945   3.626   8.312  1.8647  0.1876  2.0694
 7440SOL     OW33781   4.474   3.632   8.479 -0.4361  0.1466 -0.3410
 7440SOL    HW133782   4.418   3.565   8.517  0.2895 -0.0319  0.4281
 7440SOL    HW233783   4.551   3.624   8.536 -1.7997 -0.8016  1.3563
 7441SOL     OW33784   3.038   1.752   2.311  0.2123 -0.3480 -0.1564
 7441SOL    HW133785   2.988   1.763   2.392  1.6031 -1.6378  0.8727
 7441SOL    HW233786   3.117   1.790   2.349 -0.4791 -0.3586  1.2995
 7442SOL     OW33787   0.797   3.148   2.289 -0.2918 -0.7541 -0.1367
 7442SOL    HW133788   0.890   3.150   2.312 -0.0638 -2.0839 -0.9320
 7442SOL    HW233789   0.800   3.223   2.230  0.0656 -0.7894 -0.1619
 7443SOL     OW33790   0.657   2.218   9.390 -0.5267  0.0780  0.0148
 7443SOL    HW133791   0.623   2.132   9.366 -1.6726 -0.1595  2.3986
 7443SOL    HW233792   0.740   2.198   9.433  0.3459  0.9930 -1.2420
 7444SOL     OW33793   1.181   1.431  16.815  0.4361 -0.1932 -0.2512
 7444SOL    HW133794   1.269   1.432  16.779 -0.2976 -0.3678 -2.0501
 7444SOL    HW233795   1.121   1.464  16.748 -1.7202 -1.3009  1.1345
 7445SOL     OW33796   0.571   3.664   6.991 -0.4098 -0.2067  0.2801
 7445SOL    HW133797   0.603   3.582   6.952  0.3667  0.0291  0.4189
 7445SOL    HW233798   0.482   3.634   7.004  0.0811  0.5395  5.2603
 7446SOL     OW33799   3.541   1.413   0.933  0.1338  0.2270  0.2711
 7446SOL    HW133800   3.561   1.500   0.966 -1.7919  0.4136  0.9255
 7446SOL    HW233801   3.612   1.358   0.967 -1.0227 -2.2700 -1.3088
 7447SOL     OW33802   1.725   3.281  12.004  0.1922  0.0783 -0.5018
 7447SOL    HW133803   1.691   3.280  12.094 -2.1710  2.2627 -1.3767
 7447SOL    HW233804   1.774   3.363  12.008 -0.6342  0.5469  0.0543
 7448SOL     OW33805   2.127   1.283   5.958 -0.0586  0.2554  0.4157
 7448SOL    HW133806   2.083   1.363   5.986 -0.4376  0.2680 -0.2174
 7448SOL    HW233807   2.052   1.232   5.926  0.4254  0.4863 -1.0985
 7449SOL     OW33808   2.721   4.127   9.382 -0.0925  0.2722 -0.4311
 7449SOL    HW133809   2.714   4.133   9.478  1.1701  0.6194 -0.3564
 7449SOL    HW233810   2.756   4.039   9.370  1.9172  0.8780  0.9477
 7450SOL     OW33811   1.686   0.991  11.115 -0.1462 -0.3535  0.2237
 7450SOL    HW133812   1.660   0.968  11.025 -2.9151  1.0838  0.6649
 7450SOL    HW233813   1.769   0.943  11.111  0.7502  1.1362  0.7379
 7451SOL     OW33814   2.352   3.790   6.121 -0.0865 -0.0466  0.3087
 7451SOL    HW133815   2.257   3.801   6.113 -0.0230  0.2986  0.0211
 7451SOL    HW233816   2.378   3.872   6.163  0.0312  0.0516  0.0473
 7452SOL     OW33817   1.408   4.301   2.642 -0.0792  0.0712 -0.1071
 7452SOL    HW133818   1.461   4.277   2.566 -0.0408  1.0911 -0.3958
 7452SOL    HW233819   1.459   4.273   2.717  0.3367 -0.6863 -0.6732
 7453SOL     OW33820   1.133   3.989   3.367  0.1874  0.6677 -0.1603
 7453SOL    HW133821   1.096   3.920   3.421 -1.5895  2.3324  0.7397
 7453SOL    HW233822   1.186   4.036   3.431  1.4954 -1.5901  0.4195
 7454SOL     OW33823   3.525   0.133   6.035 -0.1250  0.1001 -0.3463
 7454SOL    HW133824   3.459   0.156   6.100 -1.6492 -0.2203 -1.7770
 7454SOL    HW233825   3.494   0.176   5.955 -0.5225 -1.2180 -0.9011
 7455SOL     OW33826   1.329   4.518   1.233 -0.3921  0.3933  0.7756
 7455SOL    HW133827   1.388   4.450   1.267 -2.4135 -1.6034  0.2469
 7455SOL    HW233828   1.387   4.590   1.258  0.3936 -0.3522  1.0965
 7456SOL     OW33829   0.698   1.903   8.564 -0.3622  0.9491  0.2244
 7456SOL    HW133830   0.714   1.851   8.643  0.7605  0.3874 -0.3706
 7456SOL    HW233831   0.788   1.912   8.534 -0.2022 -0.2836  0.3035
 7457SOL     OW33832   4.252   2.285  13.728 -0.1872 -0.0751 -0.3149
 7457SOL    HW133833   4.223   2.352  13.790  0.1377  0.3139 -0.5801
 7457SOL    HW233834   4.281   2.208  13.776 -1.1350 -0.9168 -1.0895
 7458SOL     OW33835   3.420   3.133  12.742  0.0343 -0.0498 -0.0905
 7458SOL    HW133836   3.388   3.061  12.796  1.7728 -0.2222  0.7144
 7458SOL    HW233837   3.479   3.185  12.795 -0.5768  0.8301 -0.2696
 7459SOL     OW33838   1.482   4.531  10.881  0.0552  0.9786  0.2210
 7459SOL    HW133839   1.570   4.566  10.897 -0.0340  0.7664  1.1521
 7459SOL    HW233840   1.480   4.549  10.787 -0.4129 -0.3701 -0.0233
 7460SOL     OW33841   0.651   0.824  13.732  0.1153  0.2301  0.3967
 7460SOL    HW133842   0.585   0.858  13.671  1.8593 -0.0587 -1.6687
 7460SOL    HW233843   0.726   0.872  13.696  0.8586 -2.6055 -1.7632
 7461SOL     OW33844   1.711   0.901  12.609 -0.1002  0.3106 -0.3386
 7461SOL    HW133845   1.705   0.908  12.704 -0.4832  0.9323 -0.4079
 7461SOL    HW233846   1.660   0.822  12.592 -1.1175  0.4692  2.0751
 7462SOL     OW33847   3.996   4.236   8.459 -0.2643 -0.4806 -0.1367
 7462SOL    HW133848   3.907   4.201   8.456 -1.3240  2.5179 -3.3569
 7462SOL    HW233849   4.032   4.147   8.467 -0.3787 -0.5630 -0.5295
 7463SOL     OW33850   2.009   3.820   6.150  0.0445 -0.1604 -0.5597
 7463SOL    HW133851   1.917   3.839   6.166  1.4705  2.6463  4.5182
 7463SOL    HW233852   2.010   3.847   6.058  2.5929 -1.8917 -1.0392
 7464SOL     OW33853   4.103   3.562   5.482  0.2318  0.1997  0.3161
 7464SOL    HW133854   4.140   3.647   5.505  0.2924 -0.0657  1.2032
 7464SOL    HW233855   4.174   3.500   5.494 -0.2739  0.5686  5.2560
 7465SOL     OW33856   0.495   2.992   6.857 -0.4741  0.0610 -0.3888
 7465SOL    HW133857   0.579   2.964   6.820  0.7177  0.7204  1.7831
 7465SOL    HW233858   0.441   2.939   6.799 -0.0887 -0.2454 -0.4670
 7466SOL     OW33859   0.894   2.703   1.970 -0.2912  0.1077  0.5961
 7466SOL    HW133860   0.889   2.799   1.967 -1.4850  0.0489  0.9678
 7466SOL    HW233861   0.957   2.680   1.902 -3.2506 -1.0012 -1.7112
 7467SOL     OW33862   3.149   0.658  15.515 -0.0772  0.1405  0.4935
 7467SOL    HW133863   3.171   0.743  15.552  1.5944 -0.6729  1.4171
 7467SOL    HW233864   3.087   0.680  15.446  0.8232  1.3240  0.0698
 7468SOL     OW33865   1.524   2.761   8.445  0.3867  0.1078  0.2612
 7468SOL    HW133866   1.499   2.744   8.536 -2.8185  1.6556 -0.3105
 7468SOL    HW233867   1.439   2.767   8.400  0.7850  0.0571 -0.5001
 7469SOL     OW33868   3.106   3.493   8.973 -0.4132  0.0562 -0.1096
 7469SOL    HW133869   3.191   3.453   8.991  0.8110  1.6240 -2.3599
 7469SOL    HW233870   3.053   3.418   9.002 -1.3286  0.6980 -0.1176
 7470SOL     OW33871   2.689   2.163   6.608 -0.8594 -0.6048  0.6694
 7470SOL    HW133872   2.598   2.188   6.622  0.0360  1.5517  2.4972
 7470SOL    HW233873   2.714   2.099   6.675 -2.2206 -0.9744  0.8403
 7471SOL     OW33874   0.258   1.502  17.295 -0.0760  0.4498  0.2784
 7471SOL    HW133875   0.249   1.415  17.332  0.6068  0.8664  1.4317
 7471SOL    HW233876   0.173   1.509  17.253 -1.0973 -1.4390  2.0114
 7472SOL     OW33877   3.957   4.300  11.273  0.1238  0.1935 -0.2417
 7472SOL    HW133878   3.932   4.287  11.182 -3.5131  0.5382  0.7124
 7472SOL    HW233879   4.031   4.360  11.269  0.5465 -0.3333 -0.3583
 7473SOL     OW33880   3.069   0.834  14.412  0.0719 -0.2550 -0.1280
 7473SOL    HW133881   3.147   0.877  14.447 -1.3805  0.7424  1.9370
 7473SOL    HW233882   3.062   0.755  14.465 -1.1569 -1.3126 -1.8771
 7474SOL     OW33883   1.482   4.689   3.281  0.1332 -0.2928  0.1022
 7474SOL    HW133884   1.550   4.707   3.216 -0.9570 -2.5539 -1.6933
 7474SOL    HW233885   1.406   0.001   3.234 -0.6416  0.8545  2.2116
 7475SOL     OW33886   1.784   4.651   4.278  0.0255 -0.0312 -0.2424
 7475SOL    HW133887   1.866   4.655   4.229  0.4676  0.7084  0.5470
 7475SOL    HW233888   1.718   4.647   4.209  0.1041 -1.1668 -0.2579
 7476SOL     OW33889   0.676   1.823  13.410 -0.3480  0.2082  0.7425
 7476SOL    HW133890   0.613   1.894  13.396 -0.1597 -0.1630 -1.8526
 7476SOL    HW233891   0.644   1.756  13.350 -0.4588 -2.1249  3.4327
 7477SOL     OW33892   3.057   2.905   6.692 -0.8013 -0.0331  0.5063
 7477SOL    HW133893   3.033   2.898   6.785 -0.8546  0.6558  0.5476
 7477SOL    HW233894   3.145   2.866   6.692  0.0065  1.7966 -0.4296
 7478SOL     OW33895   1.750   3.459  16.188  0.3677 -0.1740 -0.6654
 7478SOL    HW133896   1.813   3.525  16.159 -0.8371  1.0146 -0.6091
 7478SOL    HW233897   1.747   3.397  16.115  0.9955 -3.6310  2.2257
 7479SOL     OW33898   4.709   0.084   8.832 -0.2770  0.0673  0.0187
 7479SOL    HW133899   4.688   0.163   8.783 -0.2317  0.1033  0.0567
 7479SOL    HW233900   4.637   0.029   8.801  2.6016 -1.6966 -3.4869
 7480SOL     OW33901   4.515   2.512  16.249  0.1227 -0.1457 -0.5419
 7480SOL    HW133902   4.468   2.496  16.331  1.8415  1.5803  0.7637
 7480SOL    HW233903   4.607   2.496  16.268  0.0334  0.4553  0.3873
 7481SOL     OW33904   0.106   3.551   1.164 -0.0776 -0.3739 -0.1159
 7481SOL    HW133905   0.078   3.636   1.129 -1.7685 -0.3948  1.1601
 7481SOL    HW233906   0.039   3.527   1.229  2.0722  2.0276  2.9990
 7482SOL     OW33907   1.865   1.462   1.428 -0.4033  0.4294 -0.3456
 7482SOL    HW133908   1.894   1.373   1.446  0.7426  0.2137 -3.1570
 7482SOL    HW233909   1.785   1.451   1.375 -0.4860  0.2300 -0.1768
 7483SOL     OW33910   4.263   0.497   9.184 -0.2115 -0.1162  0.8180
 7483SOL    HW133911   4.346   0.451   9.176  0.5554  1.3516  0.3597
 7483SOL    HW233912   4.287   0.558   9.254 -1.0580 -0.0819  1.0855
 7484SOL     OW33913   2.625   3.291  14.203  0.8656 -0.2784 -0.2871
 7484SOL    HW133914   2.581   3.376  14.200 -1.8161 -1.6988 -1.5370
 7484SOL    HW233915   2.623   3.280  14.108  0.5924 -2.6107 -0.0122
 7485SOL     OW33916   3.094   1.000   5.727 -0.2914  0.3306  0.7637
 7485SOL    HW133917   3.155   1.070   5.704  2.7644 -2.8133 -0.7426
 7485SOL    HW233918   3.065   1.031   5.813 -2.1999 -0.9733  0.5923
 7486SOL     OW33919   1.301   0.474   3.994 -0.2913  0.1357  0.4099
 7486SOL    HW133920   1.225   0.495   4.049  0.2891  0.9923  0.8881
 7486SOL    HW233921   1.320   0.552   3.942  1.5729 -0.1146  0.7039
 7487SOL     OW33922   2.333   3.010   8.056  0.4266  0.0279 -0.2108
 7487SOL    HW133923   2.297   2.997   8.144  0.4561 -0.8664 -0.3387
 7487SOL    HW233924   2.265   2.961   8.010  1.5436 -1.9318  0.2167
 7488SOL     OW33925   4.532   0.691   5.088 -0.3160  0.3278 -0.4211
 7488SOL    HW133926   4.539   0.759   5.021  0.6075  0.2358 -0.4140
 7488SOL    HW233927   4.454   0.646   5.055 -0.8861  0.7877  0.2725
 7489SOL     OW33928   0.123   0.202   3.977  0.3744  0.4280  0.5685
 7489SOL    HW133929   0.158   0.129   4.028  0.2441  0.1214  0.2191
 7489SOL    HW233930   0.030   0.185   3.992  0.0345  0.7493 -1.1732
 7490SOL     OW33931   0.159   4.034   6.871  0.4751 -0.6476 -0.3129
 7490SOL    HW133932   0.173   4.048   6.964  0.9030  0.9660 -0.6225
 7490SOL    HW233933   0.071   3.996   6.868  0.4362 -0.7666  3.0329
 7491SOL     OW33934   3.638   3.426  15.630 -0.1680 -0.0993 -0.0616
 7491SOL    HW133935   3.628   3.368  15.706 -1.2465  0.2455  0.0501
 7491SOL    HW233936   3.636   3.356  15.565 -0.7350 -0.6554  0.5554
 7492SOL     OW33937   3.581   3.289   7.142  0.1346 -0.4521  0.1649
 7492SOL    HW133938   3.652   3.242   7.098  0.3489  0.3126 -0.3152
 7492SOL    HW233939   3.527   3.329   7.073 -1.0924  0.9752  1.9589
 7493SOL     OW33940   1.276   2.850   9.344 -0.0568  0.1431  0.2435
 7493SOL    HW133941   1.344   2.917   9.340 -0.3254  0.4932  1.4797
 7493SOL    HW233942   1.289   2.831   9.437  0.7265  1.7730  0.4623
 7494SOL     OW33943   1.629   3.695   6.889 -0.3055 -0.5994  0.1136
 7494SOL    HW133944   1.721   3.681   6.911 -0.6957 -0.8090  1.5979
 7494SOL    HW233945   1.580   3.688   6.971 -1.3427  0.1033 -0.4526
 7495SOL     OW33946   1.015   3.366  11.540  0.4190  0.0038  0.0233
 7495SOL    HW133947   0.939   3.361  11.483  1.4476 -2.5636 -1.1164
 7495SOL    HW233948   1.066   3.291  11.508 -0.9462 -2.0928  2.7059
 7496SOL     OW33949   4.084   3.057  12.447  0.1742  0.1769  0.2242
 7496SOL    HW133950   4.064   3.140  12.491 -1.1483 -0.4304  0.7813
 7496SOL    HW233951   4.168   3.080  12.409  0.4659 -0.0892  0.7081
 7497SOL     OW33952   2.837   1.140   4.128 -0.2414 -0.2698  0.4123
 7497SOL    HW133953   2.895   1.216   4.121 -0.8996  0.1336 -0.7847
 7497SOL    HW233954   2.751   1.182   4.125 -0.6047 -1.0779 -0.8406
 7498SOL     OW33955   4.387   0.520   3.017  0.6711  0.0254  0.5963
 7498SOL    HW133956   4.420   0.605   3.044 -1.8478  0.6331  1.7336
 7498SOL    HW233957   4.467   0.467   3.021 -0.2459 -1.4336 -0.2982
 7499SOL     OW33958   0.767   4.221   3.888  0.0432  0.0217  0.1689
 7499SOL    HW133959   0.686   4.243   3.934 -0.5610 -1.2990 -0.2501
 7499SOL    HW233960   0.743   4.254   3.801 -0.0567 -0.1751  0.1206
 7500SOL     OW33961   1.132   2.998  16.065 -0.3605 -0.0243 -0.2857
 7500SOL    HW133962   1.068   3.043  16.010  0.4515 -0.6665 -1.7720
 7500SOL    HW233963   1.172   2.947  15.995 -1.9530 -1.2852 -0.2466
 7501SOL     OW33964   2.236   2.233  14.609  0.7813  0.4026 -0.7454
 7501SOL    HW133965   2.317   2.231  14.661  0.3443  1.3075 -0.0266
 7501SOL    HW233966   2.199   2.146  14.620 -0.2939  0.8184 -1.1332
 7502SOL     OW33967   2.258   1.060   1.235 -0.4293  0.4202  0.4199
 7502SOL    HW133968   2.259   1.059   1.139  0.1978  0.4052  0.4314
 7502SOL    HW233969   2.204   1.137   1.251 -2.4386 -1.0394  0.8126
 7503SOL     OW33970   1.183   1.791   7.140 -0.2092  0.0198 -0.0661
 7503SOL    HW133971   1.241   1.716   7.152 -0.6534 -0.7040 -2.3278
 7503SOL    HW233972   1.131   1.786   7.220 -0.9199 -1.9232 -0.6530
 7504SOL     OW33973   2.399   3.272  13.112  0.3080 -0.2423  0.2399
 7504SOL    HW133974   2.483   3.241  13.078 -0.2866  0.5280 -1.9308
 7504SOL    HW233975   2.417   3.366  13.112  0.4224 -0.2698  1.1892
 7505SOL     OW33976   3.816   0.085   3.961 -0.7194  0.1573 -0.4727
 7505SOL    HW133977   3.859   0.163   3.996 -1.6519  0.1403  0.7074
 7505SOL    HW233978   3.751   0.125   3.902 -0.7405  0.8725  0.0371
 7506SOL     OW33979   2.284   4.574  17.308 -0.1272  0.3360  0.0582
 7506SOL    HW133980   2.293   4.525  17.389  0.9113 -0.5379 -0.5863
 7506SOL    HW233981   2.306   4.516  17.236 -0.2038  0.6919 -0.2563
 7507SOL     OW33982   3.931   3.168  15.251  0.5242 -0.2530  0.0808
 7507SOL    HW133983   3.836   3.180  15.248  0.4876 -0.6753 -0.3666
 7507SOL    HW233984   3.956   3.217  15.330 -0.4164  2.8382 -1.5161
 7508SOL     OW33985   1.085   0.199  10.141  0.2741  0.4214 -0.1186
 7508SOL    HW133986   1.110   0.131  10.203 -0.3798  1.3688  1.1768
 7508SOL    HW233987   1.007   0.163  10.097  0.3735 -0.3685  0.3657
 7509SOL     OW33988   1.440   1.267   5.319 -0.5523 -0.4152  0.4088
 7509SOL    HW133989   1.497   1.243   5.393  0.6375 -1.8956 -0.9905
 7509SOL    HW233990   1.481   1.340   5.273 -2.1656  1.7384  2.3640
 7510SOL     OW33991   0.991   4.488  13.110 -0.1252  0.2607 -0.0564
 7510SOL    HW133992   1.030   4.403  13.131 -1.7327 -0.5319 -0.2660
 7510SOL    HW233993   0.908   4.466  13.152 -1.1059 -1.1298 -2.7373
 7511SOL     OW33994   2.800   1.620  14.895  0.2471 -0.3129  0.1012
 7511SOL    HW133995   2.779   1.709  14.924  1.4257 -0.4945  1.4891
 7511SOL    HW233996   2.734   1.611  14.826 -1.5707  0.7225  1.7452
 7512SOL     OW33997   0.802   3.598   2.575 -0.2318  0.0086  0.0240
 7512SOL    HW133998   0.878   3.540   2.578 -1.3558 -1.4375  0.7868
 7512SOL    HW233999   0.751   3.552   2.509 -0.2388  0.6546 -0.4188
 7513SOL     OW34000   0.156   4.520   3.863 -0.9915  0.4056  0.3457
 7513SOL    HW134001   0.184   4.541   3.774  1.7709 -0.9803  0.8862
 7513SOL    HW234002   0.130   4.428   3.852  0.9320 -0.1842  0.6979
 7514SOL     OW34003   0.568   1.959   4.678  0.8059 -0.0088  0.6769
 7514SOL    HW134004   0.644   1.980   4.624  0.4564  0.8427  0.5108
 7514SOL    HW234005   0.591   1.880   4.726 -0.4568 -0.8399 -0.0913
 7515SOL     OW34006   3.494   2.732   4.421 -0.5838 -0.4662  0.6673
 7515SOL    HW134007   3.539   2.813   4.445 -1.9346  0.3633  0.4322
 7515SOL    HW234008   3.536   2.662   4.471  0.8969  0.9237  1.3500
 7516SOL     OW34009   4.337   1.825   7.743 -0.2860 -0.2871 -0.1239
 7516SOL    HW134010   4.372   1.820   7.832  1.2676  0.8020 -0.6841
 7516SOL    HW234011   4.410   1.875   7.707 -1.1168  0.7914 -0.2982
 7517SOL     OW34012   2.161   1.407   1.703  0.7181 -0.3458 -0.1921
 7517SOL    HW134013   2.206   1.378   1.782  0.1637 -0.9347 -0.0845
 7517SOL    HW234014   2.073   1.420   1.739  0.7497  0.3282 -0.3609
 7518SOL     OW34015   0.171   0.751   6.517 -0.2450  0.6169 -0.4443
 7518SOL    HW134016   0.085   0.727   6.484 -0.5438  0.7472  0.2607
 7518SOL    HW234017   0.233   0.706   6.459 -0.0620  0.9229 -0.4914
 7519SOL     OW34018   4.629   0.051   7.718 -0.2234 -0.1698  0.7692
 7519SOL    HW134019   4.594   4.714   7.784 -1.3241  0.1403  0.4755
 7519SOL    HW234020   4.676   0.111   7.775 -1.0076  0.0094  1.2291
 7520SOL     OW34021   0.865   1.320  15.447  0.4224  0.8770 -0.1833
 7520SOL    HW134022   0.938   1.272  15.408 -0.1478  1.3918 -1.8838
 7520SOL    HW234023   0.791   1.263  15.425  0.7277  1.3884 -2.4921
 7521SOL     OW34024   0.243   2.965   1.730  0.4945  0.1823 -0.3394
 7521SOL    HW134025   0.205   3.006   1.808 -0.1989 -1.7292  0.3272
 7521SOL    HW234026   0.177   2.997   1.668 -0.5706 -0.1328  0.6199
 7522SOL     OW34027   4.118   3.087   8.179  0.6167 -0.3717  0.1645
 7522SOL    HW134028   4.036   3.086   8.129  1.5700  0.7810 -1.4272
 7522SOL    HW234029   4.147   3.178   8.170  2.9384 -1.3010 -1.4674
 7523SOL     OW34030   2.406   1.207   3.944 -0.3074  0.2967 -0.6331
 7523SOL    HW134031   2.457   1.211   3.863 -0.0729 -2.8208 -0.6489
 7523SOL    HW234032   2.400   1.299   3.970 -2.1845 -0.3970  1.4140
 7524SOL     OW34033   4.672   1.134   4.944  0.6383 -0.0334 -0.2179
 7524SOL    HW134034   4.721   1.102   5.020 -0.5177 -1.9858 -0.3005
 7524SOL    HW234035   0.006   1.203   4.911 -0.7511  0.0520 -2.4403
 7525SOL     OW34036   1.563   0.187   1.576  0.0204  0.1320  0.1874
 7525SOL    HW134037   1.513   0.215   1.499 -0.8114  0.7839  0.9662
 7525SOL    HW234038   1.554   0.264   1.632 -0.1431  0.3176 -0.0944
 7526SOL     OW34039   3.192   1.891   1.439  0.2800 -0.8990  0.3805
 7526SOL    HW134040   3.205   1.979   1.476 -3.2652 -0.1375 -0.1688
 7526SOL    HW234041   3.107   1.873   1.480  0.5182 -1.5551  0.5855
 7527SOL     OW34042   3.092   1.478  14.425 -0.1452  0.0108  0.5725
 7527SOL    HW134043   3.142   1.452  14.502  1.2307 -0.5597 -0.4990
 7527SOL    HW234044   2.999   1.479  14.446 -0.0949 -2.0165  0.8546
 7528SOL     OW34045   3.022   4.522  16.470 -0.0004 -0.3009 -0.4036
 7528SOL    HW134046   3.017   4.556  16.380  0.6712  0.9673  0.0392
 7528SOL    HW234047   2.960   4.578  16.516  3.0992  2.7628  0.0568
 7529SOL     OW34048   4.160   4.096   3.229 -0.1210  0.3707 -0.3316
 7529SOL    HW134049   4.083   4.043   3.207 -1.4747  1.5549  1.5690
 7529SOL    HW234050   4.114   4.177   3.208  1.3468  1.0084 -1.0891
 7530SOL     OW34051   0.538   4.417  10.718  0.2139 -0.0369 -0.4931
 7530SOL    HW134052   0.502   4.330  10.738  0.6003  0.3895  2.0864
 7530SOL    HW234053   0.556   4.394  10.627  3.7700 -0.0753  0.2045
 7531SOL     OW34054   3.895   3.257   3.446 -0.0690  0.8469 -0.3449
 7531SOL    HW134055   3.923   3.227   3.360  0.1099 -1.8571  0.6689
 7531SOL    HW234056   3.925   3.348   3.442 -1.9639  1.3961 -2.0972
 7532SOL     OW34057   4.636   2.580  13.252 -0.0392 -0.2863 -0.6178
 7532SOL    HW134058   4.649   2.673  13.234  0.1205  0.4206  3.1049
 7532SOL    HW234059   4.703   2.544  13.193 -1.5180  0.4262 -2.7250
 7533SOL     OW34060   4.303   0.711   7.132  0.3556 -0.4920  0.4634
 7533SOL    HW134061   4.250   0.791   7.132  0.0981 -0.6592  0.6708
 7533SOL    HW234062   4.362   0.735   7.061 -1.1642 -1.9882 -1.3150
 7534SOL     OW34063   3.540   2.168   6.010 -0.0287 -0.1096  0.1420
 7534SOL    HW134064   3.507   2.180   6.099 -2.7053 -1.8827 -0.6016
 7534SOL    HW234065   3.526   2.076   5.990 -0.0519 -0.2996  1.0559
 7535SOL     OW34066   0.449   3.379   7.328  0.5652  0.0530  0.5353
 7535SOL    HW134067   0.533   3.423   7.325 -1.0108  2.8261 -2.2491
 7535SOL    HW234068   0.479   3.292   7.357 -1.7715 -1.5707 -1.9308
 7536SOL     OW34069   1.351   1.293   7.776 -0.0549 -0.4785 -0.3199
 7536SOL    HW134070   1.324   1.327   7.691 -0.1445 -1.1162 -0.5485
 7536SOL    HW234071   1.345   1.201   7.750  0.2415 -0.4792 -0.3811
 7537SOL     OW34072   3.336   4.567  10.429  0.8249  0.0620  0.2190
 7537SOL    HW134073   3.424   4.555  10.395  0.4490  1.5400 -1.3200
 7537SOL    HW234074   3.342   4.501  10.497 -2.3585  0.9492  1.3820
 7538SOL     OW34075   4.196   1.040   4.111  0.5615 -0.3047  0.4403
 7538SOL    HW134076   4.178   1.039   4.017  1.5013  0.2720  0.2506
 7538SOL    HW234077   4.190   0.947   4.130 -1.0215 -0.0168  1.2457
 7539SOL     OW34078   3.038   4.251   7.874  1.1525  0.2342  0.2655
 7539SOL    HW134079   3.004   4.250   7.963 -0.6530  0.0660 -0.4278
 7539SOL    HW234080   2.984   4.324   7.843 -0.6947 -2.2809 -2.4632
 7540SOL     OW34081   1.412   2.669   8.687 -0.0577 -0.7057  0.2607
 7540SOL    HW134082   1.394   2.717   8.768  0.7335  0.6302 -0.3584
 7540SOL    HW234083   1.478   2.610   8.723 -0.7696 -1.9450 -0.4797
 7541SOL     OW34084   0.665   3.902   2.302  0.4120  0.2888 -0.2863
 7541SOL    HW134085   0.625   3.834   2.355  0.7676  0.4553  0.2021
 7541SOL    HW234086   0.740   3.854   2.266  3.0718  3.1521  1.3440
 7542SOL     OW34087   2.961   1.286   6.453 -0.1986 -0.1925  0.2759
 7542SOL    HW134088   2.907   1.324   6.383  0.3778  0.0821 -0.0210
 7542SOL    HW234089   3.033   1.350   6.459  0.2463 -0.6920  0.2453
 7543SOL     OW34090   1.961   1.499   6.007  0.2058  0.0592  0.0637
 7543SOL    HW134091   1.880   1.449   6.019 -1.0273  1.6481 -1.4983
 7543SOL    HW234092   1.944   1.589   6.035 -0.2138  0.2976 -0.9330
 7544SOL     OW34093   3.033   0.966   3.676 -0.2752 -0.2616 -0.6956
 7544SOL    HW134094   2.939   0.964   3.657 -0.3622  1.8284 -0.3980
 7544SOL    HW234095   3.040   0.887   3.731  1.0313  0.2165 -0.1795
 7545SOL     OW34096   2.981   1.231   3.035 -0.3522  0.1091  0.1628
 7545SOL    HW134097   2.967   1.148   3.080  1.4815 -0.4141 -0.2377
 7545SOL    HW234098   2.904   1.277   3.070  0.1102 -2.2150  4.2093
 7546SOL     OW34099   2.885   2.818   6.514 -0.6888  0.1625  0.7822
 7546SOL    HW134100   2.925   2.782   6.435  3.0542  1.7062  1.9912
 7546SOL    HW234101   2.962   2.846   6.563 -2.1679 -0.6431  3.6058
 7547SOL     OW34102   3.237   3.137   8.790  0.6140  0.1278  0.0776
 7547SOL    HW134103   3.261   3.139   8.882 -0.1249 -4.0701  0.3720
 7547SOL    HW234104   3.324   3.136   8.751 -0.2783  0.8070 -1.9204
 7548SOL     OW34105   2.797   4.162   3.517 -0.1039  0.0213 -0.0864
 7548SOL    HW134106   2.892   4.174   3.509  0.4588 -2.4441  2.9541
 7548SOL    HW234107   2.779   4.136   3.426  0.1903  1.2288 -0.4885
 7549SOL     OW34108   3.386   0.596   5.940  0.0202  0.3826 -0.5261
 7549SOL    HW134109   3.357   0.622   5.852 -2.2157  0.0478  0.1165
 7549SOL    HW234110   3.374   0.673   5.996 -1.6827 -0.8070  0.7623
 7550SOL     OW34111   4.517   3.971   3.044  0.0886 -0.8138 -0.1987
 7550SOL    HW134112   4.473   3.962   3.129  1.7575  0.5885  0.8197
 7550SOL    HW234113   4.503   3.887   3.000 -0.4949 -0.2404 -1.1007
 7551SOL     OW34114   1.138   3.111   9.436  0.0662 -0.9821  0.1378
 7551SOL    HW134115   1.124   3.053   9.511 -0.3966 -1.9585 -0.7096
 7551SOL    HW234116   1.226   3.141   9.460  0.3425 -1.3154 -0.4434
 7552SOL     OW34117   2.391   0.643  15.298 -0.2029  0.6455  0.1615
 7552SOL    HW134118   2.466   0.596  15.333 -1.3281 -1.4442 -0.2217
 7552SOL    HW234119   2.418   0.660  15.208  0.9103 -1.1009  0.1829
 7553SOL     OW34120   4.650   0.891   6.144 -0.2943 -0.3685  0.5244
 7553SOL    HW134121   4.636   0.961   6.080  1.7797 -0.6449 -0.2251
 7553SOL    HW234122   0.018   0.910   6.166  0.5318 -1.4785 -1.8670
 7554SOL     OW34123   0.858   3.384   4.012  0.5382 -0.0745  0.6116
 7554SOL    HW134124   0.818   3.454   3.960 -1.5047 -0.2467  1.9894
 7554SOL    HW234125   0.921   3.351   3.948  0.7232  1.3405  0.0493
 7555SOL     OW34126   3.617   3.177  15.176 -0.1894 -0.4995  0.4359
 7555SOL    HW134127   3.533   3.132  15.167 -0.6255  0.6363 -1.1891
 7555SOL    HW234128   3.656   3.155  15.091 -2.2142  1.9502 -1.1509
 7556SOL     OW34129   3.027   2.860   6.997  0.3197 -0.4209 -0.1042
 7556SOL    HW134130   3.096   2.808   7.040  1.1203  2.3706  1.9693
 7556SOL    HW234131   2.946   2.834   7.039  1.0917 -0.2557  1.5012
 7557SOL     OW34132   1.982   0.915   0.372  0.9058  0.0333 -0.1253
 7557SOL    HW134133   2.017   0.968   0.301 -1.1434  1.7504  0.1534
 7557SOL    HW234134   1.926   0.979   0.416 -0.8630  0.0190 -2.3801
 7558SOL     OW34135   4.066   2.194  15.797 -0.1847 -0.1248  0.8735
 7558SOL    HW134136   4.105   2.132  15.736 -1.5883  0.5959 -0.7767
 7558SOL    HW234137   4.104   2.273  15.758 -2.3306  0.5498  0.1406
 7559SOL     OW34138   3.914   0.351   7.087  0.3355 -0.0703  0.2924
 7559SOL    HW134139   3.908   0.338   6.993 -2.1827  1.5952  0.2173
 7559SOL    HW234140   3.841   0.408   7.111 -0.3262 -0.0427 -1.8510
 7560SOL     OW34141   0.027   1.961   4.394  0.3652  0.0889  0.0187
 7560SOL    HW134142   0.075   1.911   4.327  1.3177  0.6309  0.2880
 7560SOL    HW234143   0.069   2.045   4.378 -0.7531  0.5170 -0.6425
 7561SOL     OW34144   1.127   4.070  15.727 -0.5786  0.4714  0.0285
 7561SOL    HW134145   1.057   4.130  15.700 -1.8990 -0.3880  1.5597
 7561SOL    HW234146   1.199   4.128  15.751 -0.8265  0.7310  0.1533
 7562SOL     OW34147   3.778   0.288   2.234  0.1520  0.5494  0.2178
 7562SOL    HW134148   3.776   0.366   2.290 -0.4233 -0.5005  1.6668
 7562SOL    HW234149   3.865   0.288   2.195  0.2826  1.1516  0.4953
 7563SOL     OW34150   0.153   4.581   8.620 -0.1101 -0.0624 -0.3391
 7563SOL    HW134151   0.125   4.622   8.538  1.1628  0.8524 -0.3278
 7563SOL    HW234152   0.143   4.658   8.677 -0.7476  0.0130 -0.5513
 7564SOL     OW34153   3.826   4.091   0.168  0.2548 -0.3657  0.2296
 7564SOL    HW134154   3.873   4.173   0.180  1.6331 -0.6092 -3.5960
 7564SOL    HW234155   3.771   4.086   0.247  1.5240 -0.5549  1.0880
 7565SOL     OW34156   3.945   4.591  16.921 -0.4574 -0.2776 -0.0126
 7565SOL    HW134157   3.973   4.574  16.831  0.0556 -1.4726  0.3712
 7565SOL    HW234158   3.872   4.531  16.933  0.1685 -0.9345  0.5407
 7566SOL     OW34159   1.177   4.558   8.002 -0.0586  0.0496 -0.2244
 7566SOL    HW134160   1.091   4.599   8.007  0.0591  0.1782  0.8033
 7566SOL    HW234161   1.174   4.522   7.913  2.3066 -3.5896  1.1602
 7567SOL     OW34162   0.831   4.270  14.860 -0.1942  0.9864  0.0478
 7567SOL    HW134163   0.752   4.303  14.817  0.3117 -0.3450 -1.9270
 7567SOL    HW234164   0.823   4.175  14.855  2.3989  0.7966 -0.5610
 7568SOL     OW34165   0.408   1.904  17.604  0.3101  0.1669  0.3717
 7568SOL    HW134166   0.381   1.812  17.600 -2.1777  0.8824  0.2934
 7568SOL    HW234167   0.475   1.912  17.536 -0.9561  0.3811 -0.8665
 7569SOL     OW34168   4.336   0.529   8.103 -0.0912  0.2588 -0.3072
 7569SOL    HW134169   4.257   0.567   8.142  0.7454 -0.6481  2.2645
 7569SOL    HW234170   4.374   0.601   8.052  2.0563 -1.2882 -0.8752
 7570SOL     OW34171   2.025   2.390   7.348  0.3741 -0.0075  0.3593
 7570SOL    HW134172   1.930   2.382   7.333  0.1079  0.7290  1.6318
 7570SOL    HW234173   2.031   2.446   7.426 -3.0830 -0.9391  1.3151
 7571SOL     OW34174   2.554   1.173  17.004 -0.5894  0.3725  0.6296
 7571SOL    HW134175   2.603   1.164  17.086 -2.1701 -1.1148  1.4130
 7571SOL    HW234176   2.570   1.082  16.979 -2.9664 -0.2252  1.3847
 7572SOL     OW34177   3.597   2.329   4.760  0.2796 -0.0093 -0.0301
 7572SOL    HW134178   3.669   2.297   4.705  0.9243  2.7720 -0.8179
 7572SOL    HW234179   3.640   2.337   4.845 -2.5768  0.7493  1.3195
 7573SOL     OW34180   0.269   1.127   2.725 -0.6638 -0.0881 -0.3753
 7573SOL    HW134181   0.356   1.130   2.685 -0.2835 -0.6868  0.3919
 7573SOL    HW234182   0.245   1.212   2.689 -0.6356  0.0608 -0.0395
 7574SOL     OW34183   2.804   1.786   7.889  0.6071  0.5548 -0.6401
 7574SOL    HW134184   2.899   1.779   7.894  0.2279 -3.1234  1.4947
 7574SOL    HW234185   2.786   1.749   7.976 -1.5159 -0.5148 -1.5245
 7575SOL     OW34186   4.487   1.365  14.293  0.1684  0.2223  0.2514
 7575SOL    HW134187   4.578   1.388  14.308  0.2860  0.2267 -0.4703
 7575SOL    HW234188   4.490   1.293  14.229 -0.0360 -1.3123  1.9552
 7576SOL     OW34189   1.128   1.889   0.772 -0.2318  0.1063  0.2122
 7576SOL    HW134190   1.194   1.899   0.704  1.8483  1.2813  2.3789
 7576SOL    HW234191   1.185   1.905   0.848 -0.9159 -0.5870  0.8744
 7577SOL     OW34192   3.714   4.439   2.329  0.7211  0.0958 -0.7331
 7577SOL    HW134193   3.678   4.439   2.240 -0.8266  0.3899 -0.1152
 7577SOL    HW234194   3.641   4.485   2.370  0.0075 -0.3961 -1.4311
 7578SOL     OW34195   3.522   4.123   7.880  0.4444 -0.5235  0.4116
 7578SOL    HW134196   3.465   4.121   7.958 -0.0363 -2.1206  0.0099
 7578SOL    HW234197   3.611   4.114   7.916 -0.3677 -4.1408  1.4563
 7579SOL     OW34198   1.685   0.156   5.876 -0.2607 -0.6976 -0.2523
 7579SOL    HW134199   1.596   0.127   5.898 -0.3398 -1.5380 -1.6388
 7579SOL    HW234200   1.684   0.168   5.781  1.0967  0.5978 -0.1106
 7580SOL     OW34201   3.094   0.924   4.726 -0.2873 -0.3273  0.3714
 7580SOL    HW134202   3.086   0.857   4.793  0.2113  0.4313  1.1791
 7580SOL    HW234203   3.064   0.997   4.779  1.4694 -0.4671  1.5413
 7581SOL     OW34204   4.045   0.217  11.571 -0.3448  0.2393 -0.3540
 7581SOL    HW134205   4.057   0.295  11.625  1.1185 -0.6830  0.6717
 7581SOL    HW234206   4.100   0.155  11.620  1.2692  0.9910 -1.2086
 7582SOL     OW34207   1.403   1.736   1.867 -0.6996  0.0491 -0.6213
 7582SOL    HW134208   1.463   1.726   1.794 -1.0947  2.3636 -1.2862
 7582SOL    HW234209   1.349   1.657   1.863  0.3665 -0.7540  1.0844
 7583SOL     OW34210   4.302   3.027   8.760  0.5391  0.5754  0.0489
 7583SOL    HW134211   4.279   3.058   8.848 -3.3215 -1.4016 -0.2722
 7583SOL    HW234212   4.370   2.960   8.773 -0.1914  0.2425  2.1828
 7584SOL     OW34213   2.248   4.714   3.949  0.0237 -0.2715 -0.3031
 7584SOL    HW134214   2.174   4.690   4.004  0.5396  0.4006  0.6850
 7584SOL    HW234215   2.234   0.079   3.914  1.3429  1.0637  2.5867
 7585SOL     OW34216   1.504   2.750   4.749 -0.2536 -0.3416 -0.1477
 7585SOL    HW134217   1.429   2.783   4.700 -0.2939 -0.7871 -0.3896
 7585SOL    HW234218   1.474   2.667   4.786 -0.3972 -0.7534 -1.1816
 7586SOL     OW34219   0.370   0.130  12.059  0.2318  0.1270 -0.5209
 7586SOL    HW134220   0.317   0.155  12.135 -0.2529 -1.9453 -0.1765
 7586SOL    HW234221   0.304   0.123  11.990  1.6282 -1.6563 -1.6479
 7587SOL     OW34222   2.643   4.682  10.019 -0.2522  0.1227  0.1163
 7587SOL    HW134223   2.604   4.692   9.932  2.0180 -2.4789 -1.2189
 7587SOL    HW234224   2.637   0.044  10.061 -0.8030  0.6504 -1.0585
 7588SOL     OW34225   0.222   2.920  10.650 -0.4675  0.5883  0.1903
 7588SOL    HW134226   0.284   2.928  10.723 -2.1249 -0.3072  1.7106
 7588SOL    HW234227   0.147   2.882  10.697  2.3150 -2.6607  1.9828
 7589SOL     OW34228   3.893   1.273   1.556 -0.3119  0.0628  0.6162
 7589SOL    HW134229   3.956   1.258   1.627  0.9889 -0.4916 -0.6555
 7589SOL    HW234230   3.913   1.196   1.503  0.0276 -0.1078  0.9994
 7590SOL     OW34231   1.293   4.371  10.372  0.2186  0.0133 -0.1250
 7590SOL    HW134232   1.297   4.281  10.403 -1.9626  0.0674  0.3012
 7590SOL    HW234233   1.261   4.364  10.282  0.0660  4.7860 -0.4511
 7591SOL     OW34234   2.937   1.972   1.090  0.4340  0.1619  0.1255
 7591SOL    HW134235   2.964   1.956   0.999  1.7597  1.6433  0.2625
 7591SOL    HW234236   2.918   2.066   1.086  1.2661  0.2918 -0.8848
 7592SOL     OW34237   0.550   1.771   5.094  0.1443  0.3735  0.7165
 7592SOL    HW134238   0.532   1.682   5.122 -2.3503  0.7310  0.2430
 7592SOL    HW234239   0.642   1.778   5.117 -0.2391 -1.6089  2.7995
 7593SOL     OW34240   3.004   2.197  12.051  0.2678 -0.2343 -0.2890
 7593SOL    HW134241   3.088   2.165  12.085 -1.2683 -0.8944  2.8733
 7593SOL    HW234242   2.994   2.270  12.112 -0.4356  1.6049 -2.6495
 7594SOL     OW34243   0.067   0.541  14.197  0.2752  0.4338 -0.1989
 7594SOL    HW134244   0.112   0.460  14.220  2.2163  1.4730 -0.2581
 7594SOL    HW234245   0.002   0.562  14.263  1.7392  1.7944  0.8357
 7595SOL     OW34246   3.721   4.495   9.086 -0.1971 -0.1197  0.0126
 7595SOL    HW134247   3.672   4.558   9.138  0.3094 -1.7316  2.4581
 7595SOL    HW234248   3.660   4.454   9.025  0.3345 -0.6313 -0.1691
 7596SOL     OW34249   0.829   4.541   6.864  0.1559  0.4089 -0.8179
 7596SOL    HW134250   0.754   4.482   6.865 -0.1044  0.7424 -0.5526
 7596SOL    HW234251   0.881   4.508   6.937 -0.0504  0.7886 -0.4991
 7597SOL     OW34252   0.275   1.382   7.295 -0.0487  0.5354 -0.4509
 7597SOL    HW134253   0.321   1.450   7.245  0.2286  1.3892  0.9810
 7597SOL    HW234254   0.189   1.378   7.253  0.2889 -0.4874 -1.0508
 7598SOL     OW34255   0.006   2.160   7.844  0.7323 -0.3692  0.1202
 7598SOL    HW134256   0.074   2.094   7.852  3.3115  2.0428 -1.6351
 7598SOL    HW234257   4.715   2.162   7.749  1.2532 -0.1099  0.0497
 7599SOL     OW34258   3.871   4.546   3.208  0.2222 -0.4773  0.0636
 7599SOL    HW134259   3.899   4.631   3.174 -0.0080 -0.3175  0.2732
 7599SOL    HW234260   3.940   4.528   3.273  0.7212  0.3775 -0.2352
 7600SOL     OW34261   3.180   3.846   5.990  1.0731  0.1643  0.0866
 7600SOL    HW134262   3.242   3.861   6.061 -1.5329  2.7366  1.8167
 7600SOL    HW234263   3.242   3.818   5.922 -2.0306 -3.6035 -1.2354
 7601SOL     OW34264   3.725   2.481   0.234  0.2684  0.2988 -0.6850
 7601SOL    HW134265   3.709   2.576   0.230  0.8487  0.4193 -0.0685
 7601SOL    HW234266   3.637   2.448   0.218 -0.1472  0.9385  0.3224
 7602SOL     OW34267   1.987   4.656   1.841  0.4274 -0.6958 -0.3836
 7602SOL    HW134268   2.074   4.650   1.882  1.0772  0.6677 -1.5599
 7602SOL    HW234269   2.001   4.624   1.752  0.8134  1.0421 -0.9379
 7603SOL     OW34270   0.583   0.589  14.910 -0.6574 -0.2953  0.0710
 7603SOL    HW134271   0.492   0.559  14.902  0.0592 -2.8041  1.0136
 7603SOL    HW234272   0.629   0.525  14.964 -0.4752  1.2924  1.7747
 7604SOL     OW34273   3.658   2.746   0.309  0.8007 -0.3308 -0.0866
 7604SOL    HW134274   3.607   2.822   0.278  1.0414  0.3683  1.2425
 7604SOL    HW234275   3.600   2.720   0.380  2.8456 -2.6539  0.7218
 7605SOL     OW34276   0.339   2.475  10.110  0.2339  0.7453  0.4258
 7605SOL    HW134277   0.252   2.507  10.132 -0.4695 -0.9064 -0.0028
 7605SOL    HW234278   0.371   2.485  10.200  1.8400 -1.7891  0.1059
 7606SOL     OW34279   0.038   3.825   3.798 -0.4025 -0.3949 -0.0713
 7606SOL    HW134280   0.067   3.795   3.884  2.7634 -0.7740 -1.2851
 7606SOL    HW234281   0.127   3.850   3.776 -0.2500 -0.2990  0.6318
 7607SOL     OW34282   2.499   3.555   0.345 -0.2308  0.2599 -0.2746
 7607SOL    HW134283   2.452   3.543   0.262 -1.0030  0.6605  0.0968
 7607SOL    HW234284   2.541   3.469   0.348  0.3479  0.5147 -1.3025
 7608SOL     OW34285   0.616   2.308  16.309 -0.7637  0.0102  0.1719
 7608SOL    HW134286   0.520   2.307  16.310 -0.8114  2.5326 -1.6410
 7608SOL    HW234287   0.644   2.242  16.373 -1.3366 -0.3820  0.0191
 7609SOL     OW34288   0.904   3.385  10.358  0.3972  0.2049  0.2259
 7609SOL    HW134289   0.884   3.323  10.288 -0.0787  0.9340 -0.2815
 7609SOL    HW234290   0.829   3.440  10.337  1.2052  1.1469 -0.1556
 7610SOL     OW34291   0.044   2.702  11.811 -0.3313  0.0419  0.0154
 7610SOL    HW134292   0.032   2.679  11.719  0.9096  2.1550 -0.6881
 7610SOL    HW234293   0.058   2.797  11.806 -1.5086  0.1147 -2.2352
 7611SOL     OW34294   0.951   3.779   7.971 -0.0156  0.3037  0.3853
 7611SOL    HW134295   0.929   3.795   8.063  0.1632 -0.7077  0.6010
 7611SOL    HW234296   0.948   3.870   7.940  0.7813  1.3256  3.2750
 7612SOL     OW34297   4.606   0.185   9.364 -0.1888  0.5063  0.3846
 7612SOL    HW134298   4.658   0.265   9.355  0.5792  0.1876  2.0875
 7612SOL    HW234299   4.615   0.140   9.280  0.2135  1.4742 -0.0993
 7613SOL     OW34300   1.096   2.586   9.434  0.0541  0.3653  0.0629
 7613SOL    HW134301   1.171   2.640   9.457 -1.0735  1.8222  0.3137
 7613SOL    HW234302   1.090   2.539   9.517 -0.8782 -0.5180 -0.5042
 7614SOL     OW34303   2.687   2.834   5.545  0.1032 -0.3821  0.1379
 7614SOL    HW134304   2.758   2.891   5.516  0.9641 -0.5312  1.9805
 7614SOL    HW234305   2.704   2.764   5.482 -1.4381  1.0569 -1.9198
 7615SOL     OW34306   2.588   1.492   5.282 -0.0401  0.1587 -0.2357
 7615SOL    HW134307   2.624   1.441   5.354 -0.8775  1.0405  0.8129
 7615SOL    HW234308   2.563   1.413   5.234 -1.4485  0.3250  0.2078
 7616SOL     OW34309   0.112   2.621  10.254  0.5345 -0.2270  0.0939
 7616SOL    HW134310   0.079   2.677  10.324  0.9947 -1.0031  0.9332
 7616SOL    HW234311   0.030   2.581  10.226  1.5215  0.1613 -3.4298
 7617SOL     OW34312   0.289   0.586   2.169  0.0258 -0.1288  0.3187
 7617SOL    HW134313   0.324   0.511   2.217  0.7472  0.1138  0.1629
 7617SOL    HW234314   0.197   0.567   2.151 -0.6985  1.5728  2.2248
 7618SOL     OW34315   2.059   3.956   6.373 -0.5317 -0.3885 -0.2977
 7618SOL    HW134316   2.068   3.882   6.313  4.7111  0.4295 -0.5555
 7618SOL    HW234317   1.984   4.008   6.344 -0.1389  0.6219  0.4939
 7619SOL     OW34318   3.893   2.833   4.857  0.1968 -0.2404 -0.2239
 7619SOL    HW134319   3.925   2.907   4.805 -2.4245  0.8684 -0.2631
 7619SOL    HW234320   3.799   2.848   4.853  0.0788 -0.9100 -0.0346
 7620SOL     OW34321   1.050   0.346   6.522 -0.6536  0.1310 -0.5465
 7620SOL    HW134322   1.062   0.263   6.569 -0.1809  0.2934 -0.3865
 7620SOL    HW234323   0.958   0.363   6.543 -0.6243  0.0102 -0.3112
 7621SOL     OW34324   4.562   4.645  10.600 -0.2979  0.2197  0.3788
 7621SOL    HW134325   4.531   4.717  10.655 -0.0048 -0.4740  1.4743
 7621SOL    HW234326   4.642   4.622  10.648 -0.5490 -0.6566  0.3673
 7622SOL     OW34327   4.216   2.986   3.965  0.4342 -0.0266  0.5281
 7622SOL    HW134328   4.134   2.977   3.916  0.1960 -0.4886  1.0108
 7622SOL    HW234329   4.199   2.920   4.032 -1.4653 -0.0409  0.0570
 7623SOL     OW34330   1.672   0.434   5.853  0.5947 -0.1275 -0.1945
 7623SOL    HW134331   1.612   0.444   5.928  2.4538  1.3133  1.0934
 7623SOL    HW234332   1.726   0.361   5.882  1.1728  1.1925  2.0877
 7624SOL     OW34333   1.261   0.302   7.703 -0.0400 -0.0955  0.2472
 7624SOL    HW134334   1.252   0.326   7.611 -2.9363 -2.0267  0.0231
 7624SOL    HW234335   1.189   0.353   7.739  1.2996  0.0020  2.7515
 7625SOL     OW34336   3.071   3.656   3.616 -0.3268 -0.6395  0.1469
 7625SOL    HW134337   3.079   3.566   3.587 -0.7855  0.0579 -2.0890
 7625SOL    HW234338   3.163   3.677   3.631 -0.8324  1.2673  0.5590
 7626SOL     OW34339   1.554   1.593   4.919  0.3256  0.5574  0.4523
 7626SOL    HW134340   1.630   1.644   4.893  0.4459 -0.4365 -1.1040
 7626SOL    HW234341   1.486   1.623   4.859 -1.6422 -2.5444  1.0993
 7627SOL     OW34342   1.194   3.832   5.244  0.6952 -0.3142  0.4057
 7627SOL    HW134343   1.152   3.886   5.177  0.4488  0.2360  0.9935
 7627SOL    HW234344   1.156   3.753   5.206 -1.2100  1.0542 -0.5865
 7628SOL     OW34345   3.015   2.004   4.163  0.2091  0.0652 -0.3768
 7628SOL    HW134346   2.927   1.982   4.196  1.3031 -0.9885  1.8577
 7628SOL    HW234347   2.989   2.059   4.089 -1.1626  0.5633  0.4672
 7629SOL     OW34348   2.890   0.025   6.979 -0.8426  0.1605  0.0753
 7629SOL    HW134349   2.920   0.069   7.059 -2.8434  0.0949  0.8532
 7629SOL    HW234350   2.963   4.690   6.959 -2.7536 -1.0532 -3.3069
 7630SOL     OW34351   2.317   1.770   3.811  0.1748  0.4361  0.5123
 7630SOL    HW134352   2.245   1.749   3.752  0.5615 -0.0692  0.2122
 7630SOL    HW234353   2.275   1.797   3.892  0.7085  0.5503  0.7483
 7631SOL     OW34354   0.158   3.961   5.137 -0.0587  0.1756  0.5769
 7631SOL    HW134355   0.250   3.937   5.124  0.1152  0.1671  1.8104
 7631SOL    HW234356   0.167   4.046   5.093  0.3474 -0.1728 -0.0097
 7632SOL     OW34357   4.572   0.733  16.235  0.3690  0.3165 -0.5433
 7632SOL    HW134358   4.638   0.681  16.280 -0.4240 -1.2970 -1.2516
 7632SOL    HW234359   4.497   0.700  16.284  0.3395 -0.5331 -1.1650
 7633SOL     OW34360   0.666   2.751   1.310  0.6053 -0.0539 -0.3102
 7633SOL    HW134361   0.685   2.845   1.306  0.6313  0.0034  1.0216
 7633SOL    HW234362   0.704   2.723   1.227 -0.8010 -0.5246 -0.7969
 7634SOL     OW34363   0.569   2.634  13.525  0.1572 -0.4006  0.5767
 7634SOL    HW134364   0.584   2.621  13.432  1.9367 -0.7452  0.9091
 7634SOL    HW234365   0.482   2.598  13.540 -0.3463 -0.0901 -1.6674
 7635SOL     OW34366   3.995   0.906   5.750  0.0864  0.5550  0.1370
 7635SOL    HW134367   4.072   0.894   5.695  0.1083  1.0261  0.0600
 7635SOL    HW234368   3.946   0.969   5.696 -1.5411 -2.5755 -2.0366
 7636SOL     OW34369   0.794   2.730   6.868  0.2970  0.4242 -0.2774
 7636SOL    HW134370   0.823   2.682   6.946  1.6037 -0.6130 -1.4082
 7636SOL    HW234371   0.865   2.710   6.807  1.0823  1.9924  0.1008
 7637SOL     OW34372   0.128   3.397  11.409  0.2349 -0.0246 -0.1579
 7637SOL    HW134373   0.080   3.351  11.478  0.6132  0.5397  0.4822
 7637SOL    HW234374   0.068   3.465  11.381 -1.4142 -1.2047  0.5056
 7638SOL     OW34375   4.455   2.423  13.078 -0.3325  0.3881  0.1776
 7638SOL    HW134376   4.497   2.367  13.142 -1.7129  1.1030  1.7072
 7638SOL    HW234377   4.454   2.495  13.141 -1.3077  1.5648 -1.1597
 7639SOL     OW34378   1.810   3.806  17.673 -0.0491  0.4174 -0.0071
 7639SOL    HW134379   1.760   3.775   0.052  0.8286 -1.1430 -0.0631
 7639SOL    HW234380   1.839   3.890   0.012  4.6885 -1.0491 -0.3295
 7640SOL     OW34381   3.997   1.483   6.193  0.0977 -0.0167 -0.1902
 7640SOL    HW134382   3.972   1.391   6.181 -1.0123  0.3865 -0.9971
 7640SOL    HW234383   4.007   1.504   6.286 -2.0128 -0.1374  0.0658
 7641SOL     OW34384   0.791   1.890   5.821 -0.1519 -0.4195  0.2570
 7641SOL    HW134385   0.820   1.918   5.734 -1.0658  1.1224  0.4381
 7641SOL    HW234386   0.844   1.811   5.827  1.3407  0.6152  0.7398
 7642SOL     OW34387   3.336   0.366   3.083  0.3286 -0.4307 -0.6497
 7642SOL    HW134388   3.316   0.352   3.175  0.6625  1.3455 -0.3047
 7642SOL    HW234389   3.400   0.296   3.066  0.7835  0.0630 -0.9625
 7643SOL     OW34390   2.051   0.834   8.196 -0.3464 -0.2496 -0.6820
 7643SOL    HW134391   2.110   0.759   8.187  0.9237  0.8840 -1.9220
 7643SOL    HW234392   2.064   0.887   8.117 -0.8215  0.2478 -0.4250
 7644SOL     OW34393   2.729   1.056   6.786 -0.1867  0.0504 -0.4203
 7644SOL    HW134394   2.777   1.084   6.865 -1.4007  0.4083  0.1822
 7644SOL    HW234395   2.640   1.035   6.813 -0.1669 -0.5203 -0.8089
 7645SOL     OW34396   4.482   0.325   0.676  0.5132 -0.3662  0.1252
 7645SOL    HW134397   4.430   0.294   0.601 -0.6924  0.2133  0.7292
 7645SOL    HW234398   4.468   0.254   0.739 -1.4822  0.3849  0.5213
 7646SOL     OW34399   1.070   1.024   9.226  0.1782  0.0217 -0.5068
 7646SOL    HW134400   1.160   0.990   9.231  0.8144  1.4752 -1.9500
 7646SOL    HW234401   1.075   1.078   9.147 -2.3744 -0.5545 -1.0471
 7647SOL     OW34402   0.035   3.767   8.403  0.0552 -0.0229  0.3393
 7647SOL    HW134403   0.054   3.796   8.314  1.0104  2.1656  1.2614
 7647SOL    HW234404   4.696   3.834   8.430 -0.4993  0.2803 -1.6445
 7648SOL     OW34405   0.461   3.145   5.930  0.1391  0.4698  0.0064
 7648SOL    HW134406   0.521   3.158   6.003 -1.7691 -0.1288  1.6952
 7648SOL    HW234407   0.497   3.214   5.875  0.3228  1.3039  1.1687
 7649SOL     OW34408   4.291   2.498  12.554 -0.0130 -0.1917 -0.5053
 7649SOL    HW134409   4.318   2.479  12.464 -0.7064 -0.6704 -0.6045
 7649SOL    HW234410   4.209   2.452  12.568  0.0497 -0.3601 -0.6920
 7650SOL     OW34411   4.519   0.634   3.694 -0.6336  0.1398  0.3382
 7650SOL    HW134412   4.530   0.554   3.746  1.7295 -0.2894 -0.8209
 7650SOL    HW234413   4.487   0.601   3.610 -0.3840  0.9631 -0.0848
 7651SOL     OW34414   3.595   4.073   5.747 -1.5143  0.8199  0.4109
 7651SOL    HW134415   3.689   4.093   5.753 -1.0001 -1.6256  0.4032
 7651SOL    HW234416   3.564   4.078   5.657 -2.1284 -0.6221  0.5353
 7652SOL     OW34417   2.166   0.334   0.918 -0.3993  0.6401  0.7294
 7652SOL    HW134418   2.073   0.350   0.935 -0.9990 -0.6896 -1.3045
 7652SOL    HW234419   2.180   0.410   0.861 -0.4687  0.6792  0.7631
 7653SOL     OW34420   0.258   4.047   6.553  0.1741  0.6096 -0.0098
 7653SOL    HW134421   0.274   4.135   6.518  1.3293  0.2779 -0.3429
 7653SOL    HW234422   0.170   4.054   6.589  0.3720  0.1560  0.5588
 7654SOL     OW34423   3.413   0.312   8.328  0.0999 -0.5369  0.2590
 7654SOL    HW134424   3.506   0.310   8.351 -0.0767  0.8659  1.0943
 7654SOL    HW234425   3.377   0.258   8.399  0.7605 -0.6221  0.5267
 7655SOL     OW34426   2.561   3.817  16.426 -0.3005 -0.8360  0.0225
 7655SOL    HW134427   2.602   3.731  16.422 -1.1129 -1.1873 -0.9052
 7655SOL    HW234428   2.612   3.862  16.358  1.2762 -2.6986 -0.0166
 7656SOL     OW34429   0.996   3.746   1.984 -0.4224  0.1524 -0.3026
 7656SOL    HW134430   0.945   3.816   1.943  1.1120  0.7651 -1.1722
 7656SOL    HW234431   0.968   3.671   1.931  0.9815 -1.0487  0.6519
 7657SOL     OW34432   0.375   4.111   2.501  0.3856  0.1400  0.6541
 7657SOL    HW134433   0.452   4.165   2.483  0.6977  0.2768  2.3393
 7657SOL    HW234434   0.420   4.030   2.524  2.1851  1.2514  1.1199
 7658SOL     OW34435   1.245   3.643   3.305 -0.0531 -0.0976 -0.7389
 7658SOL    HW134436   1.226   3.732   3.333  1.4216 -0.0735  0.1766
 7658SOL    HW234437   1.158   3.621   3.271 -0.5065  1.1796 -0.4056
 7659SOL     OW34438   1.895   2.747  13.853  0.8108 -0.2083  0.2368
 7659SOL    HW134439   1.912   2.782  13.765 -1.2121  0.5516  0.1538
 7659SOL    HW234440   1.980   2.767  13.894  1.1720  0.0744 -0.6364
 7660SOL     OW34441   0.611   1.441   4.243 -0.0221  0.2435 -0.2477
 7660SOL    HW134442   0.682   1.397   4.196 -0.3357  1.2189 -1.6380
 7660SOL    HW234443   0.661   1.505   4.295 -0.4876  1.0616 -0.8142
 7661SOL     OW34444   0.954   2.932   7.282 -0.4200 -0.2417 -0.2867
 7661SOL    HW134445   1.033   2.956   7.331  0.3896  0.5506 -1.9704
 7661SOL    HW234446   0.986   2.866   7.220 -0.1722  0.5071 -0.9578
 7662SOL     OW34447   1.549   0.964  17.178  0.5339 -0.3006 -0.2721
 7662SOL    HW134448   1.461   1.002  17.176 -0.0475 -1.6303 -0.4556
 7662SOL    HW234449   1.599   1.043  17.159 -0.3853  0.3237 -0.0642
 7663SOL     OW34450   1.645   0.206  13.909 -0.0660  0.1996  0.1360
 7663SOL    HW134451   1.656   0.281  13.851  1.6938  0.3667  0.7102
 7663SOL    HW234452   1.707   0.143  13.872 -0.9533 -0.6581  0.1033
 7664SOL     OW34453   2.416   0.757  13.848  0.2985  0.5515 -0.0392
 7664SOL    HW134454   2.499   0.711  13.861 -1.4901 -2.3881  1.0025
 7664SOL    HW234455   2.363   0.707  13.910  0.8686 -1.0448 -0.8381
 7665SOL     OW34456   4.606   3.690   5.585  0.1160 -0.0308 -0.3066
 7665SOL    HW134457   4.546   3.618   5.600 -0.3264  0.0085 -1.8803
 7665SOL    HW234458   4.672   3.640   5.537  2.0322  2.3044 -0.1334
 7666SOL     OW34459   3.058   4.353   6.331 -0.3142 -0.0305  0.4612
 7666SOL    HW134460   3.026   4.284   6.273 -2.3157 -0.7327  2.3673
 7666SOL    HW234461   3.010   4.336   6.412 -0.9830 -0.4753 -0.0270
 7667SOL     OW34462   4.614   1.439   7.829  0.5087 -0.4106 -0.4280
 7667SOL    HW134463   4.568   1.453   7.747  0.5150  0.2986 -0.3088
 7667SOL    HW234464   4.673   1.514   7.824 -1.1560  0.9243 -0.2466
 7668SOL     OW34465   4.019   3.342   8.565 -0.3488 -0.4846 -0.1225
 7668SOL    HW134466   4.057   3.409   8.508 -0.6365 -0.6940 -0.5568
 7668SOL    HW234467   3.973   3.279   8.509 -0.6278  0.1123 -0.5667
 7669SOL     OW34468   0.074   2.367  11.101 -0.4724 -0.2631  0.3045
 7669SOL    HW134469   4.712   2.411  11.109 -0.9795 -1.3115  0.5958
 7669SOL    HW234470   0.123   2.408  11.173 -0.2745  0.6080 -0.3221
 7670SOL     OW34471   1.240   4.285   6.626 -0.4748 -0.0968  0.1341
 7670SOL    HW134472   1.293   4.351   6.671  0.6660 -0.0784 -1.2045
 7670SOL    HW234473   1.151   4.313   6.647 -0.4811 -0.0309  0.0217
 7671SOL     OW34474   1.606   4.175   6.403  0.2661  0.2863  0.3069
 7671SOL    HW134475   1.599   4.159   6.497 -0.0925 -0.6258  0.1259
 7671SOL    HW234476   1.551   4.253   6.388  1.2164  0.4718 -2.2599
 7672SOL     OW34477   3.830   1.044  17.043 -0.0300  0.2008 -0.1990
 7672SOL    HW134478   3.779   1.029  17.122  0.7490  1.6507  0.5857
 7672SOL    HW234479   3.760   1.095  17.001  0.0075  0.2672 -0.1808
 7673SOL     OW34480   4.203   3.607   4.215 -0.6012 -0.1820 -0.5032
 7673SOL    HW134481   4.278   3.577   4.164 -0.8267 -1.8845  0.1937
 7673SOL    HW234482   4.195   3.548   4.290  1.5808  0.9853  0.6535
 7674SOL     OW34483   1.780   1.349   8.778 -0.1310 -0.4321  0.1544
 7674SOL    HW134484   1.777   1.355   8.874 -1.5719  1.9693 -0.0388
 7674SOL    HW234485   1.772   1.254   8.777  2.8435 -0.6520 -1.3079
 7675SOL     OW34486   0.428   2.946  17.167 -0.9528 -0.2729 -0.0015
 7675SOL    HW134487   0.377   2.985  17.238 -0.5620 -0.2233  0.2470
 7675SOL    HW234488   0.362   2.924  17.101  1.1893  0.8362 -2.5078
 7676SOL     OW34489   3.214   3.294  12.667  0.2040 -0.1221 -0.4538
 7676SOL    HW134490   3.282   3.234  12.698 -1.7548 -0.7317  2.6744
 7676SOL    HW234491   3.140   3.273  12.724 -0.3005 -0.1512 -1.1210
 7677SOL     OW34492   3.368   2.230  13.017 -0.0051 -0.5299  0.0007
 7677SOL    HW134493   3.443   2.222  13.077 -1.1215 -2.5809  1.1137
 7677SOL    HW234494   3.331   2.142  13.026 -0.2282 -0.3389  0.9635
 7678SOL     OW34495   3.210   2.697  17.121 -0.3112 -0.3610 -0.7763
 7678SOL    HW134496   3.118   2.670  17.122 -0.6461  0.8625  0.8988
 7678SOL    HW234497   3.211   2.762  17.050  0.1000 -0.2884 -0.7037
 7679SOL     OW34498   4.397   3.547   4.054 -0.0063 -0.4163 -0.4851
 7679SOL    HW134499   4.357   3.525   3.970  1.2299  0.3459 -1.2830
 7679SOL    HW234500   4.481   3.504   4.038 -0.4114 -1.2635 -0.2948
 7680SOL     OW34501   2.131   4.645   2.447  0.8086 -0.0011  0.1056
 7680SOL    HW134502   2.130   0.017   2.453  0.4370 -0.0191  0.3239
 7680SOL    HW234503   2.046   4.623   2.487  0.3714  1.5182  0.0111
 7681SOL     OW34504   3.213   3.845  10.216  0.0286 -0.2244 -0.2693
 7681SOL    HW134505   3.139   3.788  10.238 -0.9699  1.0517 -0.3625
 7681SOL    HW234506   3.176   3.891  10.141 -0.2057 -0.9587 -0.5990
 7682SOL     OW34507   4.142   0.740  14.263  0.0870 -0.0537  0.3977
 7682SOL    HW134508   4.048   0.739  14.244  0.1258 -0.2933  0.2163
 7682SOL    HW234509   4.140   0.800  14.338 -1.1762  1.5321 -0.8882
 7683SOL     OW34510   3.298   3.141   8.111  0.2559 -0.0123  0.5586
 7683SOL    HW134511   3.301   3.131   8.207  1.0772  1.4139  0.6764
 7683SOL    HW234512   3.392   3.155   8.099  0.3479 -1.0840 -0.0136
 7684SOL     OW34513   0.818   0.512   4.067 -0.0797  0.4422  0.1059
 7684SOL    HW134514   0.838   0.436   4.122 -0.0021 -0.2080 -0.8125
 7684SOL    HW234515   0.734   0.484   4.030  0.3267 -0.9570  0.2411
 7685SOL     OW34516   2.284   2.988   5.495 -0.0021  0.1660 -0.1671
 7685SOL    HW134517   2.320   2.900   5.481 -1.6240 -0.1546 -2.3836
 7685SOL    HW234518   2.293   3.014   5.403  0.0399 -1.3196 -0.5825
 7686SOL     OW34519   4.133   2.819   4.152 -0.0726 -0.1625  0.3566
 7686SOL    HW134520   4.162   2.792   4.239  2.4735 -0.3442 -0.5684
 7686SOL    HW234521   4.056   2.874   4.170 -0.0734 -0.1755  0.3943
 7687SOL     OW34522   3.389   2.287   8.352 -0.1636 -0.0186 -0.3463
 7687SOL    HW134523   3.332   2.222   8.311  0.0379  0.4584 -1.3767
 7687SOL    HW234524   3.347   2.368   8.322  1.2873  0.3239 -1.4395
 7688SOL     OW34525   0.499   1.964   7.557  0.0228  0.0346  0.6189
 7688SOL    HW134526   0.580   1.957   7.506  0.9573  3.1671  1.6742
 7688SOL    HW234527   0.518   1.946   7.648 -1.8196 -0.9539  0.8170
 7689SOL     OW34528   0.272   3.370   2.732  0.7151  0.0993 -0.2675
 7689SOL    HW134529   0.265   3.397   2.824 -1.4402  1.4127 -0.8186
 7689SOL    HW234530   0.184   3.343   2.706  1.0236 -0.8539 -0.3445
 7690SOL     OW34531   3.043   2.394   8.205  0.0608  0.3876 -0.3023
 7690SOL    HW134532   2.960   2.435   8.179 -0.2820  0.2462  0.5830
 7690SOL    HW234533   3.098   2.465   8.238 -1.0894  1.4804 -0.7324
 7691SOL     OW34534   4.168   3.888   3.890  0.1186  0.2256 -0.2771
 7691SOL    HW134535   4.172   3.981   3.865  0.7711 -0.6255 -3.2860
 7691SOL    HW234536   4.187   3.884   3.984  0.1442 -1.6158 -0.3611
 7692SOL     OW34537   2.692   3.966   6.163  0.4860  0.6590  0.1499
 7692SOL    HW134538   2.720   4.057   6.168  0.9176  0.3344  3.3543
 7692SOL    HW234539   2.766   3.932   6.113  0.3895 -0.3007  0.6760
 7693SOL     OW34540   0.358   3.599   6.574  0.0828  0.2820 -0.2389
 7693SOL    HW134541   0.376   3.513   6.612 -1.7024 -0.2550 -0.5865
 7693SOL    HW234542   0.356   3.656   6.650 -1.6745 -1.8853  1.3230
 7694SOL     OW34543   2.309   3.214  15.201 -0.2994 -0.2176 -0.4648
 7694SOL    HW134544   2.293   3.258  15.117  0.4439  2.3709  0.7388
 7694SOL    HW234545   2.253   3.137  15.192  0.0434 -0.1941 -2.8045
 7695SOL     OW34546   2.586   4.606   2.751 -0.1820  0.5114 -0.5654
 7695SOL    HW134547   2.580   4.702   2.753 -0.7413  0.4615  0.7669
 7695SOL    HW234548   2.511   4.587   2.695 -0.1580 -1.4598  0.0747
 7696SOL     OW34549   0.733   2.849   8.181 -0.0035 -0.1067  0.2784
 7696SOL    HW134550   0.683   2.770   8.160 -0.7277  0.5055 -0.3125
 7696SOL    HW234551   0.744   2.841   8.275  0.3261 -1.4830  0.1217
 7697SOL     OW34552   4.577   3.475   7.160 -0.1470 -0.1266 -0.5308
 7697SOL    HW134553   4.538   3.437   7.082  0.6435 -2.5479  0.2730
 7697SOL    HW234554   4.669   3.463   7.137 -0.0454 -0.9073  0.3367
 7698SOL     OW34555   2.811   4.443   1.506 -0.5146 -0.2341  0.0612
 7698SOL    HW134556   2.847   4.516   1.455  0.7014 -1.0479 -0.2359
 7698SOL    HW234557   2.891   4.399   1.535  0.0778  1.3378  0.8146
 7699SOL     OW34558   0.494   3.316  10.243  0.2229 -0.1844 -0.3539
 7699SOL    HW134559   0.402   3.317  10.270  0.4687  1.6911  0.3944
 7699SOL    HW234560   0.527   3.288  10.329 -1.1993 -4.6230 -1.2155
 7700SOL     OW34561   4.459   0.539  13.806  0.1628  0.1928 -0.2408
 7700SOL    HW134562   4.364   0.532  13.802  0.1233  0.3563  0.3666
 7700SOL    HW234563   4.473   0.534  13.901 -0.3682 -2.7105 -0.3209
 7701SOL     OW34564   0.336   4.270   8.445 -0.0683 -0.0319 -0.0302
 7701SOL    HW134565   0.366   4.352   8.406 -1.1532  0.2448 -0.2590
 7701SOL    HW234566   0.337   4.282   8.540  0.6801  0.5429 -0.1114
 7702SOL     OW34567   0.803   2.309   7.761 -0.1399 -0.2838  0.2008
 7702SOL    HW134568   0.727   2.363   7.780 -1.2005 -1.1246 -1.6975
 7702SOL    HW234569   0.868   2.375   7.785 -2.3268  1.5103  1.2295
 7703SOL     OW34570   0.550   3.599   1.611  0.3798  0.6254 -0.6202
 7703SOL    HW134571   0.461   3.584   1.645  0.2853 -1.2569 -1.7176
 7703SOL    HW234572   0.567   3.534   1.542 -1.5067  0.3525 -0.8468
 7704SOL     OW34573   4.519   0.585  13.419 -0.3512  0.4114 -0.0778
 7704SOL    HW134574   4.454   0.631  13.472 -1.4031 -1.0275 -0.1389
 7704SOL    HW234575   4.495   0.606  13.328  0.2175 -0.9533 -0.5418
 7705SOL     OW34576   4.412   4.226   8.389 -0.1775 -0.2715 -0.2465
 7705SOL    HW134577   4.392   4.215   8.482  2.3230 -5.0169 -0.2452
 7705SOL    HW234578   4.458   4.310   8.391  0.1090 -0.4424  0.7114
 7706SOL     OW34579   0.321   2.069   5.695  0.0598  0.4773  0.2542
 7706SOL    HW134580   0.269   1.994   5.723  0.0213  1.2865  2.3513
 7706SOL    HW234581   0.403   2.044   5.737  0.7887  1.2310 -0.7186
 7707SOL     OW34582   2.245   2.988  13.466  0.5148  0.6244  0.3029
 7707SOL    HW134583   2.224   3.045  13.540  0.2207  0.0682  0.6518
 7707SOL    HW234584   2.257   2.904  13.511  1.4787  0.8286  0.4273
 7708SOL     OW34585   0.391   4.564  12.639 -0.1340 -0.2241 -0.1616
 7708SOL    HW134586   0.367   4.487  12.587  0.0305 -0.8000  0.6164
 7708SOL    HW234587   0.339   4.536  12.714 -1.5187 -2.3190 -1.8789
 7709SOL     OW34588   3.843   0.865  14.885 -0.4503 -0.5202 -0.6127
 7709SOL    HW134589   3.840   0.875  14.980 -2.3632  1.9217 -0.9336
 7709SOL    HW234590   3.756   0.895  14.858 -0.3115 -0.9535 -1.5222
 7710SOL     OW34591   4.543   1.556   0.373 -0.4831 -0.2689  0.5474
 7710SOL    HW134592   4.544   1.633   0.430  1.4722  2.7265 -3.5979
 7710SOL    HW234593   4.551   1.478   0.429  1.7322  0.2228  0.8869
 7711SOL     OW34594   1.282   3.959   8.285 -0.2753 -0.1337  0.3916
 7711SOL    HW134595   1.304   3.908   8.207 -0.5011  1.2308 -0.5590
 7711SOL    HW234596   1.189   3.941   8.300 -1.0943  2.0884 -1.9786
 7712SOL     OW34597   2.312   3.695   1.417  0.7864 -0.5759  0.5326
 7712SOL    HW134598   2.328   3.666   1.327 -1.0493  1.5205 -0.4480
 7712SOL    HW234599   2.307   3.790   1.410 -3.4129 -1.0473 -2.4987
 7713SOL     OW34600   3.857   4.052   5.453 -0.7198 -0.6158  0.1328
 7713SOL    HW134601   3.931   4.084   5.402 -0.0398 -3.0660 -0.3731
 7713SOL    HW234602   3.867   4.100   5.535  0.2939  1.3725 -1.1591
 7714SOL     OW34603   3.912   1.312  15.848 -0.4293  0.6177  0.6084
 7714SOL    HW134604   3.888   1.325  15.756  0.4081 -2.3015 -0.0279
 7714SOL    HW234605   3.991   1.261  15.834  0.4187  1.3182  2.8282
 7715SOL     OW34606   3.237   1.216   1.105  0.5773  0.6445 -0.4869
 7715SOL    HW134607   3.237   1.289   1.044 -0.2994 -0.0757 -1.3484
 7715SOL    HW234608   3.279   1.255   1.182 -1.8991  0.3790  1.0075
 7716SOL     OW34609   3.003   1.111   7.521  0.3224 -0.0544  0.0878
 7716SOL    HW134610   2.919   1.124   7.476 -0.4425  0.0918  1.5839
 7716SOL    HW234611   3.064   1.109   7.447  0.5685 -0.1469  0.2948
 7717SOL     OW34612   3.867   0.190   3.360  0.4072 -0.4075  0.2199
 7717SOL    HW134613   3.794   0.251   3.352 -0.2585 -1.4141 -1.4514
 7717SOL    HW234614   3.842   0.160   3.448  1.5652 -0.4239  0.5388
 7718SOL     OW34615   1.990   2.468   4.954  0.1337 -0.6346 -0.2839
 7718SOL    HW134616   1.998   2.415   4.874  1.8061 -0.4375 -0.2511
 7718SOL    HW234617   2.035   2.551   4.936  0.3639 -0.2196  2.3275
 7719SOL     OW34618   2.983   0.423  10.745 -0.0204 -0.5061 -0.6096
 7719SOL    HW134619   3.035   0.484  10.692 -2.2041  3.0896  1.4033
 7719SOL    HW234620   3.033   0.342  10.734  1.3726 -0.0184  2.1223
 7720SOL     OW34621   3.581   2.966  13.222 -0.0179  0.9776  0.0546
 7720SOL    HW134622   3.521   3.033  13.187  0.1695  1.1934  0.1471
 7720SOL    HW234623   3.529   2.956  13.302  0.9498 -0.7181  0.4577
 7721SOL     OW34624   1.403   1.994   6.018  0.1727  0.8325  0.1233
 7721SOL    HW134625   1.367   1.991   6.106  0.7151 -1.4109  0.2576
 7721SOL    HW234626   1.329   2.003   5.958  0.4199 -3.9892 -0.9151
 7722SOL     OW34627   2.817   2.177  16.764 -0.4688  0.0579  0.2998
 7722SOL    HW134628   2.892   2.123  16.738 -1.2961 -1.5619  1.3313
 7722SOL    HW234629   2.745   2.117  16.747  0.4132 -0.8127 -0.3299
 7723SOL     OW34630   3.846   1.663   3.624 -0.0835 -0.2799  0.9393
 7723SOL    HW134631   3.760   1.701   3.605 -0.1572  0.1912  2.2333
 7723SOL    HW234632   3.880   1.655   3.535 -2.3966  0.0979  0.0217
 7724SOL     OW34633   1.291   1.053   0.538 -0.5587  0.4570 -0.3506
 7724SOL    HW134634   1.329   1.136   0.510  2.2195 -1.0105 -0.9953
 7724SOL    HW234635   1.205   1.063   0.498 -0.5185  1.0573 -0.2865
 7725SOL     OW34636   2.068   2.398   7.942 -0.5073  0.1016 -0.4602
 7725SOL    HW134637   2.119   2.322   7.914  0.5076 -0.0673  1.8538
 7725SOL    HW234638   1.993   2.354   7.982  2.3599 -2.0714  2.4681
 7726SOL     OW34639   0.133   3.719   0.942  0.4103  0.0816  0.3181
 7726SOL    HW134640   0.068   3.649   0.944  0.6395 -0.0663  3.1443
 7726SOL    HW234641   0.216   3.671   0.948 -0.1136 -0.4406  3.3389
 7727SOL     OW34642   2.350   1.828  12.670 -0.0507  0.8500 -0.9559
 7727SOL    HW134643   2.347   1.741  12.711 -0.3055  1.8141  1.0863
 7727SOL    HW234644   2.256   1.841  12.656 -0.0763  1.6117 -0.1133
 7728SOL     OW34645   1.441   3.645   9.270 -0.0225 -0.1480 -0.1790
 7728SOL    HW134646   1.490   3.686   9.199  2.5100 -0.7630  1.2287
 7728SOL    HW234647   1.442   3.557   9.233  1.0883  0.2279 -1.0426
 7729SOL     OW34648   0.645   3.566   8.153 -0.4817  0.4376 -0.5692
 7729SOL    HW134649   0.552   3.589   8.153 -1.1463 -2.2845  4.1593
 7729SOL    HW234650   0.680   3.653   8.135  0.1746 -0.1851 -2.2930
 7730SOL     OW34651   3.433   2.341  17.590 -0.5729 -0.4794 -0.5417
 7730SOL    HW134652   3.466   2.251  17.588  3.2440  0.9273 -0.4269
 7730SOL    HW234653   3.348   2.323  17.549 -0.1067 -1.3773 -1.1135
 7731SOL     OW34654   0.134   3.817  12.616  0.3793 -0.0960 -0.5277
 7731SOL    HW134655   0.039   3.829  12.623  0.2668  0.2416 -2.4073
 7731SOL    HW234656   0.146   3.737  12.666  0.7602  1.1363  1.3423
 7732SOL     OW34657   3.785   3.928  17.139  0.0567 -0.4452  0.1247
 7732SOL    HW134658   3.829   3.880  17.069 -0.1731  1.0468 -1.0425
 7732SOL    HW234659   3.768   3.858  17.202 -2.2698  1.8175  2.0314
 7733SOL     OW34660   4.461   3.534   8.940 -0.5854 -0.4705 -0.2731
 7733SOL    HW134661   4.482   3.454   8.891  1.2150  0.4064 -0.9670
 7733SOL    HW234662   4.456   3.501   9.029 -1.9087  2.7095  0.8233
 7734SOL     OW34663   1.986   1.522  11.690  0.8140  0.7874 -0.3674
 7734SOL    HW134664   2.061   1.530  11.630  0.9955  0.7511 -0.1437
 7734SOL    HW234665   1.909   1.526  11.633 -0.0559 -1.0570  0.6673
 7735SOL     OW34666   1.167   1.791   3.453 -0.3641  0.1528 -0.3698
 7735SOL    HW134667   1.229   1.846   3.407 -1.1327  2.1466  0.9942
 7735SOL    HW234668   1.092   1.850   3.450 -0.7108 -0.2563  0.1760
 7736SOL     OW34669   2.358   3.522   0.095  0.4502 -0.0441  0.3809
 7736SOL    HW134670   2.275   3.529   0.142 -0.6071 -2.5324 -1.0766
 7736SOL    HW234671   2.345   3.467   0.017  2.0899 -1.3034  0.9898
 7737SOL     OW34672   0.522   2.045   8.708  0.3737 -0.1028  0.1375
 7737SOL    HW134673   0.486   2.124   8.669 -0.7828 -0.7075 -0.0287
 7737SOL    HW234674   0.607   2.038   8.664  0.3476 -0.0427  0.0778
 7738SOL     OW34675   0.882   3.995   6.852 -0.1653  0.7348 -0.6617
 7738SOL    HW134676   0.883   3.906   6.817 -1.2131  0.4621  0.0143
 7738SOL    HW234677   0.888   3.975   6.945  1.1686  0.7107 -0.7556
 7739SOL     OW34678   2.275   3.690  11.619  0.4172 -0.0567  0.8303
 7739SOL    HW134679   2.301   3.768  11.669  1.5405 -0.3336  0.6696
 7739SOL    HW234680   2.350   3.635  11.642  0.0187 -1.3368 -1.0144
 7740SOL     OW34681   4.526   1.044   1.001 -0.1961  0.5158  0.0196
 7740SOL    HW134682   4.477   1.121   1.029  0.0833  0.4315  0.7555
 7740SOL    HW234683   4.503   0.983   1.071  1.4936  0.7939  0.8189
 7741SOL     OW34684   3.382   3.181  16.083  0.1036  0.1277  0.3680
 7741SOL    HW134685   3.425   3.118  16.140 -1.1710 -0.5365  0.6093
 7741SOL    HW234686   3.448   3.246  16.062  0.0976  0.8003  2.3938
 7742SOL     OW34687   3.086   0.941  16.175  0.0940  0.0409 -0.2468
 7742SOL    HW134688   3.005   0.976  16.212  0.6191 -0.6694  1.5411
 7742SOL    HW234689   3.046   0.904  16.096  2.2555  0.1377 -1.3878
 7743SOL     OW34690   4.411   3.385   1.484  0.2935  0.0210 -0.2961
 7743SOL    HW134691   4.468   3.396   1.560  1.1532 -0.7353 -0.8178
 7743SOL    HW234692   4.333   3.375   1.538  0.1155 -0.8537 -0.7091
 7744SOL     OW34693   4.631   4.559  13.306 -0.0604 -0.1567 -0.6108
 7744SOL    HW134694   4.578   4.550  13.385 -0.2644 -1.1977 -0.8662
 7744SOL    HW234695   4.571   4.589  13.237  0.1651  0.8185 -0.3813
 7745SOL     OW34696   1.829   2.908   7.310 -0.3983 -0.6877 -0.0130
 7745SOL    HW134697   1.829   2.998   7.277 -2.8641 -0.2546  1.1510
 7745SOL    HW234698   1.838   2.929   7.403  0.0200  0.0643 -0.2172
 7746SOL     OW34699   3.646   1.130   7.078 -0.5248  0.1322  0.6018
 7746SOL    HW134700   3.720   1.122   7.138  0.4530  0.2943 -0.5764
 7746SOL    HW234701   3.630   1.036   7.071  1.5578 -0.3153  1.9382
 7747SOL     OW34702   1.881   2.824   7.586  0.4067  0.4834  0.2030
 7747SOL    HW134703   1.962   2.798   7.631  0.7280  0.0246 -0.6341
 7747SOL    HW234704   1.812   2.825   7.652 -0.2063  1.7875 -0.4687
 7748SOL     OW34705   4.466   0.420   2.723 -0.1948 -0.0769 -0.1115
 7748SOL    HW134706   4.555   0.453   2.711 -0.4683  0.0529 -1.7215
 7748SOL    HW234707   4.413   0.484   2.677  1.1685  0.2476 -1.2436
 7749SOL     OW34708   0.530   0.267  16.176  0.0641  0.3176 -0.4527
 7749SOL    HW134709   0.538   0.362  16.184 -1.0278  0.4601 -1.0497
 7749SOL    HW234710   0.618   0.235  16.192 -0.9803 -1.8086  1.0585
 7750SOL     OW34711   4.693   3.247  16.425  0.3131  0.1951  0.0716
 7750SOL    HW134712   4.669   3.209  16.510 -1.0713  1.4647  0.2462
 7750SOL    HW234713   0.025   3.320  16.451 -0.5024  1.0948 -0.7357
 7751SOL     OW34714   3.866   4.580   4.134  0.5161  0.7179  0.0082
 7751SOL    HW134715   3.875   4.635   4.211  1.6392  2.0866 -1.1074
 7751SOL    HW234716   3.831   4.657   4.090  0.8603  0.0080 -1.5260
 7752SOL     OW34717   2.508   0.563   7.718 -0.1317  0.0809 -0.7772
 7752SOL    HW134718   2.418   0.595   7.712 -0.7019 -1.5741 -1.0482
 7752SOL    HW234719   2.563   0.640   7.730 -0.5022 -0.0024  1.3691
 7753SOL     OW34720   4.345   1.936  11.043 -0.0915  0.6127  0.2181
 7753SOL    HW134721   4.397   1.905  10.969 -1.8479 -0.6509 -0.4961
 7753SOL    HW234722   4.367   1.866  11.105  2.2804  0.0322 -1.2968
 7754SOL     OW34723   4.354   2.202   4.964 -0.1652  0.0958 -0.2475
 7754SOL    HW134724   4.419   2.146   4.923  2.0598  2.1330  0.4693
 7754SOL    HW234725   4.345   2.271   4.899 -1.8211 -0.1876 -0.3096
 7755SOL     OW34726   0.189   0.023  11.010  0.5920 -0.4604 -0.5104
 7755SOL    HW134727   0.127   0.094  10.993  0.8567 -0.1480 -0.1987
 7755SOL    HW234728   0.218   0.056  11.096  0.9399 -0.8516 -0.4786
 7756SOL     OW34729   0.067   4.489   3.316  0.4949 -0.0969  0.5013
 7756SOL    HW134730   0.130   4.452   3.254  1.2189 -0.6236  1.5375
 7756SOL    HW234731   0.118   4.567   3.337 -1.4639  1.4508 -0.5228
 7757SOL     OW34732   1.664   1.044   6.437 -0.0067  0.0312 -0.1110
 7757SOL    HW134733   1.685   1.098   6.361 -1.2054  0.9775  0.2346
 7757SOL    HW234734   1.584   1.008   6.397  1.1609  1.4915 -3.7685
 7758SOL     OW34735   2.844   0.188   2.818  0.4630 -0.1295 -0.2278
 7758SOL    HW134736   2.766   0.190   2.761 -0.0688  1.4507  0.5557
 7758SOL    HW234737   2.804   0.186   2.905 -0.4430  0.8135 -0.6186
 7759SOL     OW34738   4.631   3.625   8.710 -0.2378  0.2024 -0.1606
 7759SOL    HW134739   4.556   3.608   8.768  0.4693 -1.5551  0.2462
 7759SOL    HW234740   4.704   3.622   8.771 -0.3334 -1.4213 -0.1083
 7760SOL     OW34741   3.216   1.260  12.845 -0.5995 -0.1156 -0.2955
 7760SOL    HW134742   3.283   1.207  12.804  0.5461 -0.1651  1.6202
 7760SOL    HW234743   3.272   1.316  12.900 -0.9895  0.2050 -0.2245
 7761SOL     OW34744   1.561   2.347   3.710 -0.1349 -0.3312  0.4463
 7761SOL    HW134745   1.484   2.329   3.656 -0.1035  1.5889 -0.2365
 7761SOL    HW234746   1.532   2.295   3.785  1.5236 -1.4087  0.3381
 7762SOL     OW34747   1.622   3.012  17.507 -0.1228  0.3760  0.1983
 7762SOL    HW134748   1.669   2.992  17.587 -0.4257  3.3885  1.1334
 7762SOL    HW234749   1.605   3.106  17.513  1.0140  0.5103  1.2600
 7763SOL     OW34750   3.060   4.154   7.052  1.0457  0.7035  0.3207
 7763SOL    HW134751   3.089   4.063   7.047 -1.1131  0.1561 -2.0132
 7763SOL    HW234752   3.072   4.166   7.146  0.6466  2.2277  0.1674
 7764SOL     OW34753   1.811   0.443   7.899 -0.0113  0.3627 -0.2116
 7764SOL    HW134754   1.840   0.461   7.810  0.6425  0.4007  0.0113
 7764SOL    HW234755   1.779   0.353   7.891  0.8200  0.0778 -0.3582
 7765SOL     OW34756   0.691   1.756   9.737 -0.4182  0.4492  0.4845
 7765SOL    HW134757   0.660   1.668   9.713  2.7231  0.8766 -5.0186
 7765SOL    HW234758   0.689   1.763   9.832 -2.3360  0.7923  0.4280
 7766SOL     OW34759   1.388   4.325   7.342 -0.0646  0.0053 -0.2203
 7766SOL    HW134760   1.416   4.379   7.416  0.6281 -0.6603  0.0014
 7766SOL    HW234761   1.465   4.269   7.335 -0.5849 -0.7799  0.3336
 7767SOL     OW34762   3.586   2.999   6.796  0.2635 -0.0457 -0.1974
 7767SOL    HW134763   3.594   2.998   6.701  1.7548 -1.6521 -0.0463
 7767SOL    HW234764   3.639   3.075   6.823 -2.0506  1.1731  0.9231
 7768SOL     OW34765   4.474   3.619  11.373  0.4054  0.2158  0.4108
 7768SOL    HW134766   4.476   3.624  11.469  0.6769 -1.0008  0.4804
 7768SOL    HW234767   4.569   3.612  11.365  0.1365 -2.1778 -0.8231
 7769SOL     OW34768   4.366   3.882   4.437 -0.7500 -0.3375  0.4958
 7769SOL    HW134769   4.417   3.916   4.511 -4.3000  3.2510  1.2917
 7769SOL    HW234770   4.317   3.953   4.396 -1.4889  0.4811  2.7872
 7770SOL     OW34771   3.152   2.735   3.459  0.1212 -0.1347 -0.7347
 7770SOL    HW134772   3.179   2.647   3.430  0.6174 -0.1054 -0.3584
 7770SOL    HW234773   3.178   2.794   3.388 -2.4729  0.3390 -1.2659
 7771SOL     OW34774   2.633   0.082  15.821  0.5208  0.1960 -0.2098
 7771SOL    HW134775   2.681   4.723  15.816 -3.0188 -1.9366  0.9291
 7771SOL    HW234776   2.692   0.145  15.779  1.9739 -2.0918 -1.5902
 7772SOL     OW34777   1.455   1.015  16.883 -0.0926  0.1575 -0.0817
 7772SOL    HW134778   1.365   1.043  16.867 -0.7223 -1.3236  0.7857
 7772SOL    HW234779   1.510   1.086  16.915  1.3264 -0.2270 -1.6735
 7773SOL     OW34780   0.461   4.395   7.397 -0.2504  0.3992  0.3485
 7773SOL    HW134781   0.397   4.348   7.451 -0.4827 -2.4532 -2.3846
 7773SOL    HW234782   0.410   4.475   7.388 -0.1342  0.1865 -2.2739
 7774SOL     OW34783   0.373   2.982  10.861 -0.2718 -0.2346 -0.1202
 7774SOL    HW134784   0.452   2.977  10.914 -0.4326 -1.5948  0.0106
 7774SOL    HW234785   0.337   3.062  10.899  2.3272  0.6489  0.4230
 7775SOL     OW34786   2.000   4.040   9.748  0.1279 -0.4929 -0.1871
 7775SOL    HW134787   1.976   4.117   9.800  0.9079  0.0588 -0.6450
 7775SOL    HW234788   1.922   3.986   9.759  0.6353 -1.0481  0.6309
 7776SOL     OW34789   0.043   4.549   8.215 -0.3686  0.1192 -0.6913
 7776SOL    HW134790   0.078   4.511   8.135 -0.7372  0.5881 -1.0776
 7776SOL    HW234791   0.084   4.635   8.215  0.1105 -0.1175 -2.1626
 7777SOL     OW34792   3.523   4.020  11.001 -0.6317  0.5275  0.1121
 7777SOL    HW134793   3.486   3.952  10.945  0.2011  0.2188 -0.0636
 7777SOL    HW234794   3.508   3.998  11.093 -0.1369 -1.2808 -0.2369
 7778SOL     OW34795   3.543   1.454   3.173 -0.1546  0.2123 -0.5762
 7778SOL    HW134796   3.451   1.463   3.199  0.2380 -1.9155  1.5326
 7778SOL    HW234797   3.585   1.539   3.190 -3.5549  1.8556 -0.3368
 7779SOL     OW34798   2.576   2.889  15.087  0.1727  0.0813 -0.1066
 7779SOL    HW134799   2.661   2.915  15.122  0.7765 -3.8147  1.2884
 7779SOL    HW234800   2.604   2.848  15.006  0.6284  1.8199 -0.8266
 7780SOL     OW34801   3.762   3.039   3.214 -0.0795 -0.1544 -0.4122
 7780SOL    HW134802   3.840   3.094   3.200  0.7241 -1.6605 -1.8345
 7780SOL    HW234803   3.713   3.070   3.138 -0.3159  0.2028 -0.1100
 7781SOL     OW34804   0.294   2.003   8.206  0.0673  0.2783  0.1941
 7781SOL    HW134805   0.205   2.021   8.236 -0.1194 -0.8222  0.3140
 7781SOL    HW234806   0.343   2.021   8.286 -0.3204 -0.2680  0.5513
 7782SOL     OW34807   3.381   0.545   2.535 -0.0966 -0.6253 -0.1272
 7782SOL    HW134808   3.339   0.578   2.455 -1.4662  1.4511  1.4358
 7782SOL    HW234809   3.456   0.604   2.538  0.6106 -1.6562  2.1064
 7783SOL     OW34810   0.071   2.741  11.521 -0.2575 -0.4990 -0.4506
 7783SOL    HW134811   0.099   2.783  11.439 -0.5572  0.9931  0.1992
 7783SOL    HW234812   0.157   2.724  11.559 -0.0634  1.2497 -0.1058
 7784SOL     OW34813   2.019   1.633   7.723 -0.0105 -0.3105  0.1559
 7784SOL    HW134814   2.018   1.698   7.793 -0.7478 -0.0162 -0.1309
 7784SOL    HW234815   2.106   1.593   7.729 -1.9374 -4.4450  0.8186
 7785SOL     OW34816   2.537   4.294   2.526 -0.1791 -0.0358 -0.2382
 7785SOL    HW134817   2.627   4.324   2.537  0.1063 -0.8221 -0.3918
 7785SOL    HW234818   2.492   4.315   2.608  0.0384  0.2322 -0.1921
 7786SOL     OW34819   4.523   1.468   1.229 -0.3164  0.1848  0.7191
 7786SOL    HW134820   4.613   1.438   1.225 -1.3664 -2.5094 -2.3170
 7786SOL    HW234821   4.490   1.407   1.164 -0.3312  0.8659  0.0879
 7787SOL     OW34822   0.432   1.404   5.435  0.2413  0.2787 -0.9066
 7787SOL    HW134823   0.354   1.393   5.489  0.3610 -0.6446 -0.9156
 7787SOL    HW234824   0.489   1.350   5.491 -0.5181 -0.3055 -0.6954
 7788SOL     OW34825   4.029   4.077  14.497  0.8590 -0.1113 -0.2027
 7788SOL    HW134826   4.083   4.037  14.429  0.1242  0.6333 -1.2244
 7788SOL    HW234827   4.091   4.148  14.515  1.5945 -1.2753  1.8365
 7789SOL     OW34828   3.299   2.399  17.137 -0.2472 -0.5221  0.5917
 7789SOL    HW134829   3.241   2.475  17.130 -0.5216 -0.7702  0.1781
 7789SOL    HW234830   3.247   2.323  17.110 -0.7313  1.4075 -3.8345
 7790SOL     OW34831   4.292   0.530   5.436  0.2362 -0.6473  0.4917
 7790SOL    HW134832   4.346   0.590   5.385  1.8350 -1.4567  1.1967
 7790SOL    HW234833   4.291   0.450   5.384  0.2858 -1.0449  1.1030
 7791SOL     OW34834   0.440   2.245  10.814  0.3268 -0.1544 -0.0124
 7791SOL    HW134835   0.449   2.155  10.844  1.0956  0.8922  2.8623
 7791SOL    HW234836   0.474   2.288  10.892  0.0068  0.8915 -0.4501
 7792SOL     OW34837   0.996   3.073   5.976  0.2622  0.2543  0.6879
 7792SOL    HW134838   0.923   3.088   5.916 -0.1846 -0.0157  1.1647
 7792SOL    HW234839   1.019   2.981   5.960 -0.0045  0.5510 -1.4915
 7793SOL     OW34840   2.687   0.888  12.880 -0.3196  0.1364 -0.0746
 7793SOL    HW134841   2.754   0.944  12.842 -0.5599 -0.2023 -0.9909
 7793SOL    HW234842   2.747   0.835  12.933 -1.4550  1.4815  2.5556
 7794SOL     OW34843   1.563   1.951   1.970 -0.0738 -0.0347 -0.4470
 7794SOL    HW134844   1.626   1.966   1.899 -1.6636  1.5380 -1.4941
 7794SOL    HW234845   1.512   1.876   1.938 -0.2962 -1.1258  2.4319
 7795SOL     OW34846   1.391   0.412   6.959 -0.1421  0.0759 -0.3793
 7795SOL    HW134847   1.361   0.417   6.868 -2.2828 -1.1542  0.2526
 7795SOL    HW234848   1.355   0.492   6.997  0.0426  0.4766 -1.0536
 7796SOL     OW34849   2.679   3.253   3.739  0.4892 -0.0259 -0.3830
 7796SOL    HW134850   2.633   3.178   3.777 -2.2527  1.7977 -0.1241
 7796SOL    HW234851   2.735   3.272   3.814  0.4370 -1.0074 -0.0963
 7797SOL     OW34852   2.832   1.968  11.628 -0.6554 -0.1851  0.2228
 7797SOL    HW134853   2.878   1.943  11.548 -2.7010 -3.6573  0.1235
 7797SOL    HW234854   2.771   2.033  11.593  1.2518  0.4274 -1.9006
 7798SOL     OW34855   3.938   0.461   2.438  0.0381 -0.2870  0.3860
 7798SOL    HW134856   4.002   0.394   2.412 -1.2899 -2.1919  2.0999
 7798SOL    HW234857   3.982   0.524   2.495  1.2631 -0.0626 -0.8082
 7799SOL     OW34858   0.236   3.279  10.357 -0.8761  0.5766  0.5206
 7799SOL    HW134859   0.190   3.250  10.278 -1.8015  1.8485  0.5859
 7799SOL    HW234860   0.183   3.348  10.397 -1.7646  0.1234  0.1247
 7800SOL     OW34861   3.759   0.310   7.563 -0.2754 -0.3510 -0.1732
 7800SOL    HW134862   3.684   0.277   7.514 -0.1801  2.3734 -2.1605
 7800SOL    HW234863   3.828   0.317   7.498  1.7248  0.2343  2.0184
 7801SOL     OW34864   1.255   2.837   3.568 -0.9318  0.3964 -0.8344
 7801SOL    HW134865   1.216   2.875   3.489 -0.0093 -0.3933 -1.6770
 7801SOL    HW234866   1.211   2.886   3.636  0.7088  0.5767  0.0974
 7802SOL     OW34867   2.706   2.268  10.568 -0.1128 -0.1727 -0.0491
 7802SOL    HW134868   2.788   2.249  10.612 -1.9973 -2.9130  2.2942
 7802SOL    HW234869   2.703   2.208  10.493 -0.9378  0.4555 -0.5199
 7803SOL     OW34870   0.491   2.685  11.195 -0.1243  0.2258  0.1699
 7803SOL    HW134871   0.432   2.689  11.119 -1.1111 -2.1847  0.8375
 7803SOL    HW234872   0.532   2.771  11.189 -1.2013  0.7006 -0.5306
 7804SOL     OW34873   1.585   2.581  13.198 -0.1117  0.6229  0.2268
 7804SOL    HW134874   1.561   2.658  13.249  0.6483  0.7300  0.4081
 7804SOL    HW234875   1.675   2.603  13.177  0.4477 -0.0248  1.9874
 7805SOL     OW34876   3.899   4.035   1.509 -0.1006 -0.1001  0.3917
 7805SOL    HW134877   3.961   4.075   1.449 -0.9518  0.7937  0.1080
 7805SOL    HW234878   3.915   4.085   1.589 -1.5875 -0.7189  1.0943
 7806SOL     OW34879   3.327   4.664   4.222  0.2901 -0.1298  0.2831
 7806SOL    HW134880   3.357   4.695   4.136  0.9939  2.0819  1.3318
 7806SOL    HW234881   3.244   4.630   4.189  0.6172 -0.6459 -0.0171
 7807SOL     OW34882   4.156   1.721  10.374 -0.7763  0.3152  0.1510
 7807SOL    HW134883   4.112   1.704  10.291 -0.1676 -2.3430  0.3668
 7807SOL    HW234884   4.204   1.799  10.347 -0.0384 -0.1298  0.1868
 7808SOL     OW34885   1.149   3.449   8.027  1.1283 -0.1617  0.1118
 7808SOL    HW134886   1.054   3.443   8.012  0.6093  1.1796  2.9474
 7808SOL    HW234887   1.162   3.380   8.092  0.2945 -0.6292 -0.2127
 7809SOL     OW34888   0.995   0.203   8.851  0.1752  0.5172 -0.2714
 7809SOL    HW134889   0.919   0.145   8.844 -0.2290  1.0548 -0.3260
 7809SOL    HW234890   1.071   0.147   8.831  0.2335  0.6208 -0.3443
 7810SOL     OW34891   4.000   3.851   5.948 -0.2430 -0.1290  0.2169
 7810SOL    HW134892   3.949   3.786   5.900 -2.1995 -0.4165  2.6586
 7810SOL    HW234893   3.939   3.917   5.980 -0.5173  0.4624 -1.5256
 7811SOL     OW34894   0.372   1.854  11.302 -0.0197 -0.0256 -0.3954
 7811SOL    HW134895   0.295   1.798  11.315 -0.0776  0.2377  0.3859
 7811SOL    HW234896   0.441   1.790  11.283  1.6685  1.4852  0.6521
 7812SOL     OW34897   0.292   3.816   6.738  0.0499  0.1415  0.3298
 7812SOL    HW134898   0.278   3.909   6.755  3.2809  0.2165  2.6539
 7812SOL    HW234899   0.386   3.825   6.722  0.0454 -0.9505 -0.3229
 7813SOL     OW34900   0.397   4.431  11.174  0.3453 -0.1147 -0.1336
 7813SOL    HW134901   0.431   4.517  11.198  0.1908 -0.1101  0.0658
 7813SOL    HW234902   0.475   4.388  11.137  1.9023  0.7492  2.1629
 7814SOL     OW34903   1.415   3.826   7.143 -0.5933  0.5851  0.0859
 7814SOL    HW134904   1.382   3.839   7.232 -1.0544 -0.6527  0.0889
 7814SOL    HW234905   1.392   3.904   7.093  1.1151  2.3013  1.9739
 7815SOL     OW34906   2.156   2.193   5.517  0.0439  0.5332  0.1139
 7815SOL    HW134907   2.218   2.172   5.587 -0.7361  0.3143  0.7400
 7815SOL    HW234908   2.142   2.285   5.540 -0.8907  0.4959 -0.3127
 7816SOL     OW34909   1.644   0.365   7.621  0.3988 -0.4598  0.5500
 7816SOL    HW134910   1.645   0.285   7.569 -3.5306  0.8272 -1.5224
 7816SOL    HW234911   1.645   0.327   7.709 -1.1937 -0.1944  0.6879
 7817SOL     OW34912   0.615   3.949   8.373 -0.1159  0.3715  0.1558
 7817SOL    HW134913   0.535   3.897   8.370 -0.2333  0.7087 -3.0548
 7817SOL    HW234914   0.643   3.961   8.464 -0.1030 -1.2088  0.3551
 7818SOL     OW34915   4.121   2.112   8.431 -0.0766 -0.3428  0.8604
 7818SOL    HW134916   4.195   2.169   8.451 -1.8398  1.7243  1.6502
 7818SOL    HW234917   4.152   2.023   8.440 -1.8448 -0.9329  1.1722
 7819SOL     OW34918   0.339   3.469   2.986  0.0997 -0.0588 -0.0197
 7819SOL    HW134919   0.340   3.503   3.076 -2.2591  0.2419 -0.0971
 7819SOL    HW234920   0.393   3.536   2.945  1.1990 -0.8630  0.1143
 7820SOL     OW34921   3.091   4.363   4.930  0.5192 -0.2500 -0.0469
 7820SOL    HW134922   3.124   4.453   4.931  0.1520 -0.1006 -1.7772
 7820SOL    HW234923   3.165   4.322   4.975  0.1939  0.1937  0.9099
 7821SOL     OW34924   3.825   3.956  15.684 -0.0335 -0.3570  0.5256
 7821SOL    HW134925   3.885   4.007  15.630 -0.0654 -0.1903  0.6480
 7821SOL    HW234926   3.802   3.888  15.620 -1.6405  1.0546 -0.3864
 7822SOL     OW34927   0.542   4.113  17.382 -0.4850 -0.3649  0.2343
 7822SOL    HW134928   0.551   4.077  17.470 -0.8428 -1.3795 -0.1491
 7822SOL    HW234929   0.629   4.106  17.344 -0.5322 -0.3193  0.1155
 7823SOL     OW34930   0.866   3.471  16.987 -0.0268 -0.6802 -0.9760
 7823SOL    HW134931   0.877   3.403  17.054  1.4513 -1.8723 -2.4043
 7823SOL    HW234932   0.880   3.542  17.049 -2.6747 -0.1302 -1.0287
 7824SOL     OW34933   2.676   1.966  13.369  0.1749 -0.8694 -0.4539
 7824SOL    HW134934   2.632   2.051  13.377  2.4950  0.5342 -2.6547
 7824SOL    HW234935   2.763   2.003  13.354 -0.5636  1.3970  0.7676
 7825SOL     OW34936   0.894   1.927   1.064  0.4859  0.3457 -0.2319
 7825SOL    HW134937   0.934   1.925   0.977 -1.1879 -1.3646 -0.9652
 7825SOL    HW234938   0.884   2.022   1.075 -1.0290 -0.0360  1.7443
 7826SOL     OW34939   1.353   0.225  10.088 -0.5540  0.2415 -0.2024
 7826SOL    HW134940   1.262   0.251  10.107 -0.4455 -1.6951  2.9436
 7826SOL    HW234941   1.389   0.312  10.070  0.1028  0.2010  0.9215
 7827SOL     OW34942   2.480   4.322   0.554  0.1084  0.3245 -0.2391
 7827SOL    HW134943   2.389   4.333   0.581 -0.1992 -2.6316 -0.1230
 7827SOL    HW234944   2.520   4.396   0.601  0.0763  2.3419 -3.3288
 7828SOL     OW34945   0.113   4.220   2.524  0.3106  0.2877 -0.0875
 7828SOL    HW134946   0.200   4.187   2.501 -0.0715 -1.0945  0.4405
 7828SOL    HW234947   0.137   4.286   2.588 -1.1302 -0.4776  1.2198
 7829SOL     OW34948   3.047   0.333  17.497  0.4643  0.4378 -0.0695
 7829SOL    HW134949   2.954   0.317  17.514  1.0493 -1.0528  1.7781
 7829SOL    HW234950   3.077   0.292  17.578  0.2196  0.3235 -0.0351
 7830SOL     OW34951   2.033   2.254   5.277 -0.1863  0.1117  0.4876
 7830SOL    HW134952   2.003   2.168   5.247  0.3066  1.1346 -2.9314
 7830SOL    HW234953   2.079   2.233   5.358  0.4960  1.1786  0.3801
 7831SOL     OW34954   2.463   4.474   5.601 -0.0429 -0.6938  0.1815
 7831SOL    HW134955   2.407   4.413   5.650  0.1246 -0.7539  0.2995
 7831SOL    HW234956   2.500   4.411   5.539 -0.9416 -2.0124  0.9651
 7832SOL     OW34957   2.459   0.315   4.930  0.3855  0.5366  0.2219
 7832SOL    HW134958   2.545   0.279   4.907 -0.4456 -0.5724 -1.1626
 7832SOL    HW234959   2.472   0.399   4.885  0.4926 -0.7082 -2.1030
 7833SOL     OW34960   1.250   4.085   7.612 -0.4375 -0.3922  0.0049
 7833SOL    HW134961   1.299   4.164   7.588 -0.7491  0.5813  2.5590
 7833SOL    HW234962   1.309   4.053   7.681 -0.6725 -1.9435 -0.5185
 7834SOL     OW34963   0.531   2.458   9.235  0.0387 -0.7257  0.5602
 7834SOL    HW134964   0.600   2.448   9.301  1.1338 -1.7945 -0.7521
 7834SOL    HW234965   0.493   2.544   9.253 -1.6990 -1.7378  1.7755
 7835SOL     OW34966   2.630   1.047  14.989 -0.5607  0.3886  0.0943
 7835SOL    HW134967   2.551   1.092  14.959  0.5809  1.6966 -0.9156
 7835SOL    HW234968   2.700   1.090  14.940 -0.7645 -0.8098 -1.2560
 7836SOL     OW34969   0.252   1.205  11.580  0.2752  0.4943 -0.2941
 7836SOL    HW134970   0.257   1.160  11.664  1.3854  1.3302  0.0808
 7836SOL    HW234971   0.283   1.291  11.607  2.8927 -0.4093 -0.5080
 7837SOL     OW34972   0.066   3.638  13.644 -0.2727 -0.4011  0.1803
 7837SOL    HW134973   0.000   3.700  13.678 -1.7805 -1.0828 -1.5066
 7837SOL    HW234974   0.017   3.557  13.631 -1.6182  0.3231  0.6703
 7838SOL     OW34975   2.545   2.769   3.021 -0.3154 -0.0836  0.5488
 7838SOL    HW134976   2.491   2.820   2.961 -2.4270 -0.8954  1.7523
 7838SOL    HW234977   2.633   2.778   2.985 -0.9095  0.4829 -0.7483
 7839SOL     OW34978   1.948   0.124   2.607  0.7430 -0.0230  0.0222
 7839SOL    HW134979   2.029   0.171   2.583  0.6155 -0.5329 -1.3981
 7839SOL    HW234980   1.883   0.165   2.550 -1.2204  0.5244  2.6705
 7840SOL     OW34981   3.557   0.293   7.381 -0.2327  0.2878 -0.1150
 7840SOL    HW134982   3.493   0.298   7.310  0.1008 -1.5458 -0.5427
 7840SOL    HW234983   3.510   0.335   7.453  0.0368  1.8116 -0.8083
 7841SOL     OW34984   3.995   2.018   4.513 -0.7931 -0.2220 -0.3936
 7841SOL    HW134985   4.020   1.929   4.539 -1.1114 -0.5024 -1.0434
 7841SOL    HW234986   4.060   2.077   4.551 -0.4905 -0.2111 -0.9367
 7842SOL     OW34987   3.224   2.785   0.878 -0.0010  0.4742  0.1655
 7842SOL    HW134988   3.296   2.786   0.940 -0.7505 -2.6534  1.1137
 7842SOL    HW234989   3.242   2.717   0.813 -3.9464  0.5217 -0.9911
 7843SOL     OW34990   3.767   3.369   7.462 -0.4360  0.1902  0.1331
 7843SOL    HW134991   3.814   3.447   7.434  0.2977 -0.5470 -0.6562
 7843SOL    HW234992   3.827   3.330   7.525  2.0108  2.7284 -0.6026
 7844SOL     OW34993   2.512   4.308   7.183 -0.0453 -0.2975  0.0547
 7844SOL    HW134994   2.604   4.279   7.180 -0.8382 -2.7305 -0.7589
 7844SOL    HW234995   2.520   4.401   7.163  0.5343 -0.1723  0.8507
 7845SOL     OW34996   4.061   3.781   4.435  0.2245 -0.2167  0.3645
 7845SOL    HW134997   4.121   3.787   4.509 -1.2478  5.2335  1.1139
 7845SOL    HW234998   4.114   3.741   4.365 -0.7904  1.1274 -1.1783
 7846SOL     OW34999   0.925   0.719   7.637  0.1901 -0.5015  0.1616
 7846SOL    HW135000   0.892   0.715   7.727 -2.1047 -0.5132 -0.6965
 7846SOL    HW235001   0.974   0.801   7.635 -0.4755 -0.0688  1.3363
 7847SOL     OW35002   4.695   1.597  15.826  0.0169  0.4107 -0.2559
 7847SOL    HW135003   4.656   1.683  15.842  4.2516  2.0897  1.0542
 7847SOL    HW235004   4.615   1.549  15.806  0.3515  0.3525 -1.4436
 7848SOL     OW35005   2.479   0.297   2.434 -0.1357 -0.6020  0.1302
 7848SOL    HW135006   2.475   0.331   2.345  0.2792  1.2094  0.7948
 7848SOL    HW235007   2.548   0.344   2.481 -0.6385 -0.6473  0.9206
 7849SOL     OW35008   1.469   0.526   6.061 -0.1056 -0.0468 -0.0959
 7849SOL    HW135009   1.400   0.467   6.091  1.2287 -1.2406  0.5850
 7849SOL    HW235010   1.424   0.550   5.979 -1.2050 -1.8196 -0.0049
 7850SOL     OW35011   2.857   0.944  13.298 -0.1766  0.2676  0.2347
 7850SOL    HW135012   2.810   0.894  13.364 -2.3165 -0.9905 -2.2269
 7850SOL    HW235013   2.779   0.974  13.251  0.6979 -0.7659 -1.8647
 7851SOL     OW35014   0.667   1.623   7.435 -0.3720 -0.7163 -0.0910
 7851SOL    HW135015   0.665   1.542   7.383 -0.9697  0.6544 -2.2005
 7851SOL    HW235016   0.633   1.598   7.521 -1.4140  2.0223  0.2747
 7852SOL     OW35017   3.046   2.582  16.718  0.5127  0.2991 -0.1782
 7852SOL    HW135018   3.106   2.570  16.791 -3.0495 -2.2505  2.3545
 7852SOL    HW235019   2.998   2.500  16.707 -0.9041  1.3290 -1.7638
 7853SOL     OW35020   2.057   0.935   7.166  0.2701 -0.0421  0.3765
 7853SOL    HW135021   2.081   0.920   7.074 -0.9481  1.6256 -0.2016
 7853SOL    HW235022   2.065   1.029   7.178 -0.0520 -0.0734  0.8212
 7854SOL     OW35023   3.965   4.277  10.887  0.1764  0.7744 -0.2740
 7854SOL    HW135024   3.894   4.215  10.906  1.4264 -1.1423 -1.9036
 7854SOL    HW235025   4.034   4.243  10.944  0.9185  2.1773 -0.3140
 7855SOL     OW35026   4.369   2.158   8.705 -0.0029 -0.2474  0.1244
 7855SOL    HW135027   4.393   2.092   8.771  1.8256 -0.9858 -1.2731
 7855SOL    HW235028   4.318   2.217   8.759 -0.2876  0.9378 -1.4560
 7856SOL     OW35029   2.278   2.617   5.794 -0.4233  0.3977  0.1258
 7856SOL    HW135030   2.358   2.650   5.752  0.0077 -0.6645  0.1341
 7856SOL    HW235031   2.213   2.687   5.783  0.5948  1.3880  0.3867
 7857SOL     OW35032   3.828   4.689   0.991 -0.1457  0.2154  0.6941
 7857SOL    HW135033   3.875   4.609   0.968  1.3651  1.2240  0.2266
 7857SOL    HW235034   3.781   4.699   0.909  1.1984  0.0576 -0.0990
 7858SOL     OW35035   4.273   1.910   4.803 -0.0185  0.1579  0.2595
 7858SOL    HW135036   4.364   1.929   4.824 -0.3895  2.5317 -0.1866
 7858SOL    HW235037   4.269   1.926   4.709 -0.1941  1.1018  0.4204
 7859SOL     OW35038   1.814   4.503   4.515  0.6691 -0.0128 -0.5080
 7859SOL    HW135039   1.891   4.467   4.471  2.1832  1.2439  1.1054
 7859SOL    HW235040   1.770   4.550   4.445 -0.0761 -1.1153 -0.7773
 7860SOL     OW35041   2.068   0.745   6.514  0.4032 -0.8688  0.0361
 7860SOL    HW135042   2.011   0.822   6.514 -1.5694 -2.3317  0.1738
 7860SOL    HW235043   2.146   0.778   6.558 -1.4102  0.7876  2.0056
 7861SOL     OW35044   1.506   3.842   3.966 -0.3378  0.4767 -0.0218
 7861SOL    HW135045   1.431   3.868   4.019  0.2465 -1.3087  1.6598
 7861SOL    HW235046   1.530   3.752   3.989 -0.4337  0.2436 -0.8071
 7862SOL     OW35047   4.325   2.591   1.004 -0.5299 -0.9544  0.1310
 7862SOL    HW135048   4.382   2.582   1.081  0.4713  0.4186 -0.4541
 7862SOL    HW235049   4.257   2.640   1.050 -0.2739  0.2875 -0.8150
 7863SOL     OW35050   4.578   3.208  16.677  0.0564  0.1000  0.5073
 7863SOL    HW135051   4.504   3.268  16.677 -1.0247 -1.2426 -0.7665
 7863SOL    HW235052   4.649   3.256  16.721  0.2212  0.2067  0.1283
 7864SOL     OW35053   0.927   4.639   8.565 -0.0128  0.1665  0.3990
 7864SOL    HW135054   0.979   4.719   8.574  0.5894 -0.3687  1.5617
 7864SOL    HW235055   0.999   4.587   8.530 -0.5456 -1.4442  1.6972
 7865SOL     OW35056   0.282   4.531  16.377 -0.9331 -0.2047 -0.3928
 7865SOL    HW135057   0.324   4.448  16.398 -1.5738  0.0309  1.7873
 7865SOL    HW235058   0.204   4.501  16.330 -1.6711  1.5396 -0.2868
 7866SOL     OW35059   4.062   4.196  11.980  0.0094  0.1433 -0.6221
 7866SOL    HW135060   4.060   4.291  11.969 -1.5877  0.3856  1.6745
 7866SOL    HW235061   4.148   4.189  12.022 -1.0951  1.5518  1.8853
 7867SOL     OW35062   3.995   1.903   5.068 -0.3571  0.2430 -0.1750
 7867SOL    HW135063   3.916   1.897   5.121 -0.0943  1.7340  0.3816
 7867SOL    HW235064   4.014   1.996   5.057 -1.4297  0.1122 -3.0573
 7868SOL     OW35065   4.279   4.031   6.513  0.8753 -0.1626  0.1052
 7868SOL    HW135066   4.210   4.089   6.481  0.7267  0.4674  1.5660
 7868SOL    HW235067   4.346   4.093   6.542 -0.0245  0.4536  0.8729
 7869SOL     OW35068   3.190   0.953  17.669  0.4468  0.1370 -0.4244
 7869SOL    HW135069   3.277   0.963  17.630  0.6496 -0.5924 -0.1610
 7869SOL    HW235070   3.211   0.875   0.026  1.0084  1.4114  1.2498
 7870SOL     OW35071   3.237   1.239   3.161 -0.1798 -0.5998 -0.1824
 7870SOL    HW135072   3.156   1.257   3.113  0.2130  1.7228  0.0197
 7870SOL    HW235073   3.197   1.253   3.247 -2.3707 -3.0341 -0.8039
 7871SOL     OW35074   2.251   1.500   7.176  0.5095 -0.2428 -0.0288
 7871SOL    HW135075   2.227   1.582   7.134 -0.6484 -0.1127  0.9016
 7871SOL    HW235076   2.224   1.527   7.264  1.7160  1.5398 -0.2198
 7872SOL     OW35077   1.863   0.693   5.199 -0.0444  0.0299  0.1424
 7872SOL    HW135078   1.785   0.713   5.252  0.2065 -0.3857  0.6625
 7872SOL    HW235079   1.818   0.687   5.114  1.7417  1.4829 -0.9018
 7873SOL     OW35080   1.592   4.222   2.444 -0.1214 -0.3904  1.0862
 7873SOL    HW135081   1.556   4.177   2.368 -1.5335 -1.2447  2.2705
 7873SOL    HW235082   1.626   4.145   2.490 -0.2778 -0.9540  0.2705
 7874SOL     OW35083   3.738   2.842  12.635 -0.5467 -0.5146  0.5766
 7874SOL    HW135084   3.692   2.853  12.717 -0.6267  1.6717  0.2447
 7874SOL    HW235085   3.826   2.831  12.672 -0.4204  0.0326  0.4504
 7875SOL     OW35086   1.975   0.945   4.449  0.1960  0.1783  0.4167
 7875SOL    HW135087   2.058   0.982   4.418  0.2547  2.2670  3.0001
 7875SOL    HW235088   1.921   0.998   4.391 -0.4309  0.7289  1.5020
 7876SOL     OW35089   3.535   3.752   8.020 -0.5801  0.2664 -0.0991
 7876SOL    HW135090   3.548   3.838   7.979 -0.4421 -0.5528 -1.7816
 7876SOL    HW235091   3.484   3.775   8.098 -0.6881  2.6581 -0.8664
 7877SOL     OW35092   4.153   2.112  11.647  0.4377  0.1210  0.2776
 7877SOL    HW135093   4.100   2.079  11.719 -0.3800 -0.6288 -0.6734
 7877SOL    HW235094   4.134   2.040  11.587  2.8800  0.0231 -0.3850
 7878SOL     OW35095   1.501   2.491   7.172 -0.4845 -0.0510 -0.0923
 7878SOL    HW135096   1.442   2.535   7.233 -1.0346  0.0855 -0.7263
 7878SOL    HW235097   1.437   2.458   7.110  0.2872 -0.5296 -0.6373
 7879SOL     OW35098   0.142   3.610   9.645  0.5372  0.7668  0.5103
 7879SOL    HW135099   0.225   3.651   9.618  0.4067  2.3867  2.5355
 7879SOL    HW235100   0.166   3.518   9.648  1.1269  0.9055  0.0681
 7880SOL     OW35101   3.012   1.206   1.877 -0.2598  0.0858  0.2893
 7880SOL    HW135102   3.080   1.264   1.909 -0.2673  0.9889 -1.3340
 7880SOL    HW235103   3.060   1.177   1.800 -0.7042  1.8518 -0.6322
 7881SOL     OW35104   1.377   1.005   1.732  0.1227  0.1552  0.2686
 7881SOL    HW135105   1.350   0.915   1.713 -3.6842  1.3263 -0.0468
 7881SOL    HW235106   1.472   0.999   1.730  0.1077 -0.6461  1.8888
 7882SOL     OW35107   2.094   1.250   7.234  0.1117  0.0697  0.3555
 7882SOL    HW135108   2.113   1.230   7.326 -1.7672  1.2979  1.0052
 7882SOL    HW235109   2.014   1.301   7.247 -1.5328 -2.4630  0.0478
 7883SOL     OW35110   4.286   4.327  12.835  0.1837  0.0658 -0.8804
 7883SOL    HW135111   4.274   4.417  12.804  1.1674  1.1267  1.8508
 7883SOL    HW235112   4.248   4.351  12.920  1.9147 -1.3247  0.2767
 7884SOL     OW35113   3.935   0.990   9.601  0.2719  0.4125 -0.2369
 7884SOL    HW135114   3.980   0.994   9.686 -2.0945 -0.0195  1.0379
 7884SOL    HW235115   4.011   0.957   9.554  0.7049  0.2361  0.5764
 7885SOL     OW35116   2.909   0.865   0.476 -0.5888 -0.3721  0.2434
 7885SOL    HW135117   2.983   0.884   0.534  0.7746 -0.1111 -1.5371
 7885SOL    HW235118   2.950   0.859   0.389 -2.7077 -1.7326 -0.6606
 7886SOL     OW35119   2.387   1.925   4.749  0.0974 -0.2625 -0.1086
 7886SOL    HW135120   2.483   1.915   4.748  0.1239 -0.1601  2.3209
 7886SOL    HW235121   2.368   1.878   4.829 -0.1063 -0.2901 -0.1742
 7887SOL     OW35122   4.388   4.341  13.266  0.1606  0.2899 -0.2074
 7887SOL    HW135123   4.337   4.292  13.331 -1.3544 -0.2109 -1.7826
 7887SOL    HW235124   4.433   4.399  13.329 -1.3290 -0.7564  1.8294
 7888SOL     OW35125   2.812   0.981  15.187  0.2463  0.3957 -0.0138
 7888SOL    HW135126   2.842   0.896  15.156 -0.8816  0.9294 -2.6234
 7888SOL    HW235127   2.745   0.998  15.121  0.9009  1.2239 -0.4695
 7889SOL     OW35128   4.446   3.294   8.837  0.2567  0.4037  0.0872
 7889SOL    HW135129   4.463   3.222   8.777 -1.1949  0.1669 -0.0342
 7889SOL    HW235130   4.360   3.264   8.867  0.2035 -0.8488 -1.3294
 7890SOL     OW35131   1.384   4.545   4.349  0.0122 -0.3901  0.3076
 7890SOL    HW135132   1.395   4.454   4.322 -2.9098 -0.9888  1.2149
 7890SOL    HW235133   1.387   4.533   4.444  0.3701  0.2850  0.3861
 7891SOL     OW35134   1.722   4.221   0.974  0.3792  0.5795  0.3780
 7891SOL    HW135135   1.809   4.215   0.934  0.1936 -0.2303  0.0868
 7891SOL    HW235136   1.732   4.316   0.973  1.0462  0.5086 -0.2631
 7892SOL     OW35137   0.033   2.628   7.980 -0.0028  0.2818 -0.4411
 7892SOL    HW135138   0.036   2.537   8.008 -0.1570  0.3871 -0.0752
 7892SOL    HW235139   4.665   2.637   7.953 -0.9625 -1.5123  2.1873
 7893SOL     OW35140   3.326   3.360  13.617  0.0191 -0.3206  0.4167
 7893SOL    HW135141   3.257   3.386  13.555 -1.4088 -3.8212  0.5201
 7893SOL    HW235142   3.282   3.388  13.697 -1.3291  0.8104 -0.7052
 7894SOL     OW35143   0.007   0.300   5.090  0.2472  0.4605 -0.4446
 7894SOL    HW135144   0.053   0.379   5.061 -0.6648  0.9708 -0.5195
 7894SOL    HW235145   0.040   0.235   5.028  0.8020  0.2728  0.0555
 7895SOL     OW35146   4.471   3.176   5.871 -0.0576  0.6890  0.0358
 7895SOL    HW135147   4.552   3.159   5.920 -1.0484 -0.2793  1.3145
 7895SOL    HW235148   4.435   3.247   5.925  0.9168  1.6308 -0.5342
 7896SOL     OW35149   3.786   2.229   9.983  0.3946  0.5664 -0.3476
 7896SOL    HW135150   3.721   2.210  10.052 -0.2418 -1.4808 -1.5017
 7896SOL    HW235151   3.737   2.296   9.937 -1.2763  0.1145  0.7526
 7897SOL     OW35152   4.179   1.240   1.307  0.6561 -0.4293 -0.1121
 7897SOL    HW135153   4.113   1.184   1.349 -0.8217  1.4646  0.0863
 7897SOL    HW235154   4.182   1.199   1.220 -0.0838 -0.7337  0.0047
 7898SOL     OW35155   1.041   4.030   4.329 -0.6665 -0.2382  0.3428
 7898SOL    HW135156   0.994   4.092   4.274  1.3653 -0.9229 -2.1149
 7898SOL    HW235157   1.132   4.059   4.325 -0.3761 -1.2254 -0.1102
 7899SOL     OW35158   3.932   0.647   2.928 -0.2708  0.5447  0.1814
 7899SOL    HW135159   3.895   0.709   2.866  0.3026  0.1344 -0.5654
 7899SOL    HW235160   4.010   0.605   2.892 -0.6362 -0.0867  0.1220
 7900SOL     OW35161   0.811   0.054   5.292  0.1435 -0.1961  0.1025
 7900SOL    HW135162   0.868   0.031   5.218  0.4805 -0.9622  0.6068
 7900SOL    HW235163   0.825   4.703   5.350 -2.2813 -0.9110 -0.2274
 7901SOL     OW35164   1.504   3.264   6.470 -0.0681  0.7413  0.3853
 7901SOL    HW135165   1.472   3.341   6.422  0.0623  1.2375  1.0991
 7901SOL    HW235166   1.570   3.306   6.525  0.4920  0.7831 -0.3214
 7902SOL     OW35167   4.032   1.662   2.378 -0.0619  0.0723 -0.3106
 7902SOL    HW135168   4.043   1.645   2.472  0.4225  1.9057 -0.0381
 7902SOL    HW235169   4.113   1.633   2.336 -0.7672  0.1951 -1.7398
 7903SOL     OW35170   3.845   2.629   3.588 -0.0132  0.3453  0.0529
 7903SOL    HW135171   3.835   2.540   3.553 -0.8773  0.2493  0.5301
 7903SOL    HW235172   3.918   2.669   3.540  0.4440  2.0616  2.1922
 7904SOL     OW35173   1.339   0.054   7.761  0.0613  0.7600 -0.5932
 7904SOL    HW135174   1.278   4.715   7.724  2.8042 -0.7585 -2.5961
 7904SOL    HW235175   1.308   0.142   7.740  0.5176  1.0579 -0.0248
 7905SOL     OW35176   4.656   1.321   8.077  0.5522 -0.6770 -0.2116
 7905SOL    HW135177   4.634   1.408   8.110  4.3142  0.6522 -1.2360
 7905SOL    HW235178   4.649   1.341   7.983 -1.0953  3.6169  0.8173
 7906SOL     OW35179   0.292   4.507  10.922 -0.0436 -0.1953  0.5291
 7906SOL    HW135180   0.299   4.458  11.004  0.6112  1.3601  1.3879
 7906SOL    HW235181   0.242   4.582  10.954  0.2700 -0.1590  0.9228
 7907SOL     OW35182   2.649   1.509  10.031  0.3204 -0.4051 -0.2894
 7907SOL    HW135183   2.646   1.419  10.000 -0.5214 -0.3163 -0.4565
 7907SOL    HW235184   2.736   1.536  10.000  0.1168 -1.4424 -1.7523
 7908SOL     OW35185   3.358   3.682   4.456 -0.8447  0.1551  0.1112
 7908SOL    HW135186   3.341   3.734   4.377 -0.1546  0.4142  0.1378
 7908SOL    HW235187   3.308   3.732   4.521 -0.5114  0.1323  0.3840
 7909SOL     OW35188   2.260   3.798  17.235 -0.4752  0.5660  0.3799
 7909SOL    HW135189   2.203   3.827  17.163 -1.0774 -0.7905  0.3093
 7909SOL    HW235190   2.283   3.710  17.204  0.5108  1.5096 -1.5721
 7910SOL     OW35191   2.443   0.793   2.006  0.4826  0.0301  0.3163
 7910SOL    HW135192   2.423   0.832   2.091  0.6155 -0.8244  0.7286
 7910SOL    HW235193   2.483   0.870   1.965  1.2794 -1.1016 -1.0265
 7911SOL     OW35194   2.693   1.121  17.281 -0.0798 -0.2286 -0.3515
 7911SOL    HW135195   2.770   1.178  17.271  0.2926 -0.7873 -0.6754
 7911SOL    HW235196   2.692   1.112  17.376 -0.2348 -1.4803 -0.4806
 7912SOL     OW35197   1.155   0.250   9.861 -0.2668  0.4157 -0.6544
 7912SOL    HW135198   1.123   0.247   9.951  0.5638  0.6825 -0.3555
 7912SOL    HW235199   1.094   0.316   9.828  0.1411  0.6816 -0.8899
 7913SOL     OW35200   2.923   2.119   6.104 -0.2281 -0.3359 -0.1361
 7913SOL    HW135201   2.846   2.119   6.162 -0.0953 -1.9856  0.0541
 7913SOL    HW235202   2.987   2.162   6.160 -0.9351 -0.1040  0.4885
 7914SOL     OW35203   1.192   2.092   7.774 -0.3044 -0.6214 -0.2575
 7914SOL    HW135204   1.101   2.073   7.795 -0.4495 -1.1005 -1.3146
 7914SOL    HW235205   1.221   2.155   7.841  1.7832 -0.3419 -1.4445
 7915SOL     OW35206   3.821   0.189   2.642  1.1898  0.1253 -0.1445
 7915SOL    HW135207   3.786   0.195   2.553 -0.3669 -2.2977  0.3100
 7915SOL    HW235208   3.794   0.271   2.683  1.6808 -0.4381  1.3152
 7916SOL     OW35209   1.259   4.323   0.094  0.5382  0.2107 -0.5362
 7916SOL    HW135210   1.239   4.232   0.117  3.4758 -0.1917  0.3706
 7916SOL    HW235211   1.188   4.373   0.135  0.6479  0.4597 -0.6489
 7917SOL     OW35212   1.838   0.118   6.097  0.5102 -0.5357 -0.2098
 7917SOL    HW135213   1.784   0.157   6.028  0.4322  0.8699  0.6421
 7917SOL    HW235214   1.856   0.034   6.054 -0.2043 -0.6857 -0.2053
 7918SOL     OW35215   0.897   4.387   4.963 -0.0459  0.0208  0.2747
 7918SOL    HW135216   0.839   4.400   4.887  2.3656  3.6860 -0.9884
 7918SOL    HW235217   0.949   4.314   4.930 -0.7454 -0.7476  0.8743
 7919SOL     OW35218   0.229   2.933   9.442  0.2551  0.0701 -0.6049
 7919SOL    HW135219   0.255   2.841   9.435  0.6037  0.0146  1.3374
 7919SOL    HW235220   0.295   2.970   9.384 -0.2422  0.8277 -0.6835
 7920SOL     OW35221   4.536   2.078   3.870 -0.2569 -0.0596  0.5701
 7920SOL    HW135222   4.603   2.122   3.924 -0.9634 -0.1919  1.5485
 7920SOL    HW235223   4.517   2.006   3.930  0.6432 -1.1719 -0.4775
 7921SOL     OW35224   0.212   1.939   3.258  0.4235 -0.3598 -0.1654
 7921SOL    HW135225   0.239   1.908   3.345 -0.2149  0.1184  0.1996
 7921SOL    HW235226   0.127   1.895   3.255  0.5614 -0.7211  1.0558
 7922SOL     OW35227   2.812   4.089  16.795 -0.0753  0.0481 -0.6660
 7922SOL    HW135228   2.745   4.075  16.728  2.1705 -2.4311 -2.3896
 7922SOL    HW235229   2.803   4.181  16.821 -1.3965  0.0718 -1.2026
 7923SOL     OW35230   4.019   2.752   7.161 -0.5498  0.7874  0.2379
 7923SOL    HW135231   4.059   2.711   7.085  0.6844 -0.0246  1.3384
 7923SOL    HW235232   4.053   2.842   7.154  0.3587  0.5265  1.3483
 7924SOL     OW35233   4.442   4.424   7.307  0.1260 -0.1945 -0.7877
 7924SOL    HW135234   4.510   4.477   7.350 -0.2367 -0.5082  0.1911
 7924SOL    HW235235   4.409   4.366   7.377  2.6180  0.9277  1.3110
 7925SOL     OW35236   4.684   1.741   2.955 -0.0752  0.4974  0.1421
 7925SOL    HW135237   4.628   1.664   2.947  0.5134  0.0893 -0.0706
 7925SOL    HW235238   4.626   1.817   2.946 -1.4522 -0.7657 -1.4567
 7926SOL     OW35239   4.331   1.468  11.942  0.0742 -0.2829  0.0270
 7926SOL    HW135240   4.320   1.513  11.858  1.0001 -0.2147 -0.0509
 7926SOL    HW235241   4.370   1.537  11.995 -1.3152  0.2987  0.2986
 7927SOL     OW35242   1.898   3.462   1.226 -0.1574 -0.2203 -0.0838
 7927SOL    HW135243   1.836   3.461   1.298  0.0881 -1.2656  0.1056
 7927SOL    HW235244   1.835   3.449   1.156  0.4091  0.5497 -0.7467
 7928SOL     OW35245   0.071   4.057   5.845  0.1635  0.1296  0.4730
 7928SOL    HW135246   0.104   4.146   5.852 -2.0239  1.0516 -1.2545
 7928SOL    HW235247   0.000   4.048   5.909  0.8097  1.5558  1.3786
 7929SOL     OW35248   3.151   4.435   5.797  0.2857 -0.3334  0.0145
 7929SOL    HW135249   3.084   4.368   5.809 -0.2409  0.0571 -0.7958
 7929SOL    HW235250   3.102   4.514   5.822  0.5548  0.7676 -2.9647
 7930SOL     OW35251   4.580   1.229  13.882 -0.3959 -0.5869  0.3296
 7930SOL    HW135252   4.551   1.228  13.791  0.2086 -3.7090  0.1699
 7930SOL    HW235253   4.555   1.144  13.918 -1.1545 -0.3139  0.4412
 7931SOL     OW35254   2.961   1.219  17.371  0.1319 -0.3099  0.3724
 7931SOL    HW135255   3.044   1.253  17.405 -0.1015  1.3125 -0.6869
 7931SOL    HW235256   2.957   1.127  17.398 -0.4101 -0.0705  1.1128
 7932SOL     OW35257   1.571   0.440   0.701 -0.2286 -0.2752 -0.5315
 7932SOL    HW135258   1.568   0.536   0.704  1.7276 -0.2316  0.2830
 7932SOL    HW235259   1.547   0.418   0.791  1.2477  0.5195  0.0705
 7933SOL     OW35260   0.511   0.971  14.067  0.2051 -0.0771  0.2669
 7933SOL    HW135261   0.493   0.884  14.031 -0.3261  0.1368  0.0126
 7933SOL    HW235262   0.594   0.984  14.021  0.0608  1.3589  0.4288
 7934SOL     OW35263   0.302   1.092   7.369 -0.4601  0.0936 -0.8458
 7934SOL    HW135264   0.221   1.108   7.320  0.1119 -1.5568 -2.3431
 7934SOL    HW235265   0.295   1.166   7.430 -0.8933 -0.9456  0.3700
 7935SOL     OW35266   3.577   1.874   8.830 -0.0782  0.4435 -0.3293
 7935SOL    HW135267   3.584   1.798   8.888 -0.0242 -1.8265 -3.3717
 7935SOL    HW235268   3.549   1.937   8.897  1.3749  0.2437  0.4562
 7936SOL     OW35269   0.072   3.535  15.020  0.2019 -0.5884 -0.0967
 7936SOL    HW135270   0.025   3.595  15.078  0.6709 -1.7452  1.4824
 7936SOL    HW235271   0.012   3.484  14.965 -1.2503 -0.3987  1.3004
 7937SOL     OW35272   0.832   2.241   3.521  0.2817  0.2576 -0.1077
 7937SOL    HW135273   0.829   2.209   3.611  2.0034  0.7695  0.1211
 7937SOL    HW235274   0.756   2.298   3.518 -0.9993 -1.4604 -0.4402
 7938SOL     OW35275   1.630   3.507   6.657 -0.0014 -0.2721 -0.1017
 7938SOL    HW135276   1.713   3.556   6.651  0.8401 -1.6048  0.6744
 7938SOL    HW235277   1.609   3.500   6.750 -3.1092  1.0380 -0.7273
 7939SOL     OW35278   4.607   0.260   4.731  0.3468 -0.1729  0.4916
 7939SOL    HW135279   4.685   0.285   4.683 -0.0858 -0.1331 -0.1843
 7939SOL    HW235280   4.565   0.345   4.747 -0.4879 -0.2401 -1.4166
 7940SOL     OW35281   0.221   2.844   9.920  0.6723  0.2329 -0.2748
 7940SOL    HW135282   0.126   2.841   9.926  0.6381 -0.7000 -1.2869
 7940SOL    HW235283   0.246   2.837  10.012 -0.8182  2.0254  0.2770
 7941SOL     OW35284   1.396   3.675   2.009 -0.5530 -0.0704 -0.1724
 7941SOL    HW135285   1.470   3.734   2.021 -0.4147 -0.2524 -0.1224
 7941SOL    HW235286   1.333   3.689   2.079 -0.0599 -1.9926  0.6701
 7942SOL     OW35287   3.956   0.731   1.929  0.4608  0.3726 -0.8377
 7942SOL    HW135288   4.002   0.812   1.955  0.1203 -0.1122  1.2851
 7942SOL    HW235289   3.939   0.681   2.009  2.5214 -0.3283 -0.8280
 7943SOL     OW35290   2.341   0.681   1.568  0.2707  1.0620  0.1248
 7943SOL    HW135291   2.306   0.762   1.529  1.4535  0.6444 -1.8100
 7943SOL    HW235292   2.292   0.688   1.650  1.2659 -1.8641  0.9782
 7944SOL     OW35293   0.183   3.220   5.165  0.3451 -0.3782 -0.1342
 7944SOL    HW135294   0.129   3.157   5.213  1.4513 -0.6663  0.7307
 7944SOL    HW235295   0.254   3.171   5.123 -1.1430 -3.9912  1.5755
 7945SOL     OW35296   1.735   1.873   3.670  0.0171 -0.4656 -0.5772
 7945SOL    HW135297   1.828   1.894   3.669 -0.3351  1.1406 -1.3094
 7945SOL    HW235298   1.723   1.828   3.586 -0.6312  1.5690 -1.5880
 7946SOL     OW35299   4.163   2.633   6.908  0.2621 -0.0972  0.4403
 7946SOL    HW135300   4.211   2.573   6.964 -1.7095 -2.3004 -0.2379
 7946SOL    HW235301   4.155   2.579   6.829  0.4562 -1.1499  1.1449
 7947SOL     OW35302   3.329   4.099   5.818 -0.3179  0.1402 -0.7410
 7947SOL    HW135303   3.408   4.046   5.810 -1.2613 -0.9960 -2.6242
 7947SOL    HW235304   3.365   4.187   5.819 -1.3999  0.5823 -1.0619
 7948SOL     OW35305   1.517   0.298   8.618  0.1068 -0.2267  0.3275
 7948SOL    HW135306   1.480   0.347   8.545 -0.1968  1.2378  1.4492
 7948SOL    HW235307   1.599   0.262   8.584 -0.0870 -0.2820 -0.0772
 7949SOL     OW35308   4.033   1.363   9.214 -0.1808 -0.0734  0.1776
 7949SOL    HW135309   4.110   1.350   9.269  0.9829  0.1041 -1.4212
 7949SOL    HW235310   4.036   1.456   9.191  1.4574  0.8985  4.2623
 7950SOL     OW35311   4.048   1.836   6.782 -0.1726  0.1836  0.0615
 7950SOL    HW135312   4.124   1.813   6.729 -1.1588  2.4509 -2.3485
 7950SOL    HW235313   4.007   1.893   6.716 -2.4956 -1.4058  0.0982
 7951SOL     OW35314   2.650   1.772   7.643  0.0099 -1.0044  0.2637
 7951SOL    HW135315   2.732   1.766   7.694  0.8532  2.0783 -0.7484
 7951SOL    HW235316   2.597   1.791   7.721 -0.7177 -2.1631  0.0535
 7952SOL     OW35317   0.639   2.725   9.376  0.3582 -0.1907  0.0084
 7952SOL    HW135318   0.730   2.747   9.392  0.3208 -0.2492  0.3009
 7952SOL    HW235319   0.623   2.792   9.309 -0.6072  0.7783  1.1971
 7953SOL     OW35320   2.093   0.054   6.851  0.2501  0.6156  0.2727
 7953SOL    HW135321   2.149   0.061   6.775  0.2409  1.0341  0.2996
 7953SOL    HW235322   2.081   0.144   6.882  1.4085  0.1494  2.0520
 7954SOL     OW35323   0.461   1.541  12.379  0.2465  0.0316 -0.0484
 7954SOL    HW135324   0.483   1.599  12.452 -1.5456  0.6874 -0.0509
 7954SOL    HW235325   0.548   1.521  12.345  1.7154  3.1612  1.8257
 7955SOL     OW35326   2.748   3.647  16.653  0.3322  0.2877 -0.3160
 7955SOL    HW135327   2.739   3.627  16.560 -2.0010 -0.2697  0.0399
 7955SOL    HW235328   2.812   3.718  16.654 -0.5884  1.0866  0.7589
 7956SOL     OW35329   4.537   2.430   5.096 -0.6631 -1.0250 -0.6717
 7956SOL    HW135330   4.580   2.422   5.011  2.8279 -2.2545  1.1827
 7956SOL    HW235331   4.447   2.452   5.074  0.9122  4.6832 -1.5836
 7957SOL     OW35332   3.840   3.517   6.090 -0.6967 -0.0256 -0.6027
 7957SOL    HW135333   3.799   3.460   6.155 -0.8077  1.1377  0.3565
 7957SOL    HW235334   3.848   3.605   6.127  0.3489  0.1903 -1.3483
 7958SOL     OW35335   1.442   1.683  11.181 -1.0394  0.2501  0.0464
 7958SOL    HW135336   1.495   1.754  11.147  1.1683 -2.1276 -1.5111
 7958SOL    HW235337   1.515   1.641  11.226 -1.3434 -0.7110 -0.3395
 7959SOL     OW35338   1.413   3.857  15.782 -0.1853 -0.0205  0.0899
 7959SOL    HW135339   1.379   3.914  15.713  1.3713  0.2946 -0.4239
 7959SOL    HW235340   1.355   3.786  15.756 -1.2205  1.4141 -1.4854
 7960SOL     OW35341   1.657   1.763   2.315 -0.1220  0.1908 -0.0118
 7960SOL    HW135342   1.582   1.811   2.280 -1.4376 -0.8694  1.3303
 7960SOL    HW235343   1.679   1.831   2.379  1.3307  0.2369 -0.5462
 7961SOL     OW35344   4.360   3.973   8.595 -0.0279  0.1806 -0.2331
 7961SOL    HW135345   4.364   3.921   8.515  0.9634 -0.3886  0.1879
 7961SOL    HW235346   4.356   3.902   8.659  1.8036 -0.0796 -0.4139
 7962SOL     OW35347   3.870   4.712   4.361 -0.5016 -0.0374 -0.4145
 7962SOL    HW135348   3.925   0.011   4.436 -2.3616  2.3437  0.2582
 7962SOL    HW235349   3.792   0.040   4.379 -0.1468 -0.5945  2.7388
 7963SOL     OW35350   3.702   1.255   7.922 -0.6796  0.2401 -0.4544
 7963SOL    HW135351   3.625   1.212   7.886 -0.7696  0.5411 -0.6264
 7963SOL    HW235352   3.768   1.234   7.856 -0.7402 -0.0397 -0.4236
 7964SOL     OW35353   4.618   0.501   5.507 -0.7248  0.0619 -0.4330
 7964SOL    HW135354   4.666   0.433   5.553  0.5337  0.2025 -1.5283
 7964SOL    HW235355   4.641   0.579   5.558 -2.8552  0.7067 -0.4729
 7965SOL     OW35356   1.780   3.765  16.467 -0.1519  0.7380 -0.1503
 7965SOL    HW135357   1.698   3.748  16.420 -0.4781  0.6661  0.4480
 7965SOL    HW235358   1.751   3.750  16.557  1.6926 -1.5597  0.0595
 7966SOL     OW35359   1.627   1.648  12.979 -0.2145  0.1357 -0.1008
 7966SOL    HW135360   1.644   1.561  13.016 -1.0741 -1.4856 -3.4945
 7966SOL    HW235361   1.707   1.684  12.939 -1.0192  0.6778 -1.2251
 7967SOL     OW35362   4.349   2.466  15.498  0.9371  0.0866  0.5358
 7967SOL    HW135363   4.414   2.413  15.545  0.9690 -0.6227 -0.3058
 7967SOL    HW235364   4.395   2.538  15.455  1.2837 -0.3671  0.1315
 7968SOL     OW35365   0.235   2.402   7.088  0.1540 -0.1708 -0.2568
 7968SOL    HW135366   0.252   2.308   7.082 -0.0369 -0.2751  0.9302
 7968SOL    HW235367   0.321   2.429   7.120 -0.3361 -0.5747  1.3588
 7969SOL     OW35368   4.691   2.054   5.960  0.1701  0.0599 -0.0719
 7969SOL    HW135369   4.718   2.145   5.977 -1.5330 -0.2186  4.0805
 7969SOL    HW235370   4.650   2.044   6.046  0.3551 -0.3412 -0.0314
 7970SOL     OW35371   4.717   2.878   3.953 -0.1171 -0.4780 -0.8337
 7970SOL    HW135372   4.671   2.794   3.943  1.1097 -0.9228 -2.9203
 7970SOL    HW235373   0.012   2.881   4.046  0.9830  1.4283 -1.1198
 7971SOL     OW35374   0.350   3.544   5.977  0.4717 -0.0353  0.2011
 7971SOL    HW135375   0.313   3.632   5.964  1.9735  0.3862 -1.1347
 7971SOL    HW235376   0.440   3.574   5.981  0.1865  0.9262 -0.4802
 7972SOL     OW35377   2.783   0.749   3.896 -0.3411 -0.0625  0.1933
 7972SOL    HW135378   2.878   0.735   3.897 -0.6082 -1.9891 -2.8657
 7972SOL    HW235379   2.785   0.842   3.876 -0.0725 -0.0927  0.0756
 7973SOL     OW35380   2.286   2.339  11.219  0.3205 -0.2352  0.1607
 7973SOL    HW135381   2.305   2.407  11.284  1.3669 -1.2381  0.9018
 7973SOL    HW235382   2.326   2.375  11.140  2.1867  0.8116  1.5699
 7974SOL     OW35383   0.044   3.892   1.556 -0.0473  0.3147 -0.4197
 7974SOL    HW135384   0.107   3.955   1.592 -0.1532  0.4569 -0.4854
 7974SOL    HW235385   0.109   3.835   1.514  0.4425 -0.4106  1.2931
 7975SOL     OW35386   1.417   4.002   9.220 -0.1951  0.1592 -0.0886
 7975SOL    HW135387   1.451   3.972   9.304 -0.2730 -0.5439 -0.3040
 7975SOL    HW235388   1.326   3.977   9.237  0.1274 -1.1956 -0.3037
 7976SOL     OW35389   1.316   3.364  15.949  0.0715 -0.4685  0.4413
 7976SOL    HW135390   1.232   3.346  15.991  0.2654  2.6011  2.1309
 7976SOL    HW235391   1.381   3.387  16.016  0.8494  0.6352 -0.6764
 7977SOL     OW35392   3.544   0.409  15.903 -0.2503  0.3699  0.1970
 7977SOL    HW135393   3.463   0.380  15.946 -1.4922  0.0243 -2.3824
 7977SOL    HW235394   3.613   0.348  15.929 -0.9781 -0.7831 -0.5514
 7978SOL     OW35395   1.794   1.097   4.296  0.3291  0.6843  0.0874
 7978SOL    HW135396   1.748   1.090   4.212  0.6321 -1.9529  0.1516
 7978SOL    HW235397   1.738   1.160   4.341  1.3022  0.5785  1.4459
 7979SOL     OW35398   1.225   4.280  12.175 -0.2517  0.5326 -0.5170
 7979SOL    HW135399   1.266   4.224  12.109  0.1746 -2.0533  1.9348
 7979SOL    HW235400   1.284   4.267  12.249  1.1742 -1.5454 -2.0005
 7980SOL     OW35401   2.004   1.373   7.560  0.3468 -0.4568 -0.1126
 7980SOL    HW135402   2.049   1.355   7.643 -0.1010  1.5360  0.5804
 7980SOL    HW235403   2.003   1.468   7.571  0.1984 -0.5415  0.6170
 7981SOL     OW35404   1.471   0.449   0.944 -0.5905  0.0366  0.0457
 7981SOL    HW135405   1.476   0.357   0.970 -0.1346 -0.3042 -1.1956
 7981SOL    HW235406   1.403   0.471   1.007 -2.3544 -2.8292 -0.8708
 7982SOL     OW35407   4.394   3.403   3.501  0.2693 -0.3189 -0.0491
 7982SOL    HW135408   4.489   3.392   3.495  0.4649  0.8928  1.0435
 7982SOL    HW235409   4.382   3.452   3.420 -3.3218 -0.7871  0.1797
 7983SOL     OW35410   4.057   2.478   7.623 -0.7902  0.4448 -0.0671
 7983SOL    HW135411   4.032   2.386   7.623  0.6037  0.0792  0.3333
 7983SOL    HW235412   4.150   2.459   7.620 -0.5290  1.9324 -1.0603
 7984SOL     OW35413   1.441   0.087   2.476 -0.6106  0.4499 -0.3006
 7984SOL    HW135414   1.420   4.718   2.483  2.5241 -0.3711 -1.9007
 7984SOL    HW235415   1.451   0.096   2.381  0.9254  2.1750  0.0093
 7985SOL     OW35416   4.057   2.541  14.434  0.2202  0.6555 -0.4081
 7985SOL    HW135417   4.042   2.447  14.429  2.2454  0.2358  1.0463
 7985SOL    HW235418   3.995   2.582  14.374  0.0298  0.8539 -0.0732
 7986SOL     OW35419   4.588   0.760   8.549 -0.2034 -0.6513  0.0486
 7986SOL    HW135420   4.587   0.718   8.463 -2.0558  2.8869 -1.6453
 7986SOL    HW235421   4.523   0.714   8.603 -1.1175  1.5824  0.8327
 7987SOL     OW35422   4.441   4.468   6.657  0.6735  0.2342 -0.2801
 7987SOL    HW135423   4.361   4.438   6.700 -0.1427  0.3713 -1.7153
 7987SOL    HW235424   4.487   4.498   6.736  0.7740 -0.5520 -0.0423
 7988SOL     OW35425   4.409   4.649  12.015 -0.0449 -0.1010 -0.2213
 7988SOL    HW135426   4.314   4.659  12.019  0.0203 -0.4294  1.8932
 7988SOL    HW235427   4.428   4.619  11.926  1.5361 -1.9679  0.7526
 7989SOL     OW35428   1.197   0.176   2.618 -0.4553 -0.1226 -0.3767
 7989SOL    HW135429   1.130   0.208   2.557 -0.6615  2.8721  1.4108
 7989SOL    HW235430   1.282   0.177   2.575  0.0862  0.6404  0.7269
 7990SOL     OW35431   0.774   3.767   2.823 -0.4466 -0.0903  0.2221
 7990SOL    HW135432   0.810   3.696   2.770 -1.7819  0.0605 -0.8781
 7990SOL    HW235433   0.836   3.782   2.894  0.6042 -0.6387 -0.5770
 7991SOL     OW35434   0.165   2.551   6.387 -0.4415 -0.2517  0.1651
 7991SOL    HW135435   0.174   2.634   6.432  0.5042 -1.1143  1.5528
 7991SOL    HW235436   0.222   2.499   6.444  0.5007  0.3856 -0.2104
 7992SOL     OW35437   0.154   1.689  16.416  0.6522 -0.3648 -0.5055
 7992SOL    HW135438   0.164   1.753  16.487  2.5810  0.5347 -1.5867
 7992SOL    HW235439   0.071   1.714  16.376 -1.7225 -1.7863  3.4842
 7993SOL     OW35440   1.968   3.003   4.355  0.1146  0.0286  0.1506
 7993SOL    HW135441   1.970   2.990   4.450  0.1704  0.2673  0.1825
 7993SOL    HW235442   2.056   3.038   4.343  0.2110 -0.6624 -1.0888
 7994SOL     OW35443   1.982   3.937  13.566  0.3006  0.2344 -0.3150
 7994SOL    HW135444   1.994   3.914  13.658 -0.7500  1.4656  0.1188
 7994SOL    HW235445   1.974   3.854  13.519 -2.3488  0.3742 -0.0867
 7995SOL     OW35446   2.901   3.075  10.916  0.3539 -0.5133 -0.2697
 7995SOL    HW135447   2.957   3.024  10.974 -0.6667 -1.0293  0.2751
 7995SOL    HW235448   2.822   3.021  10.908 -0.0362  0.2060 -1.2547
 7996SOL     OW35449   0.222   1.603   3.126  0.2854  0.5089  0.0432
 7996SOL    HW135450   0.148   1.663   3.113  0.2225  0.4680  0.2193
 7996SOL    HW235451   0.211   1.534   3.061 -1.5378  0.8224  0.0167
 7997SOL     OW35452   0.179   0.921   6.232 -0.3793 -0.6655  0.4702
 7997SOL    HW135453   0.216   0.833   6.229  0.8551 -0.1049 -0.5823
 7997SOL    HW235454   0.240   0.979   6.187 -0.4909 -0.0463  1.1103
 7998SOL     OW35455   4.176   4.541   4.153 -0.2219  0.4314 -0.5834
 7998SOL    HW135456   4.092   4.494   4.155 -1.1171  2.0574  0.3725
 7998SOL    HW235457   4.148   4.619   4.104 -1.7896 -0.4859 -1.1692
 7999SOL     OW35458   2.872   4.715   4.455  0.5074 -0.1910 -0.4261
 7999SOL    HW135459   2.916   4.631   4.471 -0.8154 -0.5014  1.5830
 7999SOL    HW235460   2.903   0.037   4.533  0.0737 -0.4014 -0.1330
 8000SOL     OW35461   2.515   1.596   1.901  0.0637  0.2612  0.5755
 8000SOL    HW135462   2.583   1.610   1.835  1.0721 -1.7196  1.1777
 8000SOL    HW235463   2.483   1.685   1.904 -0.0220  0.2436  0.1439
 8001SOL     OW35464   4.153   0.355   8.339  0.6300 -0.4419 -0.4641
 8001SOL    HW135465   4.088   0.412   8.298  0.4939 -1.2572 -1.3790
 8001SOL    HW235466   4.223   0.412   8.369  0.1972 -0.2877  0.2690
 8002SOL     OW35467   0.252   3.745   4.321 -0.2461 -0.2324 -0.5233
 8002SOL    HW135468   0.314   3.804   4.278  1.1985 -2.1093 -0.9882
 8002SOL    HW235469   0.210   3.797   4.390 -0.4364 -0.4377 -0.4865
 8003SOL     OW35470   1.580   2.851   6.619 -0.4584 -0.5487 -0.1632
 8003SOL    HW135471   1.524   2.929   6.614  0.7234  0.2250 -1.5223
 8003SOL    HW235472   1.658   2.904   6.638  0.7050 -1.7542 -1.6109
 8004SOL     OW35473   0.634   2.269   5.044  0.4920  0.3222  0.3030
 8004SOL    HW135474   0.566   2.202   5.044  0.3871  0.4248 -0.6227
 8004SOL    HW235475   0.675   2.233   4.965  1.0761 -0.0578  0.7760
 8005SOL     OW35476   4.426   2.591  16.521  0.0378  0.3133  0.1560
 8005SOL    HW135477   4.459   2.654  16.458  0.2055  0.0679 -0.0041
 8005SOL    HW235478   4.406   2.646  16.597 -1.3060  1.5185 -1.0842
 8006SOL     OW35479   4.279   2.014   6.902 -0.3084  0.4348  0.5966
 8006SOL    HW135480   4.352   2.060   6.943  0.3794  0.0838 -0.2421
 8006SOL    HW235481   4.264   2.063   6.821  0.9414  1.0344  0.7341
 8007SOL     OW35482   1.336   1.307   8.625  0.4845 -0.2567 -0.1053
 8007SOL    HW135483   1.352   1.376   8.690 -0.4122  1.5614 -1.8092
 8007SOL    HW235484   1.308   1.356   8.548 -0.5681  0.9515  1.0593
 8008SOL     OW35485   2.817   1.464   7.698  0.1493  0.6258 -0.1346
 8008SOL    HW135486   2.884   1.407   7.734 -1.4900 -0.4083  1.3010
 8008SOL    HW235487   2.872   1.511   7.636  0.4833  1.6008  0.9096
 8009SOL     OW35488   4.649   1.328   3.971 -0.7039 -0.7028 -0.5819
 8009SOL    HW135489   4.672   1.322   3.878  1.8595  0.4827 -0.0167
 8009SOL    HW235490   4.588   1.256   3.984 -1.5261  0.5830  2.6551
 8010SOL     OW35491   2.460   0.392   2.786  0.4880  0.3332 -0.4335
 8010SOL    HW135492   2.527   0.408   2.853  0.5014 -0.4253 -0.2677
 8010SOL    HW235493   2.505   0.443   2.719  0.3651  0.4438 -0.4322
 8011SOL     OW35494   1.127   3.002   4.341  0.0498 -0.2826 -0.3564
 8011SOL    HW135495   1.180   3.059   4.396  1.0627 -1.2109 -0.3633
 8011SOL    HW235496   1.060   2.973   4.402 -1.7609  1.5261 -1.5026
 8012SOL     OW35497   3.947   1.176   6.904 -0.4302  0.0383  0.1565
 8012SOL    HW135498   3.959   1.270   6.888  1.3371 -0.4260 -1.1704
 8012SOL    HW235499   3.870   1.168   6.960 -0.8058  2.0223 -0.0518
 8013SOL     OW35500   4.624   1.508   6.530 -0.1419  0.4009 -0.1115
 8013SOL    HW135501   4.667   1.593   6.541  3.2597 -1.3806  0.5228
 8013SOL    HW235502   4.699   1.449   6.517 -0.0035  0.3799  0.7995
 8014SOL     OW35503   1.358   2.499   9.673  0.3252  0.5784 -0.4582
 8014SOL    HW135504   1.375   2.574   9.616 -0.6775 -1.4810 -3.4227
 8014SOL    HW235505   1.265   2.489   9.657 -0.0690  0.4947  1.7678
 8015SOL     OW35506   0.373   2.334   8.671 -0.3981  0.3995  0.1512
 8015SOL    HW135507   0.315   2.353   8.744 -0.6411  0.9452 -0.1835
 8015SOL    HW235508   0.450   2.388   8.689 -1.2527 -0.2604  5.8254
 8016SOL     OW35509   0.851   1.056   6.344 -0.2599 -0.3957  0.3318
 8016SOL    HW135510   0.905   1.129   6.373  1.7236 -1.6557 -0.1826
 8016SOL    HW235511   0.774   1.109   6.320  1.0407  0.5032 -1.8737
 8017SOL     OW35512   4.197   1.046   3.028 -0.5220 -0.0762  0.3078
 8017SOL    HW135513   4.132   0.984   3.059  0.4030 -0.8974  0.6059
 8017SOL    HW235514   4.193   1.030   2.933  1.3366  0.1136  0.1802
 8018SOL     OW35515   0.847   1.734  12.292 -0.2031 -0.1688 -0.2005
 8018SOL    HW135516   0.773   1.789  12.316 -0.7201 -1.1179  0.3794
 8018SOL    HW235517   0.911   1.780  12.347  1.3451  0.6719 -2.6935
 8019SOL     OW35518   3.945   3.665   4.085 -0.0239  0.4780  0.0910
 8019SOL    HW135519   4.023   3.627   4.126 -0.1301  0.5020  0.3158
 8019SOL    HW235520   3.916   3.586   4.040 -0.2690  0.8218 -0.3501
 8020SOL     OW35521   2.149   4.128   4.909  0.0705  0.4186 -0.6137
 8020SOL    HW135522   2.178   4.147   4.819 -0.3746  1.9718 -0.4342
 8020SOL    HW235523   2.229   4.112   4.958 -1.1460 -1.4527  0.7449
 8021SOL     OW35524   1.904   4.481   0.693  0.1390  0.1415 -0.8175
 8021SOL    HW135525   1.873   4.567   0.664 -2.4160 -0.2014  0.8439
 8021SOL    HW235526   1.858   4.430   0.626 -0.6953 -0.6187  0.3115
 8022SOL     OW35527   4.336   0.593   0.975  0.1893 -0.3690 -0.3824
 8022SOL    HW135528   4.370   0.673   0.934  1.3098 -1.0034 -0.6883
 8022SOL    HW235529   4.324   0.540   0.896 -0.6652 -0.5970 -0.1055
 8023SOL     OW35530   3.720   2.077   9.136 -0.1041  0.0345  0.7330
 8023SOL    HW135531   3.720   2.155   9.192 -1.6989 -1.0683  2.2759
 8023SOL    HW235532   3.633   2.092   9.100  1.4321  3.9407 -1.4840
 8024SOL     OW35533   3.230   4.474   8.387 -0.1150 -0.1230  0.7278
 8024SOL    HW135534   3.200   4.531   8.458 -0.2450 -1.7432  1.9563
 8024SOL    HW235535   3.193   4.516   8.309 -0.1888 -0.4805  0.5695
 8025SOL     OW35536   1.514   3.046  14.108 -0.2907 -0.3568  0.0291
 8025SOL    HW135537   1.432   3.046  14.058 -0.3480 -2.8311  0.1316
 8025SOL    HW235538   1.573   3.003  14.046 -1.2119  0.5134 -1.4598
 8026SOL     OW35539   1.658   4.453   1.767  0.4033 -0.3400 -0.0272
 8026SOL    HW135540   1.693   4.505   1.695 -1.6196  3.0369  1.4342
 8026SOL    HW235541   1.667   4.507   1.845  0.5930  2.5398 -2.0839
 8027SOL     OW35542   1.523   1.125   8.702 -0.1454  0.6433 -0.6039
 8027SOL    HW135543   1.457   1.186   8.670 -0.7987  0.6001  0.6752
 8027SOL    HW235544   1.540   1.076   8.621  1.7515 -0.0629  0.2268
 8028SOL     OW35545   3.793   4.455   9.529  0.2088  0.0881  0.3245
 8028SOL    HW135546   3.732   4.441   9.601  1.0794  0.0712  1.0580
 8028SOL    HW235547   3.878   4.443   9.571  0.4019  0.3867  0.0288
 8029SOL     OW35548   0.293   2.994  10.391  0.2316 -0.2283 -0.7833
 8029SOL    HW135549   0.285   2.953  10.477  2.5381  0.3164 -0.3111
 8029SOL    HW235550   0.305   3.088  10.404 -1.9177 -0.1837  0.9274
 8030SOL     OW35551   3.019   0.435   8.321 -0.1923  0.3839  0.3567
 8030SOL    HW135552   2.943   0.386   8.291  0.5693 -0.6488  0.1301
 8030SOL    HW235553   2.975   0.511   8.360  1.4243  1.4724  0.0467
 8031SOL     OW35554   3.202   1.119   4.571 -0.3040  0.1266 -0.6081
 8031SOL    HW135555   3.171   1.196   4.618 -0.0116 -0.7787  1.0717
 8031SOL    HW235556   3.155   1.056   4.626 -2.6049  1.3643 -1.1739
 8032SOL     OW35557   0.615   2.406   3.507 -0.6700 -0.3039 -0.5244
 8032SOL    HW135558   0.566   2.442   3.433  0.7050  1.1845 -0.7143
 8032SOL    HW235559   0.542   2.401   3.568  0.1346 -0.3796  0.4375
 8033SOL     OW35560   4.156   2.786   0.156  0.4852  0.2141  0.1938
 8033SOL    HW135561   4.214   2.782   0.232 -1.3298 -0.6532  1.5345
 8033SOL    HW235562   4.224   2.800   0.090 -0.6642  1.4039 -0.7274
 8034SOL     OW35563   3.374   3.137  13.195 -0.1592 -0.2680 -0.0429
 8034SOL    HW135564   3.308   3.094  13.140 -0.6554 -1.6126  1.5936
 8034SOL    HW235565   3.328   3.200  13.250 -0.4645 -2.2193  1.9368
 8035SOL     OW35566   3.006   0.298   6.905  0.2389 -0.0122  0.2522
 8035SOL    HW135567   2.925   0.322   6.861  2.1072  0.8125 -2.7686
 8035SOL    HW235568   2.981   0.208   6.926  0.5627 -0.2672 -0.4883
 8036SOL     OW35569   3.378   2.706   9.627 -0.2758 -0.3796 -0.1649
 8036SOL    HW135570   3.398   2.723   9.535 -0.3991 -0.5482 -0.2225
 8036SOL    HW235571   3.365   2.612   9.620  0.8530 -0.5947  0.4840
 8037SOL     OW35572   4.470   4.565   0.741 -0.0687  0.3100 -0.2536
 8037SOL    HW135573   4.523   4.625   0.689 -0.3226  0.6305 -0.1416
 8037SOL    HW235574   4.512   4.565   0.827  0.8101 -3.0977 -0.6873
 8038SOL     OW35575   0.869   0.795   5.740 -0.0291 -0.4320 -0.3388
 8038SOL    HW135576   0.798   0.823   5.798  1.2723  1.9091  0.1499
 8038SOL    HW235577   0.927   0.750   5.802  0.1600 -1.0430 -0.9636
 8039SOL     OW35578   2.048   2.501  12.053  0.2048  0.2341  0.0654
 8039SOL    HW135579   2.130   2.461  12.021 -0.5005 -1.1536  0.0066
 8039SOL    HW235580   2.039   2.451  12.134  0.5113 -0.4245 -0.2997
 8040SOL     OW35581   2.795   4.497   1.914  0.0311 -0.0545 -0.2999
 8040SOL    HW135582   2.875   4.490   1.861  0.9654  2.0963  0.8505
 8040SOL    HW235583   2.727   4.472   1.852 -0.3369  1.4119 -0.4836
 8041SOL     OW35584   4.318   0.582   6.225  0.1759 -0.4003  0.0926
 8041SOL    HW135585   4.399   0.545   6.259 -0.5796 -1.6351  0.5446
 8041SOL    HW235586   4.259   0.528   6.278 -1.3847  0.8548 -0.3702
 8042SOL     OW35587   2.210   0.215   3.761  0.2217  0.3289 -0.2474
 8042SOL    HW135588   2.223   0.132   3.715 -1.4211  0.9873 -1.9115
 8042SOL    HW235589   2.283   0.258   3.716  0.0798  1.8191  0.9227
 8043SOL     OW35590   4.604   4.358  12.952 -0.0624 -0.1620  0.4151
 8043SOL    HW135591   4.680   4.377  13.007  1.2655  0.3823 -1.6122
 8043SOL    HW235592   4.558   4.442  12.957  1.2689  0.5166  1.3517
 8044SOL     OW35593   0.968   1.519   7.401  0.6093 -0.5044  0.4708
 8044SOL    HW135594   0.962   1.442   7.458 -0.6230 -0.9710 -0.2936
 8044SOL    HW235595   0.874   1.536   7.401  0.7227  0.0923 -1.5553
 8045SOL     OW35596   3.887   1.892   7.745  1.2624  0.2529  0.2785
 8045SOL    HW135597   3.811   1.948   7.764  0.7513 -0.1789 -0.5034
 8045SOL    HW235598   3.877   1.827   7.815  0.3063 -0.8077 -0.8374
 8046SOL     OW35599   1.090   0.238   8.240  0.1236  0.0212 -0.6852
 8046SOL    HW135600   1.130   0.278   8.317  1.3996 -1.3393 -0.6372
 8046SOL    HW235601   1.158   0.259   8.177  1.1438 -2.9552 -0.5901
 8047SOL     OW35602   1.511   3.704  13.832 -0.1615 -0.8838  0.3576
 8047SOL    HW135603   1.566   3.691  13.909 -1.2109  0.7872  1.3908
 8047SOL    HW235604   1.503   3.616  13.794  1.5449 -0.0634 -1.8902
 8048SOL     OW35605   3.438   1.096  12.709 -0.1126  0.1329 -0.1381
 8048SOL    HW135606   3.356   1.048  12.702 -0.5039  0.5626  1.3483
 8048SOL    HW235607   3.469   1.091  12.619  2.2014  1.1095  0.5936
 8049SOL     OW35608   3.330   0.972  13.256  0.1469 -0.0800 -0.0101
 8049SOL    HW135609   3.378   1.051  13.232 -1.0410  0.9432  0.9633
 8049SOL    HW235610   3.337   0.928  13.171 -0.0055  0.5607 -0.3496
 8050SOL     OW35611   0.969   0.849  10.827  0.1497 -0.0992  0.6582
 8050SOL    HW135612   0.918   0.875  10.905  0.9259  2.0345  0.4703
 8050SOL    HW235613   1.014   0.769  10.855 -1.6862 -1.7571 -1.1748
 8051SOL     OW35614   1.549   4.144  17.268  0.3240 -0.7470 -0.1622
 8051SOL    HW135615   1.454   4.155  17.277  0.4111  0.0927 -0.2827
 8051SOL    HW235616   1.552   4.164  17.175 -0.0547 -0.9261 -0.2135
 8052SOL     OW35617   0.514   0.726   3.841  0.8795  0.7682  0.0873
 8052SOL    HW135618   0.518   0.722   3.746 -1.7946  2.5141 -0.1040
 8052SOL    HW235619   0.487   0.635   3.854  0.3582  1.3745  3.4609
 8053SOL     OW35620   2.708   2.800  14.851 -0.2899  0.2330  0.3836
 8053SOL    HW135621   2.697   2.866  14.782  0.7145 -2.6338 -2.5323
 8053SOL    HW235622   2.795   2.767  14.829  0.3114  2.3525 -0.3915
 8054SOL     OW35623   0.222   2.469  12.264 -0.1978 -0.1461 -0.6566
 8054SOL    HW135624   0.222   2.425  12.349 -0.1464  0.4503 -0.3505
 8054SOL    HW235625   0.305   2.516  12.254  0.6815 -1.4089  0.8348
 8055SOL     OW35626   3.606   1.243   9.155 -0.3590  0.7423  0.1834
 8055SOL    HW135627   3.608   1.151   9.179  2.1798  0.3113 -1.6047
 8055SOL    HW235628   3.605   1.245   9.059  0.9262  2.5391  0.2105
 8056SOL     OW35629   2.256   0.092  13.929  0.5461 -0.2101 -0.3801
 8056SOL    HW135630   2.221   0.166  13.978 -0.6192 -0.2273 -1.1657
 8056SOL    HW235631   2.310   0.134  13.862  0.5319 -1.6293 -1.2913
 8057SOL     OW35632   3.283   0.716   8.734 -0.0410  0.1061 -0.4445
 8057SOL    HW135633   3.230   0.693   8.811  0.1314 -0.4022 -0.4725
 8057SOL    HW235634   3.244   0.654   8.672 -1.3061  0.7329 -0.2563
 8058SOL     OW35635   3.806   0.161   3.627  0.5194 -0.5167  0.3561
 8058SOL    HW135636   3.763   0.242   3.655  0.2905  0.2206 -2.1410
 8058SOL    HW235637   3.752   0.100   3.678  0.8854 -0.0521  1.2929
 8059SOL     OW35638   4.524   3.178   5.298  0.7130 -0.5280 -0.2931
 8059SOL    HW135639   4.539   3.096   5.346 -3.6898 -0.6792  0.8171
 8059SOL    HW235640   4.605   3.183   5.247 -0.5390  0.9744 -2.1270
 8060SOL     OW35641   1.650   0.984   1.754  0.0483 -0.1239 -0.2813
 8060SOL    HW135642   1.675   0.939   1.834  0.3251 -0.1943 -0.4055
 8060SOL    HW235643   1.740   1.012   1.733 -0.0125 -2.3021 -3.6249
 8061SOL     OW35644   1.750   1.188  11.306 -0.2839 -0.7364 -0.4460
 8061SOL    HW135645   1.714   1.115  11.256  0.3056 -1.6591  0.4883
 8061SOL    HW235646   1.786   1.244  11.236 -0.7630 -0.6102 -0.5964
 8062SOL     OW35647   3.593   2.313  11.431  0.2190 -0.2494  0.1152
 8062SOL    HW135648   3.587   2.394  11.481  1.2116  0.5365 -1.0575
 8062SOL    HW235649   3.686   2.299  11.416  0.5497  0.4911  1.4773
 8063SOL     OW35650   4.189   4.695   5.841  0.3982 -0.5725 -0.1488
 8063SOL    HW135651   4.188   4.690   5.745 -1.6908  0.5082 -0.1947
 8063SOL    HW235652   4.182   4.601   5.857 -1.8191 -0.3998 -0.0900
 8064SOL     OW35653   0.386   3.257   6.586 -0.1310  0.6155 -0.0353
 8064SOL    HW135654   0.342   3.226   6.507 -0.0904 -0.4994  0.3870
 8064SOL    HW235655   0.333   3.212   6.652  2.4003 -1.1258  0.7712
 8065SOL     OW35656   3.985   3.766   6.197 -0.2773  0.1544 -0.5195
 8065SOL    HW135657   4.004   3.778   6.104 -1.3407 -1.9683 -1.0229
 8065SOL    HW235658   4.068   3.784   6.241 -0.8338 -2.0865  1.4859
 8066SOL     OW35659   2.984   1.149  13.193 -0.7299  0.5231 -0.2306
 8066SOL    HW135660   3.025   1.190  13.268 -1.0957 -1.0946  0.8620
 8066SOL    HW235661   2.939   1.073  13.231  0.4299 -0.4441 -0.7951
 8067SOL     OW35662   4.699   0.426   7.052 -0.2257 -0.3764 -0.0693
 8067SOL    HW135663   4.697   0.373   6.972 -0.4276 -0.4219 -0.0343
 8067SOL    HW235664   4.632   0.379   7.102 -2.5152  3.2164  0.1846
 8068SOL     OW35665   0.840   2.229   4.258 -0.3389 -0.0606 -0.6394
 8068SOL    HW135666   0.764   2.240   4.315  1.0010 -1.9439  1.5604
 8068SOL    HW235667   0.887   2.312   4.259 -1.8660  0.7839  0.3606
 8069SOL     OW35668   0.313   1.058  14.947 -0.1347 -0.2605  0.3182
 8069SOL    HW135669   0.393   1.101  14.916  1.3246 -2.1935  1.3210
 8069SOL    HW235670   0.303   1.103  15.030 -1.1060  0.6100 -0.2848
 8070SOL     OW35671   3.088   3.108   7.025 -0.9710 -0.9705 -0.1701
 8070SOL    HW135672   3.184   3.112   7.028 -1.0732  0.6097  1.2118
 8070SOL    HW235673   3.076   3.017   6.996  0.8038 -0.7742 -1.5397
 8071SOL     OW35674   2.856   3.546  12.554  0.3471  0.7508 -0.5772
 8071SOL    HW135675   2.927   3.601  12.585 -0.2158  0.9273  0.4071
 8071SOL    HW235676   2.910   3.473  12.523 -1.4626 -1.5525  1.6542
 8072SOL     OW35677   0.361   4.126   4.633 -0.3994  0.3225  0.1354
 8072SOL    HW135678   0.331   4.147   4.544  2.2889  1.6334 -0.4835
 8072SOL    HW235679   0.405   4.042   4.620 -3.3758 -1.3581  0.8161
 8073SOL     OW35680   3.727   3.543  13.740  0.0345 -0.4732 -0.1333
 8073SOL    HW135681   3.671   3.507  13.671  2.1641 -0.4911 -1.8611
 8073SOL    HW235682   3.686   3.630  13.745  1.2225  0.0243  0.9566
 8074SOL     OW35683   4.568   3.685  13.382 -1.0497  0.1217  0.2745
 8074SOL    HW135684   4.596   3.707  13.471 -1.7586  0.9298  0.3075
 8074SOL    HW235685   4.486   3.639  13.400  0.0108 -1.3446  1.3266
 8075SOL     OW35686   2.438   3.266   4.823 -0.3962 -0.4268 -0.1810
 8075SOL    HW135687   2.451   3.273   4.729 -1.3775  1.0246 -0.2078
 8075SOL    HW235688   2.514   3.312   4.859 -0.8923 -0.8193  1.3673
 8076SOL     OW35689   0.694   0.383   7.257  0.0501  0.4431  0.1641
 8076SOL    HW135690   0.628   0.430   7.307 -1.4947 -2.5482  0.9398
 8076SOL    HW235691   0.751   0.353   7.329 -1.8251 -1.4884  0.8418
 8077SOL     OW35692   1.666   4.413   3.026 -0.5706 -0.3529  0.2066
 8077SOL    HW135693   1.674   4.508   3.028  0.3622 -0.4701  3.2069
 8077SOL    HW235694   1.630   4.405   3.115 -3.7079  1.8839 -0.8675
 8078SOL     OW35695   4.115   3.686   7.832 -0.1224 -0.6060  0.4327
 8078SOL    HW135696   4.056   3.732   7.892 -1.3810 -2.3757  0.5907
 8078SOL    HW235697   4.074   3.599   7.826 -2.2528  0.4420 -0.4123
 8079SOL     OW35698   1.651   3.736   8.506 -0.7739  0.6871 -0.0424
 8079SOL    HW135699   1.662   3.644   8.530 -0.7546  0.8506  0.5628
 8079SOL    HW235700   1.557   3.736   8.488 -0.7652 -0.0090 -0.0670
 8080SOL     OW35701   2.732   0.316   9.747 -0.0531  0.0213 -0.3022
 8080SOL    HW135702   2.666   0.247   9.740  0.4966 -0.6953  1.4789
 8080SOL    HW235703   2.746   0.323   9.653 -1.1716  1.2029 -0.3731
 8081SOL     OW35704   1.018   0.852   0.618 -0.1966  0.2036 -0.0799
 8081SOL    HW135705   1.076   0.829   0.545 -2.4424 -0.3479 -1.6968
 8081SOL    HW235706   0.965   0.920   0.576 -0.1572  0.2391 -0.0728
 8082SOL     OW35707   3.365   3.726   8.216  0.1048  0.3098  0.3109
 8082SOL    HW135708   3.361   3.632   8.198  1.2294  0.0831  1.2948
 8082SOL    HW235709   3.300   3.722   8.285  0.3671  0.1710  0.5506
 8083SOL     OW35710   1.955   3.668   1.854 -0.2254 -0.0147 -0.2191
 8083SOL    HW135711   1.882   3.617   1.890  1.0450  0.4157  2.9234
 8083SOL    HW235712   1.908   3.688   1.773 -1.7552 -0.9053  0.4470
 8084SOL     OW35713   0.718   4.112   9.003  0.1859  0.1270 -0.4521
 8084SOL    HW135714   0.735   4.106   9.097 -0.2852 -1.9083 -0.5040
 8084SOL    HW235715   0.736   4.022   8.974  2.5166  1.0768 -1.9719
 8085SOL     OW35716   3.210   1.383   6.541  0.3913  0.6292 -0.2496
 8085SOL    HW135717   3.244   1.295   6.556  4.8559  2.2455 -0.6525
 8085SOL    HW235718   3.213   1.417   6.631  0.4654  0.9256 -0.3646
 8086SOL     OW35719   4.535   4.531  16.198  0.1829 -0.3207  0.3018
 8086SOL    HW135720   4.540   4.619  16.162 -1.9478 -0.0234  0.7952
 8086SOL    HW235721   4.467   4.547  16.262 -0.3642 -2.2273  0.1953
 8087SOL     OW35722   1.966   4.277   5.561 -0.2053 -0.0725  0.3678
 8087SOL    HW135723   2.025   4.333   5.611  0.9398 -1.0098  0.0803
 8087SOL    HW235724   1.970   4.314   5.473  0.8173 -0.4605  0.2489
 8088SOL     OW35725   2.219   0.608   2.953  0.3869  0.3543  0.3149
 8088SOL    HW135726   2.198   0.598   3.045 -2.1058 -0.8542 -0.3745
 8088SOL    HW235727   2.195   0.518   2.930 -2.6191  0.6131  2.3879
 8089SOL     OW35728   0.579   3.829   6.712 -0.2588  0.2564  0.4088
 8089SOL    HW135729   0.652   3.768   6.713 -1.8356 -1.6403 -1.6016
 8089SOL    HW235730   0.588   3.878   6.794  1.9722  0.4237  0.0537
 8090SOL     OW35731   2.008   3.488  15.454 -0.3275 -0.1311 -0.3900
 8090SOL    HW135732   1.998   3.551  15.382  1.8846 -2.1153 -2.4491
 8090SOL    HW235733   2.101   3.469  15.442 -0.1619  0.2183  0.3249
 8091SOL     OW35734   3.982   3.294   5.156  0.4838  0.1689  0.3152
 8091SOL    HW135735   3.949   3.205   5.145 -2.2229  1.0486  1.3507
 8091SOL    HW235736   3.897   3.338   5.155  0.4523  0.0815 -0.4218
 8092SOL     OW35737   1.449   4.194   1.009  0.3061 -0.8153 -0.5067
 8092SOL    HW135738   1.433   4.204   1.103  0.5871 -1.1539 -0.4216
 8092SOL    HW235739   1.544   4.189   0.996  0.8195  2.2202  1.7549
 8093SOL     OW35740   0.119   2.148  16.669  0.4482 -1.1058  0.6089
 8093SOL    HW135741   0.070   2.101  16.736  0.8141  0.9696  2.3233
 8093SOL    HW235742   0.099   2.093  16.593 -1.0912  0.1679  0.0901
 8094SOL     OW35743   4.517   3.442   1.733  0.1344 -0.3113  1.0957
 8094SOL    HW135744   4.452   3.429   1.802 -0.9553 -2.7430 -0.4436
 8094SOL    HW235745   4.562   3.519   1.769  0.8654  0.7038 -1.9997
 8095SOL     OW35746   0.873   2.385   6.184  0.1207 -0.7966  0.1176
 8095SOL    HW135747   0.931   2.356   6.255  1.2539  2.5490  0.5828
 8095SOL    HW235748   0.930   2.451   6.144  1.8099 -1.2216  1.7817
 8096SOL     OW35749   3.768   4.252   9.797  0.8823 -0.0532  0.0839
 8096SOL    HW135750   3.727   4.336   9.776 -2.6319 -1.3022  1.9393
 8096SOL    HW235751   3.859   4.277   9.781  1.1695 -1.0892  0.1154
 8097SOL     OW35752   1.496   3.231   3.795 -0.0128  0.2386  0.5207
 8097SOL    HW135753   1.414   3.223   3.746  0.8759 -1.7976 -0.6348
 8097SOL    HW235754   1.495   3.138   3.820 -0.3043  0.1120  0.0436
 8098SOL     OW35755   2.211   1.863   5.840  0.0002  0.2575  0.0079
 8098SOL    HW135756   2.214   1.946   5.887  1.8395 -0.9673  2.0656
 8098SOL    HW235757   2.224   1.892   5.750 -2.0457  0.6591 -0.1553
 8099SOL     OW35758   0.327   3.596  11.526  0.2203 -0.4786  0.1200
 8099SOL    HW135759   0.398   3.624  11.469  2.3766 -1.5329  2.2817
 8099SOL    HW235760   0.290   3.529  11.469 -0.8853 -0.8547  1.2576
 8100SOL     OW35761   3.443   0.786  15.893  0.4617 -0.1294  0.6446
 8100SOL    HW135762   3.402   0.848  15.833 -0.6680 -0.8788  0.6351
 8100SOL    HW235763   3.404   0.706  15.858  1.1674  0.3218 -1.1726
 8101SOL     OW35764   2.438   1.798  12.989  0.0003 -0.0534  0.3686
 8101SOL    HW135765   2.384   1.870  12.955 -3.2279 -1.8894  1.5190
 8101SOL    HW235766   2.440   1.741  12.913  4.1528 -0.7251  0.9849
 8102SOL     OW35767   1.503   3.709  16.386 -0.0847  0.1439 -0.4333
 8102SOL    HW135768   1.442   3.705  16.460 -0.1573  1.6282 -0.4097
 8102SOL    HW235769   1.450   3.713  16.307 -0.2588  0.7972 -0.2854
 8103SOL     OW35770   1.064   0.477  14.431 -0.2709 -0.0671 -0.1472
 8103SOL    HW135771   1.141   0.429  14.402  2.0553  2.0195  2.5463
 8103SOL    HW235772   1.013   0.470  14.350 -1.0358 -0.9964  0.4067
 8104SOL     OW35773   0.336   1.044  11.100 -0.7133 -0.1539 -0.5322
 8104SOL    HW135774   0.344   1.132  11.063  1.6240  0.9464  2.6692
 8104SOL    HW235775   0.334   1.069  11.192 -0.1548 -0.4310 -0.4438
 8105SOL     OW35776   4.200   2.291  16.037 -0.4064  0.0809 -0.0266
 8105SOL    HW135777   4.144   2.362  16.069  0.4619  0.0600  1.5445
 8105SOL    HW235778   4.135   2.243  15.986  1.4298 -1.0375 -1.3177
 8106SOL     OW35779   2.112   3.816  10.179  0.3972 -0.0989  0.1881
 8106SOL    HW135780   2.026   3.857  10.169  0.0794 -0.8342 -0.0503
 8106SOL    HW235781   2.144   3.871  10.251  0.5627 -0.4244  0.3602
 8107SOL     OW35782   3.786   0.713   6.827 -0.1577 -0.2205 -0.4132
 8107SOL    HW135783   3.753   0.726   6.738 -2.0417 -2.4598 -0.0613
 8107SOL    HW235784   3.874   0.676   6.818  0.6799  2.1163 -1.6525
 8108SOL     OW35785   1.576   4.376   3.309 -0.1876 -0.0405 -0.3608
 8108SOL    HW135786   1.498   4.330   3.278 -1.4671  2.5733 -1.0362
 8108SOL    HW235787   1.534   4.458   3.336  0.4314  0.7893 -1.8906
 8109SOL     OW35788   0.400   4.218   9.083  0.0610  0.6276 -0.5608
 8109SOL    HW135789   0.452   4.216   9.163  0.9073  2.8622 -1.0403
 8109SOL    HW235790   0.314   4.230   9.125  0.1413  1.1891 -0.5559
 8110SOL     OW35791   0.600   4.664  12.488  0.4223 -0.3185 -0.0788
 8110SOL    HW135792   0.542   4.629  12.556  0.9845  0.9641  1.0440
 8110SOL    HW235793   0.550   4.645  12.408 -1.5445  0.1076  1.0616
 8111SOL     OW35794   2.625   4.434   8.795 -0.0893  0.4127 -0.2013
 8111SOL    HW135795   2.533   4.428   8.768 -0.3257  1.9703  0.2680
 8111SOL    HW235796   2.657   4.344   8.786  0.1373  0.5783 -1.1262
 8112SOL     OW35797   0.134   4.655   6.233 -0.1671  0.1066  0.7867
 8112SOL    HW135798   0.096   0.001   6.287  0.1338  1.0750 -0.2418
 8112SOL    HW235799   0.111   4.571   6.273 -2.2784  0.5447  0.5155
 8113SOL     OW35800   2.595   3.019   8.027 -0.4757  0.2168 -0.1387
 8113SOL    HW135801   2.614   2.992   8.117 -0.3645  0.5546 -0.0602
 8113SOL    HW235802   2.499   3.009   8.021 -0.0748 -1.9715 -3.1383
 8114SOL     OW35803   0.584   3.653   5.999 -0.0742 -0.1663  0.3366
 8114SOL    HW135804   0.597   3.724   5.936  0.5047 -1.4698 -0.9928
 8114SOL    HW235805   0.663   3.604   5.978  0.1851  0.6748 -0.6374
 8115SOL     OW35806   3.011   0.810   7.633 -0.8068 -0.4600 -0.2136
 8115SOL    HW135807   3.106   0.823   7.629 -0.9303  0.8820  0.9679
 8115SOL    HW235808   2.991   0.903   7.641  0.3055 -0.2604  0.2811
 8116SOL     OW35809   3.856   3.495  11.058 -0.2507  0.0368  0.4563
 8116SOL    HW135810   3.916   3.521  11.128 -0.0930  2.4508 -0.5857
 8116SOL    HW235811   3.794   3.439  11.104 -0.5784  0.0882  0.0737
 8117SOL     OW35812   0.271   2.546   2.542 -0.6692 -0.0982  0.2167
 8117SOL    HW135813   0.224   2.581   2.466  1.7671  1.3106 -0.6353
 8117SOL    HW235814   0.291   2.626   2.591 -0.8370  0.5215 -0.7353
 8118SOL     OW35815   3.263   3.609   9.637 -0.0371 -0.3876  0.6110
 8118SOL    HW135816   3.347   3.591   9.680 -0.7458 -0.3090  2.0125
 8118SOL    HW235817   3.257   3.542   9.569 -1.4995  0.2732  0.1085
 8119SOL     OW35818   0.899   3.967   0.923  0.5321  0.2065 -0.5452
 8119SOL    HW135819   0.968   4.031   0.942 -0.8792  1.1191  1.5005
 8119SOL    HW235820   0.918   3.945   0.832 -1.7703  0.1850 -1.0170
 8120SOL     OW35821   1.446   2.242   9.023 -0.1550  0.0366  0.1606
 8120SOL    HW135822   1.373   2.256   8.962  0.7805  3.8531 -0.0677
 8120SOL    HW235823   1.401   2.213   9.102  1.3962 -1.3506  0.5317
 8121SOL     OW35824   4.665   1.972   2.235 -0.5968  0.5004 -0.1261
 8121SOL    HW135825   0.032   1.997   2.216  0.4541 -2.9434  0.3115
 8121SOL    HW235826   4.687   1.881   2.257  1.3989  1.5421  2.1929
 8122SOL     OW35827   2.720   1.900  14.935 -0.5818 -0.1108 -0.0650
 8122SOL    HW135828   2.782   1.960  14.893 -0.8227  0.9129  1.0391
 8122SOL    HW235829   2.641   1.953  14.924 -0.4326  0.4833  1.6208
 8123SOL     OW35830   0.999   4.250   3.577  0.0583  0.2106  0.1250
 8123SOL    HW135831   1.008   4.285   3.665 -2.2432 -0.9258  0.8216
 8123SOL    HW235832   1.091   4.232   3.557  0.1810  2.0731 -0.9386
 8124SOL     OW35833   0.282   0.667   1.905  0.0239 -0.3473  0.2936
 8124SOL    HW135834   0.285   0.658   2.000  0.8960 -1.3697  0.1733
 8124SOL    HW235835   0.211   0.729   1.893  0.4530  0.2097  0.6690
 8125SOL     OW35836   1.185   0.698   5.365  0.0274  0.1709 -0.2368
 8125SOL    HW135837   1.117   0.763   5.345 -1.5429 -0.9097  1.6275
 8125SOL    HW235838   1.251   0.751   5.410  1.3474 -1.2368 -0.4914
 8126SOL     OW35839   2.818   0.447   3.672  0.1115  0.4314 -0.1188
 8126SOL    HW135840   2.735   0.479   3.707  0.7246  1.7310  0.1790
 8126SOL    HW235841   2.795   0.354   3.668 -0.2011  0.4497  1.2209
 8127SOL     OW35842   1.220   2.146   5.332 -0.1321 -0.4141  0.3494
 8127SOL    HW135843   1.262   2.186   5.408  0.0615 -0.4679  0.2730
 8127SOL    HW235844   1.289   2.081   5.317 -0.0207 -0.0693 -0.6710
 8128SOL     OW35845   4.230   2.605   8.424 -0.0970 -0.3206  0.1045
 8128SOL    HW135846   4.147   2.589   8.379 -0.8189 -2.9541  2.4319
 8128SOL    HW235847   4.185   2.620   8.507 -1.4732 -0.2859 -0.6493
 8129SOL     OW35848   1.045   4.218   5.666  0.1766 -0.1249 -0.0318
 8129SOL    HW135849   1.106   4.256   5.602 -0.1496  2.2526  1.0827
 8129SOL    HW235850   0.958   4.250   5.641  1.3271  1.6531 -1.7369
 8130SOL     OW35851   0.553   2.276  11.806 -0.1521 -0.2411 -0.2729
 8130SOL    HW135852   0.620   2.304  11.743 -1.0497 -0.0024 -1.1089
 8130SOL    HW235853   0.475   2.317  11.768  0.0839  1.0056  0.5522
 8131SOL     OW35854   3.108   3.066   7.499 -0.0310 -0.2819  0.4989
 8131SOL    HW135855   3.071   3.140   7.546 -2.4230 -0.5572 -0.9522
 8131SOL    HW235856   3.073   3.087   7.413  2.5639  1.8529 -0.0294
 8132SOL     OW35857   4.720   2.293   5.272 -0.2217  0.0350  0.6872
 8132SOL    HW135858   4.656   2.320   5.207  0.5210  1.0412  0.3621
 8132SOL    HW235859   4.679   2.215   5.309 -0.2486 -0.9535 -1.4872
 8133SOL     OW35860   2.976   3.478  14.381 -0.3405  0.2518 -0.2095
 8133SOL    HW135861   2.956   3.570  14.396  0.8382  0.5194 -0.2537
 8133SOL    HW235862   3.071   3.489  14.387 -0.7274  3.2934  0.1709
 8134SOL     OW35863   2.670   0.620  13.881 -0.3906  0.4955 -0.1264
 8134SOL    HW135864   2.694   0.596  13.971  0.0369 -0.1365 -0.4066
 8134SOL    HW235865   2.739   0.679  13.851 -0.5434  1.2321  0.9839
 8135SOL     OW35866   1.331   0.755   1.688  0.0906 -0.4958 -0.3114
 8135SOL    HW135867   1.237   0.769   1.694  0.1845  0.7512 -1.7810
 8135SOL    HW235868   1.343   0.671   1.731  1.6606  0.2381  0.7195
 8136SOL     OW35869   1.310   1.978  11.144 -0.4729  0.1274  0.0469
 8136SOL    HW135870   1.344   2.060  11.178 -0.5112 -0.4649  1.5154
 8136SOL    HW235871   1.395   1.944  11.117 -0.2866  1.7082 -1.3350
 8137SOL     OW35872   0.336   1.926  11.639 -0.6130 -0.4313  0.3182
 8137SOL    HW135873   0.347   1.999  11.578  0.0028 -0.0821  0.8472
 8137SOL    HW235874   0.270   1.866  11.604 -0.3277  0.3303 -1.5326
 8138SOL     OW35875   1.364   3.801   5.944 -0.0780  0.1702  0.5632
 8138SOL    HW135876   1.351   3.787   5.850 -0.0407 -1.7655  0.8528
 8138SOL    HW235877   1.448   3.848   5.949  0.2618 -0.3845  0.1377
 8139SOL     OW35878   1.458   1.323  11.807  0.3524 -0.3418 -0.0674
 8139SOL    HW135879   1.399   1.297  11.878  0.5627  1.4155  0.7607
 8139SOL    HW235880   1.450   1.245  11.752  1.5745 -0.7131  0.2909
 8140SOL     OW35881   1.843   1.782  12.823 -1.0285 -0.2202  0.1548
 8140SOL    HW135882   1.908   1.771  12.892  0.7790 -0.2637 -1.5611
 8140SOL    HW235883   1.864   1.871  12.795 -2.9855  0.1429 -0.1642
 8141SOL     OW35884   2.389   3.649   9.837  0.5980 -0.4868  0.2166
 8141SOL    HW135885   2.332   3.645   9.761  0.8184 -1.8737  0.1327
 8141SOL    HW235886   2.473   3.671   9.796  0.8030 -2.7059 -0.5071
 8142SOL     OW35887   1.989   3.681   3.183 -0.2426 -0.3418  1.0867
 8142SOL    HW135888   2.023   3.771   3.182  0.2955 -0.5355  2.2837
 8142SOL    HW235889   1.901   3.703   3.214 -1.1222 -0.4166 -1.3177
 8143SOL     OW35890   4.334   2.446   7.512  0.3360  0.1432 -0.0752
 8143SOL    HW135891   4.293   2.422   7.428  0.7130  1.5290 -0.6431
 8143SOL    HW235892   4.371   2.361   7.537 -2.8179 -0.7721  1.4744
 8144SOL     OW35893   0.153   1.313   2.110 -0.2721 -0.2355 -0.0958
 8144SOL    HW135894   0.233   1.268   2.082 -0.2869 -0.5416  0.3636
 8144SOL    HW235895   0.151   1.382   2.043 -0.4132 -0.3042 -0.1618
 8145SOL     OW35896   1.513   2.359   6.820  0.0502 -0.2505  0.7637
 8145SOL    HW135897   1.565   2.407   6.756 -0.6546  0.2119  0.5359
 8145SOL    HW235898   1.485   2.289   6.761 -2.0259  2.3045 -1.2960
 8146SOL     OW35899   3.555   2.133   2.463 -0.1157 -0.3860 -0.5240
 8146SOL    HW135900   3.552   2.195   2.536  1.2256 -0.3928 -0.4514
 8146SOL    HW235901   3.474   2.151   2.415  1.0912  1.9225 -1.7214
 8147SOL     OW35902   2.749   2.084  11.912 -0.5179  0.0852  0.0394
 8147SOL    HW135903   2.793   2.077  11.827 -0.8020  2.5221 -0.3242
 8147SOL    HW235904   2.825   2.086  11.970  1.0497 -0.3935 -1.9925
 8148SOL     OW35905   4.584   1.962   8.838 -0.6961 -0.2612 -0.2877
 8148SOL    HW135906   4.603   1.886   8.894  2.4230  1.4082  0.9202
 8148SOL    HW235907   4.654   2.023   8.860  0.4636 -1.0870 -1.6687
 8149SOL     OW35908   0.848   3.192  12.057  0.0683  0.4706  0.1366
 8149SOL    HW135909   0.781   3.182  11.989  0.6741  0.7894 -0.5016
 8149SOL    HW235910   0.918   3.169  11.996 -0.6592  0.3124 -0.6441
 8150SOL     OW35911   4.702   0.084   7.261  0.3539 -0.1351  0.0864
 8150SOL    HW135912   4.707   0.011   7.322  0.0463 -0.2456 -0.0177
 8150SOL    HW235913   4.651   0.149   7.309 -2.1682 -0.6940 -1.8113
 8151SOL     OW35914   4.641   3.115   8.090  0.2693 -0.1344 -0.5376
 8151SOL    HW135915   4.704   3.185   8.108  1.4564 -1.1236 -0.8860
 8151SOL    HW235916   4.568   3.123   8.151  2.4558  0.0287  2.0255
 8152SOL     OW35917   3.830   4.533  13.793 -0.1467  0.0474  0.0058
 8152SOL    HW135918   3.754   4.497  13.840 -0.8016 -0.1225 -1.1838
 8152SOL    HW235919   3.884   4.454  13.803 -1.4164 -0.7788  0.4017
 8153SOL     OW35920   1.588   2.426   3.015 -0.2680 -0.2714 -0.3529
 8153SOL    HW135921   1.609   2.334   2.997 -0.9681 -0.3689 -0.6787
 8153SOL    HW235922   1.655   2.441   3.081 -0.7916 -1.0160  0.3502
 8154SOL     OW35923   3.725   2.123  10.260 -0.2209  0.2581  0.7971
 8154SOL    HW135924   3.817   2.150  10.259 -0.0050 -0.6079 -1.8294
 8154SOL    HW235925   3.706   2.161  10.346 -1.4354  1.4985 -0.0240
 8155SOL     OW35926   0.445   2.933   3.150  0.3817  0.0066 -0.4060
 8155SOL    HW135927   0.370   2.937   3.091  0.5498  0.6881 -0.5717
 8155SOL    HW235928   0.510   2.978   3.095  0.5960  0.9276  0.5974
 8156SOL     OW35929   1.330   0.283   3.251  0.8210 -0.9931 -0.1624
 8156SOL    HW135930   1.321   0.191   3.227 -2.8926 -0.9982  1.3223
 8156SOL    HW235931   1.243   0.298   3.287  1.7026 -1.2884  2.0901
 8157SOL     OW35932   0.427   0.917   0.363 -0.3445 -0.2071  0.2309
 8157SOL    HW135933   0.437   0.948   0.273  1.0916  0.2306  0.5428
 8157SOL    HW235934   0.516   0.884   0.371 -0.2065 -0.1486 -1.0679
 8158SOL     OW35935   4.466   1.012   4.780  0.1094 -0.1064 -0.3371
 8158SOL    HW135936   4.504   0.998   4.694  0.4317  0.9046 -0.3573
 8158SOL    HW235937   4.531   1.063   4.829  0.4332 -1.5935  0.7940
 8159SOL     OW35938   0.467   4.595   1.247 -0.1861  0.1556 -0.1631
 8159SOL    HW135939   0.450   4.649   1.324  1.4940  0.7906 -0.2308
 8159SOL    HW235940   0.527   4.650   1.197 -1.5523  1.5549 -0.2574
 8160SOL     OW35941   3.799   1.034   4.473  0.3180  0.1388 -0.0653
 8160SOL    HW135942   3.715   0.989   4.482 -0.1526  0.9795 -0.2390
 8160SOL    HW235943   3.822   1.020   4.381 -1.0882 -0.8853 -0.2562
 8161SOL     OW35944   0.342   2.561   4.732 -0.2812  0.3139 -0.4169
 8161SOL    HW135945   0.386   2.614   4.798  0.9118 -0.2660 -0.7574
 8161SOL    HW235946   0.410   2.533   4.671 -0.0252  0.1443 -0.0469
 8162SOL     OW35947   0.175   0.320  13.688  0.2692  0.4186 -0.2176
 8162SOL    HW135948   0.136   0.249  13.636 -0.6312  0.9217 -0.2348
 8162SOL    HW235949   0.214   0.263  13.754 -0.0525  0.5266  0.0648
 8163SOL     OW35950   2.634   1.365   4.170 -0.4625  0.1220 -0.2915
 8163SOL    HW135951   2.599   1.292   4.221  1.3019  1.3995  2.7449
 8163SOL    HW235952   2.581   1.435   4.207  1.4223  0.4533  1.7979
 8164SOL     OW35953   1.921   0.673   8.638  0.0848 -0.1038  0.2105
 8164SOL    HW135954   1.954   0.583   8.642  1.1066  0.1932 -1.6935
 8164SOL    HW235955   2.007   0.711   8.622 -0.3412 -0.2621 -2.4935
 8165SOL     OW35956   0.940   2.803   7.854 -0.1109 -0.0891  0.2014
 8165SOL    HW135957   0.970   2.777   7.767  0.8656 -1.5155  0.9686
 8165SOL    HW235958   0.867   2.857   7.823 -1.5021 -0.1599  3.2910
 8166SOL     OW35959   4.136   2.711   4.412 -0.0701 -0.3444 -0.4241
 8166SOL    HW135960   4.064   2.648   4.417 -0.7378  0.4082 -0.6914
 8166SOL    HW235961   4.210   2.657   4.383  1.0920  1.4779 -0.8485
 8167SOL     OW35962   0.128   2.561   4.888  0.1085 -0.2051  0.3876
 8167SOL    HW135963   0.091   2.637   4.844 -0.1798 -1.1833 -1.0667
 8167SOL    HW235964   0.212   2.558   4.842  0.3477 -1.3966  0.8988
 8168SOL     OW35965   4.328   2.768   7.670  0.1882 -0.4033 -0.3420
 8168SOL    HW135966   4.279   2.850   7.679 -3.4980 -2.6566  0.1153
 8168SOL    HW235967   4.257   2.704   7.659  0.7077 -0.6735 -2.0670
 8169SOL     OW35968   1.847   4.346  17.282  0.3886  0.1632 -0.1492
 8169SOL    HW135969   1.754   4.368  17.272  0.6528  0.4737 -1.8254
 8169SOL    HW235970   1.874   4.302  17.201 -0.0676  0.0687 -0.2498
 8170SOL     OW35971   2.167   2.919   7.764  0.2202  0.2946 -0.3039
 8170SOL    HW135972   2.123   3.002   7.784 -0.8555 -0.6872  1.3774
 8170SOL    HW235973   2.132   2.857   7.828  3.6092 -1.2012  0.0896
 8171SOL     OW35974   2.718   2.407   8.310  0.1300  0.2035 -0.1994
 8171SOL    HW135975   2.686   2.494   8.334 -0.8086 -0.0045 -0.7075
 8171SOL    HW235976   2.750   2.427   8.221  1.0407  0.7559  0.2452
 8172SOL     OW35977   0.324   4.599   3.573 -0.3758 -0.5622 -0.3591
 8172SOL    HW135978   0.360   4.532   3.516  1.8099  0.6179 -0.3438
 8172SOL    HW235979   0.404   4.632   3.614  0.1024 -0.8204 -1.0833
 8173SOL     OW35980   2.437   2.552   3.148  0.3243 -0.0477  0.4272
 8173SOL    HW135981   2.481   2.629   3.110 -0.0641 -0.3219 -0.5722
 8173SOL    HW235982   2.469   2.554   3.238 -0.4950 -0.3878  0.7249
 8174SOL     OW35983   1.170   3.021   8.500 -0.5492  0.4338  0.3737
 8174SOL    HW135984   1.227   3.097   8.507  0.3135 -0.1423 -0.3388
 8174SOL    HW235985   1.084   3.048   8.468 -0.4533  2.1946  1.6312
 8175SOL     OW35986   1.520   0.390  13.376  0.6703 -0.2932 -0.1551
 8175SOL    HW135987   1.499   0.353  13.290 -0.5150  1.4751 -0.6311
 8175SOL    HW235988   1.446   0.357  13.428  0.6530  1.1705  0.7576
 8176SOL     OW35989   2.406   2.732  13.197  0.8106  0.0408 -0.0383
 8176SOL    HW135990   2.421   2.687  13.114  0.4305  0.2152 -0.2037
 8176SOL    HW235991   2.365   2.814  13.168 -0.6439  0.0292  1.9730
 8177SOL     OW35992   0.190   0.856   4.854  0.4538 -0.0552 -0.8603
 8177SOL    HW135993   0.282   0.868   4.828  0.1430  1.9995 -1.0192
 8177SOL    HW235994   0.135   0.886   4.782 -1.7566  0.7632  1.1901
 8178SOL     OW35995   0.544   3.218   4.925 -0.2172  0.0824 -0.4769
 8178SOL    HW135996   0.541   3.282   4.854  1.4783 -0.3624 -0.9585
 8178SOL    HW235997   0.620   3.169   4.893  0.9369  0.1654  2.1023
 8179SOL     OW35998   4.470   0.726   5.337  0.3042 -0.4040  0.3358
 8179SOL    HW135999   4.503   0.712   5.248 -1.9466 -2.0149 -0.2208
 8179SOL    HW236000   4.554   0.706   5.379  1.3516  0.7080 -1.2294
 8180SOL     OW36001   0.401   4.653   6.164  0.1071 -0.3301  0.1603
 8180SOL    HW136002   0.440   4.601   6.234 -0.6806 -0.5389  0.4375
 8180SOL    HW236003   0.311   4.646   6.194 -0.5395 -0.9622 -1.9369
 8181SOL     OW36004   1.410   1.155   8.310  0.0714 -0.0187  0.1086
 8181SOL    HW136005   1.353   1.102   8.365 -1.4782  0.5713 -0.9034
 8181SOL    HW236006   1.386   1.247   8.322  0.5692  0.1542 -0.2021
 8182SOL     OW36007   1.921   4.615  10.096 -0.0937 -0.6250  0.0470
 8182SOL    HW136008   1.980   4.541  10.081  1.4398  0.4856  0.5907
 8182SOL    HW236009   1.932   4.663  10.014 -1.1740 -1.4550 -0.5770
 8183SOL     OW36010   0.984   1.169   3.591 -0.4429 -0.0095  0.1104
 8183SOL    HW136011   1.002   1.247   3.645 -1.0070 -0.9330  1.6266
 8183SOL    HW236012   0.912   1.196   3.534 -0.4508 -0.5207 -0.1135
 8184SOL     OW36013   2.235   1.099  12.154 -0.1095  0.1551 -0.6606
 8184SOL    HW136014   2.301   1.141  12.099 -0.2904  0.9294 -0.2910
 8184SOL    HW236015   2.185   1.181  12.158 -0.8888 -0.3027 -1.1721
 8185SOL     OW36016   4.652   3.794   9.076 -0.1220  0.0936 -0.6974
 8185SOL    HW136017   4.681   3.740   9.002  1.0372 -1.0625  0.5952
 8185SOL    HW236018   4.628   3.727   9.140  0.6968  1.2998  0.8714
 8186SOL     OW36019   4.460   0.048   4.624  0.3954  0.0974  0.5039
 8186SOL    HW136020   4.495   0.117   4.681  0.0587  1.0195 -0.3955
 8186SOL    HW236021   4.529   0.047   4.558 -0.9430  1.1061 -0.8974
 8187SOL     OW36022   1.515   1.702   6.989 -0.0366  0.5024 -0.2042
 8187SOL    HW136023   1.443   1.746   6.944  0.5696  1.4325 -0.2664
 8187SOL    HW236024   1.563   1.657   6.919 -1.9815 -0.1944 -1.1058
 8188SOL     OW36025   2.889   0.459  14.757 -0.4277 -0.0558 -0.3391
 8188SOL    HW136026   2.908   0.423  14.671  0.9899 -2.4394  0.9732
 8188SOL    HW236027   2.824   0.398  14.793 -1.4226  0.8169 -0.6505
 8189SOL     OW36028   2.867   2.111  17.270 -0.3002 -0.5282  0.0273
 8189SOL    HW136029   2.831   2.199  17.279  0.4840 -0.3212  1.2073
 8189SOL    HW236030   2.826   2.087  17.187 -0.1283 -0.4262 -0.0895
 8190SOL     OW36031   0.697   0.734  14.707  0.1290 -0.8486  0.0740
 8190SOL    HW136032   0.653   0.702  14.787 -0.2587 -4.6555 -1.6600
 8190SOL    HW236033   0.747   0.658  14.677  1.3636  0.1414 -0.3750
 8191SOL     OW36034   4.582   0.157   5.709  0.0192 -0.0283 -0.3022
 8191SOL    HW136035   4.645   0.229   5.715 -1.7253  1.5011 -0.3312
 8191SOL    HW236036   4.514   0.214   5.674 -0.8100 -0.7159  0.1811
 8192SOL     OW36037   1.849   2.630  13.131  0.2405 -0.5539  0.3321
 8192SOL    HW136038   1.911   2.564  13.100 -1.2351 -1.6796 -0.2522
 8192SOL    HW236039   1.906   2.698  13.165 -1.3751  2.4217 -2.8697
 8193SOL     OW36040   2.938   2.872  14.460 -0.3747 -0.2572  0.3014
 8193SOL    HW136041   3.013   2.840  14.510 -0.7099 -0.6096  0.5882
 8193SOL    HW236042   2.883   2.793  14.455 -1.7424  0.5887  1.8842
 8194SOL     OW36043   4.080   2.906   3.702  0.1430 -0.3250  0.6424
 8194SOL    HW136044   4.137   2.971   3.660 -1.1941 -0.3461 -1.1846
 8194SOL    HW236045   4.056   2.863   3.620  0.5594 -0.6476  0.6890
 8195SOL     OW36046   4.471   2.452  15.995 -0.4177 -0.3660 -0.2429
 8195SOL    HW136047   4.484   2.488  16.083 -1.8492  1.7855 -0.9240
 8195SOL    HW236048   4.379   2.427  16.005 -0.5690 -0.3308 -1.5440
 8196SOL     OW36049   0.455   0.899   3.013  0.2265 -0.2438  0.1903
 8196SOL    HW136050   0.530   0.854   2.975  0.2764 -0.8177  0.9664
 8196SOL    HW236051   0.390   0.875   2.947  1.0489  2.4948 -1.6276
 8197SOL     OW36052   1.539   0.130   7.516  0.3308  0.4848 -0.4638
 8197SOL    HW136053   1.496   0.077   7.583 -0.7400  1.9226 -0.0101
 8197SOL    HW236054   1.563   0.063   7.452  0.1174  0.2374 -0.2870
 8198SOL     OW36055   1.083   3.675   6.265  0.5878 -0.0852 -0.1089
 8198SOL    HW136056   1.044   3.645   6.183  0.7916  0.8358 -0.5411
 8198SOL    HW236057   1.167   3.710   6.236  0.0530  1.3523  0.0773
 8199SOL     OW36058   4.033   0.533   4.461 -0.1197 -0.4739  0.2889
 8199SOL    HW136059   4.023   0.442   4.433 -2.6151 -0.6439  1.7220
 8199SOL    HW236060   3.979   0.577   4.394  0.6598 -0.5585 -0.3949
 8200SOL     OW36061   4.526   4.277  11.969  0.1482  0.0255  0.4744
 8200SOL    HW136062   4.451   4.325  11.934  0.8352  0.3784 -0.5216
 8200SOL    HW236063   4.491   4.247  12.053 -3.2925 -1.3492 -1.4815
 8201SOL     OW36064   4.346   2.457   8.718  0.1735 -0.1195  0.0565
 8201SOL    HW136065   4.344   2.391   8.649 -1.6743  1.7383 -1.6495
 8201SOL    HW236066   4.303   2.535   8.683  0.4017 -0.2770 -0.5662
 8202SOL     OW36067   0.393   2.981  11.542  0.0294  0.0096  0.5783
 8202SOL    HW136068   0.489   2.990  11.537 -0.0098  1.3805  2.1559
 8202SOL    HW236069   0.371   3.074  11.530  1.7477  0.3932  0.3376
 8203SOL     OW36070   2.537   4.720   8.539 -0.6842  0.4707 -0.2240
 8203SOL    HW136071   2.444   4.703   8.554  0.1779 -3.1328  0.9474
 8203SOL    HW236072   2.557   4.676   8.456 -2.1370  1.1814 -0.9551
 8204SOL     OW36073   1.247   2.754   7.615  0.1884 -0.7611 -0.3448
 8204SOL    HW136074   1.163   2.782   7.580  0.3780 -0.4273 -0.5237
 8204SOL    HW236075   1.216   2.669   7.646  0.9949 -1.2093 -0.7621
 8205SOL     OW36076   1.004   4.692  16.216  0.7188  0.6588  0.5763
 8205SOL    HW136077   0.952   4.611  16.221  1.3453  0.2303  0.0615
 8205SOL    HW236078   0.943   0.033  16.252  3.5776  1.7204  3.5238
 8206SOL     OW36079   3.199   4.681  12.896  0.1263  0.1111 -0.3816
 8206SOL    HW136080   3.278   0.010  12.894 -0.4335  1.0063  1.3768
 8206SOL    HW236081   3.227   4.613  12.835 -0.6945 -0.7744  0.2209
 8207SOL     OW36082   3.740   3.072   8.792 -0.4972 -0.4692 -0.5513
 8207SOL    HW136083   3.822   3.030   8.768 -1.0968 -0.7220 -2.2015
 8207SOL    HW236084   3.756   3.165   8.805  0.1278 -0.8507  1.4662
 8208SOL     OW36085   1.213   1.513   3.201  0.4386 -0.1827  0.2982
 8208SOL    HW136086   1.249   1.547   3.283 -0.7533 -0.7180  1.0431
 8208SOL    HW236087   1.181   1.427   3.228  3.1413 -0.8200  1.4815
 8209SOL     OW36088   4.005   4.324   3.720  0.0116 -0.2025 -0.3844
 8209SOL    HW136089   4.010   4.419   3.736 -0.7592  0.2193 -2.6726
 8209SOL    HW236090   3.985   4.296   3.810  1.9815 -0.9252 -0.1783
 8210SOL     OW36091   2.876   3.131   2.411  0.1966 -0.4401  0.0059
 8210SOL    HW136092   2.849   3.072   2.482 -0.0226 -2.0132 -1.3581
 8210SOL    HW236093   2.850   3.081   2.333 -0.6162 -0.6212  0.3928
 8211SOL     OW36094   1.258   1.618   5.429  0.0301 -0.0195 -0.0249
 8211SOL    HW136095   1.249   1.525   5.410 -0.9471 -0.1280  0.9305
 8211SOL    HW236096   1.289   1.649   5.344 -1.6770  1.5277 -0.0880
 8212SOL     OW36097   4.718   3.749   0.410  0.1140 -0.5597 -0.3272
 8212SOL    HW136098   0.066   3.756   0.348  0.2103 -3.1336 -0.5298
 8212SOL    HW236099   4.660   3.755   0.334  0.9684 -1.5821 -1.0646
 8213SOL     OW36100   3.655   1.637   9.029  0.1674 -0.3451  0.0485
 8213SOL    HW136101   3.703   1.562   9.065 -0.7030 -1.5450 -1.2753
 8213SOL    HW236102   3.570   1.600   9.005  0.0641  0.1704 -0.3614
 8214SOL     OW36103   4.243   1.438  14.267 -0.3766 -0.1800 -0.1582
 8214SOL    HW136104   4.338   1.436  14.267 -0.4345 -2.2041  0.4843
 8214SOL    HW236105   4.215   1.515  14.217  1.0463  0.1413 -0.4369
 8215SOL     OW36106   1.203   2.789   4.116 -0.0070  0.1644  0.3518
 8215SOL    HW136107   1.264   2.753   4.052 -3.5080 -0.0598 -2.8424
 8215SOL    HW236108   1.265   2.826   4.179  0.3448 -1.1283  0.7535
 8216SOL     OW36109   2.992   1.150  15.355  0.5661  0.0554  0.2399
 8216SOL    HW136110   2.926   1.099  15.308  0.7023 -1.3247  1.5756
 8216SOL    HW236111   2.971   1.240  15.330 -0.6169  0.2051  1.8465
 8217SOL     OW36112   4.433   2.367   3.902 -0.3423 -0.0311 -0.1160
 8217SOL    HW136113   4.374   2.410   3.964 -0.4465 -1.1761  0.5696
 8217SOL    HW236114   4.496   2.323   3.959  0.5144 -0.5608 -1.4870
 8218SOL     OW36115   1.378   0.907  17.408  0.2345  0.1508  0.5397
 8218SOL    HW136116   1.457   0.862  17.439  0.3760 -0.3445 -0.5430
 8218SOL    HW236117   1.402   0.935  17.320  1.7516  0.7684  1.1501
 8219SOL     OW36118   0.287   0.380   8.192  0.0240  0.0223 -0.1932
 8219SOL    HW136119   0.316   0.425   8.113  0.5311 -1.3617 -0.7980
 8219SOL    HW236120   0.292   0.288   8.166  0.3180  0.1456 -0.5658
 8220SOL     OW36121   0.939   2.729   3.546  0.3284  0.6332  0.0702
 8220SOL    HW136122   0.852   2.707   3.579  0.6798  1.7540  1.7504
 8220SOL    HW236123   0.982   2.769   3.622 -0.2901 -0.8837  1.2223
 8221SOL     OW36124   0.132   3.333   4.191 -0.2990 -0.2531 -0.0858
 8221SOL    HW136125   0.038   3.327   4.204 -0.0095  0.8346  2.4136
 8221SOL    HW236126   0.165   3.380   4.268  1.9757 -1.4619 -0.3390
 8222SOL     OW36127   3.105   0.270   6.638 -0.1379 -0.3740  0.1142
 8222SOL    HW136128   3.035   0.250   6.576 -0.4296 -1.0950  0.6807
 8222SOL    HW236129   3.046   0.266   6.714  2.0133  0.3133  1.8257
 8223SOL     OW36130   2.127   4.101   7.798  0.5672 -0.5094 -0.4372
 8223SOL    HW136131   2.085   4.021   7.766 -0.8676  1.1400 -2.6887
 8223SOL    HW236132   2.205   4.074   7.845 -0.4156 -0.3658  1.2830
 8224SOL     OW36133   2.120   0.890  10.411  0.2204 -0.4071  0.0866
 8224SOL    HW136134   2.127   0.871  10.504 -0.3496 -2.5564 -0.3027
 8224SOL    HW236135   2.195   0.947  10.396  1.0403 -1.3938  0.4208
 8225SOL     OW36136   1.599   4.168   7.345 -0.0121  0.2037 -0.4978
 8225SOL    HW136137   1.616   4.144   7.437 -0.9921  0.4188 -0.2601
 8225SOL    HW236138   1.619   4.087   7.299  0.7985 -0.1843  0.5301
 8226SOL     OW36139   0.580   0.781  16.954 -0.4415  0.4479  0.1638
 8226SOL    HW136140   0.657   0.807  17.004  0.7574  1.0467 -2.0342
 8226SOL    HW236141   0.608   0.801  16.865 -0.7465  1.0760  0.2112
 8227SOL     OW36142   3.025   3.062   8.140 -0.0290 -0.1916 -0.4151
 8227SOL    HW136143   3.022   2.996   8.071 -0.1386 -1.1378  0.4880
 8227SOL    HW236144   3.108   3.104   8.119 -0.7032  0.4124 -1.8675
 8228SOL     OW36145   2.754   2.481  17.475  0.1933  0.0689  0.3315
 8228SOL    HW136146   2.760   2.438  17.561  0.0824  0.8431  0.7264
 8228SOL    HW236147   2.742   2.574  17.491 -0.2208  0.2840 -1.2366
 8229SOL     OW36148   2.548   0.733  17.668  0.3987 -0.0612  0.4177
 8229SOL    HW136149   2.459   0.768  17.678  0.0946 -0.8315  0.4313
 8229SOL    HW236150   2.557   0.733  17.572 -2.7373  0.8123  0.1236
 8230SOL     OW36151   4.518   2.261   4.304 -0.0422 -0.3802 -0.6991
 8230SOL    HW136152   4.500   2.228   4.392  3.7177 -1.3029 -0.2787
 8230SOL    HW236153   4.443   2.318   4.288  0.9590  0.2277 -3.2387
 8231SOL     OW36154   1.919   3.318  14.206 -0.0930  0.5252 -0.6431
 8231SOL    HW136155   1.955   3.404  14.188 -1.7361  1.0768 -1.3424
 8231SOL    HW236156   1.997   3.263  14.212 -2.5139 -3.0370 -1.4917
 8232SOL     OW36157   4.429   2.722   2.773  0.5319  0.4083 -0.5069
 8232SOL    HW136158   4.517   2.719   2.737  0.7868  0.2656  0.1302
 8232SOL    HW236159   4.379   2.664   2.715 -0.2960  0.6965 -0.0732
 8233SOL     OW36160   1.312   2.426   8.321 -0.2946  0.2680  0.0909
 8233SOL    HW136161   1.401   2.394   8.337 -0.6626 -1.0896 -0.5562
 8233SOL    HW236162   1.318   2.506   8.373  0.1920  0.6547 -0.5717
 8234SOL     OW36163   1.524   0.046   2.769  0.8476 -0.3051 -0.3214
 8234SOL    HW136164   1.542   0.029   2.676  2.7342  0.9052 -0.1668
 8234SOL    HW236165   1.520   4.681   2.806 -1.8462  0.9379  2.3573
 8235SOL     OW36166   2.618   1.430   0.340 -0.1251  0.1469  0.3015
 8235SOL    HW136167   2.708   1.444   0.371 -0.5443  1.4956  0.9264
 8235SOL    HW236168   2.640   1.392   0.255 -0.2177  0.6744  0.0373
 8236SOL     OW36169   2.200   4.699   3.569 -0.4689  0.1875 -0.0353
 8236SOL    HW136170   2.230   0.017   3.488 -0.6953 -0.4888 -0.4675
 8236SOL    HW236171   2.269   4.635   3.588 -1.1892 -0.6871 -0.3624
 8237SOL     OW36172   4.060   1.940   9.791 -0.8085  0.0238 -0.4420
 8237SOL    HW136173   4.119   1.961   9.864  2.2445 -2.2553 -2.2627
 8237SOL    HW236174   3.985   1.910   9.843 -0.5187  0.8596  0.4722
 8238SOL     OW36175   2.580   3.631   6.217  0.0221  0.1882  0.1837
 8238SOL    HW136176   2.489   3.647   6.193 -1.0350 -2.5606  2.3466
 8238SOL    HW236177   2.592   3.536   6.207 -0.6348  0.1930 -0.6587
 8239SOL     OW36178   2.424   2.310   6.549  0.3165  0.1963  0.3248
 8239SOL    HW136179   2.391   2.391   6.510  0.6422  0.2825  0.2289
 8239SOL    HW236180   2.471   2.356   6.619  1.2258  0.0664 -0.2053
 8240SOL     OW36181   1.723   0.725   7.979  0.5502  0.1718 -0.1592
 8240SOL    HW136182   1.736   0.740   8.073 -0.7632  1.1917 -0.1309
 8240SOL    HW236183   1.721   0.632   7.959 -1.8020 -0.3972  2.7413
 8241SOL     OW36184   3.387   0.716   6.294 -0.0093 -0.6095  0.0746
 8241SOL    HW136185   3.372   0.729   6.201 -1.5858 -0.0333  0.4042
 8241SOL    HW236186   3.326   0.773   6.341  0.7170 -0.1386  0.4452
 8242SOL     OW36187   0.043   0.934   8.677  0.0820 -0.1351  0.3158
 8242SOL    HW136188   0.121   0.882   8.693  1.1756  0.9752 -1.3184
 8242SOL    HW236189   4.698   0.868   8.672 -0.1603  0.0113  1.7640
 8243SOL     OW36190   0.383   3.850  12.499 -0.3665 -0.3522 -0.3474
 8243SOL    HW136191   0.367   3.902  12.420  0.1566  1.3487  0.6779
 8243SOL    HW236192   0.293   3.829  12.525  0.0550 -0.5553  0.9284
 8244SOL     OW36193   4.109   0.102  16.608  0.5281 -0.3496 -0.9632
 8244SOL    HW136194   4.058   0.026  16.582  0.2940 -1.0268  1.4729
 8244SOL    HW236195   4.084   0.116  16.699  0.1068 -1.8997 -0.8320
 8245SOL     OW36196   0.563   4.054  17.639  1.0886  0.2679  0.1352
 8245SOL    HW136197   0.535   4.103   0.020 -0.1161  0.4321 -0.3970
 8245SOL    HW236198   0.642   4.008  17.666  1.3235  0.0309 -0.9630
 8246SOL     OW36199   3.710   3.092  17.509 -0.2722 -0.2458  0.5992
 8246SOL    HW136200   3.786   3.145  17.485 -0.2788  0.0343  1.1881
 8246SOL    HW236201   3.685   3.051  17.426  1.5788  0.7312 -0.4237
 8247SOL     OW36202   2.217   0.562   3.210 -0.1367  0.3660  0.0018
 8247SOL    HW136203   2.128   0.571   3.244 -1.1321  0.1486 -2.5615
 8247SOL    HW236204   2.257   0.645   3.234 -0.1996  0.4172 -0.0720
 8248SOL     OW36205   1.363   0.689   8.538 -0.1574  0.5478 -0.4733
 8248SOL    HW136206   1.406   0.659   8.618 -1.4317 -1.2973 -0.4717
 8248SOL    HW236207   1.410   0.633   8.476  1.8731  0.9326  0.7270
 8249SOL     OW36208   1.010   0.864   8.961 -0.2964 -0.8055  0.2492
 8249SOL    HW136209   1.039   0.955   8.961 -1.3306 -0.4726 -0.3558
 8249SOL    HW236210   1.082   0.828   9.013  1.8512  0.2671 -1.9705
 8250SOL     OW36211   4.248   1.902  13.058 -0.2259 -0.1076 -0.0005
 8250SOL    HW136212   4.212   1.886  13.146 -0.9986 -1.6071 -0.5888
 8250SOL    HW236213   4.313   1.832  13.071  1.0753  1.3394  1.2691
 8251SOL     OW36214   2.289   1.648   3.451 -0.2308 -0.2064 -0.4943
 8251SOL    HW136215   2.360   1.598   3.493  0.7355  2.1970  0.7452
 8251SOL    HW236216   2.332   1.708   3.391  0.8444  0.0150  0.4739
 8252SOL     OW36217   0.234   1.944  11.035  0.0755  0.2214  0.2139
 8252SOL    HW136218   0.291   1.913  11.105 -0.2459 -0.6627  0.0867
 8252SOL    HW236219   0.154   1.958  11.086 -0.1295  0.4309 -0.1634
 8253SOL     OW36220   1.540   3.384  11.790 -0.2926 -0.3595  0.1056
 8253SOL    HW136221   1.531   3.305  11.736 -0.7440  1.9346 -3.2008
 8253SOL    HW236222   1.612   3.363  11.849 -1.1432 -0.4771  1.1016
 8254SOL     OW36223   2.212   1.035   6.372 -0.1916  0.0557 -0.0807
 8254SOL    HW136224   2.264   0.974   6.425 -2.0127  0.1241  1.7807
 8254SOL    HW236225   2.273   1.073   6.309 -0.5027  0.1278 -0.3376
 8255SOL     OW36226   2.133   2.279   7.108  0.2672 -0.5552 -0.0675
 8255SOL    HW136227   2.068   2.211   7.093  0.4719 -0.7933  0.1276
 8255SOL    HW236228   2.083   2.327   7.174  1.9067  0.4817  0.4205
 8256SOL     OW36229   1.943   2.886  13.619  0.6329 -0.0099  0.1243
 8256SOL    HW136230   1.959   2.880  13.525  1.4197 -1.4176  0.3455
 8256SOL    HW236231   1.902   2.972  13.618 -0.0667 -0.3537 -2.2563
 8257SOL     OW36232   1.809   2.234   6.087 -0.0473  0.3810  0.1165
 8257SOL    HW136233   1.877   2.280   6.038 -1.0801 -0.3257 -1.9771
 8257SOL    HW236234   1.737   2.296   6.074 -0.9613 -0.2789  1.9568
 8258SOL     OW36235   0.548   1.277   2.259 -0.0265  0.2772  0.2550
 8258SOL    HW136236   0.598   1.208   2.303 -0.5879 -0.3689 -0.1245
 8258SOL    HW236237   0.482   1.226   2.213 -0.1084 -3.3558  4.4949
 8259SOL     OW36238   1.202   4.375   5.454  0.2713 -0.0886 -0.5103
 8259SOL    HW136239   1.199   4.459   5.408  0.8950  0.3115  0.1710
 8259SOL    HW236240   1.274   4.389   5.515  0.5987  1.2094 -1.1872
 8260SOL     OW36241   3.361   3.109   7.036  0.6154  0.1491  0.2589
 8260SOL    HW136242   3.383   3.016   7.042  0.4563  0.1368  0.6831
 8260SOL    HW236243   3.438   3.156   7.068 -0.7725  1.7570  1.2512
 8261SOL     OW36244   3.060   0.841  14.846  0.2333 -0.6467  0.0118
 8261SOL    HW136245   3.028   0.929  14.868 -0.5288 -0.1099 -3.1787
 8261SOL    HW236246   3.155   0.844  14.856  0.1287 -0.9430  1.0711
 8262SOL     OW36247   1.729   3.393   5.019 -0.2433 -0.0333  0.2599
 8262SOL    HW136248   1.731   3.298   5.021  1.7604 -0.0287 -2.6609
 8262SOL    HW236249   1.635   3.407   5.008 -0.6025 -1.4796  1.5199
 8263SOL     OW36250   2.038   1.220  11.496 -0.5244 -0.2190  0.1564
 8263SOL    HW136251   2.003   1.131  11.505 -0.6069 -0.2235 -0.2418
 8263SOL    HW236252   1.954   1.264  11.510  0.6272  2.1414 -0.4654
 8264SOL     OW36253   4.259   4.590   5.576  0.1384 -0.0449  0.1045
 8264SOL    HW136254   4.261   4.640   5.495 -0.1161 -1.7046 -0.9365
 8264SOL    HW236255   4.309   4.511   5.553  0.8529  0.8546 -1.4181
 8265SOL     OW36256   4.062   2.447   3.059  0.6559  0.1936 -0.0940
 8265SOL    HW136257   4.096   2.528   3.020 -1.7096  0.5713 -1.4384
 8265SOL    HW236258   4.055   2.398   2.976 -0.6503 -1.3541  0.9331
 8266SOL     OW36259   3.116   2.290   0.989 -0.0882  0.3739 -0.2304
 8266SOL    HW136260   3.204   2.326   0.980  0.4135 -0.8734 -0.3556
 8266SOL    HW236261   3.109   2.254   0.901 -2.0512 -2.0768  0.9269
 8267SOL     OW36262   0.279   0.128  11.253 -0.2421  0.3587  0.3544
 8267SOL    HW136263   0.253   0.147  11.343 -1.5465 -1.4598  0.3624
 8267SOL    HW236264   0.359   0.077  11.265  0.0479  0.3037 -1.8233
 8268SOL     OW36265   0.934   2.492   4.422 -0.0886  0.6883 -0.1408
 8268SOL    HW136266   1.008   2.508   4.479  0.9052  0.3902 -1.3585
 8268SOL    HW236267   0.871   2.535   4.479 -0.4589  2.1345 -1.6388
 8269SOL     OW36268   2.145   0.112   7.190 -0.1791  0.0863  0.0183
 8269SOL    HW136269   2.154   0.197   7.232  0.6795 -1.6200  3.3147
 8269SOL    HW236270   2.206   0.124   7.118  1.4141  0.4028  1.4234
 8270SOL     OW36271   4.276   0.371   4.324 -0.3503 -0.1673  0.0052
 8270SOL    HW136272   4.244   0.450   4.368  2.5334 -1.1038  3.7576
 8270SOL    HW236273   4.351   0.337   4.372  1.1792  1.6880 -1.1008
 8271SOL     OW36274   0.176   1.867  12.814  0.2090 -0.3004  0.6163
 8271SOL    HW136275   0.143   1.939  12.760 -0.1483  0.5520  1.9746
 8271SOL    HW236276   0.182   1.796  12.750 -0.6686 -1.4264  1.7871
 8272SOL     OW36277   3.846   2.529   9.555  0.0880 -0.5879  0.4619
 8272SOL    HW136278   3.931   2.498   9.585  0.0954 -0.3569  0.6734
 8272SOL    HW236279   3.835   2.610   9.605  0.2463 -0.1468 -0.2135
 8273SOL     OW36280   1.692   4.085   7.581  0.1923 -0.3549  0.4340
 8273SOL    HW136281   1.758   4.069   7.648  0.4628 -0.6072  0.1097
 8273SOL    HW236282   1.651   4.000   7.597  2.4319 -1.1246  1.9834
 8274SOL     OW36283   2.835   4.458   5.730 -0.3690  0.2769 -0.1862
 8274SOL    HW136284   2.770   4.508   5.780  0.1459  1.1412 -0.3932
 8274SOL    HW236285   2.845   4.381   5.785  3.1589  0.8955  0.0006
 8275SOL     OW36286   1.381   1.966   8.112 -0.8187 -0.3942  0.4260
 8275SOL    HW136287   1.383   1.880   8.071 -1.3473  0.3574 -1.1676
 8275SOL    HW236288   1.469   1.989   8.082 -0.2108 -0.1951  2.3237
 8276SOL     OW36289   2.905   4.415   8.803  0.0653 -0.1121 -0.0185
 8276SOL    HW136290   2.847   4.449   8.871 -3.8223 -1.8728 -2.4467
 8276SOL    HW236291   2.929   4.493   8.753  0.6783 -0.7135 -0.6485
 8277SOL     OW36292   4.091   2.330   4.744  0.3527  0.2289 -0.2556
 8277SOL    HW136293   4.072   2.242   4.779 -0.0021  1.3424  2.3456
 8277SOL    HW236294   4.103   2.303   4.653  0.0423 -1.7171  0.2670
 8278SOL     OW36295   1.215   2.101  16.036 -0.2391 -0.6847 -0.0345
 8278SOL    HW136296   1.149   2.167  16.055  1.1539  0.9066 -0.7467
 8278SOL    HW236297   1.260   2.161  15.977  2.1119 -1.9038  0.5027
 8279SOL     OW36298   0.569   3.626   8.932  0.3026  0.0497 -0.0613
 8279SOL    HW136299   0.574   3.554   8.995  0.4863  1.0974  1.1339
 8279SOL    HW236300   0.493   3.675   8.964 -0.5543 -0.7153 -0.9329
 8280SOL     OW36301   0.910   3.357   6.707 -0.3803 -0.4898 -0.1663
 8280SOL    HW136302   0.840   3.413   6.673 -0.0589 -1.3756 -2.2663
 8280SOL    HW236303   0.860   3.292   6.756  0.5595  1.6651  3.6382
 8281SOL     OW36304   3.618   3.445   1.574  0.1626 -0.1747  0.0180
 8281SOL    HW136305   3.567   3.523   1.595  1.1609 -0.1965  2.4776
 8281SOL    HW236306   3.584   3.401   1.652  2.0998  0.1294  1.0311
 8282SOL     OW36307   3.687   0.609   2.639  0.1269  0.1522 -0.6956
 8282SOL    HW136308   3.750   0.540   2.658  2.1933  1.8339 -1.4702
 8282SOL    HW236309   3.681   0.658   2.721  1.7317  1.8917 -1.6139
 8283SOL     OW36310   3.535   2.887   7.859 -0.2884  0.6040  0.0548
 8283SOL    HW136311   3.596   2.945   7.814 -2.5366  3.9874  1.3471
 8283SOL    HW236312   3.453   2.914   7.818  0.2801 -1.5603 -2.4657
 8284SOL     OW36313   1.966   3.844   4.945  0.6534  0.5031  0.2652
 8284SOL    HW136314   1.984   3.879   4.858  0.4337  0.1944  0.0933
 8284SOL    HW236315   2.050   3.859   4.988  0.8115  1.0211 -0.2230
 8285SOL     OW36316   2.002   4.242   6.596  0.5656  0.3994  0.5217
 8285SOL    HW136317   1.995   4.337   6.598 -0.2258  0.3823 -2.0918
 8285SOL    HW236318   1.947   4.223   6.520 -0.7110  0.0617  1.5239
 8286SOL     OW36319   0.293   4.388   4.113  0.3932  0.6322 -0.2129
 8286SOL    HW136320   0.280   4.352   4.201  1.6098 -0.1356 -0.3369
 8286SOL    HW236321   0.232   4.462   4.112  0.2594  0.5147 -0.6503
 8287SOL     OW36322   2.993   2.426   4.319  0.3869 -0.6320  0.1058
 8287SOL    HW136323   3.056   2.387   4.259  0.7791  1.1996 -0.6963
 8287SOL    HW236324   3.046   2.482   4.376 -1.4104 -0.0031  1.1666
 8288SOL     OW36325   2.273   0.641   0.422  0.3457  0.3535 -0.2247
 8288SOL    HW136326   2.336   0.574   0.396  0.1925 -0.1917  0.8113
 8288SOL    HW236327   2.245   0.684   0.341 -1.2956 -1.8113 -0.7867
 8289SOL     OW36328   2.107   0.389   6.298 -0.1159  0.8908  0.5120
 8289SOL    HW136329   2.106   0.332   6.221  3.9872  1.9108 -0.2815
 8289SOL    HW236330   2.129   0.324   6.365  2.0888  0.0100 -1.0512
 8290SOL     OW36331   1.423   1.219   3.455 -0.8183  0.6483  0.0802
 8290SOL    HW136332   1.513   1.192   3.439 -0.4926  0.8825  1.4954
 8290SOL    HW236333   1.380   1.205   3.371  0.6378 -1.6193 -0.2841
 8291SOL     OW36334   2.150   0.982   2.362 -0.3221 -0.0373 -0.6122
 8291SOL    HW136335   2.243   0.989   2.344 -0.0630 -1.7528  0.0399
 8291SOL    HW236336   2.122   1.027   2.282  1.5742  2.4405  0.1057
 8292SOL     OW36337   2.261   0.926   8.616 -0.0135 -0.1250  0.3565
 8292SOL    HW136338   2.246   0.850   8.560  1.7025  0.5574 -1.0248
 8292SOL    HW236339   2.356   0.942   8.611 -0.3741  2.0056  0.2918
 8293SOL     OW36340   2.927   0.941   8.091 -0.0439 -0.3672 -0.2907
 8293SOL    HW136341   2.951   0.984   8.173 -1.4144 -1.5372  0.7294
 8293SOL    HW236342   2.972   0.857   8.093 -0.3780 -0.5557 -0.7625
 8294SOL     OW36343   2.783   1.262  12.651 -0.1453  0.0118 -0.1265
 8294SOL    HW136344   2.812   1.188  12.704 -0.9377  0.3563  0.7789
 8294SOL    HW236345   2.721   1.219  12.592  1.3350 -2.7803  0.2990
 8295SOL     OW36346   0.753   2.721  15.205  0.2516 -0.1859  0.3946
 8295SOL    HW136347   0.679   2.707  15.264  0.3209  0.5805  0.6637
 8295SOL    HW236348   0.758   2.647  15.144 -0.5348  1.3823 -1.5764
 8296SOL     OW36349   0.295   3.113  17.389 -0.0953 -0.6088 -0.4796
 8296SOL    HW136350   0.304   3.208  17.392 -1.8277 -0.5347  1.8191
 8296SOL    HW236351   0.355   3.087  17.460  1.1327 -1.6725 -1.8966
 8297SOL     OW36352   3.782   2.294   2.655  0.2691 -0.1626  0.0016
 8297SOL    HW136353   3.740   2.261   2.735  1.9632 -1.3163  0.4237
 8297SOL    HW236354   3.824   2.208   2.643  0.0745  0.1160 -2.7141
 8298SOL     OW36355   4.133   2.389   5.524  0.0270  0.0661  0.0508
 8298SOL    HW136356   4.148   2.483   5.531 -1.9847  0.2875  1.2226
 8298SOL    HW236357   4.159   2.358   5.611  0.4207 -1.3255 -0.5677
 8299SOL     OW36358   3.157   1.885  13.558  0.3653  0.3431 -0.2838
 8299SOL    HW136359   3.116   1.960  13.601 -1.0827 -0.8698  0.4433
 8299SOL    HW236360   3.139   1.897  13.465  2.1797  1.9925 -0.4330
 8300SOL     OW36361   1.912   4.049   1.967  0.4566  0.4973  0.1076
 8300SOL    HW136362   2.002   4.022   1.948 -0.4291  0.5392 -4.1206
 8300SOL    HW236363   1.930   4.142   1.980  1.7364  0.4378 -1.2134
 8301SOL     OW36364   3.166   1.101  14.185  0.0125 -0.5082 -0.0703
 8301SOL    HW136365   3.129   1.030  14.132 -0.8996 -0.5049  0.5625
 8301SOL    HW236366   3.212   1.059  14.258 -1.1404 -1.1364  0.2979
 8302SOL     OW36367   0.174   3.150   9.626 -0.1762 -0.7672 -0.3329
 8302SOL    HW136368   0.095   3.111   9.662 -0.4788 -1.1217 -1.3736
 8302SOL    HW236369   0.204   3.084   9.563 -1.1000 -0.7922 -0.7574
 8303SOL     OW36370   2.999   2.951   5.002  0.0779 -0.7453 -0.4696
 8303SOL    HW136371   2.952   2.917   4.927  1.2839 -0.9012 -1.1597
 8303SOL    HW236372   3.061   3.003   4.950  1.1863  1.3442  2.9214
 8304SOL     OW36373   1.294   2.805  16.487 -0.2888  0.6098 -0.6681
 8304SOL    HW136374   1.298   2.872  16.419 -0.2801  0.7447 -0.5366
 8304SOL    HW236375   1.221   2.834  16.541  0.3839  1.2168 -0.0841
 8305SOL     OW36376   3.921   3.320  15.613 -0.9977 -0.3140 -0.4555
 8305SOL    HW136377   3.847   3.332  15.553 -1.6914 -1.3670  0.1956
 8305SOL    HW236378   3.935   3.226  15.625 -0.5050 -0.3572 -1.3033
 8306SOL     OW36379   1.866   4.034   1.686 -0.7856 -0.5587 -0.2247
 8306SOL    HW136380   1.953   4.030   1.726 -0.2721  2.7938 -1.0173
 8306SOL    HW236381   1.814   4.067   1.760  0.6038 -0.3299  0.6578
 8307SOL     OW36382   2.575   1.519  11.604 -0.0752 -0.2213 -0.6259
 8307SOL    HW136383   2.662   1.482  11.590 -0.5277 -1.3445 -0.4752
 8307SOL    HW236384   2.518   1.457  11.559  0.9861 -1.1752 -0.6612
 8308SOL     OW36385   1.306   1.902  15.025 -0.2758 -0.0425 -0.1199
 8308SOL    HW136386   1.300   1.807  15.036  2.1265 -0.1948 -0.1771
 8308SOL    HW236387   1.350   1.927  15.106 -1.6590  0.3095  0.5151
 8309SOL     OW36388   2.911   2.084   3.933  0.1149  0.7678 -0.1827
 8309SOL    HW136389   2.904   2.179   3.938 -3.6640  0.3806  1.3179
 8309SOL    HW236390   2.908   2.062   3.839 -0.6413  1.4802 -0.3225
 8310SOL     OW36391   3.117   3.849   6.272  0.0107 -0.1082  0.1923
 8310SOL    HW136392   3.057   3.809   6.334 -0.3058 -0.3007 -0.2417
 8310SOL    HW236393   3.192   3.877   6.326 -1.9230  0.4943  2.5595
 8311SOL     OW36394   3.613   0.148   2.388  0.2866 -0.3281  0.0636
 8311SOL    HW136395   3.650   0.200   2.317 -2.2591 -0.2431 -1.2084
 8311SOL    HW236396   3.601   0.220   2.449  0.9852  0.0173 -0.2071
 8312SOL     OW36397   0.003   0.823   0.706  0.7485  0.1531 -0.3913
 8312SOL    HW136398   0.044   0.880   0.771 -1.2413  3.5511 -2.0969
 8312SOL    HW236399   4.662   0.775   0.757  1.7255 -1.7245 -0.8933
 8313SOL     OW36400   1.520   3.471   4.502  0.0242 -0.8399  0.4208
 8313SOL    HW136401   1.480   3.514   4.578  0.3047 -0.1300  0.1623
 8313SOL    HW236402   1.607   3.454   4.537 -1.3977 -1.1189  3.9303
 8314SOL     OW36403   1.181   2.107   5.854  0.1647 -0.2273 -0.1627
 8314SOL    HW136404   1.114   2.042   5.832  0.3978 -0.1195 -1.1929
 8314SOL    HW236405   1.198   2.142   5.767 -1.2433  0.1934 -0.2737
 8315SOL     OW36406   2.314   0.955   7.867  0.4033 -0.4163 -0.1020
 8315SOL    HW136407   2.388   0.930   7.922 -1.8361 -1.3906  2.5110
 8315SOL    HW236408   2.333   1.039   7.826  0.5823  1.5915  4.1699
 8316SOL     OW36409   0.486   2.616  14.402  0.2026  0.2561 -0.5589
 8316SOL    HW136410   0.580   2.600  14.397  0.0881  0.1987 -2.7046
 8316SOL    HW236411   0.461   2.528  14.375  1.1571 -0.2239  0.1488
 8317SOL     OW36412   2.967   2.420  17.312 -0.0495  0.1759  0.1552
 8317SOL    HW136413   2.880   2.435  17.349 -0.0549 -0.4336  0.3994
 8317SOL    HW236414   2.971   2.475  17.234 -1.2482  1.2517  0.8594
 8318SOL     OW36415   4.336   3.780  12.433  0.6763  0.3392 -0.5634
 8318SOL    HW136416   4.396   3.715  12.471  2.0769  1.5451 -0.7097
 8318SOL    HW236417   4.296   3.800  12.517  1.8108 -1.4295  0.4002
 8319SOL     OW36418   2.165   0.876  13.801 -0.0117  0.8867 -0.3124
 8319SOL    HW136419   2.163   0.931  13.879  1.9694  1.1222 -0.4269
 8319SOL    HW236420   2.250   0.833  13.815 -0.5001  0.5346  1.4793
 8320SOL     OW36421   4.637   3.894   3.384 -0.2141  0.3589 -0.4150
 8320SOL    HW136422   4.577   3.935   3.321  1.7033  3.1124 -0.4688
 8320SOL    HW236423   4.587   3.898   3.466 -1.3146 -3.1390 -0.9165
 8321SOL     OW36424   2.235   4.681   0.723 -0.4447  0.1609  0.1678
 8321SOL    HW136425   2.259   0.050   0.729  2.7852 -0.7889  1.9366
 8321SOL    HW236426   2.157   4.680   0.668 -1.0585  1.2388  1.0110
 8322SOL     OW36427   3.937   3.477  10.812 -0.6306 -0.3332  0.4945
 8322SOL    HW136428   3.904   3.478  10.902 -3.5010  1.0653 -0.5780
 8322SOL    HW236429   4.027   3.492  10.842  0.8275 -2.4260 -2.8802
 8323SOL     OW36430   4.243   1.157   7.775 -0.4453 -0.4842  0.3467
 8323SOL    HW136431   4.254   1.190   7.686 -0.1328  2.1401  1.3570
 8323SOL    HW236432   4.282   1.227   7.829 -0.0051  0.3700 -1.0863
 8324SOL     OW36433   2.916   2.470   3.683  0.0932  0.5573 -0.4786
 8324SOL    HW136434   2.938   2.457   3.776  1.9316 -1.0322 -1.1208
 8324SOL    HW236435   2.905   2.564   3.672 -0.9715  0.4879  0.0439
 8325SOL     OW36436   1.082   2.738   5.070 -0.5399  0.5017  0.1367
 8325SOL    HW136437   1.161   2.750   5.123  1.0668 -2.9012 -1.4265
 8325SOL    HW236438   1.032   2.698   5.141  0.1484  1.3525  1.0894
 8326SOL     OW36439   2.778   1.182   5.044  0.1970  0.1698  0.3707
 8326SOL    HW136440   2.715   1.250   5.068 -1.1022  0.4914 -3.9431
 8326SOL    HW236441   2.805   1.159   5.133  2.0227  0.7462 -0.0386
 8327SOL     OW36442   3.790   1.481   8.141  0.4809  0.3704 -0.1040
 8327SOL    HW136443   3.779   1.471   8.046 -1.9935  0.1621  0.2161
 8327SOL    HW236444   3.861   1.417   8.152  0.0291 -0.2217 -0.6428
 8328SOL     OW36445   0.559   2.856  17.380 -0.0285 -0.0891  0.5058
 8328SOL    HW136446   0.617   2.921  17.340  0.2565 -1.5833 -1.5187
 8328SOL    HW236447   0.506   2.835  17.303  2.7965 -3.2860 -0.5722
 8329SOL     OW36448   3.512   1.115   7.781 -0.3258  0.4168 -0.6784
 8329SOL    HW136449   3.528   1.137   7.689 -1.5361 -1.5339 -1.3594
 8329SOL    HW236450   3.557   1.031   7.786  0.4385  0.8306 -0.6330
 8330SOL     OW36451   1.512   2.586   6.577 -0.3583  0.1505  0.1457
 8330SOL    HW136452   1.594   2.569   6.623 -1.2000  0.7634  1.8922
 8330SOL    HW236453   1.518   2.681   6.575 -0.7102  0.1456 -0.8842
 8331SOL     OW36454   0.896   3.713  17.153 -0.4387 -0.2724  0.1376
 8331SOL    HW136455   0.850   3.728  17.235  0.1796  1.3080  0.1906
 8331SOL    HW236456   0.863   3.783  17.097  1.9783  1.3527  0.7990
 8332SOL     OW36457   0.857   1.808   9.048  0.2961  0.1609  0.1553
 8332SOL    HW136458   0.853   1.902   9.033  2.8257  0.0272 -1.4656
 8332SOL    HW236459   0.765   1.796   9.070  0.7934 -0.3891  1.9264
 8333SOL     OW36460   2.635   3.352   6.228  0.4359  0.4676  0.6214
 8333SOL    HW136461   2.722   3.343   6.267  0.2427  0.3050  1.0181
 8333SOL    HW236462   2.622   3.259   6.212  0.9835  0.1175  2.1346
 8334SOL     OW36463   0.401   3.955   0.261  0.1143  0.1988  0.4679
 8334SOL    HW136464   0.366   3.931   0.176  2.1747  0.4346 -0.4528
 8334SOL    HW236465   0.429   4.045   0.244  0.3725  0.4429  2.1407
 8335SOL     OW36466   1.811   0.414   0.617  0.2591  0.3365  0.1343
 8335SOL    HW136467   1.719   0.398   0.637  0.3963 -0.2076  0.3347
 8335SOL    HW236468   1.844   0.485   0.672  1.8138  1.3571 -2.1241
 8336SOL     OW36469   2.237   4.432   4.906 -0.2853 -0.2688  0.8358
 8336SOL    HW136470   2.172   4.376   4.863 -1.5875  1.4500  0.5454
 8336SOL    HW236471   2.247   4.389   4.991  1.4321  1.7131  1.6103
 8337SOL     OW36472   1.619   4.057   8.339 -0.2798 -0.4421  0.1208
 8337SOL    HW136473   1.543   4.033   8.392 -2.2763  0.6179 -2.2373
 8337SOL    HW236474   1.689   4.022   8.394 -0.5956 -2.4133 -0.7466
 8338SOL     OW36475   1.078   0.484   3.053  0.0791  0.1856  0.4483
 8338SOL    HW136476   1.058   0.489   3.147  0.7021 -2.4630  0.6954
 8338SOL    HW236477   1.159   0.536   3.050 -1.2228  2.2029 -0.1601
 8339SOL     OW36478   1.959   1.616   6.652 -0.2323 -0.6319 -0.6000
 8339SOL    HW136479   2.028   1.573   6.703  0.7053  0.9563 -0.5496
 8339SOL    HW236480   1.925   1.541   6.603 -0.9731 -1.4131  1.0941
 8340SOL     OW36481   2.880   2.130   8.769  0.2599 -0.4911  0.1064
 8340SOL    HW136482   2.869   2.036   8.754 -0.1208 -0.3725 -0.3805
 8340SOL    HW236483   2.823   2.167   8.701 -1.5971 -0.0135  1.9305
 8341SOL     OW36484   0.927   4.491  10.123  0.0638  0.2805 -0.4888
 8341SOL    HW136485   1.011   4.510  10.165  0.4944 -1.6634 -0.4569
 8341SOL    HW236486   0.941   4.517  10.032 -2.0647  0.2418 -0.8352
 8342SOL     OW36487   3.931   0.102   6.711  0.1064  0.0220 -0.4177
 8342SOL    HW136488   3.869   0.046   6.663  0.6648 -1.1636  0.2286
 8342SOL    HW236489   4.012   0.052   6.699 -0.6169 -1.3380  0.3272
 8343SOL     OW36490   3.599   3.442   4.500 -0.4168  0.7430 -0.0610
 8343SOL    HW136491   3.596   3.518   4.559  2.3258  1.5915 -1.0042
 8343SOL    HW236492   3.523   3.393   4.531 -0.0144 -0.6298 -1.2696
 8344SOL     OW36493   3.666   3.769  15.022 -0.3430  0.1673 -0.3469
 8344SOL    HW136494   3.601   3.714  15.066  0.6506 -1.0837 -0.4436
 8344SOL    HW236495   3.697   3.815  15.100  0.0543 -3.0447  1.3870
 8345SOL     OW36496   0.263   1.569  16.206  0.3114 -0.4580 -0.5373
 8345SOL    HW136497   0.180   1.525  16.186  2.2249 -5.3005  2.0073
 8345SOL    HW236498   0.237   1.636  16.270 -1.9502  1.4205 -3.3984
 8346SOL     OW36499   0.398   1.500   4.398  0.2456  0.3590  0.4429
 8346SOL    HW136500   0.471   1.474   4.342 -1.1034  0.4680 -1.3954
 8346SOL    HW236501   0.442   1.550   4.466  1.1184  2.3056 -1.5701
 8347SOL     OW36502   4.408   0.811  15.481 -0.1525 -1.0387 -0.0333
 8347SOL    HW136503   4.478   0.747  15.478  0.6154 -0.1035 -2.1759
 8347SOL    HW236504   4.398   0.837  15.390  0.1969  0.6149  0.3961
 8348SOL     OW36505   0.917   3.229   5.437  0.5805 -0.2358 -0.4525
 8348SOL    HW136506   0.841   3.236   5.378 -1.3441 -1.2439  1.8746
 8348SOL    HW236507   0.951   3.141   5.421  0.2787 -0.1283 -1.7119
 8349SOL     OW36508   1.287   4.106   4.309 -0.3437  0.1154  0.3071
 8349SOL    HW136509   1.372   4.146   4.289 -1.3930  1.9143 -0.4777
 8349SOL    HW236510   1.303   4.100   4.403  1.7216 -0.9968 -0.1152
 8350SOL     OW36511   2.535   4.156   3.901 -0.4117  0.2576  0.2620
 8350SOL    HW136512   2.594   4.227   3.874  0.2850 -0.4827 -0.1637
 8350SOL    HW236513   2.595   4.084   3.881  0.1180  0.7958 -0.0914
 8351SOL     OW36514   4.359   1.959   8.351  0.4610 -0.0170  0.2798
 8351SOL    HW136515   4.372   1.866   8.369 -0.7834  0.0644  1.5712
 8351SOL    HW236516   4.447   1.976   8.385  0.3657 -1.0603  1.0396
 8352SOL     OW36517   2.333   0.456   6.581  0.6313 -0.1465 -0.2943
 8352SOL    HW136518   2.354   0.395   6.510 -0.1113  0.6253 -1.1764
 8352SOL    HW236519   2.407   0.518   6.584 -0.0063  0.7194 -2.8463
 8353SOL     OW36520   0.766   1.626   0.019  0.1993  0.1220  0.4766
 8353SOL    HW136521   0.704   1.644  17.643 -0.8279 -0.4825  1.2125
 8353SOL    HW236522   0.703   1.608   0.089  0.4234 -1.1567  0.3378
 8354SOL     OW36523   2.780   0.110   6.266 -0.0084 -0.1862 -0.2898
 8354SOL    HW136524   2.758   0.202   6.279 -2.2508 -1.1494  2.8436
 8354SOL    HW236525   2.852   0.106   6.204 -1.0419 -0.6210 -1.4723
 8355SOL     OW36526   2.628   2.978  16.286  0.3192  0.2394 -0.5525
 8355SOL    HW136527   2.576   2.927  16.349 -0.1889  1.3867 -0.0538
 8355SOL    HW236528   2.665   2.900  16.244  0.5494 -0.4340  0.8937
 8356SOL     OW36529   0.204   4.099   7.132 -0.3095  0.0656  0.1986
 8356SOL    HW136530   0.202   4.109   7.227 -1.7054  1.1502  0.0556
 8356SOL    HW236531   0.158   4.181   7.111 -2.0158 -0.5945  1.3881
 8357SOL     OW36532   2.137   2.070   3.876 -0.0662  0.5669  0.3988
 8357SOL    HW136533   2.163   2.157   3.905  2.7467 -0.3256  0.6480
 8357SOL    HW236534   2.078   2.037   3.944  0.4676  0.5168  0.8378
 8358SOL     OW36535   4.075   0.832  11.685  0.0082 -0.3049 -0.1857
 8358SOL    HW136536   4.004   0.773  11.660  0.2754 -0.1081 -1.4121
 8358SOL    HW236537   4.118   0.843  11.600  0.3560  0.1227  0.0474
 8359SOL     OW36538   1.344   4.594   5.735  0.1380  0.0964 -0.2746
 8359SOL    HW136539   1.426   4.608   5.784  1.2335 -2.2015 -1.4766
 8359SOL    HW236540   1.363   4.507   5.701 -0.0368  0.2163 -0.6819
 8360SOL     OW36541   2.270   1.759   6.099 -0.0590  0.1194 -0.1583
 8360SOL    HW136542   2.248   1.774   6.007  2.1104  0.7228 -0.5881
 8360SOL    HW236543   2.184   1.738   6.134 -0.7615  2.8729 -0.2267
 8361SOL     OW36544   4.567   2.836   9.571 -0.0834 -0.0390  0.1120
 8361SOL    HW136545   4.569   2.925   9.537  2.3171 -1.3278 -3.2468
 8361SOL    HW236546   4.567   2.856   9.664  0.8097 -0.2733  0.1590
 8362SOL     OW36547   4.371   2.182   3.653 -0.2384 -0.1858 -0.4847
 8362SOL    HW136548   4.400   2.147   3.737 -1.3184  0.6503  0.2451
 8362SOL    HW236549   4.394   2.273   3.673 -1.4255  0.6369 -2.8155
 8363SOL     OW36550   0.390   1.155   3.413 -0.0551 -0.0200 -0.6466
 8363SOL    HW136551   0.322   1.218   3.387  1.3488  2.0351  0.6430
 8363SOL    HW236552   0.428   1.135   3.328 -0.6560  2.1034 -1.4185
 8364SOL     OW36553   3.642   4.120   0.390 -0.2553 -0.3617 -0.3921
 8364SOL    HW136554   3.550   4.144   0.398 -0.0614 -0.4594  2.1746
 8364SOL    HW236555   3.688   4.182   0.447 -0.9346 -0.2481  0.0402
 8365SOL     OW36556   0.501   4.304   3.962  0.3070 -0.2204 -0.0592
 8365SOL    HW136557   0.512   4.253   4.043  0.2448  0.5302  0.4215
 8365SOL    HW236558   0.442   4.369   4.001  0.0562 -1.2863  1.3454
 8366SOL     OW36559   3.375   1.070   7.414  0.5169  0.3569 -0.4843
 8366SOL    HW136560   3.459   1.099   7.451  0.7186 -0.1828 -0.5092
 8366SOL    HW236561   3.356   0.986   7.457 -4.0227  0.5220 -2.2011
 8367SOL     OW36562   0.496   0.151   8.703  0.2713  0.2904  0.1610
 8367SOL    HW136563   0.427   0.133   8.767 -0.8053 -2.4317 -1.7610
 8367SOL    HW236564   0.569   0.099   8.735 -2.2032 -2.4300  1.3573
 8368SOL     OW36565   3.072   0.736  12.794  0.0680  0.6940  0.5832
 8368SOL    HW136566   3.017   0.788  12.852 -1.3530  0.9405 -0.9790
 8368SOL    HW236567   3.093   0.656  12.842 -1.7413  0.9165  1.7532
 8369SOL     OW36568   4.170   4.283   3.494 -0.2393 -0.3196 -0.1928
 8369SOL    HW136569   4.171   4.355   3.431  0.6876 -0.9995 -0.9463
 8369SOL    HW236570   4.093   4.297   3.550 -0.6617 -2.2646 -0.2962
 8370SOL     OW36571   1.835   1.282   6.260 -0.2074 -0.6754  0.3158
 8370SOL    HW136572   1.901   1.346   6.289  0.4583 -1.1461 -0.1617
 8370SOL    HW236573   1.891   1.205   6.249  0.3288 -0.1589 -0.6183
 8371SOL     OW36574   3.545   1.490   4.248 -0.5382  0.3989  0.5678
 8371SOL    HW136575   3.570   1.399   4.236 -0.9663  0.5121 -1.1414
 8371SOL    HW236576   3.614   1.526   4.193  0.1298  0.1084  1.2159
 8372SOL     OW36577   4.152   4.551   1.769  0.1713  0.1727  0.4425
 8372SOL    HW136578   4.152   4.471   1.716 -1.9198 -2.7199  4.8004
 8372SOL    HW236579   4.230   4.539   1.823  0.6604  0.2892 -0.2415
 8373SOL     OW36580   1.488   0.557   3.386 -0.4777  0.4043 -0.3702
 8373SOL    HW136581   1.438   0.532   3.308 -0.0058  0.4521 -0.6898
 8373SOL    HW236582   1.457   0.644   3.411  0.2670  1.0010 -1.5123
 8374SOL     OW36583   0.700   2.259   8.581  0.2953 -0.1100  0.2731
 8374SOL    HW136584   0.681   2.248   8.488 -0.0051  2.1471  0.0672
 8374SOL    HW236585   0.772   2.196   8.579 -1.0832 -1.5683 -2.6122
 8375SOL     OW36586   0.982   4.307   2.651 -0.1856 -0.3509 -0.0286
 8375SOL    HW136587   0.930   4.236   2.689  1.4422 -0.6346  1.6811
 8375SOL    HW236588   1.019   4.353   2.727  1.6421  1.5326 -2.0856
 8376SOL     OW36589   3.264   0.255   6.254  0.3153 -0.0302 -0.1733
 8376SOL    HW136590   3.312   0.320   6.305  0.6158 -0.0896 -0.3759
 8376SOL    HW236591   3.222   0.321   6.200  2.0382 -1.0936 -2.8299
 8377SOL     OW36592   1.871   3.171   8.596  0.1069  0.2490  0.0203
 8377SOL    HW136593   1.796   3.214   8.636 -1.0531 -1.7613  0.0105
 8377SOL    HW236594   1.843   3.146   8.508 -0.0913 -1.4181  0.5644
 8378SOL     OW36595   4.417   3.832   5.150  0.0100  0.0316  0.0471
 8378SOL    HW136596   4.468   3.912   5.161 -1.1059  0.6891  0.4369
 8378SOL    HW236597   4.336   3.871   5.116 -1.5345 -2.8793  0.3284
 8379SOL     OW36598   3.311   0.800   4.434  0.1020  0.2802 -0.3110
 8379SOL    HW136599   3.342   0.779   4.346  1.7172  0.4077  0.2269
 8379SOL    HW236600   3.217   0.807   4.423  0.0486  3.0052  1.8370
 8380SOL     OW36601   0.072   2.945   6.532 -0.4273 -0.1689  0.0723
 8380SOL    HW136602   0.131   2.872   6.548 -0.1480 -0.5138 -2.4794
 8380SOL    HW236603   0.127   3.016   6.565  1.9639 -1.5454 -0.9675
 8381SOL     OW36604   3.750   1.491   2.654  0.2320 -0.2578 -0.0062
 8381SOL    HW136605   3.684   1.491   2.723  0.4884 -1.2926  0.2409
 8381SOL    HW236606   3.699   1.448   2.585  0.3903  1.4495 -1.1880
 8382SOL     OW36607   0.586   3.357  15.972 -0.7477 -0.3711  0.4961
 8382SOL    HW136608   0.491   3.350  15.982 -0.7185  0.0976  1.0762
 8382SOL    HW236609   0.595   3.440  16.019  0.5909 -1.6092  2.3890
 8383SOL     OW36610   0.620   3.153   6.410  0.0740 -0.2104  0.3728
 8383SOL    HW136611   0.576   3.194   6.485  1.6301 -1.5278  2.0218
 8383SOL    HW236612   0.682   3.218   6.378 -0.1374  0.9404  2.2921
 8384SOL     OW36613   3.785   1.173  12.929 -0.3057  0.1990 -0.6578
 8384SOL    HW136614   3.867   1.146  12.889 -0.9497  0.8231 -2.4324
 8384SOL    HW236615   3.737   1.090  12.927  0.2838 -0.1062 -1.9563
 8385SOL     OW36616   2.568   2.286   7.205  0.2128  0.2706 -0.0197
 8385SOL    HW136617   2.611   2.309   7.287  0.6571 -0.7633  0.0443
 8385SOL    HW236618   2.618   2.215   7.165  0.4080 -0.3685  1.3694
 8386SOL     OW36619   1.807   4.005   4.183  0.0846  0.9064  0.3277
 8386SOL    HW136620   1.901   3.993   4.165 -0.2242 -0.4162 -0.3996
 8386SOL    HW236621   1.767   4.020   4.097  1.1805 -2.9794 -0.8597
 8387SOL     OW36622   0.655   3.174   1.819  0.3898 -0.5914  0.1465
 8387SOL    HW136623   0.652   3.107   1.751  0.8622 -0.3829 -0.0726
 8387SOL    HW236624   0.599   3.126   1.881 -1.2390  1.2140  0.0681
 8388SOL     OW36625   3.053   3.448   3.998 -0.3625 -0.0469  0.4133
 8388SOL    HW136626   3.090   3.389   4.064 -1.6632  0.4321  1.5743
 8388SOL    HW236627   3.131   3.488   3.960  0.6889  0.4323  3.0767
 8389SOL     OW36628   1.363   0.954   8.558 -0.2793 -0.1144  0.0362
 8389SOL    HW136629   1.334   0.955   8.650  1.5621 -0.2537  0.6187
 8389SOL    HW236630   1.368   0.860   8.542  0.2884  0.1302 -1.2154
 8390SOL     OW36631   2.189   0.809   6.019 -1.1925  0.5695  0.4374
 8390SOL    HW136632   2.140   0.747   5.965  1.2840 -1.5724  0.6650
 8390SOL    HW236633   2.137   0.809   6.100 -0.7987 -1.8858  0.6830
 8391SOL     OW36634   2.561   0.403   4.352  0.1812 -0.0184 -0.4860
 8391SOL    HW136635   2.647   0.411   4.312 -0.3930  3.2560 -1.1161
 8391SOL    HW236636   2.576   0.397   4.447  0.0714  0.7335 -0.4183
 8392SOL     OW36637   4.673   3.530   2.728  0.8115  0.1003  0.2531
 8392SOL    HW136638   4.699   3.499   2.641  0.9472 -1.3674  0.8327
 8392SOL    HW236639   4.603   3.468   2.745 -0.3549  1.0833 -0.9340
 8393SOL     OW36640   1.664   1.837   5.981  0.1190  0.3917  0.5259
 8393SOL    HW136641   1.739   1.892   5.956  0.0298 -0.5929 -1.8969
 8393SOL    HW236642   1.593   1.900   5.994  0.7778  2.2060 -4.6461
 8394SOL     OW36643   0.672   3.234  12.656 -0.0520 -0.2677 -0.1776
 8394SOL    HW136644   0.616   3.241  12.578  2.5177  1.3974 -1.8953
 8394SOL    HW236645   0.740   3.174  12.627 -0.7485 -1.1417 -0.0190
 8395SOL     OW36646   2.938   1.790  11.820  0.1241 -0.2968  0.6083
 8395SOL    HW136647   2.963   1.850  11.891 -1.6367  2.7372 -1.3009
 8395SOL    HW236648   2.871   1.842  11.776  0.9584 -0.4348 -0.8234
 8396SOL     OW36649   1.150   0.773   8.364  0.1780 -0.2492  0.0506
 8396SOL    HW136650   1.230   0.751   8.410  0.0927  1.5976  1.0646
 8396SOL    HW236651   1.097   0.698   8.393 -3.2355  1.8828 -0.6053
 8397SOL     OW36652   2.395   1.117   1.711  0.2816  0.1884  0.0274
 8397SOL    HW136653   2.431   1.038   1.670  0.0383  0.0987 -0.0139
 8397SOL    HW236654   2.476   1.167   1.706  1.0347 -1.0131  0.0931
 8398SOL     OW36655   0.019   0.021  16.027 -0.6813  0.2387 -0.2692
 8398SOL    HW136656   0.076   4.719  15.954 -1.8455 -1.6957 -0.4799
 8398SOL    HW236657   0.081   0.049  16.094  0.5599  1.7411 -2.0464
 8399SOL     OW36658   2.273   4.458   8.120 -0.3182  0.3932 -0.2340
 8399SOL    HW136659   2.244   4.536   8.073  0.4181  0.9152  0.1856
 8399SOL    HW236660   2.223   4.397   8.066 -0.7589  1.0785 -0.6057
 8400SOL     OW36661   2.654   3.798  16.118  0.0286 -0.1343  0.0886
 8400SOL    HW136662   2.580   3.844  16.080  0.2541  0.0276 -0.1500
 8400SOL    HW236663   2.620   3.711  16.097 -0.3507 -0.6466  2.8063
 8401SOL     OW36664   3.737   3.180   5.832  0.1154 -0.1066  0.2906
 8401SOL    HW136665   3.665   3.135   5.877 -0.7947 -2.0324 -3.0646
 8401SOL    HW236666   3.721   3.145   5.744 -1.0355  1.0111  0.0564
 8402SOL     OW36667   0.461   1.981   8.432 -0.0825 -0.2062 -0.0043
 8402SOL    HW136668   0.521   1.965   8.505 -0.6816  0.1824  0.5700
 8402SOL    HW236669   0.441   1.890   8.408 -1.3187 -0.0118  0.2868
 8403SOL     OW36670   2.410   3.199   7.210 -0.2691  0.4398 -0.1527
 8403SOL    HW136671   2.382   3.186   7.301  2.9898 -1.8535  0.5240
 8403SOL    HW236672   2.478   3.265   7.224  1.4475 -1.3234 -0.2227
 8404SOL     OW36673   2.981   2.313   7.293 -0.6143  0.0431 -0.4516
 8404SOL    HW136674   2.921   2.379   7.261 -2.4413 -0.6803  1.5121
 8404SOL    HW236675   2.952   2.239   7.239  2.1893 -1.0237 -0.5492
 8405SOL     OW36676   0.905   0.544   0.796 -0.0542  0.1600 -0.3832
 8405SOL    HW136677   0.850   0.521   0.870  0.7616 -0.8959 -0.1151
 8405SOL    HW236678   0.840   0.587   0.740 -0.5997 -0.6251 -0.3623
 8406SOL     OW36679   0.228   1.787   8.743 -0.7274  0.1055 -0.3089
 8406SOL    HW136680   0.237   1.771   8.837 -0.8963 -0.2606 -0.3507
 8406SOL    HW236681   0.288   1.858   8.721 -0.2421 -0.4978 -0.9171
 8407SOL     OW36682   1.185   0.153  12.693 -0.0013  0.3928 -0.4037
 8407SOL    HW136683   1.138   0.072  12.671  0.7892 -0.9759  2.9215
 8407SOL    HW236684   1.174   0.133  12.786 -3.2650  3.1328 -0.2046
 8408SOL     OW36685   0.031   0.744  10.333 -0.0377  0.0273 -0.3916
 8408SOL    HW136686   0.060   0.672  10.276  1.6290  0.8398 -0.5658
 8408SOL    HW236687   4.709   0.696  10.402  1.2778 -0.5087  0.1136
 8409SOL     OW36688   0.245   4.678   4.343  0.0932 -0.0543 -0.0952
 8409SOL    HW136689   0.214   4.682   4.253  1.8282  2.2645 -0.5999
 8409SOL    HW236690   0.242   4.583   4.348  0.6008 -0.0343  0.6767
 8410SOL     OW36691   2.706   2.828   6.217  0.4198  0.0531  0.1994
 8410SOL    HW136692   2.682   2.739   6.242  0.2022 -0.3822 -1.5547
 8410SOL    HW236693   2.686   2.870   6.300  0.6892  0.4095  0.0831
 8411SOL     OW36694   3.980   2.092   2.632  0.4088 -0.2381 -0.3304
 8411SOL    HW136695   3.949   2.010   2.670  4.2587 -0.5239  2.1471
 8411SOL    HW236696   4.026   2.057   2.556 -0.9066  0.0533 -1.2563
 8412SOL     OW36697   0.788   2.522   8.977 -0.2773 -0.5274 -0.1438
 8412SOL    HW136698   0.700   2.560   8.985 -0.8081 -1.9901  0.9306
 8412SOL    HW236699   0.845   2.599   8.973 -2.3785  1.1766  3.4225
 8413SOL     OW36700   3.183   4.595   5.007  0.2793 -0.0191 -0.3005
 8413SOL    HW136701   3.165   4.680   5.048  2.0694  0.5992 -0.8158
 8413SOL    HW236702   3.253   4.557   5.060  0.3564 -2.8706 -2.4673
 8414SOL     OW36703   0.450   4.136   7.785  0.1250 -0.3910  0.3551
 8414SOL    HW136704   0.500   4.112   7.707 -0.8121  1.3072 -0.7640
 8414SOL    HW236705   0.506   4.213   7.802 -0.0602 -0.9093  3.3790
 8415SOL     OW36706   2.314   1.956   8.358  0.3299 -0.1887  0.3399
 8415SOL    HW136707   2.295   1.882   8.416 -2.6617  0.8895  0.7671
 8415SOL    HW236708   2.383   2.006   8.401  1.5926  1.4303 -3.5536
 8416SOL     OW36709   1.508   0.632   9.093 -0.0922 -0.3255  0.5889
 8416SOL    HW136710   1.515   0.623   8.998 -0.4467 -0.5250  0.5853
 8416SOL    HW236711   1.564   0.710   9.098  0.7493 -0.8817 -0.1951
 8417SOL     OW36712   3.140   3.608  11.674  0.3611 -0.1495 -0.5477
 8417SOL    HW136713   3.152   3.555  11.595 -0.2877  0.0999 -0.8117
 8417SOL    HW236714   3.210   3.673  11.670  0.8158 -0.5833  0.3387
 8418SOL     OW36715   2.689   3.241   4.314  0.1086  0.1990 -0.3201
 8418SOL    HW136716   2.696   3.170   4.250  0.5035 -1.0599  1.1099
 8418SOL    HW236717   2.702   3.318   4.259  1.1264  0.2334 -0.0404
 8419SOL     OW36718   2.957   2.705   5.119 -0.2759 -0.2859  0.1908
 8419SOL    HW136719   3.025   2.655   5.073 -0.9260 -0.9132 -0.0913
 8419SOL    HW236720   2.999   2.784   5.087  0.6180 -1.3269 -1.2323
 8420SOL     OW36721   0.849   0.149   7.104 -0.1356  0.1152 -0.5972
 8420SOL    HW136722   0.852   0.242   7.125 -3.7980  0.6924 -2.6717
 8420SOL    HW236723   0.928   0.134   7.051 -0.6272  0.8313 -1.5472
 8421SOL     OW36724   1.209   1.633   2.930  0.4903 -0.3386 -0.4995
 8421SOL    HW136725   1.247   1.719   2.947 -0.7785 -0.0671  0.9096
 8421SOL    HW236726   1.192   1.608   3.020 -4.7020 -0.2609 -1.4669
 8422SOL     OW36727   0.424   2.532   8.069  0.2644 -0.0305  0.7190
 8422SOL    HW136728   0.367   2.506   8.141 -0.4681 -0.0755  0.1169
 8422SOL    HW236729   0.372   2.610   8.049  0.3952 -0.5876 -1.7778
 8423SOL     OW36730   3.262   4.464   7.644  0.4208  0.2079 -0.3575
 8423SOL    HW136731   3.320   4.439   7.715  0.2674 -2.0526 -1.0427
 8423SOL    HW236732   3.327   4.483   7.576 -0.0201  1.7243 -0.3699
 8424SOL     OW36733   1.682   3.469   1.044  0.1814  0.3827 -0.1310
 8424SOL    HW136734   1.595   3.463   1.004  0.9468  0.2797 -1.7434
 8424SOL    HW236735   1.670   3.541   1.106  0.6942 -0.5203  1.0436
 8425SOL     OW36736   3.052   1.893   3.675 -0.1367 -0.3514 -0.3165
 8425SOL    HW136737   3.090   1.886   3.762 -3.0323 -3.8027  0.6838
 8425SOL    HW236738   3.115   1.831   3.637 -0.1743 -0.9321  0.5631
 8426SOL     OW36739   1.910   0.263  14.023 -0.3920 -0.1441  0.0812
 8426SOL    HW136740   1.901   0.216  13.940  0.9077  1.7529 -1.1180
 8426SOL    HW236741   1.860   0.203  14.078 -0.2555 -2.0245 -1.8576
 8427SOL     OW36742   4.143   4.189  11.683  0.2439 -0.2385  0.8376
 8427SOL    HW136743   4.089   4.163  11.758  0.7237  1.3992  1.7634
 8427SOL    HW236744   4.076   4.171  11.618 -0.7412  2.3144  1.1374
 8428SOL     OW36745   2.606   0.910  16.073 -0.2384  0.1806 -0.5666
 8428SOL    HW136746   2.681   0.960  16.042  0.8964 -1.2815 -0.1984
 8428SOL    HW236747   2.605   0.930  16.166  0.2566  0.5420 -0.6417
 8429SOL     OW36748   2.307   0.655   2.345  0.7227  0.1625 -0.2756
 8429SOL    HW136749   2.344   0.680   2.430 -0.0640  3.9860 -1.0833
 8429SOL    HW236750   2.388   0.673   2.298  0.5309 -0.4388 -0.8351
 8430SOL     OW36751   2.804   4.498  10.971  0.0433 -0.2516  0.2690
 8430SOL    HW136752   2.786   4.556  11.045  0.7294 -0.0984  0.3164
 8430SOL    HW236753   2.860   4.431  11.011  2.3651  1.2953 -0.4023
 8431SOL     OW36754   1.658   1.864  11.688 -0.0860 -0.0389  0.0732
 8431SOL    HW136755   1.598   1.843  11.617  0.3510 -0.3120 -0.2153
 8431SOL    HW236756   1.648   1.781  11.734 -0.3398 -0.8396 -1.4164
 8432SOL     OW36757   2.759   3.224  17.354  0.3764 -0.2929 -0.4586
 8432SOL    HW136758   2.814   3.290  17.312  1.3976 -0.6556  0.3120
 8432SOL    HW236759   2.703   3.272  17.414 -0.2148 -0.5844 -0.7772
 8433SOL     OW36760   2.141   0.433   5.840 -0.1091  0.3026 -0.0737
 8433SOL    HW136761   2.076   0.485   5.888 -1.4556 -2.0646  0.6792
 8433SOL    HW236762   2.202   0.413   5.911  1.5515 -0.7716 -1.7820
 8434SOL     OW36763   3.557   4.622   8.318 -0.0717  0.1337  0.0777
 8434SOL    HW136764   3.578   4.529   8.330  0.4341  0.3435  0.8305
 8434SOL    HW236765   3.590   4.644   8.231 -1.1277 -2.5391 -1.0038
 8435SOL     OW36766   0.156   2.932   2.609  0.0211 -0.0545  0.4816
 8435SOL    HW136767   0.177   2.944   2.702 -0.5806 -0.3805  0.6642
 8435SOL    HW236768   0.247   2.928   2.581  0.3609  0.8605  1.4276
 8436SOL     OW36769   3.396   0.244   2.743  0.4586  0.5665 -0.1855
 8436SOL    HW136770   3.410   0.151   2.757  1.1955  1.0318  2.0509
 8436SOL    HW236771   3.436   0.280   2.822  4.1027 -1.7533 -0.9631
 8437SOL     OW36772   1.154   3.012   3.368 -0.0532 -0.0264  0.5130
 8437SOL    HW136773   1.203   3.093   3.383  1.5125 -0.9095  0.0948
 8437SOL    HW236774   1.143   3.012   3.273  1.1276 -2.3331  0.3884
 8438SOL     OW36775   2.121   1.980  14.633  0.7643  0.1935  0.1814
 8438SOL    HW136776   2.109   1.886  14.617  0.6895  0.3026 -0.3894
 8438SOL    HW236777   2.036   2.009  14.601  0.0891 -2.2828 -0.2585
 8439SOL     OW36778   2.118   3.846   4.383 -0.2619  0.1464  0.7850
 8439SOL    HW136779   2.076   3.775   4.335  2.0256  0.1003 -1.1664
 8439SOL    HW236780   2.203   3.844   4.338 -1.1670  0.3803 -0.9296
 8440SOL     OW36781   3.651   4.493   9.773  0.2434  0.6163 -0.4572
 8440SOL    HW136782   3.655   4.582   9.738 -1.2214  0.6071 -0.6290
 8440SOL    HW236783   3.556   4.492   9.783  0.4527 -0.1573  1.5855
 8441SOL     OW36784   3.959   2.704   7.484 -0.0827 -0.2782 -0.0290
 8441SOL    HW136785   3.922   2.649   7.416  0.0496  0.0155 -0.3379
 8441SOL    HW236786   3.997   2.640   7.544 -0.5140 -1.3256 -0.8768
 8442SOL     OW36787   0.019   2.259   2.037  0.2852  0.1993  0.1599
 8442SOL    HW136788   4.654   2.262   2.001  0.3292  4.0870  0.4225
 8442SOL    HW236789   4.719   2.272   2.129 -0.9303  2.3692 -0.4689
 8443SOL     OW36790   4.040   2.652  15.285  0.2345  0.0140 -0.7889
 8443SOL    HW136791   4.017   2.604  15.364 -0.9134  2.4920  0.3774
 8443SOL    HW236792   3.957   2.642  15.238  0.3100  1.0747 -1.1549
 8444SOL     OW36793   3.684   0.558   8.941  0.1975 -0.3435  0.6869
 8444SOL    HW136794   3.707   0.570   9.033 -0.0757  1.4566  0.5088
 8444SOL    HW236795   3.653   0.646   8.919  0.1725 -0.0553  1.8609
 8445SOL     OW36796   0.680   4.717   8.130  1.0247  0.3907  0.5685
 8445SOL    HW136797   0.760   0.011   8.080  1.2154 -0.2094  0.6639
 8445SOL    HW236798   0.716   4.666   8.202  0.7313  0.0667  0.4835
 8446SOL     OW36799   2.823   2.451   8.047 -0.2734 -0.4927  0.0425
 8446SOL    HW136800   2.791   2.370   8.006 -2.6302  0.5587 -0.2129
 8446SOL    HW236801   2.876   2.477   7.972 -1.1932  0.9222 -0.1188
 8447SOL     OW36802   4.133   1.599   5.148  0.3712  0.6342 -0.3112
 8447SOL    HW136803   4.175   1.675   5.189  0.8592 -0.9204  2.0096
 8447SOL    HW236804   4.100   1.638   5.066  0.4963 -1.9814 -1.5882
 8448SOL     OW36805   1.752   4.094  16.651 -0.4598 -0.3453 -0.4208
 8448SOL    HW136806   1.768   4.045  16.570 -3.4324 -2.4446  0.2254
 8448SOL    HW236807   1.659   4.113  16.637  0.2188  2.0304 -1.6435
 8449SOL     OW36808   2.415   1.141   7.727 -0.5743  0.1295  0.0398
 8449SOL    HW136809   2.501   1.127   7.686 -0.2139 -0.1583  0.8928
 8449SOL    HW236810   2.430   1.217   7.783  2.5228 -1.0255  0.7954
 8450SOL     OW36811   1.726   1.892   7.085 -0.0419  0.1514  0.6632
 8450SOL    HW136812   1.634   1.872   7.069 -0.3428  1.5358  0.7016
 8450SOL    HW236813   1.777   1.819   7.049 -1.2088  0.9438 -2.5203
 8451SOL     OW36814   2.098   3.520  16.726 -0.1732  0.2707 -0.1298
 8451SOL    HW136815   2.033   3.564  16.781 -1.2911 -0.4444 -0.8938
 8451SOL    HW236816   2.178   3.544  16.773  0.3227 -1.3204 -0.1702
 8452SOL     OW36817   0.120   1.800   9.965 -0.1386 -0.0205 -0.3154
 8452SOL    HW136818   0.166   1.876   9.928 -1.7187  0.1984 -1.8281
 8452SOL    HW236819   0.041   1.848   9.990  1.4376  2.4281  0.0091
 8453SOL     OW36820   2.239   0.682   7.741 -0.6126  0.1603  0.3679
 8453SOL    HW136821   2.210   0.625   7.811 -1.1390  0.5373  0.4533
 8453SOL    HW236822   2.250   0.766   7.786  2.3184 -1.0806  1.9424
 8454SOL     OW36823   1.412   0.548  17.628  0.3641  0.2671 -0.3487
 8454SOL    HW136824   1.491   0.495  17.633 -0.7299 -1.2658  0.8102
 8454SOL    HW236825   1.385   0.540   0.024 -0.4353 -0.2487 -0.6288
 8455SOL     OW36826   2.260   0.496   1.369 -0.0424  0.3518 -0.5353
 8455SOL    HW136827   2.247   0.530   1.280 -1.2822  0.3372 -0.3655
 8455SOL    HW236828   2.274   0.575   1.422  0.2500  0.3375 -0.5890
 8456SOL     OW36829   0.153   1.094   5.614 -0.0733 -0.6792  0.0397
 8456SOL    HW136830   0.127   1.093   5.522  1.2130 -2.6533 -0.3028
 8456SOL    HW236831   0.082   1.044   5.655 -0.2806 -1.0337 -0.7621
 8457SOL     OW36832   2.935   1.676  10.494  0.4528  0.5943  0.0015
 8457SOL    HW136833   2.987   1.663  10.415  0.8999 -1.7298  0.6818
 8457SOL    HW236834   2.945   1.598  10.549  0.0345  0.7522  0.3064
 8458SOL     OW36835   4.501   4.281   4.197  0.0226 -0.0117  0.0088
 8458SOL    HW136836   4.485   4.210   4.259 -2.6914  0.2429 -0.4213
 8458SOL    HW236837   4.575   4.237   4.154  2.1450  1.1980  2.4349
 8459SOL     OW36838   2.224   2.583   8.880 -0.4278 -0.5446 -0.4536
 8459SOL    HW136839   2.312   2.606   8.908 -1.1938  0.2012  1.3258
 8459SOL    HW236840   2.195   2.567   8.970  0.0624 -1.7991 -0.5173
 8460SOL     OW36841   2.736   4.554   6.627  0.4514  0.5390  0.2392
 8460SOL    HW136842   2.765   4.472   6.665 -0.2614  0.1296 -0.1014
 8460SOL    HW236843   2.806   4.609   6.663  1.3613  0.4257 -1.3792
 8461SOL     OW36844   4.540   0.666   8.292  0.5082 -0.2147  0.0432
 8461SOL    HW136845   4.528   0.728   8.219 -1.1220 -2.2421 -1.4212
 8461SOL    HW236846   4.492   0.585   8.277  0.9645 -1.0066  2.9121
 8462SOL     OW36847   0.830   1.484  17.371  0.1386  0.0593  0.1949
 8462SOL    HW136848   0.899   1.511  17.311  0.0151 -1.2976 -0.5526
 8462SOL    HW236849   0.853   1.394  17.395 -0.0842 -0.0293  0.0798
 8463SOL     OW36850   3.918   2.724   5.887  0.1208  0.1449 -0.1434
 8463SOL    HW136851   3.940   2.632   5.900  1.1961  0.2387 -1.2557
 8463SOL    HW236852   3.936   2.729   5.793 -0.5909  0.7462 -0.2512
 8464SOL     OW36853   1.549   4.718   7.898 -0.4751  0.2969  0.3166
 8464SOL    HW136854   1.566   4.625   7.881 -0.4895  0.8243 -2.5459
 8464SOL    HW236855   1.480   0.000   7.832 -0.2216  0.4787  0.0644
 8465SOL     OW36856   4.629   2.965   9.783 -0.0901 -0.6489 -0.4328
 8465SOL    HW136857   4.653   2.902   9.851 -0.6961 -2.9874 -2.3701
 8465SOL    HW236858   4.600   3.039   9.837 -1.6921  0.1666 -2.3869
 8466SOL     OW36859   1.891   3.588   5.816 -0.5646 -0.4043 -0.0770
 8466SOL    HW136860   1.933   3.502   5.809 -1.8668 -1.1396  1.2946
 8466SOL    HW236861   1.958   3.645   5.855  2.0718 -1.0986 -3.5361
 8467SOL     OW36862   3.125   1.482   7.932  0.7132 -0.2215 -0.0694
 8467SOL    HW136863   3.139   1.388   7.919 -2.4353 -0.5735 -0.9624
 8467SOL    HW236864   3.210   1.518   7.908  0.1270  0.8679 -0.5144
 8468SOL     OW36865   0.007   3.515  13.236  0.4008  0.4878 -0.5882
 8468SOL    HW136866   4.685   3.590  13.276  0.3483  0.3908 -0.4675
 8468SOL    HW236867   0.042   3.563  13.161  0.0798  0.9793 -0.4295
 8469SOL     OW36868   0.783   1.006  13.948  0.7268  0.5440 -0.5399
 8469SOL    HW136869   0.872   0.975  13.967 -0.1587  1.3997  5.1117
 8469SOL    HW236870   0.751   0.942  13.885  0.0716 -0.1539  0.5100
 8470SOL     OW36871   3.928   4.589  10.994 -0.1058  0.3726 -0.1399
 8470SOL    HW136872   4.017   4.577  10.960 -0.7502  3.3628 -2.8662
 8470SOL    HW236873   3.950   4.640  11.072 -0.2170  0.9845 -0.5115
 8471SOL     OW36874   2.299   4.114  12.042 -0.2946 -0.1571  0.3799
 8471SOL    HW136875   2.256   4.190  12.004  0.2209  0.2560  0.6151
 8471SOL    HW236876   2.270   4.117  12.133  0.5866 -1.9607  0.7287
 8472SOL     OW36877   3.971   3.899   3.232  0.4047  0.6470  0.2453
 8472SOL    HW136878   3.908   3.831   3.208  0.0125  0.9390  0.4273
 8472SOL    HW236879   4.044   3.851   3.271  0.6187  0.8782  0.1249
 8473SOL     OW36880   2.562   3.757   3.278  0.2948  0.2057 -0.2934
 8473SOL    HW136881   2.596   3.839   3.241  0.4895  0.7682  1.1125
 8473SOL    HW236882   2.478   3.776   3.320  0.6067  2.3234 -0.6004
 8474SOL     OW36883   4.691   0.261  12.648 -0.5197  0.3550  0.3262
 8474SOL    HW136884   4.614   0.207  12.666  0.8235 -0.6037  3.1711
 8474SOL    HW236885   4.657   0.320  12.581 -1.0942 -0.7634 -0.3793
 8475SOL     OW36886   3.189   1.585   9.230  0.7532 -0.0385  0.5369
 8475SOL    HW136887   3.267   1.530   9.223  0.6706 -0.2846  1.6945
 8475SOL    HW236888   3.203   1.655   9.166 -0.3992  0.5931  0.9881
 8476SOL     OW36889   3.139   1.650  10.672 -0.0208  0.2415  0.2725
 8476SOL    HW136890   3.205   1.613  10.613  1.1328  1.5315  0.7803
 8476SOL    HW236891   3.121   1.727  10.618  1.9839  1.5236  1.4716
 8477SOL     OW36892   1.849   2.856   8.040 -0.2322 -0.1621  0.0972
 8477SOL    HW136893   1.790   2.836   8.112 -1.4673  2.7768 -0.0916
 8477SOL    HW236894   1.782   2.898   7.987  1.5201  0.3964 -1.7008
 8478SOL     OW36895   1.823   3.445   3.790 -0.0194 -0.2340 -0.6722
 8478SOL    HW136896   1.759   3.468   3.723 -1.7647 -0.4328  0.9254
 8478SOL    HW236897   1.899   3.415   3.739  1.8284 -0.4156  2.2068
 8479SOL     OW36898   3.564   1.837   2.689  0.3626  0.1328  0.0162
 8479SOL    HW136899   3.590   1.862   2.601  2.6957  1.8951  1.1938
 8479SOL    HW236900   3.653   1.831   2.725  1.0015 -0.2136 -1.6587
 8480SOL     OW36901   2.837   1.017   0.831  0.7219  0.1936 -0.0479
 8480SOL    HW136902   2.787   1.010   0.912 -1.4294  0.4627 -1.3657
 8480SOL    HW236903   2.774   1.006   0.760  1.6379 -1.7575 -0.5668
 8481SOL     OW36904   4.342   1.501   7.390  0.6132  0.1292  0.0992
 8481SOL    HW136905   4.367   1.482   7.300  1.1148 -0.1973  0.3023
 8481SOL    HW236906   4.276   1.569   7.378  2.7029  2.4112  1.4085
 8482SOL     OW36907   0.215   1.734   2.040  0.4142  0.7724 -0.1531
 8482SOL    HW136908   0.200   1.653   1.992  1.7540  1.0009 -0.9690
 8482SOL    HW236909   0.310   1.725   2.054  0.7708  0.5759 -2.8114
 8483SOL     OW36910   1.932   2.355   6.365 -0.0521 -0.1510  0.3987
 8483SOL    HW136911   1.913   2.393   6.451  1.6179  2.6221 -0.4609
 8483SOL    HW236912   1.980   2.275   6.386  0.7986  0.1518 -0.4016
 8484SOL     OW36913   3.034   3.208   3.172 -0.7558  0.0518  0.2371
 8484SOL    HW136914   3.108   3.170   3.220 -0.8659 -1.6037 -0.9081
 8484SOL    HW236915   3.095   3.265   3.125  2.8459 -2.5808  1.6707
 8485SOL     OW36916   2.661   1.346   0.032  0.7656 -0.4959  0.0595
 8485SOL    HW136917   2.746   1.387   0.049 -0.3867  2.4537 -1.3115
 8485SOL    HW236918   2.687   1.282  17.662  0.5046 -1.2046  0.6505
 8486SOL     OW36919   1.102   3.051   9.153 -0.0642 -0.2986  0.0126
 8486SOL    HW136920   1.123   3.027   9.243  0.5422  0.3412  0.0447
 8486SOL    HW236921   1.187   3.063   9.112  0.9533 -2.0806  1.5760
 8487SOL     OW36922   0.409   3.646   7.527 -0.2036 -0.4365 -0.3280
 8487SOL    HW136923   0.372   3.619   7.443 -0.0363  0.4908 -0.7067
 8487SOL    HW236924   0.503   3.638   7.511 -0.2487 -0.1653 -0.7390
 8488SOL     OW36925   4.193   4.423  13.077 -0.3568  0.3915  0.2362
 8488SOL    HW136926   4.264   4.401  13.138 -0.0957  2.2171  0.6069
 8488SOL    HW236927   4.115   4.422  13.133  0.8947 -0.7269  1.9557
 8489SOL     OW36928   3.095   1.922   5.401  0.2144  0.2199 -0.3138
 8489SOL    HW136929   3.170   1.863   5.390  0.9876  0.8698  1.4103
 8489SOL    HW236930   3.129   1.998   5.354  1.0914  0.0528  0.0517
 8490SOL     OW36931   3.441   4.218   6.697 -0.1388 -0.4415  0.0308
 8490SOL    HW136932   3.400   4.216   6.611  1.0439 -0.3179 -0.5354
 8490SOL    HW236933   3.385   4.170   6.758  0.0038 -2.4193 -1.4198
 8491SOL     OW36934   4.721   3.724   4.648  0.1341 -0.4090 -0.3581
 8491SOL    HW136935   0.042   3.714   4.733  1.0439 -0.4246 -0.8370
 8491SOL    HW236936   4.678   3.638   4.649 -2.1959  0.7729 -0.9644
 8492SOL     OW36937   0.759   3.216   5.216 -0.7103 -0.2704  0.3472
 8492SOL    HW136938   0.707   3.289   5.183 -0.3262 -0.9797 -1.8549
 8492SOL    HW236939   0.824   3.207   5.147  0.7712  2.3081  1.4294
 8493SOL     OW36940   4.673   3.747   0.690 -0.0982 -0.3746  0.5178
 8493SOL    HW136941   4.685   3.766   0.597 -4.5734  0.5673  0.1163
 8493SOL    HW236942   0.038   3.749   0.726 -0.2297 -0.4639  0.8500
 8494SOL     OW36943   2.789   0.727  11.661 -0.5167  0.1538 -0.2790
 8494SOL    HW136944   2.799   0.643  11.707  2.6301  0.2605 -0.7721
 8494SOL    HW236945   2.761   0.693  11.576 -0.0575  0.7794 -0.6828
 8495SOL     OW36946   0.185   3.986   3.410  0.3586 -0.1445 -0.1101
 8495SOL    HW136947   0.105   3.933   3.401  1.1971 -1.6127  1.1057
 8495SOL    HW236948   0.233   3.965   3.329  0.1403  2.4832 -0.9070
 8496SOL     OW36949   3.482   2.022   2.943  0.4664  0.5459 -0.1563
 8496SOL    HW136950   3.399   1.978   2.962 -0.4305  1.7316 -1.3882
 8496SOL    HW236951   3.455   2.056   2.857  2.2908  0.3137 -0.8178
 8497SOL     OW36952   2.779   0.240   3.092  0.3627  0.2732  0.1993
 8497SOL    HW136953   2.750   0.169   3.148 -3.9236  1.4045 -0.6170
 8497SOL    HW236954   2.872   0.245   3.114  0.1701 -0.6982  1.1904
 8498SOL     OW36955   2.467   3.274   6.652 -0.6124 -0.3946  0.1877
 8498SOL    HW136956   2.406   3.200   6.657  1.6125 -2.3882 -2.3271
 8498SOL    HW236957   2.485   3.275   6.558  0.3581 -2.1090  0.3689
 8499SOL     OW36958   4.103   1.245   5.790  0.4943 -0.3634  0.2296
 8499SOL    HW136959   4.160   1.320   5.806 -0.3128 -0.1559  2.1535
 8499SOL    HW236960   4.142   1.217   5.707  0.7503 -2.0857  0.9394
 8500SOL     OW36961   3.305   0.877   8.472 -0.5267 -0.3182 -0.0027
 8500SOL    HW136962   3.301   0.841   8.561 -2.2888 -1.0896 -0.4100
 8500SOL    HW236963   3.258   0.822   8.410  0.7885 -0.2717 -1.0440
 8501SOL     OW36964   0.678   3.083   8.623  0.3408 -0.4881  0.6849
 8501SOL    HW136965   0.584   3.099   8.619  0.8331  2.4835  1.2534
 8501SOL    HW236966   0.710   3.150   8.683 -1.1960  0.3838  0.5260
 8502SOL     OW36967   3.173   4.393   2.035 -0.5828  0.3580 -0.2171
 8502SOL    HW136968   3.234   4.342   1.983 -0.3325  0.4683 -0.0323
 8502SOL    HW236969   3.117   4.435   1.969 -1.7508 -0.1654  0.4354
 8503SOL     OW36970   4.591   0.171   2.675 -0.5828 -0.1454 -0.1990
 8503SOL    HW136971   4.623   0.138   2.759  2.7934  3.8133  0.0905
 8503SOL    HW236972   4.550   0.254   2.700  0.1363 -0.2420  1.2804
 8504SOL     OW36973   2.930   4.537  15.620 -0.0652 -0.4917 -0.4001
 8504SOL    HW136974   2.855   4.524  15.677  0.1852  1.6159  0.3877
 8504SOL    HW236975   2.907   4.475  15.550 -2.9735  0.5371 -0.3663
 8505SOL     OW36976   1.042   1.379   8.748  0.1208 -0.1805  0.5882
 8505SOL    HW136977   1.126   1.372   8.703  0.8069  0.2400  1.7832
 8505SOL    HW236978   1.054   1.456   8.804 -1.3964  1.4370 -1.3229
 8506SOL     OW36979   3.068   0.201   5.622 -0.2700  0.3091 -0.7084
 8506SOL    HW136980   3.155   0.238   5.638 -0.7681  1.2306 -0.1627
 8506SOL    HW236981   3.083   0.111   5.649 -1.4701  0.0395 -0.9458
 8507SOL     OW36982   3.396   0.483   5.166  0.2958  0.2679  0.1988
 8507SOL    HW136983   3.487   0.511   5.151 -0.3384  2.0658 -0.2205
 8507SOL    HW236984   3.353   0.523   5.091  0.4066  1.1342  0.5908
 8508SOL     OW36985   4.429   2.366   9.648 -0.4313 -0.4988  0.0394
 8508SOL    HW136986   4.373   2.340   9.575 -1.3874 -0.3255  0.6959
 8508SOL    HW236987   4.507   2.395   9.602 -0.2053  1.0173  1.3686
 8509SOL     OW36988   1.393   3.526   6.999  0.9846  0.3090 -0.1217
 8509SOL    HW136989   1.367   3.466   7.070  1.1422 -0.3415 -0.6203
 8509SOL    HW236990   1.364   3.611   7.034  0.2316 -0.9147  2.2539
 8510SOL     OW36991   2.878   1.695   0.130  0.4491 -0.4514  0.6104
 8510SOL    HW136992   2.915   1.612   0.099  0.2810 -0.4562  0.4190
 8510SOL    HW236993   2.854   1.719   0.040  0.9020 -1.5702  0.1859
 8511SOL     OW36994   2.544   1.633   4.946  0.0163 -0.2124 -0.0974
 8511SOL    HW136995   2.478   1.689   4.987 -0.1738  0.5253 -1.3954
 8511SOL    HW236996   2.620   1.645   5.004 -0.2197 -0.8337  0.3455
 8512SOL     OW36997   0.784   3.397  11.378  0.1027 -0.1040  0.2636
 8512SOL    HW136998   0.788   3.488  11.348 -1.1548  0.4059  1.6257
 8512SOL    HW236999   0.797   3.350  11.296 -2.4512 -0.9244  0.3279
 8513SOL     OW37000   0.230   1.209   9.771  0.5437  0.1070 -0.4561
 8513SOL    HW137001   0.183   1.290   9.790  1.2150  0.5687 -0.7976
 8513SOL    HW237002   0.156   1.151   9.750 -0.1870  0.6443  0.6564
 8514SOL     OW37003   1.333   0.909  10.971  0.0558 -0.1496  0.9735
 8514SOL    HW137004   1.426   0.925  10.950 -0.1130 -1.5477 -0.8149
 8514SOL    HW237005   1.302   0.961  10.897 -2.2834 -0.7193  1.5771
 8515SOL     OW37006   4.708   1.789   8.604  0.3233  0.5506 -0.1641
 8515SOL    HW137007   0.050   1.790   8.673  1.2265  0.6741 -1.0199
 8515SOL    HW237008   4.640   1.852   8.629  0.4207 -0.6014  2.9768
 8516SOL     OW37009   0.425   3.208  10.691 -0.3217 -0.3286  0.3471
 8516SOL    HW137010   0.400   3.121  10.722  2.9040 -1.0680  0.7838
 8516SOL    HW237011   0.365   3.252  10.752 -0.0026  1.6487 -0.7727
 8517SOL     OW37012   3.175   4.462   3.148  0.0318  0.1109 -0.0748
 8517SOL    HW137013   3.232   4.496   3.080 -1.3653  1.9638 -0.3051
 8517SOL    HW237014   3.229   4.388   3.176  1.4091  1.2805  0.3616
 8518SOL     OW37015   0.895   1.886   8.169  0.1027  0.2129 -0.4621
 8518SOL    HW137016   0.862   1.967   8.129 -1.1832 -0.2880 -0.4127
 8518SOL    HW237017   0.830   1.867   8.236  0.7291  0.3374  0.1848
 8519SOL     OW37018   2.585   3.492   4.927  0.2973 -0.3841  0.0992
 8519SOL    HW137019   2.495   3.521   4.935  0.4895  0.7532 -2.0056
 8519SOL    HW237020   2.617   3.497   5.017  1.3760 -0.4455 -0.2804
 8520SOL     OW37021   1.666   0.925   5.675 -0.6005  0.0874  0.7101
 8520SOL    HW137022   1.687   0.833   5.690 -0.7625 -0.0854 -0.1378
 8520SOL    HW237023   1.573   0.912   5.691 -0.8799  1.9488  0.6468
 8521SOL     OW37024   3.624   4.613   3.484 -0.2257 -0.7982  0.2486
 8521SOL    HW137025   3.650   4.632   3.394  0.1501 -0.9651  0.3201
 8521SOL    HW237026   3.653   4.521   3.484  0.3342 -0.6279  0.8784
 8522SOL     OW37027   4.076   0.015   6.400 -0.3099 -0.3112 -0.0477
 8522SOL    HW137028   4.081   4.699   6.487 -1.3945 -0.4573 -0.0499
 8522SOL    HW237029   4.154   0.070   6.405 -0.0139 -0.6717 -0.7120
 8523SOL     OW37030   2.338   3.179   4.202  0.0786  0.5956  0.1480
 8523SOL    HW137031   2.413   3.199   4.147  0.0092 -1.3237 -0.6659
 8523SOL    HW237032   2.270   3.179   4.135  1.7666 -1.6004 -1.5845
 8524SOL     OW37033   0.061   2.240   6.876  0.2360  0.3617 -0.2915
 8524SOL    HW137034   0.038   2.323   6.917 -2.2553 -0.2731 -0.4156
 8524SOL    HW237035   0.000   2.230   6.802 -3.4097 -0.4271  2.8046
 8525SOL     OW37036   2.672   1.035  13.115  0.5508  0.0602  0.3471
 8525SOL    HW137037   2.675   0.983  13.034 -0.0730  0.7073 -0.0867
 8525SOL    HW237038   2.579   1.057  13.116  0.7481  0.9405 -0.5909
 8526SOL     OW37039   2.972   0.057   9.790  0.2393 -0.3073 -0.0449
 8526SOL    HW137040   2.928   0.142   9.788  2.4831  0.8099 -1.1469
 8526SOL    HW237041   2.978   0.055   9.886  0.3458 -4.0417 -0.1075
 8527SOL     OW37042   1.406   1.718   5.930 -0.7300  0.4613  0.6264
 8527SOL    HW137043   1.496   1.749   5.941 -0.5159  0.3465 -0.8325
 8527SOL    HW237044   1.400   1.729   5.835 -0.4738  3.4884  0.9522
 8528SOL     OW37045   3.005   1.072   5.990 -0.7428  0.8750 -0.7431
 8528SOL    HW137046   2.976   0.990   6.030  0.4796  0.7697 -0.0614
 8528SOL    HW237047   2.928   1.125   6.008  0.0260  1.1378  1.7249
 8529SOL     OW37048   4.093   4.535   3.367  0.4923  0.1080 -0.5307
 8529SOL    HW137049   4.105   4.574   3.454 -0.6065 -0.3451 -0.1848
 8529SOL    HW237050   4.184   4.540   3.337  0.2838 -0.2454 -1.2179
 8530SOL     OW37051   4.038   3.571  15.507 -0.7903  0.4357  0.5827
 8530SOL    HW137052   4.021   3.477  15.519  1.4245 -0.0597 -0.2631
 8530SOL    HW237053   4.048   3.608  15.594 -0.0448 -0.0693  0.7138
 8531SOL     OW37054   4.131   1.029   3.571 -0.3561 -0.0146  0.6997
 8531SOL    HW137055   4.053   1.007   3.520 -0.3908 -0.4209  0.9186
 8531SOL    HW237056   4.162   1.108   3.528  0.1320 -1.4365 -1.5821
 8532SOL     OW37057   2.782   3.041  12.894 -0.2909 -0.6286  0.0161
 8532SOL    HW137058   2.764   2.951  12.924  1.1066 -1.0824 -0.4836
 8532SOL    HW237059   2.864   3.021  12.849 -1.1918 -4.3502  0.0298
 8533SOL     OW37060   3.980   3.223   7.572 -0.3876  0.5521  0.2090
 8533SOL    HW137061   4.005   3.135   7.545 -1.0641  0.4084  0.0470
 8533SOL    HW237062   4.036   3.276   7.515 -1.2752  0.7853 -0.4523
 8534SOL     OW37063   0.860   1.131   4.654  0.7228  0.1530 -0.2653
 8534SOL    HW137064   0.848   1.040   4.627  0.0539  0.6778 -1.7053
 8534SOL    HW237065   0.774   1.149   4.691  0.7476 -0.5154  0.1141
 8535SOL     OW37066   4.221   4.534   6.265  0.0492  0.2301  0.0594
 8535SOL    HW137067   4.155   4.596   6.296 -0.3454  0.5227 -1.3356
 8535SOL    HW237068   4.171   4.460   6.230  0.5733  0.1902 -0.6099
 8536SOL     OW37069   0.398   0.961  16.931  0.0546 -0.6856 -0.1475
 8536SOL    HW137070   0.328   0.910  16.972  0.6285 -0.9129  0.5510
 8536SOL    HW237071   0.472   0.901  16.933  0.7738  0.2385  1.2404
 8537SOL     OW37072   2.696   2.580   6.010  0.1328  0.3513  0.0899
 8537SOL    HW137073   2.654   2.662   5.984 -0.2100  1.0191  2.7031
 8537SOL    HW237074   2.691   2.590   6.105 -0.3205 -1.1516  0.2275
 8538SOL     OW37075   3.497   4.621   2.343  0.3477  0.0366 -0.2546
 8538SOL    HW137076   3.535   4.705   2.369 -0.8966  0.4542  0.2693
 8538SOL    HW237077   3.507   4.634   2.249 -1.4088  1.5821 -0.2289
 8539SOL     OW37078   2.772   1.464   6.335 -0.1644 -0.3281  0.0128
 8539SOL    HW137079   2.801   1.472   6.244  0.5040  0.0476  0.2621
 8539SOL    HW237080   2.684   1.501   6.337 -0.7203 -1.7515  1.7880
 8540SOL     OW37081   2.553   1.929   4.448 -0.4643 -0.3918  0.1942
 8540SOL    HW137082   2.604   1.878   4.385 -0.9990 -0.1980 -0.3999
 8540SOL    HW237083   2.579   1.884   4.528  0.2622 -2.5553 -1.2657
 8541SOL     OW37084   2.284   1.066   8.316  0.1004 -0.2665  0.3502
 8541SOL    HW137085   2.231   1.114   8.253  1.5286 -0.0364 -0.6909
 8541SOL    HW237086   2.226   1.029   8.382 -0.0257  0.0917  0.4377
 8542SOL     OW37087   1.240   0.851   6.901 -0.2779 -0.5822 -0.0632
 8542SOL    HW137088   1.171   0.797   6.863 -1.7176 -1.1871  3.3698
 8542SOL    HW237089   1.274   0.789   6.965  0.5747  1.2729  1.2920
 8543SOL     OW37090   0.445   3.933   5.139 -0.5008 -0.8936 -0.0732
 8543SOL    HW137091   0.453   3.864   5.205  0.0882  0.1187  0.9171
 8543SOL    HW237092   0.443   3.879   5.060  0.2970 -0.6792 -0.2446
 8544SOL     OW37093   3.321   1.982   8.559 -0.0061 -0.2205 -0.5140
 8544SOL    HW137094   3.386   2.050   8.573 -2.9470  1.9992  2.3811
 8544SOL    HW237095   3.373   1.903   8.572  1.5421  1.1676  1.6632
 8545SOL     OW37096   3.006   2.974   6.234 -0.0749  0.0476 -0.1858
 8545SOL    HW137097   2.988   3.010   6.321  1.1538  2.3325 -0.8529
 8545SOL    HW237098   3.017   2.885   6.267  0.7587 -0.5775 -2.1553
 8546SOL     OW37099   3.905   0.737   5.215 -0.3065 -0.4816 -0.2510
 8546SOL    HW137100   3.949   0.792   5.280 -0.1862 -1.6437  0.6437
 8546SOL    HW237101   3.913   0.790   5.136  2.1105  1.7174  1.4882
 8547SOL     OW37102   4.108   2.050   0.311 -0.1204 -0.1060  0.3659
 8547SOL    HW137103   4.062   2.134   0.315 -1.2488 -0.6030 -2.2607
 8547SOL    HW237104   4.187   2.055   0.365 -1.6510 -2.9821  2.9062
 8548SOL     OW37105   4.402   2.651  11.850 -0.0906 -0.2414 -0.4011
 8548SOL    HW137106   4.317   2.679  11.815  0.9295  0.0968 -2.5928
 8548SOL    HW237107   4.450   2.676  11.771  1.8935 -1.6782  0.3557
 8549SOL     OW37108   1.661   0.097  10.182  0.3894  0.9756  0.5791
 8549SOL    HW137109   1.740   0.148  10.165 -0.8352  2.8719  0.5910
 8549SOL    HW237110   1.641   0.116  10.273 -3.8834 -1.1607  0.1198
 8550SOL     OW37111   4.248   2.833   4.678 -0.5394  0.6358 -0.0296
 8550SOL    HW137112   4.214   2.798   4.596  2.8958  0.4277 -1.3772
 8550SOL    HW237113   4.208   2.774   4.742  2.1568 -1.5993 -0.3989
 8551SOL     OW37114   3.169   0.918  17.054 -0.6424 -0.1070 -0.3724
 8551SOL    HW137115   3.244   0.945  17.002 -0.5320 -1.7127 -1.0447
 8551SOL    HW237116   3.119   0.880  16.982  1.1048 -1.4383 -0.8727
 8552SOL     OW37117   4.218   4.654  11.649  0.6210  0.1431 -0.1550
 8552SOL    HW137118   4.278   4.701  11.707 -0.1534 -0.2666  0.9774
 8552SOL    HW237119   4.139   4.649  11.702  0.6118 -0.5535 -0.2378
 8553SOL     OW37120   3.143   3.247   4.223  0.1713 -0.1192 -0.5684
 8553SOL    HW137121   3.227   3.230   4.180 -0.1539  0.0037 -1.2513
 8553SOL    HW237122   3.156   3.305   4.297  2.7743  1.4508 -2.2488
 8554SOL     OW37123   1.256   3.626  11.316  0.2262 -0.5216 -0.6752
 8554SOL    HW137124   1.350   3.637  11.323  0.0752  0.0660  0.5238
 8554SOL    HW237125   1.229   3.659  11.402 -3.5299  0.4974 -2.2227
 8555SOL     OW37126   1.312   1.813   2.629  0.2445  0.0139 -0.2006
 8555SOL    HW137127   1.290   1.884   2.569 -1.7235 -1.2340 -0.9352
 8555SOL    HW237128   1.353   1.868   2.695  1.5652  0.2578 -1.2117
 8556SOL     OW37129   2.625   0.533   3.303  0.2230 -0.2874 -0.5784
 8556SOL    HW137130   2.612   0.628   3.298 -0.5176 -0.5098 -3.1955
 8556SOL    HW237131   2.606   0.519   3.396  0.4208 -1.0339 -0.6570
 8557SOL     OW37132   3.468   2.341  12.799  0.2448 -0.5400 -0.7276
 8557SOL    HW137133   3.549   2.384  12.828 -1.0136  0.8714  0.6699
 8557SOL    HW237134   3.420   2.316  12.877 -1.0966  1.8665 -0.7689
 8558SOL     OW37135   0.499   1.864   7.858  0.3604  0.1354 -0.5374
 8558SOL    HW137136   0.545   1.943   7.885 -1.2051  0.6050  0.7811
 8558SOL    HW237137   0.573   1.804   7.858  0.6443  0.4869  0.4351
 8559SOL     OW37138   1.879   4.490   3.379  0.3087  0.5127  0.4043
 8559SOL    HW137139   1.790   4.459   3.396 -0.7173  2.1780 -1.9110
 8559SOL    HW237140   1.904   4.512   3.468 -0.6248  1.2358  0.4911
 8560SOL     OW37141   0.158   1.778   8.133  0.7866 -0.3664  0.1917
 8560SOL    HW137142   0.127   1.730   8.210 -0.2676 -1.5864 -1.0007
 8560SOL    HW237143   0.195   1.857   8.174  0.9348  0.2627 -1.1378
 8561SOL     OW37144   3.322   2.607   6.294 -0.4404 -0.2331 -0.7044
 8561SOL    HW137145   3.264   2.585   6.367  0.7899  2.1057  1.0082
 8561SOL    HW237146   3.380   2.530   6.292  0.4063  0.4459 -2.5762
 8562SOL     OW37147   4.585   1.744  16.282 -0.0815 -0.1323 -0.1254
 8562SOL    HW137148   4.557   1.833  16.259 -0.5641  0.2230  1.7603
 8562SOL    HW237149   4.536   1.727  16.363 -4.6874 -1.4402 -3.1978
 8563SOL     OW37150   2.636   1.904   3.726 -0.2229  0.3922 -0.3616
 8563SOL    HW137151   2.687   1.975   3.687  0.1353  0.4958  0.2873
 8563SOL    HW237152   2.715   1.850   3.738  1.0536  2.2036 -0.6803
 8564SOL     OW37153   2.123   4.671   5.824 -0.3280  0.5080  0.1092
 8564SOL    HW137154   2.169   4.706   5.748 -0.1896  0.5032  0.1911
 8564SOL    HW237155   2.195   4.676   5.888 -0.2687  0.4552  0.0456
 8565SOL     OW37156   4.373   1.585  14.859 -1.2150  0.0218 -0.0550
 8565SOL    HW137157   4.350   1.661  14.806  0.7163  0.1469 -0.7186
 8565SOL    HW237158   4.456   1.611  14.898 -1.5980 -0.4339  1.0618
 8566SOL     OW37159   1.042   0.438   0.595 -0.3864 -0.2857 -0.1174
 8566SOL    HW137160   0.977   0.467   0.659  0.1866  1.0619 -0.1452
 8566SOL    HW237161   1.014   0.493   0.521  0.8606  0.7062  0.1529
 8567SOL     OW37162   0.314   3.135   5.628 -0.1403  0.1691  0.2545
 8567SOL    HW137163   0.372   3.111   5.700 -1.8952 -0.8336  1.3314
 8567SOL    HW237164   0.318   3.230   5.638 -0.9910  0.4053 -1.6091
 8568SOL     OW37165   2.128   0.252  12.603  0.1360 -0.2115  0.6374
 8568SOL    HW137166   2.065   0.225  12.671 -0.0124 -0.8129  0.2600
 8568SOL    HW237167   2.130   0.170  12.554 -2.6307  0.4205 -0.5733
 8569SOL     OW37168   0.232   3.747   2.833 -0.4908  0.4497 -0.3850
 8569SOL    HW137169   0.188   3.815   2.782  0.1395  0.0515 -1.4544
 8569SOL    HW237170   0.173   3.726   2.906 -1.8527  0.7406 -1.3918
 8570SOL     OW37171   1.023   0.919   1.343 -0.3808  0.1066 -0.1833
 8570SOL    HW137172   1.112   0.953   1.350 -0.7661  1.1304 -0.2640
 8570SOL    HW237173   0.977   0.991   1.300  0.0269  1.1699  1.1650
 8571SOL     OW37174   1.657   2.515   8.145 -0.2093 -0.4404  0.8008
 8571SOL    HW137175   1.716   2.504   8.219  0.0503 -0.1499  0.6385
 8571SOL    HW237176   1.632   2.423   8.133  1.7490 -0.9316  0.4627
 8572SOL     OW37177   3.068   0.551   2.569 -0.0424  0.0108 -0.2146
 8572SOL    HW137178   3.037   0.566   2.479  0.2168 -0.5216 -0.3902
 8572SOL    HW237179   3.012   0.604   2.626  1.0674  0.4385  0.4698
 8573SOL     OW37180   0.721   3.809   6.460  0.3277  0.5980 -0.7984
 8573SOL    HW137181   0.687   3.765   6.382 -0.0044 -0.9847  0.2451
 8573SOL    HW237182   0.638   3.850   6.484  0.4873  1.2847 -1.4334
 8574SOL     OW37183   2.757   3.429   5.614 -0.3853 -0.8807  0.6261
 8574SOL    HW137184   2.760   3.369   5.689  0.5070 -0.5064  0.8948
 8574SOL    HW237185   2.681   3.400   5.564 -0.0182 -0.4996 -0.1462
 8575SOL     OW37186   4.648   1.366   3.083  0.3987  0.0909 -0.2066
 8575SOL    HW137187   4.644   1.330   2.994 -0.6318 -2.0656  0.7168
 8575SOL    HW237188   4.594   1.299   3.125 -0.4921  2.0220  1.7070
 8576SOL     OW37189   4.471   3.687   6.721  0.3600 -0.0433 -0.1201
 8576SOL    HW137190   4.553   3.722   6.755  0.5077 -0.2222 -0.2922
 8576SOL    HW237191   4.477   3.593   6.738 -1.3609  0.0603  1.0433
 8577SOL     OW37192   3.146   2.708   4.480  0.9853 -0.2019 -0.0082
 8577SOL    HW137193   3.141   2.790   4.431  1.8940 -2.0201 -3.0847
 8577SOL    HW237194   3.236   2.680   4.461  1.1942 -0.0804  0.7901
 8578SOL     OW37195   4.444   2.326   8.182 -0.1016 -0.5285  0.4606
 8578SOL    HW137196   4.538   2.313   8.192  0.1489  0.7955 -0.1091
 8578SOL    HW237197   4.411   2.242   8.150  1.2176  0.2939 -3.0668
 8579SOL     OW37198   0.477   3.487  10.961  0.0273 -0.0854 -0.1930
 8579SOL    HW137199   0.399   3.449  10.919 -0.8530  0.6978  0.7560
 8579SOL    HW237200   0.449   3.562  11.012  0.0399 -0.6480  0.6392
 8580SOL     OW37201   2.700   0.119  14.171 -0.0645  0.0677  0.3456
 8580SOL    HW137202   2.652   0.071  14.240 -2.1698  1.7456  0.0719
 8580SOL    HW237203   2.633   0.183  14.145  1.9250  1.4308 -1.3348
 8581SOL     OW37204   0.115   0.245   3.711 -0.0151 -0.5829 -0.4618
 8581SOL    HW137205   0.163   0.327   3.725  0.5442 -0.9471 -0.2349
 8581SOL    HW237206   0.092   0.233   3.803 -3.7032  1.9646 -1.0303
 8582SOL     OW37207   0.134   0.387  15.442 -0.5381  0.4146  0.0365
 8582SOL    HW137208   0.169   0.474  15.460  0.1778  0.0706  0.3404
 8582SOL    HW237209   0.186   0.327  15.495 -2.2747 -0.6008  0.5789
 8583SOL     OW37210   0.330   3.809  14.946 -0.2922  0.2290  0.1738
 8583SOL    HW137211   0.401   3.771  14.998 -1.3579 -1.1878  0.5917
 8583SOL    HW237212   0.347   3.900  14.971  2.5549 -0.0895 -0.6492
 8584SOL     OW37213   0.603   0.262  10.059  0.1516  0.2520 -0.0038
 8584SOL    HW137214   0.639   0.242  10.146  0.9878 -0.4764 -0.5219
 8584SOL    HW237215   0.662   0.335  10.040  1.7730 -1.1625 -0.3309
 8585SOL     OW37216   0.472   4.511   8.375  0.0401 -0.0510 -0.1385
 8585SOL    HW137217   0.503   4.489   8.288  0.7368  0.5025 -0.0289
 8585SOL    HW237218   0.511   4.595   8.399 -0.1386 -1.1819  4.1073
 8586SOL     OW37219   2.409   3.874   3.697 -0.2419  0.2366 -0.2041
 8586SOL    HW137220   2.423   3.952   3.644  1.0101  1.2494  1.6150
 8586SOL    HW237221   2.486   3.822   3.673 -0.0064  0.2739  0.4624
 8587SOL     OW37222   3.155   0.383   5.262  0.0343 -0.1766  0.3578
 8587SOL    HW137223   3.236   0.408   5.218  0.6790 -4.0279 -0.6675
 8587SOL    HW237224   3.196   0.348   5.342 -1.7118 -1.4901  0.6777
 8588SOL     OW37225   2.225   1.242  11.298 -0.1052  0.4182  0.0756
 8588SOL    HW137226   2.188   1.279  11.218 -1.3116 -1.3398 -0.1628
 8588SOL    HW237227   2.152   1.217  11.354  0.3781  0.4046  0.6980
 8589SOL     OW37228   0.407   1.855   5.975  0.3914  0.0219 -0.3932
 8589SOL    HW137229   0.366   1.769   5.981  1.1455 -0.1981  1.5801
 8589SOL    HW237230   0.442   1.864   5.886 -1.0682  2.1214 -0.7512
 8590SOL     OW37231   3.925   1.223  14.661 -0.0184  0.8960 -0.2636
 8590SOL    HW137232   3.995   1.252  14.718  0.6507 -5.1253  1.9491
 8590SOL    HW237233   3.968   1.213  14.576  0.8925  1.3089  0.1566
 8591SOL     OW37234   4.665   1.331  17.433  0.2560 -0.4223 -0.0571
 8591SOL    HW137235   4.677   1.259  17.371  1.1198  0.6511 -1.1197
 8591SOL    HW237236   4.589   1.299  17.483 -0.2463 -1.1563 -1.2838
 8592SOL     OW37237   3.499   0.467   2.087  0.0868 -0.2486 -0.9506
 8592SOL    HW137238   3.534   0.388   2.127  0.2470  0.5111  0.4117
 8592SOL    HW237239   3.406   0.465   2.110  0.7384 -0.7636  1.6633
 8593SOL     OW37240   4.709   3.701   7.643  0.1338 -0.5623  0.0906
 8593SOL    HW137241   4.690   3.619   7.688  1.5862 -1.5333 -1.0708
 8593SOL    HW237242   4.625   3.718   7.600  1.7932  2.2505 -2.0551
 8594SOL     OW37243   3.860   2.748  16.233  0.0517  0.4035 -0.4654
 8594SOL    HW137244   3.774   2.732  16.272 -0.4353  2.2141 -0.8111
 8594SOL    HW237245   3.897   2.811  16.294  0.4214 -0.0899 -0.1808
 8595SOL     OW37246   4.071   0.656   6.782  0.4990  0.0590 -0.2046
 8595SOL    HW137247   4.072   0.678   6.689 -2.6791 -2.6927 -0.8965
 8595SOL    HW237248   4.135   0.720   6.811 -0.3400  0.7073  0.2021
 8596SOL     OW37249   3.335   2.939  12.897  0.8717  0.3232 -0.4593
 8596SOL    HW137250   3.292   2.858  12.869 -0.8800  0.7295  1.1023
 8596SOL    HW237251   3.296   2.934  12.984 -0.8573  0.6566 -1.2219
 8597SOL     OW37252   1.139   3.293   7.780  0.6441  0.0826 -0.2808
 8597SOL    HW137253   1.181   3.222   7.828 -0.7537 -0.1520  0.6158
 8597SOL    HW237254   1.115   3.350   7.852  0.5704 -2.2987  1.5880
 8598SOL     OW37255   3.418   1.190  13.109 -0.4658 -0.0771 -0.4320
 8598SOL    HW137256   3.345   1.252  13.103 -1.6002 -1.1339  2.5572
 8598SOL    HW237257   3.448   1.172  13.020  0.6637  0.9706 -0.2623
 8599SOL     OW37258   0.771   1.894   7.464 -0.4746 -0.4141  0.6176
 8599SOL    HW137259   0.819   1.859   7.389  1.1526  1.9750  0.5459
 8599SOL    HW237260   0.781   1.817   7.520  2.3237 -0.3138  0.2377
 8600SOL     OW37261   1.056   2.941   9.648  0.2649 -0.0598  0.8086
 8600SOL    HW137262   0.973   2.921   9.692 -0.3310 -0.2479 -0.4098
 8600SOL    HW237263   1.120   2.940   9.720  0.5166 -0.7556  0.5748
 8601SOL     OW37264   0.570   0.522  11.424  0.4039 -0.4844 -0.4682
 8601SOL    HW137265   0.509   0.534  11.352 -1.0597  0.3079  0.9255
 8601SOL    HW237266   0.634   0.461  11.386 -0.4311  0.9507 -4.2124
 8602SOL     OW37267   2.087   3.807  11.465  1.0319 -0.1181 -0.0223
 8602SOL    HW137268   2.048   3.843  11.545 -1.1135  0.2074 -1.2169
 8602SOL    HW237269   2.142   3.738  11.504 -0.7915 -2.2910 -1.2497
 8603SOL     OW37270   0.130   2.991   3.405 -0.2668 -0.0373  0.1890
 8603SOL    HW137271   0.115   3.072   3.358 -0.2258 -0.7217 -1.0115
 8603SOL    HW237272   0.225   2.997   3.417 -0.3421  0.6934  0.4081
 8604SOL     OW37273   1.051   3.471   8.514 -0.6203 -0.8347  0.2278
 8604SOL    HW137274   1.094   3.462   8.429 -0.2185  0.0070  0.3456
 8604SOL    HW237275   1.005   3.555   8.510 -0.1279 -0.6734 -2.2707
 8605SOL     OW37276   0.094   1.600   7.730 -0.3720  0.0506  0.4041
 8605SOL    HW137277   0.151   1.671   7.699 -1.7863  1.5722  1.3201
 8605SOL    HW237278   0.153   1.575   7.802 -0.6304 -2.8148 -0.3753
 8606SOL     OW37279   2.603   1.555  14.700  0.1451 -0.0942 -0.2325
 8606SOL    HW137280   2.559   1.632  14.736  1.4935  0.3346  0.5023
 8606SOL    HW237281   2.531   1.496  14.676  0.0305 -0.0038 -0.1097
 8607SOL     OW37282   1.417   2.604  15.973  0.4375  0.5819  0.5462
 8607SOL    HW137283   1.362   2.567  16.041  0.1004  0.8271  0.4066
 8607SOL    HW237284   1.382   2.693  15.977  1.8231  1.0992  1.1225
 8608SOL     OW37285   1.446   3.404  10.737 -0.6520  0.0562 -0.8181
 8608SOL    HW137286   1.437   3.336  10.803 -0.0107  1.3926  0.6281
 8608SOL    HW237287   1.449   3.484  10.789  0.8141 -0.2982 -0.3606
 8609SOL     OW37288   3.047   4.481   1.788  0.1408 -0.3735 -0.0835
 8609SOL    HW137289   3.079   4.438   1.709 -3.1312 -1.5750 -0.7753
 8609SOL    HW237290   3.041   4.575   1.771  0.5066 -0.8019 -2.5094
 8610SOL     OW37291   1.883   4.663   4.934 -0.0970 -0.7022 -0.5069
 8610SOL    HW137292   1.965   4.707   4.956 -0.3907  0.0899 -1.0023
 8610SOL    HW237293   1.884   4.603   5.009 -1.3932  0.1674  0.2155
 8611SOL     OW37294   4.676   4.700  12.710  0.0188 -0.0328  0.4779
 8611SOL    HW137295   4.638   4.647  12.639 -1.2788 -1.2999  2.1089
 8611SOL    HW237296   0.021   4.643  12.747 -1.4437 -0.6634  2.2128
 8612SOL     OW37297   1.628   0.078  10.896  0.4310  0.1221 -0.3565
 8612SOL    HW137298   1.639   0.015  10.968  2.1690 -1.1325 -1.7213
 8612SOL    HW237299   1.561   0.132  10.938  0.3585 -1.0967  1.1228
 8613SOL     OW37300   0.334   2.253  11.221  0.1328 -0.5814 -0.3975
 8613SOL    HW137301   0.415   2.211  11.190  0.7455 -0.1853  0.6747
 8613SOL    HW237302   0.274   2.245  11.147 -2.3655 -0.0994  1.6000
 8614SOL     OW37303   0.674   2.801   3.300 -0.1922  0.0717  0.1601
 8614SOL    HW137304   0.616   2.782   3.226  0.2809 -1.1322  0.1144
 8614SOL    HW237305   0.668   2.718   3.346 -0.2336  0.6032  1.1087
 8615SOL     OW37306   4.194   2.060  11.325  0.5088  0.1674 -0.3708
 8615SOL    HW137307   4.157   2.147  11.313 -1.3765 -0.2323  2.5414
 8615SOL    HW237308   4.129   2.014  11.378  0.3650 -0.7042 -1.2962
 8616SOL     OW37309   1.140   3.342   4.343 -0.7536 -0.1671 -0.3470
 8616SOL    HW137310   1.162   3.347   4.436 -1.9471  0.0317 -0.0707
 8616SOL    HW237311   1.080   3.416   4.332 -0.0762  0.1135 -2.1653
 8617SOL     OW37312   3.080   1.428  12.655 -0.1310  0.0794 -0.0622
 8617SOL    HW137313   3.093   1.493  12.724 -2.3689  0.3878  0.0643
 8617SOL    HW237314   3.062   1.347  12.703  1.3009  0.4488  1.0875
 8618SOL     OW37315   4.015   2.174   0.866  0.4376 -0.1031  0.0456
 8618SOL    HW137316   3.988   2.235   0.798 -0.3864  1.9241  2.1704
 8618SOL    HW237317   4.034   2.229   0.942  1.1634  1.7459 -1.4801
 8619SOL     OW37318   1.605   4.563   0.568  0.6308  0.3463 -0.7769
 8619SOL    HW137319   1.651   4.481   0.546  0.6409 -0.0520  0.7688
 8619SOL    HW237320   1.586   4.554   0.661  0.3050 -1.0558 -0.9799
 8620SOL     OW37321   4.563   4.159   3.815 -0.7637 -0.2125 -0.0187
 8620SOL    HW137322   4.625   4.223   3.780 -0.4016 -0.5779 -0.0463
 8620SOL    HW237323   4.616   4.127   3.888 -0.9671 -2.9744 -1.0920
 8621SOL     OW37324   2.661   1.202   5.803  0.4498 -0.9339  0.1071
 8621SOL    HW137325   2.592   1.238   5.859 -0.5612 -3.6752  0.6195
 8621SOL    HW237326   2.723   1.168   5.868 -1.0788 -1.9490  1.0454
 8622SOL     OW37327   0.816   2.955   9.779 -0.4795 -0.1457 -0.5218
 8622SOL    HW137328   0.771   2.874   9.806 -1.0387  0.1231 -0.6360
 8622SOL    HW237329   0.817   3.017   9.852  0.9608 -0.6279 -0.1345
 8623SOL     OW37330   0.681   3.240   6.889  0.1265 -0.0473 -0.4412
 8623SOL    HW137331   0.710   3.150   6.903 -1.6105 -0.5072  0.2185
 8623SOL    HW237332   0.704   3.282   6.973  2.6534 -1.2437 -0.5462
 8624SOL     OW37333   3.023   2.381  11.598 -0.4724 -1.1909 -0.3208
 8624SOL    HW137334   2.993   2.442  11.532  0.6889 -0.3397 -0.0656
 8624SOL    HW237335   2.970   2.393  11.677  0.6533 -1.5102  0.4897
 8625SOL     OW37336   4.589   3.999  11.159 -0.2354  0.3023 -0.4387
 8625SOL    HW137337   4.609   4.028  11.248 -2.3367 -0.6909  0.3502
 8625SOL    HW237338   4.629   4.074  11.114  1.3527 -0.0197  0.4337
 8626SOL     OW37339   2.214   4.646   4.524  0.1368 -0.2762  0.4035
 8626SOL    HW137340   2.136   4.698   4.543  0.7496  0.2664  1.4145
 8626SOL    HW237341   2.205   4.635   4.429 -0.3124 -0.1252  0.4294
 8627SOL     OW37342   4.278   3.158  10.097  0.7795  0.1157 -0.4098
 8627SOL    HW137343   4.207   3.095  10.113 -1.7606  3.2339  0.6233
 8627SOL    HW237344   4.221   3.235  10.095  0.5879  0.0661  3.0027
 8628SOL     OW37345   1.566   2.260   8.075  1.0393 -0.3251  0.4646
 8628SOL    HW137346   1.526   2.235   8.158  1.3612 -0.8833  0.4524
 8628SOL    HW237347   1.544   2.192   8.011 -1.8448 -0.3044  1.4465
 8629SOL     OW37348   3.816   1.189  17.414  0.1232 -0.2020  0.5034
 8629SOL    HW137349   3.771   1.140  17.346  0.9884 -1.6459  0.9548
 8629SOL    HW237350   3.903   1.149  17.415 -0.5389 -1.6683 -0.7306
 8630SOL     OW37351   2.014   1.999  16.110 -0.0531 -0.1458  0.6825
 8630SOL    HW137352   2.002   2.090  16.138  2.0169  0.2259  0.3774
 8630SOL    HW237353   2.038   1.955  16.191  0.3659 -0.5151  0.3593
 8631SOL     OW37354   3.081   1.608  14.872  0.1151 -0.4485 -0.6773
 8631SOL    HW137355   3.117   1.532  14.828  3.2325  2.0803 -2.4914
 8631SOL    HW237356   2.986   1.602  14.886  0.2481 -0.0142  0.4346
 8632SOL     OW37357   1.463   0.473   8.402 -0.0032 -0.3849 -0.1356
 8632SOL    HW137358   1.556   0.485   8.424 -0.3327  2.6631 -0.4328
 8632SOL    HW237359   1.465   0.481   8.306 -1.6152  0.7092 -0.0646
 8633SOL     OW37360   0.374   0.556  15.141  0.1011 -0.1242 -0.0126
 8633SOL    HW137361   0.336   0.611  15.073 -4.1058  0.0878  2.5444
 8633SOL    HW237362   0.383   0.630  15.202  3.0027  0.2887 -0.9428
 8634SOL     OW37363   0.507   2.326  15.933 -0.8089 -0.5095 -0.2787
 8634SOL    HW137364   0.556   2.404  15.906  1.5357 -1.1585  2.1489
 8634SOL    HW237365   0.565   2.251  15.920  0.6805  0.9215 -2.0080
 8635SOL     OW37366   0.675   3.255   3.732  0.2193 -0.3868  0.4357
 8635SOL    HW137367   0.594   3.220   3.694  0.3976  0.9932 -1.2196
 8635SOL    HW237368   0.693   3.318   3.662 -1.7577  0.2485  0.4953
 8636SOL     OW37369   1.536   3.032   2.773  0.3928 -0.2165 -0.0094
 8636SOL    HW137370   1.609   3.067   2.825  0.6253 -2.0093  0.8705
 8636SOL    HW237371   1.550   3.070   2.687  0.9474 -1.6521 -0.5631
 8637SOL     OW37372   0.641   0.288   2.867 -0.1652 -0.5233  0.3477
 8637SOL    HW137373   0.674   0.221   2.807  0.3631  1.4003 -1.4937
 8637SOL    HW237374   0.667   0.367   2.821 -1.1772  0.4664  1.5010
 8638SOL     OW37375   1.187   1.487   3.714 -0.2832 -0.1092  0.5101
 8638SOL    HW137376   1.113   1.518   3.662 -0.3442 -0.3523  0.4529
 8638SOL    HW237377   1.262   1.494   3.654 -1.2828 -0.2687 -0.7546
 8639SOL     OW37378   3.984   1.354   5.058 -0.1042 -0.3824 -0.1489
 8639SOL    HW137379   4.013   1.282   5.001  1.4306  0.1465 -0.0489
 8639SOL    HW237380   4.067   1.401   5.064 -0.8386  1.3566 -3.8731
 8640SOL     OW37381   0.346   3.754   9.059  0.1039  0.2245  0.4592
 8640SOL    HW137382   0.299   3.829   9.023 -1.1903 -1.4297 -1.3526
 8640SOL    HW237383   0.337   3.745   9.154 -0.9685  1.1054  0.4353
 8641SOL     OW37384   2.854   1.141  14.310  0.4336 -0.4377 -0.4840
 8641SOL    HW137385   2.858   1.196  14.389 -1.0872 -0.0971 -0.6517
 8641SOL    HW237386   2.763   1.113  14.312  0.5595 -0.8245 -0.1684
 8642SOL     OW37387   2.871   1.209   4.781 -0.0762  0.1709  0.2967
 8642SOL    HW137388   2.840   1.182   4.867 -1.2328 -2.7515 -1.0369
 8642SOL    HW237389   2.793   1.194   4.728  2.1437  1.5539 -3.4206
 8643SOL     OW37390   1.609   0.877   3.780 -0.5959  0.7260  0.0268
 8643SOL    HW137391   1.692   0.886   3.734  0.8549 -2.1497  2.0380
 8643SOL    HW237392   1.568   0.960   3.755 -0.5997  1.4003  2.3072
 8644SOL     OW37393   0.591   0.227  11.618  0.2187  0.2280 -0.1507
 8644SOL    HW137394   0.656   0.237  11.549  1.0849  0.0579  0.6546
 8644SOL    HW237395   0.601   0.135  11.642 -1.4091  0.2792  0.7269
 8645SOL     OW37396   3.637   0.512   6.086  0.8629 -0.2958 -0.0924
 8645SOL    HW137397   3.631   0.528   6.180  0.6524  2.2833 -0.5459
 8645SOL    HW237398   3.548   0.518   6.052  1.6337  0.4376 -2.0152
 8646SOL     OW37399   1.513   4.446   7.598  0.2430  0.3594  0.1568
 8646SOL    HW137400   1.566   4.463   7.675 -2.2130  1.8491  1.4925
 8646SOL    HW237401   1.546   4.511   7.536 -2.4962  1.0008 -0.6306
 8647SOL     OW37402   3.190   0.422   7.870  0.4836  0.1839  0.1903
 8647SOL    HW137403   3.186   0.327   7.863 -1.2174  0.1282  2.1557
 8647SOL    HW237404   3.135   0.448   7.796 -1.1145  0.1381  1.3704
 8648SOL     OW37405   4.214   1.974   5.545  0.7599 -0.1031 -0.1479
 8648SOL    HW137406   4.287   1.924   5.582 -0.5753 -1.7235  0.2938
 8648SOL    HW237407   4.261   2.057   5.537  0.2333  0.1514 -0.6409
 8649SOL     OW37408   3.947   3.600  12.877  0.2613  0.6779 -0.0943
 8649SOL    HW137409   3.978   3.615  12.966  0.5914  1.7115 -0.3892
 8649SOL    HW237410   3.855   3.591  12.904  0.4418 -1.0538 -0.0653
 8650SOL     OW37411   3.033   0.241   4.372 -0.4226  0.1434  0.5238
 8650SOL    HW137412   3.033   0.156   4.328 -3.6519  0.3058  0.2220
 8650SOL    HW237413   3.081   0.226   4.454  0.7893  1.8864  0.1281
 8651SOL     OW37414   0.614   3.299   6.087  0.0626 -0.4349  0.3697
 8651SOL    HW137415   0.672   3.282   6.162  1.0322  2.0431  0.1826
 8651SOL    HW237416   0.672   3.359   6.040 -2.1009  0.8928 -0.5510
 8652SOL     OW37417   0.456   0.750   6.895 -0.0838  0.3837  0.0638
 8652SOL    HW137418   0.543   0.712   6.888 -0.0603  0.1740  1.4737
 8652SOL    HW237419   0.445   0.770   6.988 -2.8970  0.9644 -0.3844
 8653SOL     OW37420   2.964   0.656   2.265 -0.1179 -0.3073  0.7324
 8653SOL    HW137421   2.897   0.717   2.297  0.3820  0.1319  0.9551
 8653SOL    HW237422   2.970   0.686   2.174 -0.3660 -0.8344  0.5478
 8654SOL     OW37423   0.541   2.128   7.860 -0.0709 -0.2547 -0.1538
 8654SOL    HW137424   0.581   2.215   7.863  0.5099 -0.4511 -2.0933
 8654SOL    HW237425   0.470   2.142   7.797 -1.8627 -1.7471  1.5296
 8655SOL     OW37426   3.063   4.411   6.783 -0.4409 -0.3699  0.0932
 8655SOL    HW137427   3.122   4.410   6.858  0.7940  1.1820 -0.8667
 8655SOL    HW237428   2.978   4.384   6.817  0.4352 -0.1088  2.4730
 8656SOL     OW37429   1.752   0.116   2.183  0.1236 -0.7831 -0.0608
 8656SOL    HW137430   1.719   0.161   2.105  1.2636 -1.9605 -1.2386
 8656SOL    HW237431   1.674   0.067   2.207  0.5160 -2.0915 -1.4263
 8657SOL     OW37432   3.867   0.853   1.542  0.1836  0.2004 -0.1904
 8657SOL    HW137433   3.823   0.854   1.457 -1.2321  2.4748  0.5917
 8657SOL    HW237434   3.794   0.879   1.597 -0.5717 -1.2678 -0.4911
 8658SOL     OW37435   3.466   2.385   3.625  0.1666 -0.7242  0.0270
 8658SOL    HW137436   3.521   2.461   3.608  0.1468 -0.9840 -1.2200
 8658SOL    HW237437   3.527   2.322   3.666  0.8328 -0.6027 -0.7871
 8659SOL     OW37438   2.975   4.275   8.139  0.0936 -0.0803  0.0937
 8659SOL    HW137439   3.026   4.204   8.178 -0.1075  0.1292  0.7415
 8659SOL    HW237440   3.031   4.341   8.180 -0.2517  0.7423 -0.7780
 8660SOL     OW37441   3.099   3.966   5.738 -0.2258  0.3429 -0.0072
 8660SOL    HW137442   3.071   3.890   5.788 -1.5402 -0.1709 -1.5497
 8660SOL    HW237443   3.182   3.978   5.785 -0.6987 -2.0607  1.4308
 8661SOL     OW37444   3.539   0.825   7.074 -0.8426 -0.1588  0.0345
 8661SOL    HW137445   3.484   0.797   7.147 -0.5075 -0.6675  0.0911
 8661SOL    HW237446   3.517   0.767   7.002 -4.2974  1.6259 -0.3444
 8662SOL     OW37447   3.279   0.809   7.867  0.2490 -0.1648  0.4292
 8662SOL    HW137448   3.235   0.741   7.918  0.3174  0.9061  1.8965
 8662SOL    HW237449   3.371   0.792   7.887  0.6420  0.6649 -0.6406
 8663SOL     OW37450   4.106   0.680   1.242  0.0635 -0.3222  0.0486
 8663SOL    HW137451   4.087   0.716   1.155 -1.2745  0.3453  0.6240
 8663SOL    HW237452   4.032   0.621   1.258  0.7932 -1.1737  0.2748
 8664SOL     OW37453   0.750   0.659   7.184  0.5302 -0.4694 -0.1060
 8664SOL    HW137454   0.750   0.597   7.257  1.6483 -0.5032 -0.1278
 8664SOL    HW237455   0.774   0.742   7.226  1.7624 -0.1064 -1.5453
 8665SOL     OW37456   2.367   1.052  12.394 -0.1468  0.0443  0.6350
 8665SOL    HW137457   2.272   1.050  12.401 -0.2627  1.2573 -0.5250
 8665SOL    HW237458   2.370   1.063  12.299 -0.6233 -2.0927  0.3711
 8666SOL     OW37459   1.082   4.194   0.718  0.3965  0.3430  0.1111
 8666SOL    HW137460   1.064   4.224   0.629 -0.3100 -1.1823 -0.2448
 8666SOL    HW237461   1.045   4.106   0.712 -0.3937  0.6655  0.3111
 8667SOL     OW37462   2.294   2.098  13.864  0.0795  0.5919  0.4484
 8667SOL    HW137463   2.273   2.027  13.926  0.5778  1.4458  1.5878
 8667SOL    HW237464   2.277   2.049  13.783  2.5832  0.1717  0.1820
 8668SOL     OW37465   1.852   4.570   2.512 -0.5935 -0.2228 -0.0390
 8668SOL    HW137466   1.782   4.586   2.449  0.1112  0.9486 -0.5027
 8668SOL    HW237467   1.861   4.652   2.560  0.8387 -1.2834  1.5129
 8669SOL     OW37468   3.265   1.743  15.015  0.9181  0.0490  0.3153
 8669SOL    HW137469   3.198   1.712  14.955  0.8380  0.8506  0.0036
 8669SOL    HW237470   3.279   1.668  15.074  1.6402  1.3182  1.7585
 8670SOL     OW37471   1.460   2.086   4.733 -0.8299 -0.3025 -0.6117
 8670SOL    HW137472   1.419   2.165   4.767  0.1918  0.9261 -2.2370
 8670SOL    HW237473   1.546   2.116   4.705 -1.3685  1.3456 -0.5033
 8671SOL     OW37474   2.867   4.643  13.645  0.3209 -0.0530  0.0964
 8671SOL    HW137475   2.827   4.656  13.731  2.7742  0.1877  1.1982
 8671SOL    HW237476   2.957   4.674  13.651  1.4960 -3.2480 -0.6365
 8672SOL     OW37477   0.388   1.541   7.085  0.5506  0.0304  0.1168
 8672SOL    HW137478   0.444   1.528   7.008  0.4055 -0.3191  0.0741
 8672SOL    HW237479   0.423   1.626   7.113  0.2631 -0.0447  0.7077
 8673SOL     OW37480   1.804   2.540   5.949  0.4972  0.4053 -0.3583
 8673SOL    HW137481   1.874   2.525   6.012  0.7765  2.8128 -0.0598
 8673SOL    HW237482   1.847   2.586   5.877  1.9687 -0.5862 -0.0972
 8674SOL     OW37483   4.589   2.591   4.826 -0.6355  0.3257 -0.1959
 8674SOL    HW137484   4.508   2.546   4.803  0.2558 -1.7605  0.8100
 8674SOL    HW237485   4.650   2.517   4.827  1.3169  1.9119 -0.1927
 8675SOL     OW37486   0.004   2.507   5.748 -1.0084  0.2828 -0.5479
 8675SOL    HW137487   0.026   2.417   5.721 -0.0245  0.1284  0.7735
 8675SOL    HW237488   0.084   2.558   5.741 -0.6554 -0.2230 -0.2320
 8676SOL     OW37489   2.134   0.647  11.087 -0.0293 -0.2764  0.2267
 8676SOL    HW137490   2.080   0.571  11.063  0.0440 -0.7124  1.4319
 8676SOL    HW237491   2.209   0.602  11.126 -2.9892 -3.2115  2.5814
 8677SOL     OW37492   2.273   1.901   5.534  0.8141  0.2083 -0.1374
 8677SOL    HW137493   2.203   1.880   5.472 -0.0055  0.5108  0.6920
 8677SOL    HW237494   2.310   1.812   5.537 -1.9161 -0.9054  0.7299
 8678SOL     OW37495   0.966   3.964   9.543  0.0173  0.0515 -0.3881
 8678SOL    HW137496   0.960   4.044   9.595 -0.4895 -0.9018  1.0285
 8678SOL    HW237497   0.874   3.940   9.528  0.2848 -0.5076 -1.1388
 8679SOL     OW37498   0.394   3.662   9.523 -0.3105  0.5810  0.2175
 8679SOL    HW137499   0.477   3.631   9.487 -0.5581  0.9486 -0.6614
 8679SOL    HW237500   0.368   3.709   9.444 -1.0262  0.4707  0.3948
 8680SOL     OW37501   2.435   3.483   5.244 -0.0858 -0.4940 -0.0869
 8680SOL    HW137502   2.523   3.453   5.225  0.1659 -0.7008  1.3887
 8680SOL    HW237503   2.388   3.480   5.161 -0.5725  1.5437  0.0881
 8681SOL     OW37504   1.828   0.025   0.718  0.2631 -0.3616  0.0385
 8681SOL    HW137505   1.897   0.090   0.709 -0.3479  0.5333  1.6242
 8681SOL    HW237506   1.749   0.076   0.699  1.1994  0.8704 -0.4714
 8682SOL     OW37507   0.886   3.433   7.990 -0.1195 -0.2139 -0.3249
 8682SOL    HW137508   0.836   3.486   7.927 -0.3739  2.0759  1.7889
 8682SOL    HW237509   0.820   3.420   8.059  0.7411 -0.9011  0.3638
 8683SOL     OW37510   0.705   0.452   7.665  0.2646 -1.0506 -0.5151
 8683SOL    HW137511   0.724   0.450   7.759 -0.3594 -1.2589 -0.3947
 8683SOL    HW237512   0.618   0.491   7.671  0.1950 -0.9005 -2.3894
 8684SOL     OW37513   0.078   2.188   0.433  0.7600  0.2214  0.8073
 8684SOL    HW137514   0.121   2.132   0.369  1.5913  0.0452  1.5158
 8684SOL    HW237515   0.140   2.261   0.433 -1.1588  1.8550 -0.1653
 8685SOL     OW37516   2.324   1.178   6.129 -0.0573  0.4980  0.0903
 8685SOL    HW137517   2.249   1.215   6.082 -0.0881  0.1939 -0.1021
 8685SOL    HW237518   2.364   1.127   6.058  0.5960  1.0957  0.0252
 8686SOL     OW37519   4.688   2.325   7.426 -0.2544 -0.4644 -0.0661
 8686SOL    HW137520   4.624   2.361   7.487 -0.5301 -1.1295  0.0392
 8686SOL    HW237521   0.024   2.400   7.421 -0.4735 -0.3825 -1.3190
 8687SOL     OW37522   0.291   1.237   7.001 -0.6149  0.0555  0.0694
 8687SOL    HW137523   0.313   1.329   7.014  2.7992 -0.5736 -1.3200
 8687SOL    HW237524   0.196   1.242   6.990 -0.4838  0.2106 -0.9426
 8688SOL     OW37525   4.160   0.554   2.852 -0.4710 -0.0211 -0.4238
 8688SOL    HW137526   4.172   0.490   2.782 -0.0026 -0.1122 -0.2613
 8688SOL    HW237527   4.229   0.529   2.914  1.4630  0.2606 -2.4835
 8689SOL     OW37528   0.300   1.210  15.191 -0.4306 -0.0913 -0.4585
 8689SOL    HW137529   0.257   1.252  15.266  1.6326 -0.1307  0.7414
 8689SOL    HW237530   0.361   1.284  15.186 -0.0221 -0.5674 -2.6231
 8690SOL     OW37531   3.411   1.913   4.253 -0.5647  0.0272  0.3110
 8690SOL    HW137532   3.462   1.924   4.334  1.3716 -0.9957 -0.7701
 8690SOL    HW237533   3.371   1.827   4.268 -0.5043  0.0731  0.7344
 8691SOL     OW37534   1.950   2.616   5.724 -0.6880  0.3638  0.6329
 8691SOL    HW137535   2.017   2.677   5.757 -1.1334  0.4168  1.4268
 8691SOL    HW237536   1.893   2.684   5.687 -2.2829 -0.5227  1.4918
 8692SOL     OW37537   2.364   3.493  17.505  0.2747  0.7079 -0.2230
 8692SOL    HW137538   2.344   3.445  17.424 -1.8126  0.8148  0.2365
 8692SOL    HW237539   2.459   3.481  17.507  0.0615 -0.8444  0.7096
 8693SOL     OW37540   2.123   3.394   4.258 -0.1582  0.4838  0.1156
 8693SOL    HW137541   2.095   3.344   4.181 -0.5280  0.0254  0.5515
 8693SOL    HW237542   2.104   3.334   4.329 -0.7524  0.2337 -0.2541
 8694SOL     OW37543   3.595   1.141   1.805 -0.0683 -0.3208  0.3124
 8694SOL    HW137544   3.654   1.214   1.787 -0.3145 -0.4574 -1.0432
 8694SOL    HW237545   3.652   1.065   1.798 -0.0202 -0.1224 -1.3680
 8695SOL     OW37546   2.253   4.351   5.203  0.5130 -0.1467 -0.0371
 8695SOL    HW137547   2.294   4.286   5.147 -1.0540  0.5441 -2.0080
 8695SOL    HW237548   2.330   4.372   5.256 -0.2454  1.4590  0.4177
 8696SOL     OW37549   1.015   3.940  15.964  0.1984  0.0810  0.2554
 8696SOL    HW137550   1.046   3.976  15.881  1.5293 -0.6786  0.4285
 8696SOL    HW237551   1.098   3.927  16.009  0.2087  2.0740  0.7892
 8697SOL     OW37552   3.514   2.830   8.760  0.7256  0.0799  0.5062
 8697SOL    HW137553   3.515   2.917   8.721 -0.6644 -0.1069  0.0565
 8697SOL    HW237554   3.506   2.857   8.851 -1.7240  1.3584 -0.0793
 8698SOL     OW37555   1.331   0.978   8.820  0.1530  0.3369 -0.2025
 8698SOL    HW137556   1.280   1.032   8.881 -0.6810  0.5549 -1.0994
 8698SOL    HW237557   1.411   1.030   8.809  1.3430 -1.1959  1.1148
 8699SOL     OW37558   0.385   2.145   4.417  0.0824  0.1683 -0.7857
 8699SOL    HW137559   0.351   2.057   4.402  1.7953 -0.8612  1.2703
 8699SOL    HW237560   0.310   2.201   4.398 -0.6472 -0.6910 -0.4614
 8700SOL     OW37561   0.127   3.311   3.832 -0.2311  0.5371 -0.4598
 8700SOL    HW137562   0.122   3.247   3.903  2.7589 -1.9410 -2.5234
 8700SOL    HW237563   0.058   3.277   3.775  0.6406 -1.6744 -0.1617
 8701SOL     OW37564   4.247   0.867   6.785 -0.0879 -0.1368  0.1045
 8701SOL    HW137565   4.315   0.869   6.852  2.9757 -1.0057 -3.0377
 8701SOL    HW237566   4.300   0.828   6.717  0.8612  0.4786  0.4876
 8702SOL     OW37567   1.104   3.283   3.260  0.3412 -0.7083 -0.4912
 8702SOL    HW137568   1.083   3.376   3.250  2.1381 -0.2811 -0.2193
 8702SOL    HW237569   1.015   3.247   3.254 -0.1290  0.3017  0.3484
 8703SOL     OW37570   2.433   2.709   8.243 -0.0317 -0.9115 -0.2093
 8703SOL    HW137571   2.406   2.676   8.329  0.7043 -2.7964 -0.6856
 8703SOL    HW237572   2.386   2.792   8.241 -0.7591 -1.3742 -2.8178
 8704SOL     OW37573   0.637   4.586  16.128  0.1493 -0.1047  0.2168
 8704SOL    HW137574   0.667   4.657  16.185  0.9848 -1.0925  1.0171
 8704SOL    HW237575   0.586   4.635  16.064  1.6301  0.7734 -0.2910
 8705SOL     OW37576   2.149   2.635  13.386 -0.7599  0.4382  0.4133
 8705SOL    HW137577   2.232   2.664  13.347  0.0028 -0.2434  1.5175
 8705SOL    HW237578   2.099   2.714  13.368  1.1307  1.4088 -0.6141
 8706SOL     OW37579   0.678   3.470   6.421 -0.2096 -0.3421  0.0322
 8706SOL    HW137580   0.643   3.542   6.367  2.0442  0.6847 -0.0651
 8706SOL    HW237581   0.656   3.491   6.511 -0.1252  1.9378 -0.4789
 8707SOL     OW37582   0.323   0.161   8.481  0.7199  0.1466 -0.2424
 8707SOL    HW137583   0.380   0.135   8.408  1.6388  2.0763 -0.2260
 8707SOL    HW237584   0.381   0.135   8.552 -0.9300 -0.7424  0.7843
 8708SOL     OW37585   0.086   1.825  16.677  0.4049 -0.2980 -0.5204
 8708SOL    HW137586   0.109   1.740  16.713  2.3364  0.2010 -0.5308
 8708SOL    HW237587   0.032   1.855  16.750  2.7720 -1.6372  1.7529
 8709SOL     OW37588   1.525   4.523  12.929 -0.7117  0.1890  0.3889
 8709SOL    HW137589   1.535   4.435  12.891  1.2732  0.4266  0.3672
 8709SOL    HW237590   1.617   4.547  12.925 -0.7059  0.2674  0.9887
 8710SOL     OW37591   0.458   2.585   8.464 -0.2949 -0.7769  0.5061
 8710SOL    HW137592   0.531   2.593   8.526  0.8786  2.0496 -1.2499
 8710SOL    HW237593   0.412   2.668   8.450  0.4404 -0.4539 -0.0312
 8711SOL     OW37594   4.462   0.246   5.036 -0.2090 -0.2437 -0.4628
 8711SOL    HW137595   4.549   0.265   5.071 -1.4280  3.9787  0.2662
 8711SOL    HW237596   4.467   0.266   4.943 -0.0370 -0.2331 -0.4511
 8712SOL     OW37597   1.803   2.622   4.438 -0.0594  0.2344 -0.0995
 8712SOL    HW137598   1.840   2.633   4.526 -0.6226  0.8465  0.0592
 8712SOL    HW237599   1.877   2.659   4.390 -0.8820  1.7675 -0.1848
 8713SOL     OW37600   2.871   1.112   5.302 -0.0952  0.2431 -0.0926
 8713SOL    HW137601   2.957   1.069   5.300 -0.7063 -1.0056  0.3785
 8713SOL    HW237602   2.827   1.059   5.367  0.5195 -3.8123 -2.9792
 8714SOL     OW37603   0.997   0.595  14.875  0.0288  0.1582 -0.9817
 8714SOL    HW137604   1.018   0.502  14.880 -0.8242  0.0508  0.5320
 8714SOL    HW237605   0.958   0.597  14.787 -1.9406  1.7505 -0.0714
 8715SOL     OW37606   4.026   2.439  11.959 -0.4340 -0.4939  0.8026
 8715SOL    HW137607   4.094   2.484  12.008 -0.8193 -0.8215  1.6416
 8715SOL    HW237608   4.038   2.350  11.993 -0.3854 -1.3211 -1.3422
 8716SOL     OW37609   3.586   3.383  16.094  0.1374  0.0409 -0.6289
 8716SOL    HW137610   3.519   3.450  16.103  1.3384  1.1252  0.1450
 8716SOL    HW237611   3.616   3.368  16.183  0.8807 -0.8798 -1.0310
 8717SOL     OW37612   2.208   0.978   6.902 -0.2125  0.5746 -0.4840
 8717SOL    HW137613   2.224   1.051   6.843  0.6788 -0.8876 -2.0628
 8717SOL    HW237614   2.294   0.978   6.944 -0.0114  1.9746 -0.9214
 8718SOL     OW37615   0.895   1.547   1.544  0.1775 -0.3549 -0.0748
 8718SOL    HW137616   0.967   1.577   1.489  0.9169  0.5367  1.3738
 8718SOL    HW237617   0.870   1.629   1.589 -0.5943 -1.3969  1.3962
 8719SOL     OW37618   4.356   2.500  14.530  0.1935 -0.1448 -0.2115
 8719SOL    HW137619   4.395   2.445  14.463 -1.2987 -2.1116  0.5394
 8719SOL    HW237620   4.315   2.436  14.589  0.7063 -1.3054 -1.1252
 8720SOL     OW37621   4.245   0.045   6.120  0.1662  0.6578 -0.3390
 8720SOL    HW137622   4.256   4.681   6.158  0.4122  0.9540  0.2799
 8720SOL    HW237623   4.223   0.026   6.029  0.8286  0.0816 -0.3723
 8721SOL     OW37624   2.471   0.175   7.089 -0.4498  0.4807  0.3052
 8721SOL    HW137625   2.449   0.202   6.999  2.7323  1.1092 -0.2749
 8721SOL    HW237626   2.526   0.101   7.065  0.4536  0.0496  3.7990
 8722SOL     OW37627   4.315   2.480   4.835  0.9299  0.3298  0.1348
 8722SOL    HW137628   4.246   2.430   4.794 -1.0239  4.0081 -1.0964
 8722SOL    HW237629   4.270   2.553   4.877 -0.6486 -0.4876 -0.1718
 8723SOL     OW37630   3.637   4.700   3.759 -0.2683 -0.1332 -0.2118
 8723SOL    HW137631   3.561   4.680   3.813 -0.1900  1.3762  0.4676
 8723SOL    HW237632   3.622   4.666   3.670 -3.9394  3.2642 -0.9504
 8724SOL     OW37633   3.565   0.801  16.972  0.0745 -0.1597 -0.5581
 8724SOL    HW137634   3.531   0.713  16.952  0.8865 -0.9752  1.6812
 8724SOL    HW237635   3.509   0.849  16.911  1.5405  1.8874 -0.2728
 8725SOL     OW37636   4.181   3.428   8.353 -0.2925 -0.3709  0.3080
 8725SOL    HW137637   4.232   3.387   8.283 -0.7483 -0.9163  0.2998
 8725SOL    HW237638   4.134   3.484   8.291  0.0430 -0.1987  0.2055
 8726SOL     OW37639   3.682   3.371  12.105 -0.1354 -0.7529 -0.1850
 8726SOL    HW137640   3.723   3.297  12.150 -0.4283 -0.0142  1.3042
 8726SOL    HW237641   3.733   3.441  12.146 -0.5411  0.7677 -2.3340
 8727SOL     OW37642   1.229   3.382   9.962 -0.2848  0.1714  0.0263
 8727SOL    HW137643   1.198   3.446  10.026  0.6485 -1.3990  2.0548
 8727SOL    HW237644   1.317   3.415   9.942 -0.1581 -0.3411 -0.2680
 8728SOL     OW37645   1.095   0.199   3.332 -0.2679  0.1743 -0.4354
 8728SOL    HW137646   1.008   0.163   3.314 -0.6749  0.8425  0.1900
 8728SOL    HW237647   1.111   0.138   3.405  0.4175  0.5969 -0.2337
 8729SOL     OW37648   2.538   4.278   6.621  0.2264 -0.3309  0.2273
 8729SOL    HW137649   2.481   4.229   6.680 -1.3944  1.9807  0.5911
 8729SOL    HW237650   2.607   4.213   6.606 -0.6138 -0.8659 -1.3034
 8730SOL     OW37651   1.141   4.117   1.080 -0.1190 -0.0406 -0.3323
 8730SOL    HW137652   1.134   4.201   1.035 -1.9508  0.0018  0.0418
 8730SOL    HW237653   1.228   4.130   1.118  0.8472 -1.4427 -2.0174
 8731SOL     OW37654   0.908   1.616   5.834 -0.7564 -0.2524 -0.1490
 8731SOL    HW137655   0.843   1.622   5.904  1.3099  1.4561  1.5964
 8731SOL    HW237656   0.859   1.591   5.755 -1.1182  1.5890 -0.5211
 8732SOL     OW37657   2.340   4.416   1.664  0.3384 -0.2585  0.0812
 8732SOL    HW137658   2.317   4.396   1.573  0.8245  1.3308 -0.4038
 8732SOL    HW237659   2.435   4.410   1.678  0.3024  0.3690  0.5920
 8733SOL     OW37660   0.428   2.501  11.395 -1.3282  0.1114 -0.1802
 8733SOL    HW137661   0.461   2.582  11.355  0.3590  0.3798  1.7697
 8733SOL    HW237662   0.432   2.442  11.321  2.3651  0.3556 -0.1668
 8734SOL     OW37663   4.485   1.317   8.540 -0.6330  0.7175 -0.1122
 8734SOL    HW137664   4.554   1.265   8.582 -0.1612  0.0332 -1.7115
 8734SOL    HW237665   4.452   1.239   8.496 -0.7201 -0.3607  1.8798
 8735SOL     OW37666   3.045   0.117   8.888  0.0005  0.2928 -0.4478
 8735SOL    HW137667   3.097   0.063   8.947  0.3128  0.6640 -0.3804
 8735SOL    HW237668   3.116   0.173   8.856  0.1967  0.0010 -0.5232
 8736SOL     OW37669   2.139   4.420  10.066  0.4164  0.2534 -0.3513
 8736SOL    HW137670   2.147   4.367  10.145  3.3868  2.0291  0.5684
 8736SOL    HW237671   2.232   4.440  10.048  0.0540  2.4838  0.1623
 8737SOL     OW37672   4.060   0.860  17.167  0.3961  0.1393 -0.0925
 8737SOL    HW137673   4.040   0.951  17.150  0.9136  0.2718 -0.0134
 8737SOL    HW237674   3.977   0.814  17.172  0.4902 -0.1022 -0.7589
 8738SOL     OW37675   0.791   4.060   5.936 -0.0527  0.0861  0.2415
 8738SOL    HW137676   0.825   4.149   5.946 -0.9430  0.3344  1.0278
 8738SOL    HW237677   0.862   4.011   5.978 -0.4006 -0.0066  0.7239
 8739SOL     OW37678   0.337   3.341   7.581 -0.1491  0.2603  0.1897
 8739SOL    HW137679   0.376   3.368   7.498  1.9529 -1.4235  0.6229
 8739SOL    HW237680   0.348   3.246   7.578 -1.4044  0.1415 -0.7858
 8740SOL     OW37681   0.653   1.005   5.878  0.1341  0.0419 -0.0031
 8740SOL    HW137682   0.672   0.960   5.960  2.1793  1.8627  0.5363
 8740SOL    HW237683   0.563   0.977   5.865 -0.0343  1.2885 -1.5099
 8741SOL     OW37684   2.285   2.010  15.086  0.0006  0.6624  0.5668
 8741SOL    HW137685   2.279   2.079  15.151  1.0228  1.7046 -0.4380
 8741SOL    HW237686   2.201   2.009  15.040  0.0468  1.1975  0.4744
 8742SOL     OW37687   0.251   0.636   6.278 -0.3236 -0.3219  0.3649
 8742SOL    HW137688   0.204   0.647   6.195  1.2121 -1.8104 -0.6955
 8742SOL    HW237689   0.337   0.611   6.243  1.4107  3.4809  1.9937
 8743SOL     OW37690   1.900   3.865  14.112  0.2175 -0.0228 -0.3891
 8743SOL    HW137691   1.873   3.956  14.127 -0.6486 -0.3101 -0.1681
 8743SOL    HW237692   1.964   3.871  14.041  2.2672 -0.4062  1.4512
 8744SOL     OW37693   1.540   3.911  16.941 -0.1190  0.1050  0.4020
 8744SOL    HW137694   1.498   3.905  16.855 -0.8744 -2.0521  0.9139
 8744SOL    HW237695   1.539   4.007  16.940  2.1034  0.1346  0.8700
 8745SOL     OW37696   0.276   3.145   6.365  0.4632  0.1830 -0.3400
 8745SOL    HW137697   0.321   3.219   6.325  0.7601 -0.1523 -0.6266
 8745SOL    HW237698   0.324   3.073   6.323 -1.6812 -0.9263 -0.8649
 8746SOL     OW37699   0.199   0.982   6.928 -0.2087  0.5057  1.1467
 8746SOL    HW137700   0.262   1.032   6.981  0.6354  0.7805 -0.1101
 8746SOL    HW237701   0.206   1.042   6.854 -1.1160  0.8062  1.3021
 8747SOL     OW37702   2.418   1.305  15.920 -0.1056 -0.7109 -0.4599
 8747SOL    HW137703   2.352   1.359  15.876  2.2579  2.6979  0.1897
 8747SOL    HW237704   2.376   1.221  15.937 -1.6477  0.6586  2.4959
 8748SOL     OW37705   1.551   4.107  16.073  0.3320  0.7985  0.4627
 8748SOL    HW137706   1.581   4.163  16.002  1.5119 -0.1534  0.1976
 8748SOL    HW237707   1.455   4.110  16.077  0.3560  1.8096  0.2101
 8749SOL     OW37708   2.390   4.216  15.904 -0.3257 -0.2028 -0.2181
 8749SOL    HW137709   2.371   4.310  15.904 -1.2237 -0.3798 -0.0013
 8749SOL    HW237710   2.334   4.202  15.828 -0.7543 -0.3645  0.1267
 8750SOL     OW37711   1.293   1.284   4.843 -0.5342 -0.3747 -0.3608
 8750SOL    HW137712   1.279   1.342   4.917  0.5310 -1.5817  0.8019
 8750SOL    HW237713   1.218   1.224   4.839  0.4743 -1.6806  0.0118
 8751SOL     OW37714   4.340   1.366   7.960 -0.2610  0.7916 -0.2379
 8751SOL    HW137715   4.313   1.323   8.041  0.1381  0.9834 -0.0036
 8751SOL    HW237716   4.435   1.372   7.974 -0.1879  0.4030 -0.5480
 8752SOL     OW37717   2.668   4.383  10.544  0.1384 -0.0617 -0.0144
 8752SOL    HW137718   2.581   4.408  10.574  1.8976  3.6290  1.9944
 8752SOL    HW237719   2.727   4.436  10.598 -0.8490  0.9008  0.1077
 8753SOL     OW37720   2.386   0.687   8.182  0.3951 -0.0911 -0.0618
 8753SOL    HW137721   2.450   0.649   8.121  0.6437 -1.1383  0.8526
 8753SOL    HW237722   2.435   0.769   8.189  0.4886 -0.2187  0.6789
 8754SOL     OW37723   0.249   2.930  16.759  0.3942  0.1543  0.0715
 8754SOL    HW137724   0.285   2.895  16.678 -1.1664 -0.5212 -0.3275
 8754SOL    HW237725   0.278   3.020  16.747 -2.9528  1.0917 -1.1154
 8755SOL     OW37726   2.289   2.811   2.239  0.8440  0.0021  0.2263
 8755SOL    HW137727   2.283   2.809   2.335 -1.0586  0.6110  0.1042
 8755SOL    HW237728   2.228   2.879   2.213  1.0491  1.0385  2.4664
 8756SOL     OW37729   3.755   2.662   6.617  0.2724 -0.0362 -0.3369
 8756SOL    HW137730   3.792   2.598   6.556  1.9752 -0.2250  0.8769
 8756SOL    HW237731   3.767   2.614   6.699  2.3120 -0.2934 -0.7731
 8757SOL     OW37732   2.273   3.469   5.710  0.1205 -0.4310 -0.2833
 8757SOL    HW137733   2.245   3.536   5.647 -0.9285  0.7628  1.4492
 8757SOL    HW237734   2.295   3.408   5.640  2.0788  0.6369 -0.6023
 8758SOL     OW37735   0.128   1.228  16.134 -0.9956 -0.0544  0.2742
 8758SOL    HW137736   0.058   1.269  16.184  0.7276  1.5423  1.4086
 8758SOL    HW237737   0.079   1.234  16.052 -0.1905 -1.7782 -0.3390
 8759SOL     OW37738   1.934   2.030   7.872 -0.1455 -0.6000  0.3070
 8759SOL    HW137739   1.918   2.070   7.787  0.3037  0.7741  0.8619
 8759SOL    HW237740   1.856   1.975   7.867  2.3489 -4.1718  0.7304
 8760SOL     OW37741   2.467   0.445  13.844 -0.2498  0.5629 -0.3361
 8760SOL    HW137742   2.537   0.510  13.844 -0.9315  1.2988 -1.3880
 8760SOL    HW237743   2.462   0.419  13.752  2.5662 -3.1998  0.5570
 8761SOL     OW37744   3.052   1.082  14.986 -0.2969  0.7333  0.2516
 8761SOL    HW137745   3.018   1.042  15.066 -2.0295 -0.0664 -0.8819
 8761SOL    HW237746   3.013   1.167  15.005  0.1190  0.5992  1.6903
 8762SOL     OW37747   4.413   2.747   4.281 -0.1867  0.2310  0.3407
 8762SOL    HW137748   4.404   2.828   4.331 -0.0734  0.4809 -0.0409
 8762SOL    HW237749   4.506   2.729   4.296  0.3983  0.8019 -2.5165
 8763SOL     OW37750   3.749   0.323  15.182  0.2102 -0.2699 -0.0245
 8763SOL    HW137751   3.717   0.388  15.245 -1.3361  0.4943 -1.6020
 8763SOL    HW237752   3.687   0.258  15.213 -1.7123  0.3842 -2.5496
 8764SOL     OW37753   3.323   1.626   1.068 -0.1123  0.8116  0.2306
 8764SOL    HW137754   3.272   1.704   1.088  0.1967  0.4884  2.2524
 8764SOL    HW237755   3.414   1.653   1.060  0.1889 -0.1114  0.5031
 8765SOL     OW37756   0.255   0.443   8.456 -0.1806  0.2135 -0.1419
 8765SOL    HW137757   0.259   0.408   8.367 -0.2139 -1.4789  0.5197
 8765SOL    HW237758   0.300   0.373   8.503 -1.4644 -0.7864 -0.4023
 8766SOL     OW37759   0.321   2.228   7.677  0.6968  0.0212 -0.8872
 8766SOL    HW137760   0.277   2.310   7.701 -0.9694 -0.8707 -0.8963
 8766SOL    HW237761   0.260   2.186   7.617  0.7914 -0.9647 -0.3021
 8767SOL     OW37762   3.040   0.060  15.612  0.1085 -0.7759  0.0793
 8767SOL    HW137763   3.015   4.692  15.607 -1.2260 -0.5711  3.4586
 8767SOL    HW237764   2.987   0.106  15.547 -0.0243  0.0800  0.8027
 8768SOL     OW37765   1.235   1.095   8.094 -0.0801 -0.5264 -0.0311
 8768SOL    HW137766   1.166   1.142   8.141  0.9641  0.7506  0.2268
 8768SOL    HW237767   1.310   1.123   8.146 -0.4395  0.7557 -0.1932
 8769SOL     OW37768   3.987   3.059   5.827  0.2410  0.3492  0.0372
 8769SOL    HW137769   3.907   3.102   5.857 -0.4878 -0.9209 -0.0986
 8769SOL    HW237770   4.003   2.999   5.901  2.6085  1.2756  0.2919
 8770SOL     OW37771   4.375   3.962   3.290 -0.2238  0.6148 -0.5076
 8770SOL    HW137772   4.300   4.016   3.265 -0.6231  0.3572  0.1297
 8770SOL    HW237773   4.344   3.911   3.365  1.6161 -1.1551 -0.9870
 8771SOL     OW37774   3.382   3.834   5.740 -0.4376 -0.1680  0.2632
 8771SOL    HW137775   3.470   3.838   5.777 -1.1916 -1.4620  2.2672
 8771SOL    HW237776   3.403   3.776   5.668  0.5640 -0.6875  0.9735
 8772SOL     OW37777   2.362   1.489   7.577 -0.4216 -0.0886  0.2239
 8772SOL    HW137778   2.366   1.517   7.669  0.8024 -0.4159  0.2679
 8772SOL    HW237779   2.427   1.418   7.579  2.2809  2.3142 -1.0637
 8773SOL     OW37780   3.222   3.205   0.509 -0.2548 -0.0356 -0.0955
 8773SOL    HW137781   3.286   3.250   0.454  0.2421 -0.7141 -0.0688
 8773SOL    HW237782   3.277   3.131   0.533 -0.8810 -0.8589 -1.1615
 8774SOL     OW37783   2.337   4.182   3.635 -0.2991  0.0674 -0.8579
 8774SOL    HW137784   2.358   4.184   3.728  0.0321  0.9743 -0.9522
 8774SOL    HW237785   2.249   4.218   3.641 -0.9225 -1.6929  0.5696
 8775SOL     OW37786   3.379   1.363   5.307  0.2464  0.2493  0.2173
 8775SOL    HW137787   3.376   1.268   5.303  0.2688  0.2262  0.6923
 8775SOL    HW237788   3.292   1.388   5.273 -0.0709 -1.1393  0.0111
 8776SOL     OW37789   4.689   0.472   6.771  0.0302  0.3517 -0.3359
 8776SOL    HW137790   4.722   0.545   6.823  0.7564 -0.0533 -0.2307
 8776SOL    HW237791   0.036   0.407   6.773  0.0839  0.4888  2.3876
 8777SOL     OW37792   2.871   0.098   5.055  0.3692 -0.3292  0.0974
 8777SOL    HW137793   2.798   0.158   5.039  1.6807  1.6043  1.3700
 8777SOL    HW237794   2.841   0.019   5.010 -1.1155 -0.8915  2.0462
 8778SOL     OW37795   0.878   0.335   3.796 -0.2601 -1.0297  0.1231
 8778SOL    HW137796   0.944   0.295   3.852  0.5280 -0.3606 -0.3150
 8778SOL    HW237797   0.814   0.367   3.859  0.1872  0.9873 -0.4218
 8779SOL     OW37798   0.684   3.819  17.644  0.3738 -0.1581  0.4229
 8779SOL    HW137799   0.643   3.759   0.010 -3.1410  0.7493 -0.9959
 8779SOL    HW237800   0.765   3.827  17.693  0.9997 -1.1355 -0.4600
 8780SOL     OW37801   4.343   4.187   4.417  0.1271 -0.2337 -0.1825
 8780SOL    HW137802   4.277   4.159   4.353  0.9246 -2.0511 -0.2039
 8780SOL    HW237803   4.280   4.232   4.473  3.1351  1.2976  1.9497
 8781SOL     OW37804   0.463   3.144   2.780 -0.0946 -0.0523  0.7789
 8781SOL    HW137805   0.525   3.129   2.709  1.4799 -1.2998  2.4250
 8781SOL    HW237806   0.420   3.225   2.754 -2.9464 -1.8172 -0.0330
 8782SOL     OW37807   1.753   0.767   6.649  0.1456 -0.1030 -0.0881
 8782SOL    HW137808   1.758   0.798   6.740  4.4214 -1.1072  0.0432
 8782SOL    HW237809   1.830   0.821   6.632  0.0810  0.0480  0.0975
 8783SOL     OW37810   2.443   2.669   2.077 -0.1229 -0.6057 -0.2147
 8783SOL    HW137811   2.385   2.677   2.001 -1.3951  0.9966  0.9314
 8783SOL    HW237812   2.385   2.709   2.142  0.7717  0.2759  0.0465
 8784SOL     OW37813   1.145   0.699   3.819 -0.3174  0.5427  0.1764
 8784SOL    HW137814   1.115   0.789   3.836 -2.7929 -0.2781  0.0886
 8784SOL    HW237815   1.129   0.683   3.726 -3.5894 -0.4615  0.9225
 8785SOL     OW37816   1.430   2.495  15.720  0.4939  0.0959  0.2956
 8785SOL    HW137817   1.445   2.544  15.801  1.1656  0.6472 -0.1535
 8785SOL    HW237818   1.402   2.561  15.656 -0.4501 -1.8698 -1.2968
 8786SOL     OW37819   1.908   3.169   8.102 -0.4831  0.2187 -0.0159
 8786SOL    HW137820   1.977   3.160   8.036 -0.2258  0.5615  0.1975
 8786SOL    HW237821   1.840   3.115   8.063 -0.7534 -1.1562  2.3419
 8787SOL     OW37822   4.038   2.334   2.801  0.2572  0.3098 -0.1813
 8787SOL    HW137823   4.038   2.241   2.780  0.4725 -0.1977  2.1692
 8787SOL    HW237824   3.951   2.364   2.773 -0.4920 -1.2565  0.5161
 8788SOL     OW37825   2.855   1.310   5.496  0.7847 -0.3070  0.0288
 8788SOL    HW137826   2.760   1.322   5.501  0.8233  0.8002 -1.7865
 8788SOL    HW237827   2.868   1.275   5.408 -0.0152 -0.0653 -0.1811
 8789SOL     OW37828   2.594   0.447   4.631  0.3991  0.1263 -0.2434
 8789SOL    HW137829   2.530   0.494   4.684 -1.1292 -0.1063 -1.8779
 8789SOL    HW237830   2.641   0.387   4.689  1.7545  1.2353 -0.1826
 8790SOL     OW37831   4.521   3.511   9.231 -0.3530 -0.4182  0.1511
 8790SOL    HW137832   4.441   3.472   9.267 -0.5312 -0.6078 -0.4500
 8790SOL    HW237833   4.567   3.541   9.310  0.3388  1.2677 -0.8926
 8791SOL     OW37834   4.682   1.773   1.861 -0.2680  0.3997  0.0246
 8791SOL    HW137835   0.014   1.719   1.804  0.9525  0.0558  1.5180
 8791SOL    HW237836   0.022   1.827   1.908 -0.6859  2.2364 -1.5394
 8792SOL     OW37837   0.665   2.267   8.896 -0.1410  0.5370  0.0824
 8792SOL    HW137838   0.636   2.265   8.805  2.1458  3.2145 -0.7207
 8792SOL    HW237839   0.739   2.328   8.894 -0.7439  1.2813  0.6616
 8793SOL     OW37840   0.449   1.147  14.267  0.4486 -0.0607 -0.0677
 8793SOL    HW137841   0.462   1.071  14.210  0.4450  0.4225 -0.7181
 8793SOL    HW237842   0.449   1.213  14.198  1.0965 -1.4158 -1.3674
 8794SOL     OW37843   1.527   3.861   7.621 -0.0319 -0.1358 -0.4801
 8794SOL    HW137844   1.449   3.873   7.567 -0.7072 -0.2290  0.4728
 8794SOL    HW237845   1.491   3.785   7.668 -0.4466  0.4583  0.1501
 8795SOL     OW37846   2.821   4.419   3.283 -0.6076 -0.1489  0.4215
 8795SOL    HW137847   2.783   4.458   3.204  0.2697 -0.0251  0.0663
 8795SOL    HW237848   2.824   4.328   3.255  0.8137 -0.4275  1.4937
 8796SOL     OW37849   2.100   3.361   8.695 -0.3287  0.0084  0.4556
 8796SOL    HW137850   2.031   3.421   8.667  1.0693  0.4686 -2.0531
 8796SOL    HW237851   2.094   3.292   8.629 -0.2841  1.2942 -0.9142
 8797SOL     OW37852   2.018   0.907  12.754 -0.4032  0.1247  0.3653
 8797SOL    HW137853   2.110   0.888  12.732 -0.6629  0.2749 -0.8359
 8797SOL    HW237854   1.999   0.860  12.836 -0.8692  0.9811  0.7407
 8798SOL     OW37855   0.980   1.316   3.245  0.7545 -0.6035  0.3792
 8798SOL    HW137856   0.897   1.329   3.292  0.8092 -1.8909  0.8318
 8798SOL    HW237857   1.033   1.265   3.306 -0.8766 -2.3693  0.3335
 8799SOL     OW37858   0.537   4.660  11.281 -0.2717 -0.0258  0.2062
 8799SOL    HW137859   0.608   4.719  11.255 -0.8104  0.9018  0.8046
 8799SOL    HW237860   0.539   4.658  11.377  0.1785 -1.0554  0.1692
 8800SOL     OW37861   0.267   3.528  15.223  0.2903  0.3002  0.0302
 8800SOL    HW137862   0.226   3.520  15.137 -0.3057 -3.5178  0.6785
 8800SOL    HW237863   0.297   3.438  15.230  0.1397  0.2969  0.6207
 8801SOL     OW37864   2.044   3.933   7.400 -0.3983 -0.1629 -0.0117
 8801SOL    HW137865   2.009   4.003   7.345 -0.5925 -0.4864 -0.2992
 8801SOL    HW237866   2.137   3.951   7.407 -1.1234  3.3044  0.9928
 8802SOL     OW37867   1.409   3.464   4.805  0.0929  0.1131  0.0689
 8802SOL    HW137868   1.483   3.522   4.789  1.2221 -1.2549  0.3589
 8802SOL    HW237869   1.437   3.373   4.795  1.3997  0.6275 -0.8796
 8803SOL     OW37870   0.133   2.295  15.009  0.1715 -0.0972  0.3462
 8803SOL    HW137871   0.169   2.366  15.061 -0.3208  0.9319 -0.7256
 8803SOL    HW237872   0.165   2.304  14.919 -0.0600  0.4859  0.3259
 8804SOL     OW37873   2.725   3.081  14.314 -0.2088  0.2527 -0.1435
 8804SOL    HW137874   2.686   3.159  14.274 -2.8054 -0.3303  1.2121
 8804SOL    HW237875   2.658   3.020  14.283 -1.4995  3.0002 -2.7455
 8805SOL     OW37876   2.113   2.699   8.505 -0.4142 -0.6893  0.5747
 8805SOL    HW137877   2.061   2.665   8.432  2.3556 -2.0643 -0.7439
 8805SOL    HW237878   2.086   2.791   8.510  0.3131 -0.5190  1.3176
 8806SOL     OW37879   2.157   2.257   9.315 -0.1958 -0.7991  0.1034
 8806SOL    HW137880   2.168   2.236   9.223  2.9991 -1.5631  0.6496
 8806SOL    HW237881   2.241   2.303   9.324  0.1395 -1.0215 -1.9024
 8807SOL     OW37882   4.400   0.204   3.827  0.5665  0.8607  0.1731
 8807SOL    HW137883   4.352   0.286   3.840  0.0008  0.1465  2.5996
 8807SOL    HW237884   4.332   0.142   3.804  1.1147  0.1440  0.4882
 8808SOL     OW37885   4.551   4.451   5.461  0.1921  0.0500 -0.1797
 8808SOL    HW137886   4.547   4.497   5.545  0.5173 -0.2213 -0.0141
 8808SOL    HW237887   4.641   4.420   5.470  0.1021 -0.2869 -0.4385
 8809SOL     OW37888   3.831   2.120  11.182  0.0237  0.6311  0.2496
 8809SOL    HW137889   3.917   2.134  11.220  0.6755  0.7888 -1.2822
 8809SOL    HW237890   3.803   2.033  11.210  3.6387 -0.4800  0.3772
 8810SOL     OW37891   1.455   1.002  12.517 -0.4424  0.4331  0.6549
 8810SOL    HW137892   1.524   0.964  12.570  0.2071  0.3593 -0.2531
 8810SOL    HW237893   1.450   1.089  12.557  0.0707  0.4784  0.6125
 8811SOL     OW37894   0.754   2.457  10.740 -1.0432  0.0572 -0.1255
 8811SOL    HW137895   0.689   2.468  10.670  1.1347 -0.8473 -2.3091
 8811SOL    HW237896   0.697   2.456  10.817  0.4838  1.9265  1.0308
 8812SOL     OW37897   2.384   2.170   5.730 -0.1564 -0.0521 -0.0574
 8812SOL    HW137898   2.446   2.099   5.747  0.7270  1.2369  2.1018
 8812SOL    HW237899   2.336   2.167   5.813 -0.9576 -1.7583 -0.5883
 8813SOL     OW37900   3.962   0.299   4.352  0.2354 -0.3166  0.1772
 8813SOL    HW137901   4.020   0.290   4.276  1.8219 -2.3447  1.6214
 8813SOL    HW237902   3.887   0.242   4.337  0.9991 -1.4611  0.6620
 8814SOL     OW37903   0.246   1.551   5.126  0.1556 -0.2363  0.0743
 8814SOL    HW137904   0.297   1.568   5.205 -1.0161 -0.3715  0.8605
 8814SOL    HW237905   0.272   1.633   5.084 -1.4431 -0.2040 -0.8725
 8815SOL     OW37906   3.626   1.736   5.373 -0.1773  0.1133 -0.5201
 8815SOL    HW137907   3.658   1.824   5.355 -1.6389  0.6932 -0.2595
 8815SOL    HW237908   3.672   1.713   5.455 -1.4063 -0.3528  0.0349
 8816SOL     OW37909   2.793   2.990  17.473  0.4146  0.1495  0.0328
 8816SOL    HW137910   2.792   3.071  17.422 -0.9866 -0.5124 -0.9744
 8816SOL    HW237911   2.873   3.010  17.523  0.4641  1.9217 -0.7629
 8817SOL     OW37912   2.223   2.235  13.010  0.2510 -0.5146  0.4876
 8817SOL    HW137913   2.199   2.145  12.987 -1.4932 -0.0175  0.3265
 8817SOL    HW237914   2.309   2.234  13.053  1.9508  1.3912 -2.8416
 8818SOL     OW37915   0.259   2.354   3.558 -0.3389 -0.2139 -0.3526
 8818SOL    HW137916   0.181   2.408   3.575 -0.2387  0.3538 -1.6899
 8818SOL    HW237917   0.299   2.349   3.645  0.3934  0.0078 -0.6780
 8819SOL     OW37918   0.503   2.536   3.282  0.4087 -0.1347 -0.7799
 8819SOL    HW137919   0.427   2.594   3.288  0.0344 -0.5464 -1.4617
 8819SOL    HW237920   0.479   2.470   3.217 -1.0171 -1.6548  1.3135
 8820SOL     OW37921   0.600   1.812   5.486 -0.1684  0.1159  0.6556
 8820SOL    HW137922   0.695   1.813   5.478 -0.2765 -0.8272 -0.7200
 8820SOL    HW237923   0.589   1.883   5.423  1.5445 -0.8890 -0.7713
 8821SOL     OW37924   3.894   1.359  12.245  0.0921 -0.4404  0.4495
 8821SOL    HW137925   3.853   1.425  12.301  0.1473  1.2020 -1.4255
 8821SOL    HW237926   3.985   1.387  12.258  0.1372 -1.2405  1.7841
 8822SOL     OW37927   2.385   1.407  14.652  0.3983 -0.1306  0.7837
 8822SOL    HW137928   2.349   1.320  14.636  1.7687 -0.3615 -1.0243
 8822SOL    HW237929   2.336   1.435  14.730  2.7702  2.4573  1.3648
 8823SOL     OW37930   2.055   4.268  17.482 -0.4639  0.2435  0.6423
 8823SOL    HW137931   2.050   4.175  17.461  0.6792  0.3143  0.0493
 8823SOL    HW237932   1.991   4.305  17.421 -0.6416 -1.2714 -0.0951
 8824SOL     OW37933   3.446   1.405   9.323  0.1325  0.1094 -0.0906
 8824SOL    HW137934   3.526   1.365   9.287 -0.6191 -0.1734 -1.4374
 8824SOL    HW237935   3.417   1.339   9.386 -1.7333  0.9877 -0.0542
 8825SOL     OW37936   2.799   0.010   5.425 -0.1949 -0.0290 -0.3283
 8825SOL    HW137937   2.772   4.659   5.479 -1.3624  0.3352 -0.4091
 8825SOL    HW237938   2.800   4.699   5.336  1.7782  1.2181 -0.8028
 8826SOL     OW37939   4.073   1.593  14.083 -0.3237  0.3073  0.7695
 8826SOL    HW137940   4.022   1.513  14.067 -0.5016  0.4774  0.5018
 8826SOL    HW237941   4.007   1.659  14.064  0.3797  1.2858  1.7005
 8827SOL     OW37942   1.714   1.000  16.758  0.2116 -0.0685 -0.2794
 8827SOL    HW137943   1.628   1.035  16.777 -0.5841 -1.6429 -0.9879
 8827SOL    HW237944   1.732   1.035  16.670  1.9676 -2.6482 -0.9357
 8828SOL     OW37945   4.268   0.604  12.820 -0.0014 -0.0748 -0.5129
 8828SOL    HW137946   4.232   0.552  12.747 -1.6023  2.8986 -1.8337
 8828SOL    HW237947   4.353   0.627  12.784 -0.1616  1.9646  0.4562
 8829SOL     OW37948   3.655   0.293  12.662 -0.1475 -0.1502 -0.3359
 8829SOL    HW137949   3.728   0.238  12.690  1.0235  1.5023 -0.1073
 8829SOL    HW237950   3.580   0.236  12.648 -1.5312  1.4832  0.3106
 8830SOL     OW37951   1.341   0.370   5.318  0.0235 -0.3887 -0.0537
 8830SOL    HW137952   1.313   0.287   5.357 -2.8184  0.4315 -0.3461
 8830SOL    HW237953   1.369   0.424   5.391 -2.1111 -0.5291  0.8636
 8831SOL     OW37954   4.347   0.788  10.713  0.3790 -0.0479 -0.2003
 8831SOL    HW137955   4.376   0.854  10.776  1.1514  0.9731 -1.6363
 8831SOL    HW237956   4.422   0.729  10.714  0.3337 -0.0810  1.8054
 8832SOL     OW37957   2.743   1.482   8.757  0.3294  0.5359 -0.3311
 8832SOL    HW137958   2.716   1.427   8.831 -1.1563  2.5674  0.6381
 8832SOL    HW237959   2.706   1.558   8.802 -1.8943 -0.6617 -0.1111
 8833SOL     OW37960   3.364   1.156   8.541 -0.0600 -0.3293 -0.1537
 8833SOL    HW137961   3.320   1.073   8.529  0.1988 -0.1622 -2.1583
 8833SOL    HW237962   3.334   1.172   8.631  0.8659 -1.0813  0.2953
 8834SOL     OW37963   4.359   0.641   2.579  0.6278  0.4920 -0.0840
 8834SOL    HW137964   4.365   0.705   2.650 -0.2954 -0.9988  1.3190
 8834SOL    HW237965   4.385   0.693   2.503 -0.8338 -2.4179 -2.5554
 8835SOL     OW37966   0.380   4.567   5.258 -0.3329  0.2425 -0.3899
 8835SOL    HW137967   0.338   4.554   5.173 -1.0602  1.4735 -0.2204
 8835SOL    HW237968   0.311   4.596   5.318 -0.4339  1.2865 -1.0087
 8836SOL     OW37969   4.541   0.818  17.291  0.3119  0.0370 -0.0603
 8836SOL    HW137970   4.490   0.841  17.213  0.3063  1.9514  0.5203
 8836SOL    HW237971   4.521   0.724  17.293  0.0038  0.1702  2.4475
 8837SOL     OW37972   1.283   3.732   4.285  0.7778  0.4014  0.2124
 8837SOL    HW137973   1.291   3.801   4.219  1.8309  0.0972  0.0123
 8837SOL    HW237974   1.249   3.656   4.239 -1.1426  1.0437  0.5899
 8838SOL     OW37975   3.969   1.476   7.503  0.7838  0.3220  0.3505
 8838SOL    HW137976   4.023   1.530   7.562 -1.1096  1.2350  1.2264
 8838SOL    HW237977   3.994   1.519   7.421  1.5651 -1.3095 -0.2616
 8839SOL     OW37978   3.668   2.218   7.493 -0.3511 -0.5828  0.0190
 8839SOL    HW137979   3.709   2.213   7.579  1.2665 -1.7883 -0.8356
 8839SOL    HW237980   3.573   2.211   7.507 -0.6337  0.1196 -1.4409
 8840SOL     OW37981   2.360   1.453   4.024  0.2736 -0.2720  0.1020
 8840SOL    HW137982   2.401   1.530   3.985  2.9751 -1.4710  0.5348
 8840SOL    HW237983   2.372   1.467   4.118 -1.2815  0.0842  0.2418
 8841SOL     OW37984   3.301   1.054   7.011  0.0807 -0.0137  0.0297
 8841SOL    HW137985   3.247   0.995   7.064  0.6957 -1.1799 -0.6603
 8841SOL    HW237986   3.391   1.057   7.044 -0.3397  1.3168  1.0856
 8842SOL     OW37987   3.711   2.271   9.559 -0.3369 -0.1372  0.0656
 8842SOL    HW137988   3.741   2.362   9.568 -0.2810 -0.2296  0.8614
 8842SOL    HW237989   3.776   2.228   9.615 -1.9256 -0.3586  1.7490
 8843SOL     OW37990   4.587   0.150   4.015  0.0482 -0.2294  0.4469
 8843SOL    HW137991   4.528   0.160   3.940 -0.7255 -2.6731  0.7281
 8843SOL    HW237992   4.533   0.101   4.077 -2.1637  0.6294 -0.8116
 8844SOL     OW37993   3.631   4.107  11.356  0.3599  0.7494  0.8886
 8844SOL    HW137994   3.724   4.086  11.366  0.5190  1.3544  0.6683
 8844SOL    HW237995   3.631   4.199  11.331  0.0953  0.3200 -0.6746
 8845SOL     OW37996   0.059   0.082   8.430 -0.3444  0.3475 -0.2246
 8845SOL    HW137997   0.035   0.116   8.344  0.4268  1.7526  0.1097
 8845SOL    HW237998   0.151   0.107   8.437 -0.5061  0.9621 -0.3136
 8846SOL     OW37999   1.613   3.652  12.259  0.4326 -0.1299  0.1755
 8846SOL    HW138000   1.642   3.608  12.339  1.9155  2.2698  0.9681
 8846SOL    HW238001   1.697   3.694  12.240  0.2653  0.7492  1.3678
 8847SOL     OW38002   4.406   1.103   5.536  0.3467 -0.4627 -0.4653
 8847SOL    HW138003   4.490   1.135   5.568  0.5037 -1.2357 -0.0856
 8847SOL    HW238004   4.393   1.023   5.588  1.1343 -0.2900 -0.0022
 8848SOL     OW38005   2.494   2.866   8.831  0.0710  0.2110  0.4529
 8848SOL    HW138006   2.477   2.794   8.892  1.0086 -0.1844  0.2431
 8848SOL    HW238007   2.549   2.827   8.763 -3.3374  0.8622 -2.6935
 8849SOL     OW38008   4.292   4.427  11.046  0.1263  0.8845 -0.2751
 8849SOL    HW138009   4.325   4.337  11.045  2.5713  1.7562  0.3661
 8849SOL    HW238010   4.344   4.465  10.975 -0.0357  1.1549 -0.2495
 8850SOL     OW38011   2.368   1.035  15.693  0.3956 -0.4121  0.6290
 8850SOL    HW138012   2.440   1.073  15.743 -0.5295  1.9179  0.1934
 8850SOL    HW238013   2.415   0.982  15.628 -2.4700 -0.7080 -1.1999
 8851SOL     OW38014   3.854   0.581   8.570  0.5240  0.0861 -0.7001
 8851SOL    HW138015   3.933   0.573   8.624  0.4924  3.5094 -0.1508
 8851SOL    HW238016   3.852   0.666   8.526  2.2935 -0.5940 -2.0955
 8852SOL     OW38017   4.325   1.493   3.201  0.2610 -0.4483 -0.2330
 8852SOL    HW138018   4.269   1.419   3.179  0.4187 -0.6446  0.0278
 8852SOL    HW238019   4.263   1.566   3.200  1.0999  0.2635 -1.2383
 8853SOL     OW38020   4.346   1.315  13.705 -0.2452 -0.5985 -0.4154
 8853SOL    HW138021   4.266   1.306  13.756 -0.9678  2.3840 -1.0121
 8853SOL    HW238022   4.308   1.302  13.618 -0.9590  1.5375 -0.4147
 8854SOL     OW38023   3.754   2.483   8.517 -0.2273  0.4508  0.1039
 8854SOL    HW138024   3.800   2.555   8.559 -0.6256  0.8607 -0.1534
 8854SOL    HW238025   3.719   2.430   8.588 -1.1263 -0.4736 -1.0256
 8855SOL     OW38026   2.967   4.010   2.494  0.4457 -0.2605  0.0751
 8855SOL    HW138027   2.969   3.924   2.536  0.4486  0.7625  2.1771
 8855SOL    HW238028   3.027   4.063   2.546  0.5746 -1.2820  0.9602
 8856SOL     OW38029   0.209   3.808  15.284  0.2333 -0.5161  0.1858
 8856SOL    HW138030   0.234   3.717  15.267  3.0543  0.6550 -1.9760
 8856SOL    HW238031   0.287   3.853  15.315 -0.5150 -1.1028  2.8841
 8857SOL     OW38032   3.981   0.359   6.450 -0.4636 -0.3908 -0.2238
 8857SOL    HW138033   4.066   0.379   6.489 -0.3839  0.7303 -0.9809
 8857SOL    HW238034   3.994   0.384   6.359 -0.7002 -0.3272 -0.2400
 8858SOL     OW38035   0.843   3.644   4.562  0.1033  0.1833  0.1766
 8858SOL    HW138036   0.893   3.719   4.531 -0.1466 -0.6184 -2.1922
 8858SOL    HW238037   0.757   3.687   4.569  0.5533  0.9395  1.0020
 8859SOL     OW38038   1.670   4.690   3.011  0.7984 -0.1124  0.1152
 8859SOL    HW138039   1.612   4.720   2.940  0.4713  0.5319  0.6534
 8859SOL    HW238040   1.752   4.710   2.966  1.2925 -0.4724  0.8563
 8860SOL     OW38041   0.878   1.493   7.115  0.4720 -0.3397  0.6063
 8860SOL    HW138042   0.891   1.484   7.020  1.9327  0.2563  0.7475
 8860SOL    HW238043   0.845   1.411   7.150 -0.5670 -0.6944 -1.1966
 8861SOL     OW38044   2.662   2.322   3.689 -0.3975 -0.7347  0.1248
 8861SOL    HW138045   2.710   2.239   3.681  1.8530  0.6870 -1.2853
 8861SOL    HW238046   2.730   2.390   3.688 -1.5732  0.4023 -1.3477
 8862SOL     OW38047   0.446   4.079   8.160  0.3337 -0.2142 -0.1716
 8862SOL    HW138048   0.455   4.106   8.252 -0.7061  0.0792 -0.1607
 8862SOL    HW238049   0.514   4.133   8.120 -1.8635  2.4116 -0.3573
 8863SOL     OW38050   3.761   4.277   0.911  0.2550  0.0869 -0.5282
 8863SOL    HW138051   3.826   4.347   0.913 -0.9357  1.2182 -1.5257
 8863SOL    HW238052   3.755   4.243   1.000  1.3391  0.4319 -0.3247
 8864SOL     OW38053   1.937   4.157   7.051  0.5901 -0.1598 -0.0178
 8864SOL    HW138054   1.905   4.157   7.141  0.2125  0.9539 -0.1483
 8864SOL    HW238055   1.907   4.244   7.025  1.7765  0.4033  0.5222
 8865SOL     OW38056   4.517   3.933   5.633 -0.3008  0.1294 -0.2539
 8865SOL    HW138057   4.538   3.950   5.725 -1.3240  2.6161 -0.5007
 8865SOL    HW238058   4.537   3.840   5.623  0.7348  0.1824  1.2233
 8866SOL     OW38059   0.616   4.522   1.944 -0.5217 -0.2866  0.2739
 8866SOL    HW138060   0.666   4.546   2.023  1.4832  0.3243 -1.1710
 8866SOL    HW238061   0.623   4.426   1.945 -1.0006 -0.3158  1.1320
 8867SOL     OW38062   1.975   2.501   2.711  0.2769 -0.2406  0.6211
 8867SOL    HW138063   2.037   2.547   2.768 -1.6161  3.9815 -0.7226
 8867SOL    HW238064   2.035   2.430   2.686  1.4097  1.6012 -1.9057
 8868SOL     OW38065   3.388   2.968   9.718 -0.0982  0.4118 -0.1324
 8868SOL    HW138066   3.399   2.884   9.673  2.8400 -0.2666  1.8487
 8868SOL    HW238067   3.430   2.948   9.802 -0.3846  1.0320  0.1606
 8869SOL     OW38068   1.137   1.737  14.793 -0.1070  0.1889  0.2807
 8869SOL    HW138069   1.168   1.824  14.818  0.4638 -0.0733  0.4970
 8869SOL    HW238070   1.045   1.751  14.773 -0.2149 -1.4245 -0.4008
 8870SOL     OW38071   1.599   4.237   0.292 -0.0065  0.4739  0.0897
 8870SOL    HW138072   1.525   4.277   0.339 -0.8723  0.6751 -1.4581
 8870SOL    HW238073   1.570   4.149   0.267  1.4538  0.8533 -2.8943
 8871SOL     OW38074   3.427   3.398   0.428 -0.2633 -0.8630 -0.6681
 8871SOL    HW138075   3.430   3.466   0.360 -1.5632 -0.5516 -0.4110
 8871SOL    HW238076   3.473   3.333   0.375  1.5866 -0.0855  0.0058
 8872SOL     OW38077   1.049   1.905  11.307 -0.2965  0.1756 -0.7718
 8872SOL    HW138078   0.968   1.901  11.255 -1.0979 -1.3024  0.5727
 8872SOL    HW238079   1.021   1.979  11.361 -0.2950 -0.0247 -0.4942
 8873SOL     OW38080   3.130   2.477   2.199  0.6795  0.0171  0.1310
 8873SOL    HW138081   3.210   2.513   2.237 -0.6910  0.3913  2.6423
 8873SOL    HW238082   3.151   2.385   2.214  1.6498  0.3072  0.5353
 8874SOL     OW38083   1.701   4.126   3.936 -0.6500 -0.1805 -0.4480
 8874SOL    HW138084   1.618   4.082   3.924 -1.0361  0.2659  0.5665
 8874SOL    HW238085   1.685   4.221   3.930  0.9823  0.1907  0.8539
 8875SOL     OW38086   2.798   2.795   7.102  0.4810 -0.2980 -0.2564
 8875SOL    HW138087   2.737   2.787   7.029 -0.6856  1.1580  0.5589
 8875SOL    HW238088   2.775   2.882   7.134 -0.0408  0.2615 -2.1612
 8876SOL     OW38089   2.677   3.830   8.613  0.4275 -0.1109 -0.2637
 8876SOL    HW138090   2.601   3.842   8.671  1.1692  1.9877  0.2494
 8876SOL    HW238091   2.683   3.910   8.562  2.4300  0.3284  0.6772
 8877SOL     OW38092   1.256   0.386   1.518 -0.0210 -0.2335  0.0909
 8877SOL    HW138093   1.209   0.454   1.469  0.8508  1.2074  1.2395
 8877SOL    HW238094   1.324   0.357   1.457  0.6248  0.8435  0.2927
 8878SOL     OW38095   4.411   2.161   4.564 -0.7513 -0.2678  0.1367
 8878SOL    HW138096   4.427   2.150   4.658 -1.3961  0.6415  0.3413
 8878SOL    HW238097   4.397   2.068   4.543 -0.7873 -0.3530  0.5430
 8879SOL     OW38098   0.993   0.607   0.381 -0.1681 -0.9932  0.2860
 8879SOL    HW138099   0.948   0.640   0.303  0.1276  0.8171  0.8978
 8879SOL    HW238100   1.052   0.680   0.395 -0.7389 -0.4919  0.0832
 8880SOL     OW38101   3.390   2.309   9.382  1.1818  0.1885  0.3215
 8880SOL    HW138102   3.337   2.277   9.309 -0.7543  1.4967  1.1451
 8880SOL    HW238103   3.440   2.376   9.336  1.5020 -1.2144 -1.3794
 8881SOL     OW38104   1.731   0.282  10.612  0.2004  0.3614 -0.0531
 8881SOL    HW138105   1.649   0.237  10.633 -0.2770  0.1362 -2.3378
 8881SOL    HW238106   1.711   0.343  10.541  0.4033  0.7182  0.1959
 8882SOL     OW38107   3.552   3.378   5.237 -0.2915  0.4663  0.6349
 8882SOL    HW138108   3.594   3.341   5.315  0.4385 -0.1656 -0.0545
 8882SOL    HW238109   3.628   3.421   5.198  0.8330 -0.3039  1.9588
 8883SOL     OW38110   0.366   1.655   5.371  0.5737 -0.4660  0.0227
 8883SOL    HW138111   0.437   1.714   5.395  0.4258 -0.9765  1.7650
 8883SOL    HW238112   0.399   1.570   5.400 -0.2088 -1.3161 -1.5735
 8884SOL     OW38113   1.458   3.457   3.345 -0.2355 -0.0744 -0.2574
 8884SOL    HW138114   1.373   3.501   3.340 -1.3508 -1.8648  3.1047
 8884SOL    HW238115   1.501   3.490   3.267  1.2884 -0.3436  0.4729
 8885SOL     OW38116   0.929   2.060   7.856 -0.3868 -0.0345 -0.5460
 8885SOL    HW138117   0.917   2.126   7.787  0.4997  0.7273  0.0356
 8885SOL    HW238118   0.898   2.105   7.934 -1.6773  0.6341 -1.4455
 8886SOL     OW38119   0.088   3.605   8.898 -0.5290 -0.3448  0.1801
 8886SOL    HW138120   0.128   3.533   8.948 -0.8010 -0.0726  0.7900
 8886SOL    HW238121   0.175   3.641   8.879 -0.0337 -3.0072 -2.5713
 8887SOL     OW38122   0.291   2.948   2.846 -0.1486  0.1753 -0.2098
 8887SOL    HW138123   0.243   2.973   2.925  2.0840  0.5905  1.0125
 8887SOL    HW238124   0.337   3.027   2.820  0.1411 -0.7046 -2.3305
 8888SOL     OW38125   2.898   4.144  13.339 -0.3737  0.2296  0.1403
 8888SOL    HW138126   2.806   4.124  13.320 -1.0468  2.1304  1.4750
 8888SOL    HW238127   2.915   4.093  13.418 -1.5707  1.9733  1.5011
 8889SOL     OW38128   2.830   3.633   3.969  0.0195 -0.5364  0.4448
 8889SOL    HW138129   2.866   3.691   3.902 -1.5148  0.2267  0.2569
 8889SOL    HW238130   2.907   3.580   3.986  1.6825  0.9896 -2.3963
 8890SOL     OW38131   2.686   0.386   6.286  0.0936  0.0523 -0.0437
 8890SOL    HW138132   2.599   0.347   6.281 -0.4857  1.4326 -0.5597
 8890SOL    HW238133   2.691   0.435   6.204  1.2157  0.6118  0.3549
 8891SOL     OW38134   0.503   0.405  12.216 -0.1082  0.3515 -0.3321
 8891SOL    HW138135   0.431   0.344  12.235  0.4391  0.1611  1.1723
 8891SOL    HW238136   0.540   0.363  12.139 -1.1700  0.3047 -0.8247
 8892SOL     OW38137   1.211   0.427   6.727 -0.2979  0.3687  0.8921
 8892SOL    HW138138   1.119   0.407   6.740  0.1222 -0.9430  1.9616
 8892SOL    HW238139   1.225   0.442   6.634  1.9825  0.5513  1.2496
 8893SOL     OW38140   2.448   1.084  17.620 -0.0857 -0.3820  0.6390
 8893SOL    HW138141   2.410   1.103   0.010 -3.0210 -1.7135 -0.3520
 8893SOL    HW238142   2.401   1.001  17.610 -1.8038  0.9406 -2.2002
 8894SOL     OW38143   0.363   1.114   6.487 -0.2200  0.1529  0.2280
 8894SOL    HW138144   0.383   1.052   6.557 -0.7662  1.9671  1.9946
 8894SOL    HW238145   0.272   1.087   6.474 -0.3986  1.0689 -0.4240
 8895SOL     OW38146   2.821   1.590   6.826 -0.3511  0.0384 -0.0985
 8895SOL    HW138147   2.879   1.518   6.854  2.0145  2.1085  0.3243
 8895SOL    HW238148   2.884   1.654   6.794 -1.3986  0.5128 -1.1741
 8896SOL     OW38149   2.998   0.559   7.008  0.1679 -0.1624  0.6114
 8896SOL    HW138150   2.931   0.589   6.946 -0.3806 -1.2716  0.6537
 8896SOL    HW238151   3.005   0.469   6.976 -2.0886  0.4567 -1.6865
 8897SOL     OW38152   2.640   4.039   2.135  0.3556 -0.8367  0.4874
 8897SOL    HW138153   2.593   4.070   2.213  4.0500 -1.2478  2.8804
 8897SOL    HW238154   2.673   4.126   2.110 -0.6214 -1.2391 -2.2371
 8898SOL     OW38155   1.587   3.776   2.760  0.2096 -0.4923  0.5417
 8898SOL    HW138156   1.515   3.820   2.714  0.1670  0.0993  1.1706
 8898SOL    HW238157   1.591   3.695   2.710 -0.5200 -0.3726  0.2830
 8899SOL     OW38158   3.140   0.110   5.115 -0.6250 -0.3636  0.3031
 8899SOL    HW138159   3.045   0.110   5.107 -0.6802  0.2890  0.9394
 8899SOL    HW238160   3.142   0.182   5.178  2.4966  0.7149 -1.0002
 8900SOL     OW38161   0.687   4.293   6.420  0.5437 -0.1640  0.0763
 8900SOL    HW138162   0.761   4.232   6.422  1.0176  0.4428  1.0896
 8900SOL    HW238163   0.643   4.271   6.502 -0.8947 -0.0097 -0.6589
 8901SOL     OW38164   0.836   0.443  10.060 -0.6979  0.0195 -0.6195
 8901SOL    HW138165   0.864   0.448   9.969 -1.6127  2.1565 -0.7747
 8901SOL    HW238166   0.918   0.463  10.106 -0.5007  1.3699 -1.5532
 8902SOL     OW38167   4.213   0.421  13.408  0.1160 -0.2478 -0.2206
 8902SOL    HW138168   4.150   0.433  13.337  1.0430  0.8393 -0.8568
 8902SOL    HW238169   4.245   0.509  13.428 -1.0757  0.2188 -0.3865
 8903SOL     OW38170   4.021   1.172   6.212  0.2287  0.5915  0.2161
 8903SOL    HW138171   3.994   1.152   6.301 -0.2472 -0.8596 -0.2598
 8903SOL    HW238172   4.110   1.207   6.225  0.2770  0.8875 -0.8977
 8904SOL     OW38173   0.530   0.719   5.497  0.1926 -0.5846 -0.0994
 8904SOL    HW138174   0.595   0.649   5.492 -0.5308 -1.1433 -1.6671
 8904SOL    HW238175   0.521   0.731   5.591 -1.1537 -1.1267 -0.1578
 8905SOL     OW38176   0.927   0.013   4.252 -0.7917 -0.0437 -0.3898
 8905SOL    HW138177   0.975   4.657   4.230  2.0990  1.3356  1.0128
 8905SOL    HW238178   0.953   0.035   4.341 -2.1445 -2.3348  0.5751
 8906SOL     OW38179   3.019   2.440   2.504 -0.2454  0.0839  0.5869
 8906SOL    HW138180   3.052   2.523   2.539  2.0834 -1.1631  1.3583
 8906SOL    HW238181   3.003   2.452   2.411 -1.0481  0.8468  0.8344
 8907SOL     OW38182   3.113   3.812  12.854 -0.3086 -0.1345 -0.5300
 8907SOL    HW138183   3.068   3.815  12.770 -1.5035  1.3494  0.1534
 8907SOL    HW238184   3.192   3.764  12.828 -0.6613 -0.3435 -1.2146
 8908SOL     OW38185   4.088   0.803   9.457  0.2276  0.4568 -0.1657
 8908SOL    HW138186   4.149   0.763   9.520  1.0441 -0.7097 -1.7027
 8908SOL    HW238187   4.036   0.727   9.431 -0.5214  0.8309  0.2350
 8909SOL     OW38188   2.702   2.501  12.050  0.3569  0.6583  0.8632
 8909SOL    HW138189   2.620   2.493  12.097  0.0209 -0.4053  0.0887
 8909SOL    HW238190   2.735   2.582  12.088 -0.3225  0.1680  2.4869
 8910SOL     OW38191   1.366   3.798   8.071  0.6401  0.0615  0.0208
 8910SOL    HW138192   1.434   3.731   8.082  1.2873  0.6139 -0.6109
 8910SOL    HW238193   1.310   3.761   8.003  1.2545 -0.5189 -0.1754
 8911SOL     OW38194   4.689   0.884   2.994 -0.1379 -0.2766 -0.2600
 8911SOL    HW138195   4.662   0.928   2.913  0.1174 -0.7035 -0.5761
 8911SOL    HW238196   4.705   0.796   2.962 -1.8776 -0.3041 -1.1054
 8912SOL     OW38197   0.211   4.609   5.491 -0.3089  0.1766 -0.0107
 8912SOL    HW138198   0.222   4.634   5.583  3.1106 -0.1849 -0.3430
 8912SOL    HW238199   0.142   4.672   5.467 -2.7249 -2.0506  1.1545
 8913SOL     OW38200   4.229   0.821   8.405 -0.2884 -0.3664  0.3995
 8913SOL    HW138201   4.189   0.886   8.348  0.7541  0.8545  1.0686
 8913SOL    HW238202   4.194   0.836   8.492  0.2421  1.4000  0.3027
 8914SOL     OW38203   2.188   0.449  14.704 -0.2824 -0.2294 -0.2855
 8914SOL    HW138204   2.281   0.433  14.689 -0.2660 -0.4479  0.0607
 8914SOL    HW238205   2.185   0.435  14.798 -1.7934  1.2765 -0.1001
 8915SOL     OW38206   0.737   4.722   7.754 -0.1622  0.3404 -0.0870
 8915SOL    HW138207   0.643   4.713   7.766  0.0372 -3.1543 -1.1437
 8915SOL    HW238208   0.736   0.006   7.659  0.7396  1.5641 -0.0050
 8916SOL     OW38209   3.376   0.706   7.263  0.1720  0.5250 -0.1833
 8916SOL    HW138210   3.322   0.765   7.315 -0.7356  0.3753 -0.9656
 8916SOL    HW238211   3.312   0.644   7.229 -1.5052  1.6967  0.8986
 8917SOL     OW38212   3.403   3.233   4.555  0.4440 -0.4387  0.2779
 8917SOL    HW138213   3.371   3.143   4.553  0.8843 -0.6346  1.7609
 8917SOL    HW238214   3.333   3.285   4.517  2.1546  0.7049 -1.3475
 8918SOL     OW38215   4.047   1.821  11.141 -0.7615  0.7729  0.6436
 8918SOL    HW138216   4.095   1.799  11.221  0.9832  1.0938 -0.3084
 8918SOL    HW238217   4.119   1.861  11.093 -0.1133 -1.3664 -0.1315
 8919SOL     OW38218   4.040   4.529  16.670 -0.3757  0.7305 -0.0501
 8919SOL    HW138219   4.135   4.532  16.663 -0.4265  0.8451 -0.6707
 8919SOL    HW238220   4.017   4.488  16.587  2.1006 -1.1307  0.1976
 8920SOL     OW38221   1.023   3.164  16.255 -0.1656  0.0570 -0.7556
 8920SOL    HW138222   1.037   3.107  16.179 -0.7614 -1.8631  0.5822
 8920SOL    HW238223   1.040   3.252  16.222  0.9471 -0.5126 -1.7151
 8921SOL     OW38224   4.105   1.224  16.708 -0.0163  0.4060  0.2996
 8921SOL    HW138225   4.079   1.141  16.748 -0.3647  0.6111  0.5005
 8921SOL    HW238226   4.109   1.197  16.616  1.8271  2.0700 -0.0844
 8922SOL     OW38227   2.421   4.189  12.816  0.4524  0.6063  0.2032
 8922SOL    HW138228   2.430   4.198  12.721 -1.1591  0.2274  0.0067
 8922SOL    HW238229   2.370   4.108  12.813 -1.2403  1.7441 -1.7252
 8923SOL     OW38230   1.960   4.249   0.834 -0.4914  0.3568 -0.0326
 8923SOL    HW138231   2.041   4.282   0.874 -0.9864  0.2937  1.0116
 8923SOL    HW238232   1.934   4.330   0.789 -1.6318  0.8565  1.5314
 8924SOL     OW38233   0.761   0.399  15.007  0.2060  0.3119 -0.1952
 8924SOL    HW138234   0.729   0.387  15.096  2.0005 -1.4708  0.2114
 8924SOL    HW238235   0.829   0.462  15.030 -1.8502  1.8806  1.5740
 8925SOL     OW38236   0.721   3.375  16.704  0.3599 -0.1301 -0.4475
 8925SOL    HW138237   0.727   3.282  16.683  1.5164 -0.3173  0.7546
 8925SOL    HW238238   0.787   3.385  16.772 -2.9007  0.4841  2.6395
 8926SOL     OW38239   0.224   3.057   0.083  0.5036  0.3871 -0.1607
 8926SOL    HW138240   0.278   3.088   0.011 -0.9702 -0.8357 -1.8160
 8926SOL    HW238241   0.237   3.121   0.152  0.6060  2.2047 -1.8673
 8927SOL     OW38242   0.430   4.549   6.484 -0.0504 -0.3001  0.0906
 8927SOL    HW138243   0.515   4.544   6.528 -0.1959  1.2339  0.5777
 8927SOL    HW238244   0.433   4.483   6.416 -1.8011 -1.4097  1.0895
 8928SOL     OW38245   0.721   0.252   4.916 -0.4800  0.8546 -0.4377
 8928SOL    HW138246   0.689   0.220   4.832  1.1297  2.1481 -1.5351
 8928SOL    HW238247   0.637   0.279   4.954  0.2873 -0.5748  2.3079
 8929SOL     OW38248   2.025   3.573   2.627  0.0179  0.0791  0.0618
 8929SOL    HW138249   2.054   3.635   2.561 -1.0385  0.1333 -0.3563
 8929SOL    HW238250   1.988   3.626   2.698 -0.7212  1.5123 -1.3817
 8930SOL     OW38251   0.025   0.840   9.368 -0.4085  0.2232  0.0777
 8930SOL    HW138252   0.078   0.920   9.374 -0.0107  0.0135 -0.6829
 8930SOL    HW238253   0.062   0.788   9.439 -0.9556 -0.6139 -0.2520
 8931SOL     OW38254   2.673   3.968   0.121  0.2316 -0.6363 -0.4135
 8931SOL    HW138255   2.590   3.921   0.117 -0.9790  1.3511  1.1969
 8931SOL    HW238256   2.657   4.011   0.037 -0.4974 -1.2611 -0.5971
 8932SOL     OW38257   3.924   1.672  12.423 -0.8508 -0.7298 -0.1094
 8932SOL    HW138258   3.922   1.620  12.504  1.2641  2.0688  1.7238
 8932SOL    HW238259   3.847   1.728  12.434 -1.4500 -1.3230 -1.2891
 8933SOL     OW38260   2.388   3.610  15.134 -0.0557 -0.6697  0.1341
 8933SOL    HW138261   2.443   3.687  15.120  0.1062 -1.0458 -1.2430
 8933SOL    HW238262   2.404   3.592  15.227 -1.8452 -2.1572  0.1616
 8934SOL     OW38263   2.178   0.801   9.570  0.0753  0.5513 -0.1629
 8934SOL    HW138264   2.144   0.732   9.627  0.8129  0.4093  0.1094
 8934SOL    HW238265   2.265   0.768   9.545  0.2284  1.3800 -0.7433
 8935SOL     OW38266   2.743   0.491  15.671 -0.2604  0.2522  0.3170
 8935SOL    HW138267   2.818   0.551  15.671 -0.7255  0.8346  0.7215
 8935SOL    HW238268   2.688   0.523  15.743 -0.9724  2.1711 -1.0945
 8936SOL     OW38269   1.437   1.927   2.281  0.0202  0.2195  0.3179
 8936SOL    HW138270   1.381   1.940   2.358  2.0946 -2.8092  2.3163
 8936SOL    HW238271   1.365   1.905   2.222 -1.0142  0.7410  1.3608
 8937SOL     OW38272   4.149   1.314   3.082 -0.6363 -0.4301  0.0524
 8937SOL    HW138273   4.069   1.297   3.132 -0.4959  1.6113  0.9955
 8937SOL    HW238274   4.171   1.224   3.059 -0.3734 -0.0116 -1.3177
 8938SOL     OW38275   0.703   2.546   6.592 -0.2626  0.1444  0.8244
 8938SOL    HW138276   0.704   2.458   6.630  1.2145  0.5866  1.7849
 8938SOL    HW238277   0.708   2.522   6.499 -0.7001  1.5899  0.4392
 8939SOL     OW38278   0.511   1.677   4.564  0.1437 -0.5637 -0.5837
 8939SOL    HW138279   0.584   1.710   4.512  2.0954 -3.7609  0.1622
 8939SOL    HW238280   0.527   1.706   4.654 -1.5439 -0.7368 -0.2248
 8940SOL     OW38281   2.280   0.908  12.679  0.2816 -0.3770 -0.1614
 8940SOL    HW138282   2.347   0.973  12.659  0.1315 -0.7800 -1.9629
 8940SOL    HW238283   2.334   0.848  12.731 -1.1593 -0.9129  0.6864
 8941SOL     OW38284   1.896   2.218   9.720 -0.4234 -0.2157  0.2215
 8941SOL    HW138285   1.936   2.133   9.700  0.8349  0.7071 -1.1645
 8941SOL    HW238286   1.917   2.229   9.813  1.1934  1.2644 -0.3248
 8942SOL     OW38287   3.322   1.914   5.073  0.3548 -0.3285  0.1847
 8942SOL    HW138288   3.369   1.925   4.990 -1.3909 -0.1745 -0.7679
 8942SOL    HW238289   3.289   2.003   5.088  0.2068 -0.2390 -0.6474
 8943SOL     OW38290   1.739   1.856   7.843 -0.1727 -0.1183 -0.3718
 8943SOL    HW138291   1.690   1.776   7.865 -2.2021  0.2599 -3.5938
 8943SOL    HW238292   1.735   1.852   7.748 -0.9923  2.9156 -0.4349
 8944SOL     OW38293   1.536   3.067  13.644  0.1502 -1.0862  0.3152
 8944SOL    HW138294   1.518   2.987  13.693 -1.0140 -1.3039 -0.4910
 8944SOL    HW238295   1.546   3.132  13.713  0.2464  1.5702 -2.2005
 8945SOL     OW38296   1.343   0.465  11.418  0.4242  0.1976 -0.2722
 8945SOL    HW138297   1.278   0.426  11.360  3.4030 -0.1571 -3.3569
 8945SOL    HW238298   1.355   0.541  11.362 -2.3139  0.7404 -0.1228
 8946SOL     OW38299   0.587   2.201   3.180 -0.6103 -0.3295  0.2283
 8946SOL    HW138300   0.554   2.117   3.147 -1.8411  0.0355  0.5549
 8946SOL    HW238301   0.529   2.225   3.252 -1.1797 -1.2578  0.0878
 8947SOL     OW38302   2.269   3.514   6.353  0.0931 -0.0081 -0.6953
 8947SOL    HW138303   2.293   3.421   6.354  3.3822  0.8250 -2.0283
 8947SOL    HW238304   2.201   3.519   6.287 -0.9100  4.4830  0.7117
 8948SOL     OW38305   0.280   1.254   8.192  0.0615  0.2443  0.2713
 8948SOL    HW138306   0.346   1.201   8.237  2.1563  1.6537 -1.1560
 8948SOL    HW238307   0.226   1.297   8.258 -2.5372  0.2968 -1.8735
 8949SOL     OW38308   3.583   3.741  16.157  0.1058 -0.2762  0.4510
 8949SOL    HW138309   3.545   3.812  16.106 -1.0443 -1.0942  0.1952
 8949SOL    HW238310   3.509   3.681  16.155  1.0472 -1.5444  3.2789
 8950SOL     OW38311   1.175   3.731   9.886  0.0523  0.3418  0.5017
 8950SOL    HW138312   1.144   3.685   9.964 -0.3478 -1.3920 -0.6971
 8950SOL    HW238313   1.270   3.721   9.889  0.0307  0.4443  1.5766
 8951SOL     OW38314   2.941   1.269   3.489 -0.3154  0.3067 -0.0645
 8951SOL    HW138315   2.908   1.179   3.482 -1.1681  0.5102  1.2360
 8951SOL    HW238316   2.867   1.327   3.469 -0.0626  0.6018 -0.1443
 8952SOL     OW38317   3.554   2.852  16.065 -0.1559 -0.5278  0.0950
 8952SOL    HW138318   3.492   2.828  16.133 -2.2395 -0.8138 -1.9107
 8952SOL    HW238319   3.530   2.787  15.999 -0.7086  1.0893 -1.3040
 8953SOL     OW38320   3.742   1.550  13.395 -0.8304 -0.1258  0.1046
 8953SOL    HW138321   3.698   1.509  13.469 -1.6475  0.4317 -0.0679
 8953SOL    HW238322   3.674   1.564  13.329 -2.6222  1.3115  2.2576
 8954SOL     OW38323   2.144   0.930   3.724  0.0908  0.0622 -0.7755
 8954SOL    HW138324   2.158   1.011   3.673 -1.9824  0.2610 -1.0396
 8954SOL    HW238325   2.214   0.951   3.787 -0.4379  0.4324 -0.3083
 8955SOL     OW38326   1.067   3.784   4.476  0.0992  0.4780  0.1003
 8955SOL    HW138327   1.059   3.865   4.425 -0.7944 -0.7084 -1.6216
 8955SOL    HW238328   1.124   3.731   4.421 -0.6892 -1.1292  0.8388
 8956SOL     OW38329   2.054   3.900  17.054 -0.4240 -0.1703 -0.1418
 8956SOL    HW138330   2.043   3.808  17.028 -0.6000 -0.7351  1.9538
 8956SOL    HW238331   2.015   3.939  16.976 -0.1296  1.5125  0.5554
 8957SOL     OW38332   1.301   1.770   6.746 -0.1716  0.2480 -0.5620
 8957SOL    HW138333   1.221   1.822   6.732 -0.1264  0.5181  0.1549
 8957SOL    HW238334   1.267   1.681   6.746  0.6984 -0.0838  0.4794
 8958SOL     OW38335   0.384   0.863   4.048 -0.0995 -0.3459  0.1151
 8958SOL    HW138336   0.453   0.832   3.990  2.7049  3.4023  1.4981
 8958SOL    HW238337   0.400   0.816   4.130 -0.3739  0.3721  0.5804
 8959SOL     OW38338   2.610   3.744  15.213 -0.4105 -0.3549 -0.1166
 8959SOL    HW138339   2.690   3.789  15.185 -1.4265 -0.1199 -2.6848
 8959SOL    HW238340   2.652   3.659  15.225 -0.5683 -0.4728 -0.4024
 8960SOL     OW38341   3.825   4.663  17.157  0.0674 -0.2513  0.1497
 8960SOL    HW138342   3.866   4.667  17.070  1.7896  1.7036  1.0634
 8960SOL    HW238343   3.852   4.574  17.181 -1.5882 -0.2746  1.8990
 8961SOL     OW38344   0.586   3.469   1.237  0.3442  0.3114  0.1953
 8961SOL    HW138345   0.605   3.386   1.280 -0.8713 -1.1520 -2.1317
 8961SOL    HW238346   0.615   3.454   1.147  0.4209 -3.5900  0.8658
 8962SOL     OW38347   2.562   3.011  15.902  0.7652  0.6101  0.2047
 8962SOL    HW138348   2.534   3.070  15.972 -1.3985  0.3509 -0.4344
 8962SOL    HW238349   2.513   2.930  15.915  0.0236  0.8652 -0.9640
 8963SOL     OW38350   4.368   3.796  13.931 -0.1865 -0.0598  0.4876
 8963SOL    HW138351   4.369   3.825  14.022  0.6963  0.8620  0.1834
 8963SOL    HW238352   4.462   3.799  13.913 -0.5649  2.2903 -1.0744
 8964SOL     OW38353   2.996   1.563   3.230  0.3473 -0.1721  0.2240
 8964SOL    HW138354   2.923   1.502   3.221  0.4641 -0.1927 -0.5800
 8964SOL    HW238355   2.951   1.642   3.201 -2.6234 -1.5072  1.1818
 8965SOL     OW38356   3.942   4.234   3.094  0.1420  0.0682 -0.7001
 8965SOL    HW138357   3.930   4.319   3.137 -0.6188 -0.8815  0.9515
 8965SOL    HW238358   3.853   4.199   3.103  1.0335 -2.3982 -1.4810
 8966SOL     OW38359   0.667   1.046   2.408 -0.3741 -0.1017  0.8035
 8966SOL    HW138360   0.754   1.021   2.378  0.4939  2.3394  1.3155
 8966SOL    HW238361   0.619   0.966   2.429 -1.1061 -0.2448 -1.4094
 8967SOL     OW38362   1.624   1.478   7.374 -0.7276 -0.1004 -0.3396
 8967SOL    HW138363   1.651   1.521   7.455  0.8439 -0.5629 -0.6385
 8967SOL    HW238364   1.609   1.388   7.403 -0.9029  0.5433  1.5469
 8968SOL     OW38365   1.840   0.164   1.873  0.1329  0.0523  0.3630
 8968SOL    HW138366   1.745   0.153   1.871  0.1779 -0.2757 -0.0071
 8968SOL    HW238367   1.866   0.075   1.851  0.3172  0.2899 -0.3725
 8969SOL     OW38368   0.324   3.131   8.979  0.2639  0.0914  0.0917
 8969SOL    HW138369   0.268   3.140   8.902 -1.8625 -1.9763  1.4249
 8969SOL    HW238370   0.267   3.075   9.031  0.4147  0.3267  0.5103
 8970SOL     OW38371   2.772   3.151   4.955 -0.3236  0.3490  0.1283
 8970SOL    HW138372   2.723   3.090   4.901 -1.1713  1.0858  0.0538
 8970SOL    HW238373   2.744   3.137   5.046  0.2823 -1.2215  0.0619
 8971SOL     OW38374   2.359   1.218   5.730  0.3290  0.2112  0.1177
 8971SOL    HW138375   2.312   1.272   5.794 -0.3045 -0.1875 -0.0145
 8971SOL    HW238376   2.367   1.140   5.785  1.7914  0.1707 -0.1601
 8972SOL     OW38377   0.139   0.137  11.489  0.5592  0.0328 -0.3076
 8972SOL    HW138378   0.095   0.114  11.571  0.5722 -2.0986 -0.9094
 8972SOL    HW238379   0.198   0.205  11.523  1.2374 -0.7973  0.1708
 8973SOL     OW38380   3.267   4.233   8.525  0.2140  0.4859 -0.3717
 8973SOL    HW138381   3.177   4.213   8.550  0.1835  1.3720  0.1930
 8973SOL    HW238382   3.253   4.314   8.475 -2.5445  0.3454  0.1593
 8974SOL     OW38383   1.857   2.830   6.773  0.0100  0.0452 -0.0550
 8974SOL    HW138384   1.816   2.855   6.855 -1.7056 -2.4562 -0.1579
 8974SOL    HW238385   1.847   2.904   6.714 -2.2790 -2.0664 -2.3468
 8975SOL     OW38386   1.747   4.344   0.519 -0.2322  0.2298 -0.0880
 8975SOL    HW138387   1.669   4.312   0.475  1.7136 -0.4606 -3.0387
 8975SOL    HW238388   1.824   4.297   0.486 -0.5048 -0.4168  0.1909
 8976SOL     OW38389   0.076   1.256   3.681  0.2595  0.1088  0.0031
 8976SOL    HW138390   0.057   1.332   3.625  0.5864  1.2814  1.4604
 8976SOL    HW238391   0.170   1.261   3.697  0.4308 -3.2836 -0.0731
 8977SOL     OW38392   0.429   0.487   7.700 -0.4196 -0.1833 -0.2689
 8977SOL    HW138393   0.358   0.451   7.648 -1.2749 -0.5771  1.1651
 8977SOL    HW238394   0.390   0.565   7.741  0.7227  0.0013  0.4697
 8978SOL     OW38395   3.365   0.014  13.293 -0.3000  0.5548  0.4141
 8978SOL    HW138396   3.329   0.049  13.212 -0.8054  1.2921  0.9561
 8978SOL    HW238397   3.306   0.053  13.357  1.1453  0.9410  1.5005
 8979SOL     OW38398   0.350   0.348   5.194  0.3359 -0.0354  0.0848
 8979SOL    HW138399   0.417   0.389   5.139 -0.9964  1.1403 -0.6604
 8979SOL    HW238400   0.370   0.262   5.157 -1.0616 -0.5322  0.4873
 8980SOL     OW38401   0.953   4.498   8.979 -0.2949  0.3410 -0.0812
 8980SOL    HW138402   0.915   4.425   9.028  0.1778  1.4851  2.0065
 8980SOL    HW238403   0.882   4.512   8.917  1.0389 -0.1523 -1.7119
 8981SOL     OW38404   2.616   1.364   6.911 -0.1153  0.1588  0.2032
 8981SOL    HW138405   2.590   1.404   6.994  1.0838  0.4491  0.4391
 8981SOL    HW238406   2.595   1.437   6.852  2.9357 -0.0371 -1.1331
 8982SOL     OW38407   3.564   1.797   7.217 -0.0509  0.1404 -0.1013
 8982SOL    HW138408   3.619   1.820   7.292 -2.8401 -1.3242  2.4079
 8982SOL    HW238409   3.535   1.886   7.195  1.4027  1.0995  1.8758
 8983SOL     OW38410   0.566   1.974   3.006 -0.7584  0.2912  0.0016
 8983SOL    HW138411   0.609   1.890   3.021 -0.4798  0.0916 -1.9590
 8983SOL    HW238412   0.471   1.964   3.012 -0.5226 -1.3163  1.0975
 8984SOL     OW38413   2.981   0.479  16.797  0.3768  0.7684  0.0993
 8984SOL    HW138414   2.923   0.422  16.847  0.6139  0.5629  0.1400
 8984SOL    HW238415   2.982   0.562  16.846 -1.5218 -0.3939  2.0790
 8985SOL     OW38416   0.862   1.926   0.743 -0.0019 -0.1275 -0.7946
 8985SOL    HW138417   0.855   2.014   0.707 -0.8741 -0.3633 -1.2015
 8985SOL    HW238418   0.957   1.914   0.740  0.0417  0.0048  0.1020
 8986SOL     OW38419   0.454   1.211   8.799 -0.0171  0.3058  0.5329
 8986SOL    HW138420   0.522   1.144   8.792 -0.6031  0.0048 -2.4725
 8986SOL    HW238421   0.372   1.164   8.786  0.5753 -0.1162 -1.8214
 8987SOL     OW38422   1.485   3.226   5.347  0.3257  0.4972 -0.0178
 8987SOL    HW138423   1.447   3.185   5.269 -1.3099 -1.1037  1.6587
 8987SOL    HW238424   1.457   3.318   5.339 -1.0472  0.1464  0.8399
 8988SOL     OW38425   0.566   3.440  10.699 -0.1428  0.1301  0.3147
 8988SOL    HW138426   0.509   3.413  10.771 -1.1489 -0.5423 -0.7188
 8988SOL    HW238427   0.515   3.397  10.629  1.4358  1.6780 -1.7802
 8989SOL     OW38428   3.029   1.499   8.486  0.2176  0.0020  0.3622
 8989SOL    HW138429   3.114   1.488   8.443 -0.2902 -0.2582 -0.5597
 8989SOL    HW238430   3.058   1.551   8.561  1.0718  1.5509 -1.0636
 8990SOL     OW38431   0.296   4.612   7.370 -0.2444 -0.7741 -0.9527
 8990SOL    HW138432   0.338   4.683   7.321  1.2717 -1.2708 -0.3425
 8990SOL    HW238433   0.265   4.666   7.443 -0.0568 -1.3489 -0.4446
 8991SOL     OW38434   2.403   3.654  11.168  0.7051  0.1679  0.2822
 8991SOL    HW138435   2.369   3.739  11.194 -1.6685 -0.7303  0.1264
 8991SOL    HW238436   2.485   3.661  11.217 -0.4726 -0.4148  2.3512
 8992SOL     OW38437   3.203   2.774   8.101 -0.6049  0.1698  0.2174
 8992SOL    HW138438   3.270   2.841   8.118  1.7687 -1.2882 -3.5745
 8992SOL    HW238439   3.158   2.794   8.019 -0.8121 -2.3799 -0.2750
 8993SOL     OW38440   3.693   4.053   1.749 -0.6945  0.1961  0.4103
 8993SOL    HW138441   3.694   4.082   1.840  0.0584 -2.1513  1.1513
 8993SOL    HW238442   3.731   3.965   1.754 -2.1484 -0.5389 -1.4961
 8994SOL     OW38443   2.806   0.676  15.350 -0.0923  0.4373  0.2811
 8994SOL    HW138444   2.790   0.707  15.261  0.6318  1.1654  0.4077
 8994SOL    HW238445   2.809   0.760  15.395  0.5277  0.1088  0.8586
 8995SOL     OW38446   1.246   0.662   4.273  0.0928 -0.2470 -0.1668
 8995SOL    HW138447   1.185   0.650   4.200  0.1948 -0.5500 -0.2024
 8995SOL    HW238448   1.290   0.577   4.271 -0.1608 -0.3507 -1.2917
 8996SOL     OW38449   4.298   0.581   4.977  0.3492 -0.0345 -0.4790
 8996SOL    HW138450   4.210   0.546   4.997  0.2066  0.5116 -0.1484
 8996SOL    HW238451   4.276   0.643   4.908  0.6977  1.2999  0.6036
 8997SOL     OW38452   2.460   1.685  12.093 -0.7139  0.5863  0.9531
 8997SOL    HW138453   2.493   1.605  12.054 -2.4353  0.6730 -0.6941
 8997SOL    HW238454   2.490   1.747  12.027 -1.1206  0.5761  0.7578
 8998SOL     OW38455   4.555   3.991  13.911 -0.0307  0.7182 -0.7432
 8998SOL    HW138456   4.507   4.039  13.979 -0.7590 -0.4140 -0.4583
 8998SOL    HW238457   4.601   4.068  13.877  1.3901  0.3548  0.3639
 8999SOL     OW38458   2.446   0.407  13.564  0.0589 -0.0856 -0.1686
 8999SOL    HW138459   2.373   0.439  13.510 -0.7580 -1.2083  0.2507
 8999SOL    HW238460   2.448   0.312  13.549 -0.2457  0.1360 -1.5734
 9000SOL     OW38461   3.257   2.473  12.663  0.0899  0.2120 -0.0116
 9000SOL    HW138462   3.348   2.443  12.655 -0.1335 -0.3418 -0.4817
 9000SOL    HW238463   3.225   2.385  12.683  1.1453 -0.3901 -0.9463
 9001SOL     OW38464   3.100   4.639   9.330  0.1044  0.0632  0.0115
 9001SOL    HW138465   3.175   4.580   9.322  1.9312  2.3229  0.7441
 9001SOL    HW238466   3.032   4.579   9.298 -1.2508  2.1722 -1.0109
 9002SOL     OW38467   3.752   2.582  10.032  0.1863  0.0618  0.3390
 9002SOL    HW138468   3.840   2.559  10.001 -0.1079 -2.2419  1.1910
 9002SOL    HW238469   3.715   2.618   9.952  0.4791  1.1791  0.7032
 9003SOL     OW38470   2.727   0.341   7.180  0.6615 -0.0529 -0.8096
 9003SOL    HW138471   2.644   0.306   7.148  0.3311  0.4557 -0.5132
 9003SOL    HW238472   2.729   0.430   7.144 -4.3666  1.3262  2.3511
 9004SOL     OW38473   0.662   1.896   7.028  0.5802  0.3540  0.3399
 9004SOL    HW138474   0.568   1.896   7.048  0.6398  1.5815  0.6083
 9004SOL    HW238475   0.704   1.981   7.040  0.7904  0.3896 -0.6676
 9005SOL     OW38476   1.607   3.798  13.576  0.0003  0.7450 -0.2453
 9005SOL    HW138477   1.551   3.742  13.628  0.1450  0.4514 -0.4080
 9005SOL    HW238478   1.681   3.779  13.633 -0.3178  0.3026  0.0130
 9006SOL     OW38479   4.054   1.073   6.685  0.3047  0.8757 -0.1486
 9006SOL    HW138480   4.000   1.092   6.761  0.3921  2.2799 -0.4376
 9006SOL    HW238481   4.099   0.993   6.713 -1.9715 -0.2239  0.3505
 9007SOL     OW38482   1.856   1.444   5.028 -0.3691 -0.4676  0.0883
 9007SOL    HW138483   1.932   1.388   5.042  0.5753  1.0143  0.8903
 9007SOL    HW238484   1.858   1.457   4.933 -1.0876 -1.0973 -0.0127
 9008SOL     OW38485   0.175   1.497   2.352 -0.6020  0.0726 -0.2849
 9008SOL    HW138486   0.148   1.441   2.279  1.1948  0.5075 -1.2783
 9008SOL    HW238487   0.270   1.486   2.347 -0.8579 -1.1681 -2.1580
 9009SOL     OW38488   3.078   1.538   1.538  0.6646 -0.4097 -0.2084
 9009SOL    HW138489   3.050   1.622   1.576  1.4116 -0.3366  0.1826
 9009SOL    HW238490   3.173   1.541   1.550  0.5582 -1.8707  0.9704
 9010SOL     OW38491   1.832   3.778   1.622 -0.0341 -0.0992 -0.1893
 9010SOL    HW138492   1.875   3.760   1.538  0.5527 -1.3061  0.3729
 9010SOL    HW238493   1.866   3.865   1.641  1.4810 -0.3570 -1.6801
 9011SOL     OW38494   0.569   4.678   2.640  0.3690 -0.0360  0.5148
 9011SOL    HW138495   0.655   4.664   2.679 -0.0561 -1.8436  0.7967
 9011SOL    HW238496   0.516   4.705   2.715 -2.8946 -2.9515 -0.7147
 9012SOL     OW38497   1.574   4.347   4.599 -0.2470 -0.1776  0.9714
 9012SOL    HW138498   1.657   4.388   4.623  0.4320 -0.0404 -1.6011
 9012SOL    HW238499   1.600   4.325   4.509 -1.9311  0.7112  0.2626
 9013SOL     OW38500   0.031   1.720   2.254 -0.2061  1.0423 -0.1171
 9013SOL    HW138501   0.074   1.735   2.170  0.5327  0.4500  0.1544
 9013SOL    HW238502   0.061   1.633   2.280 -0.8560  1.1957  1.1690
 9014SOL     OW38503   1.957   0.944   1.531  0.1946 -0.1971 -0.1266
 9014SOL    HW138504   1.910   0.888   1.593 -0.5018 -0.5771 -1.0033
 9014SOL    HW238505   2.027   0.971   1.591 -0.4570 -0.0827  0.5839
 9015SOL     OW38506   4.301   2.367   4.233  0.4373  0.0518  0.0049
 9015SOL    HW138507   4.292   2.443   4.176  2.9403 -0.5363 -1.1742
 9015SOL    HW238508   4.238   2.310   4.190 -2.5923  1.1942  2.9382
 9016SOL     OW38509   2.651   4.507   4.097 -0.8934 -0.2285 -0.1142
 9016SOL    HW138510   2.711   4.435   4.117  0.5759 -0.0752 -3.8871
 9016SOL    HW238511   2.700   4.587   4.111  0.1673 -0.9978  0.5400
 9017SOL     OW38512   1.563   1.644   2.671 -0.1334  0.1371 -0.6124
 9017SOL    HW138513   1.490   1.705   2.678  1.3002  1.7021  0.5367
 9017SOL    HW238514   1.573   1.629   2.765 -1.0647  0.2848 -0.4932
 9018SOL     OW38515   0.004   0.875   7.987  0.6107 -0.0732 -0.4102
 9018SOL    HW138516   4.723   0.955   8.038  1.9328  0.2476 -0.7962
 9018SOL    HW238517   0.064   0.820   8.037  0.0552 -2.0312 -1.8660
 9019SOL     OW38518   3.254   2.887  16.599 -0.1388 -0.2044 -0.0320
 9019SOL    HW138519   3.289   2.976  16.588  0.6583 -0.5320 -0.1479
 9019SOL    HW238520   3.292   2.852  16.680 -0.2982 -0.7723 -0.2039
 9020SOL     OW38521   4.533   4.609  12.986  0.3209 -0.0143 -0.2836
 9020SOL    HW138522   4.482   4.646  13.058 -0.3685 -0.6066 -0.4578
 9020SOL    HW238523   4.552   4.689  12.938  1.6095 -0.9070 -1.2754
 9021SOL     OW38524   1.947   0.428  11.020 -0.2685  0.0337 -0.3904
 9021SOL    HW138525   1.885   0.358  10.999  0.1682 -0.4185 -0.1495
 9021SOL    HW238526   2.029   0.391  10.988  0.6447  0.1322  1.8461
 9022SOL     OW38527   3.700   0.400   7.993 -0.2453 -0.2414 -0.2177
 9022SOL    HW138528   3.608   0.418   8.013 -0.2744 -2.5564  1.6495
 9022SOL    HW238529   3.736   0.356   8.070 -1.1736 -0.0448  0.3183
 9023SOL     OW38530   3.632   4.094   6.207  0.8529 -0.2047  0.4562
 9023SOL    HW138531   3.591   4.016   6.246 -1.4378  1.0667  0.5949
 9023SOL    HW238532   3.566   4.161   6.223  0.0964 -0.9724  0.5854
 9024SOL     OW38533   3.878   4.103   7.038 -0.5064 -0.4923 -0.3518
 9024SOL    HW138534   3.969   4.130   7.045  0.0902 -2.9195  1.3934
 9024SOL    HW238535   3.859   4.073   7.128  0.6142 -1.4530 -0.4311
 9025SOL     OW38536   4.537   1.067   8.222 -0.6413  0.0407  0.3857
 9025SOL    HW138537   4.591   1.095   8.148 -0.4693  0.7616  0.7867
 9025SOL    HW238538   4.610   1.058   8.283 -0.2092  0.3858 -0.0827
 9026SOL     OW38539   2.114   4.509   6.914  0.0164  0.3021 -0.2512
 9026SOL    HW138540   2.095   4.602   6.921  0.6611  0.2824  1.8340
 9026SOL    HW238541   2.210   4.506   6.913  0.1514  3.8562  0.9543
 9027SOL     OW38542   2.499   2.596   8.932  0.5005 -0.2558 -0.0277
 9027SOL    HW138543   2.544   2.522   8.891 -0.6713 -0.1157 -1.5468
 9027SOL    HW238544   2.514   2.587   9.026  1.2516 -2.5591 -0.3634
 9028SOL     OW38545   1.209   4.627   4.123 -0.2210 -0.1439 -0.1350
 9028SOL    HW138546   1.128   4.576   4.125  0.1449 -0.7372 -0.3498
 9028SOL    HW238547   1.248   4.613   4.210  1.3384  0.6540 -0.6989
 9029SOL     OW38548   3.485   3.076   3.500  0.2527 -0.3492  1.0473
 9029SOL    HW138549   3.496   3.171   3.510  0.7113 -0.3146  0.1916
 9029SOL    HW238550   3.530   3.036   3.574 -0.1343 -1.2617  0.7981
 9030SOL     OW38551   1.339   3.151   5.083  0.6874 -0.4923  0.1561
 9030SOL    HW138552   1.248   3.122   5.083  1.2933 -2.4127 -1.2374
 9030SOL    HW238553   1.381   3.066   5.067  0.5429 -0.0987 -2.3202
 9031SOL     OW38554   1.257   1.713   5.135 -0.3106  0.1448 -0.4970
 9031SOL    HW138555   1.315   1.745   5.066 -0.7180 -1.6439 -1.6704
 9031SOL    HW238556   1.169   1.731   5.100 -0.0148 -1.2395 -1.9585
 9032SOL     OW38557   1.724   1.175   7.135  0.3297 -0.0257  0.4426
 9032SOL    HW138558   1.778   1.180   7.214  1.2284 -0.7910 -0.1152
 9032SOL    HW238559   1.659   1.114   7.168  1.1887 -2.4411 -2.2595
 9033SOL     OW38560   4.201   1.677  11.351  0.2553 -0.1394  0.2497
 9033SOL    HW138561   4.258   1.682  11.274 -0.1342  2.2808  0.1109
 9033SOL    HW238562   4.153   1.595  11.340  0.9646 -0.5286  0.1058
 9034SOL     OW38563   2.009   2.074   6.340 -0.1253 -0.1950  0.2946
 9034SOL    HW138564   1.939   2.078   6.406 -0.0555 -1.0946  0.4171
 9034SOL    HW238565   1.985   1.993   6.296  1.4510  0.0788 -1.0449
 9035SOL     OW38566   2.633   0.477   1.249 -0.3121  0.3876  0.0959
 9035SOL    HW138567   2.654   0.405   1.308 -1.3509  0.2985  0.3589
 9035SOL    HW238568   2.646   0.543   1.317 -0.1268 -1.2293  1.6363
 9036SOL     OW38569   1.406   3.892   9.487  0.4317 -0.1609  0.5245
 9036SOL    HW138570   1.364   3.962   9.537 -0.4993  0.2790 -0.8565
 9036SOL    HW238571   1.461   3.848   9.552 -1.0118  0.5648  2.2353
 9037SOL     OW38572   3.810   2.592   7.253 -0.1985 -0.6699  0.3399
 9037SOL    HW138573   3.883   2.651   7.232 -0.9276  0.8474  2.0875
 9037SOL    HW238574   3.749   2.611   7.182 -0.9371  1.2520  1.5005
 9038SOL     OW38575   1.345   0.855  10.546  0.1475  0.1643 -0.0061
 9038SOL    HW138576   1.283   0.877  10.476  0.9784  1.7804 -0.2304
 9038SOL    HW238577   1.330   0.762  10.561  2.6209  0.0670  1.8485
 9039SOL     OW38578   2.962   1.448  10.717 -0.1495  0.3389  0.1679
 9039SOL    HW138579   2.919   1.419  10.797  0.3193  0.0732  0.3226
 9039SOL    HW238580   3.006   1.527  10.747  1.0758  0.1757 -1.1775
 9040SOL     OW38581   0.476   3.195   4.223  0.1597  0.5797  0.1743
 9040SOL    HW138582   0.504   3.266   4.166 -0.3076 -1.0543 -2.0914
 9040SOL    HW238583   0.564   3.160   4.239 -0.1255  0.5208  1.6104
 9041SOL     OW38584   3.890   1.166   8.649  0.2264 -0.1679 -0.0998
 9041SOL    HW138585   3.881   1.230   8.578  1.8813  0.8910  0.6486
 9041SOL    HW238586   3.970   1.117   8.631  1.2300  1.5939 -0.4805
 9042SOL     OW38587   0.352   4.602  15.997  0.3937  0.3163  0.0569
 9042SOL    HW138588   0.334   4.510  15.980 -1.1465  0.1644  2.4729
 9042SOL    HW238589   0.326   4.639  15.913 -1.8607  1.4427  1.2505
 9043SOL     OW38590   1.932   3.333  13.536 -0.3027 -0.0088  0.9656
 9043SOL    HW138591   1.837   3.327  13.546 -0.4812  0.2727 -0.4651
 9043SOL    HW238592   1.935   3.429  13.536  0.3633 -0.0233  0.4769
 9044SOL     OW38593   1.953   3.508   5.466 -0.3479  0.3324 -0.3429
 9044SOL    HW138594   1.897   3.456   5.408 -0.4772  0.3274 -0.2119
 9044SOL    HW238595   1.881   3.560   5.501  0.3208 -0.5531  2.3102
 9045SOL     OW38596   4.250   2.922   6.688  0.0996 -0.1833  0.3713
 9045SOL    HW138597   4.158   2.893   6.688  0.5527 -1.5956 -0.1340
 9045SOL    HW238598   4.230   3.014   6.706 -2.0019 -0.5744  0.0539
 9046SOL     OW38599   3.402   3.057   5.452  0.1931 -0.3949  0.0057
 9046SOL    HW138600   3.351   2.979   5.472  1.4995 -1.3989 -0.5958
 9046SOL    HW238601   3.365   3.134   5.497 -1.2357 -1.9759  1.5235
 9047SOL     OW38602   2.735   0.251   5.990 -0.0836  0.0969  0.0615
 9047SOL    HW138603   2.769   0.193   5.922 -0.1017  2.4558 -1.9563
 9047SOL    HW238604   2.639   0.245   5.985 -0.1346  0.0096  1.1718
 9048SOL     OW38605   4.059   2.444  13.860 -0.3498 -0.3252  0.5725
 9048SOL    HW138606   3.996   2.373  13.843  0.5213 -0.9417 -0.1173
 9048SOL    HW238607   4.052   2.504  13.786  0.9431  1.1145  1.6064
 9049SOL     OW38608   1.943   1.974  13.606 -0.0850 -0.0022 -0.1927
 9049SOL    HW138609   1.936   1.880  13.624  1.7276  0.0111  0.6460
 9049SOL    HW238610   1.883   2.020  13.665 -1.1651 -0.6872 -0.7573
 9050SOL     OW38611   3.332   0.482   0.154 -0.2283 -0.8073  0.0878
 9050SOL    HW138612   3.287   0.462   0.236  1.5375  0.3872  1.3528
 9050SOL    HW238613   3.261   0.494   0.091 -0.4860 -1.1692  0.3057
 9051SOL     OW38614   0.064   3.824   5.373 -0.0409 -0.2526 -0.1471
 9051SOL    HW138615   0.091   3.827   5.465  0.4101  1.1603 -0.3363
 9051SOL    HW238616   0.106   3.901   5.336  0.0362 -0.3233 -0.2070
 9052SOL     OW38617   1.889   0.295   0.370  0.2771 -0.3648  0.5321
 9052SOL    HW138618   1.860   0.321   0.457  0.1237  0.6197  0.1872
 9052SOL    HW238619   1.961   0.358   0.362  0.6831 -0.8607  0.2745
 9053SOL     OW38620   1.389   4.102   6.979 -0.1746  0.4675  0.5563
 9053SOL    HW138621   1.422   4.028   6.928  1.2409  1.9116 -0.6123
 9053SOL    HW238622   1.471   4.143   7.004  0.1635  0.0526  0.1210
 9054SOL     OW38623   2.005   4.022  10.526 -0.8237  0.1655  0.1694
 9054SOL    HW138624   2.010   3.927  10.518  1.1787  0.3910 -1.1667
 9054SOL    HW238625   1.970   4.042  10.439  1.2979 -0.4717 -0.8194
 9055SOL     OW38626   1.782   4.712  17.113  0.0136 -0.3848 -0.2785
 9055SOL    HW138627   1.812   4.629  17.077  0.8702  0.2721 -1.0834
 9055SOL    HW238628   1.778   4.684  17.205  1.3685  1.9756  0.4829
 9056SOL     OW38629   4.323   0.856   9.762 -0.3063  0.1560 -0.2189
 9056SOL    HW138630   4.234   0.889   9.776 -0.0911  0.4193  0.5299
 9056SOL    HW238631   4.371   0.913   9.822 -1.7818  1.0122  0.1571
 9057SOL     OW38632   3.599   4.574  12.037 -0.4139 -0.5423 -0.5743
 9057SOL    HW138633   3.560   4.658  12.010 -0.5263 -0.4883 -0.2338
 9057SOL    HW238634   3.564   4.514  11.971 -0.1052 -0.6828 -0.6132
 9058SOL     OW38635   4.401   2.910   2.966 -0.8829 -0.4379  0.1942
 9058SOL    HW138636   4.371   2.853   2.895  0.6181 -1.0790  0.0701
 9058SOL    HW238637   4.486   2.879   2.998 -0.7226  0.4104  0.5955
 9059SOL     OW38638   4.417   2.343  12.808 -0.0858 -0.5692 -0.1397
 9059SOL    HW138639   4.442   2.436  12.806 -0.1308 -0.5576 -0.1493
 9059SOL    HW238640   4.425   2.320  12.901 -0.5419 -1.3526 -0.2924
 9060SOL     OW38641   3.882   2.952   6.914  0.1739 -0.1737 -0.4769
 9060SOL    HW138642   3.967   2.915   6.892 -0.0343 -0.2629 -1.1160
 9060SOL    HW238643   3.821   2.891   6.872 -1.1680 -0.1517  1.4252
 9061SOL     OW38644   1.369   1.404   2.708 -0.0232 -0.0800  0.2320
 9061SOL    HW138645   1.297   1.465   2.693 -1.5642 -2.0183 -0.2118
 9061SOL    HW238646   1.445   1.462   2.703  0.0008 -0.0571  0.8050
 9062SOL     OW38647   4.529   2.452   5.566 -0.5480 -0.0903  0.4987
 9062SOL    HW138648   4.581   2.474   5.489 -0.0954 -2.3705  0.1788
 9062SOL    HW238649   4.586   2.481   5.638 -0.2768 -2.1809  1.1146
 9063SOL     OW38650   0.216   4.328   7.513  0.4091 -0.2252 -0.0008
 9063SOL    HW138651   0.195   4.243   7.551  0.9458 -0.3747 -0.0465
 9063SOL    HW238652   0.143   4.357   7.458 -2.1123  0.2931  3.6517
 9064SOL     OW38653   2.487   3.066   6.264 -0.4160 -0.1030  0.7430
 9064SOL    HW138654   2.557   3.025   6.314  0.3466  1.6050  1.0496
 9064SOL    HW238655   2.438   2.986   6.244  0.1712 -0.7506  1.9120
 9065SOL     OW38656   2.985   2.816  16.582  0.1445  0.6324 -0.0399
 9065SOL    HW138657   3.071   2.851  16.604  0.4613  0.1244 -0.4492
 9065SOL    HW238658   2.994   2.732  16.627 -0.1808 -0.0489 -1.2280
 9066SOL     OW38659   4.500   1.762  10.140 -0.1867 -0.4876  0.0424
 9066SOL    HW138660   4.564   1.832  10.153  1.3619 -2.1545  1.5657
 9066SOL    HW238661   4.422   1.809  10.167 -0.6341 -2.2150  1.7023
 9067SOL     OW38662   0.780   2.568   5.637  0.5304  0.0838  0.0652
 9067SOL    HW138663   0.724   2.498   5.670 -0.3104 -0.4087 -2.4389
 9067SOL    HW238664   0.722   2.641   5.657  0.2475 -0.3555  0.8734
 9068SOL     OW38665   3.241   1.207   6.804  0.7389  0.1217 -0.3249
 9068SOL    HW138666   3.266   1.156   6.880 -0.5273  0.0479  0.0469
 9068SOL    HW238667   3.211   1.139   6.744  0.3747  1.6127 -1.8472
 9069SOL     OW38668   3.834   1.956   5.997  0.1627 -0.1464 -0.0753
 9069SOL    HW138669   3.812   1.906   5.918 -1.2764  1.7141 -0.8604
 9069SOL    HW238670   3.847   1.890   6.066  1.4203  0.5792  0.3816
 9070SOL     OW38671   4.494   0.983  13.958 -0.1519  0.2128 -0.5958
 9070SOL    HW138672   4.547   0.934  13.894  2.1960 -0.2505  1.7091
 9070SOL    HW238673   4.441   0.915  14.000 -0.2887  0.6481 -0.0710
 9071SOL     OW38674   3.669   3.820   4.337 -0.4508  0.2402 -0.2374
 9071SOL    HW138675   3.629   3.907   4.331  1.3416  1.0786 -0.1613
 9071SOL    HW238676   3.628   3.772   4.265 -0.2012 -0.7192  0.2632
 9072SOL     OW38677   2.974   3.115   7.268 -0.3397  0.7429  0.0399
 9072SOL    HW138678   3.034   3.130   7.194 -0.6832  3.3303  0.2729
 9072SOL    HW238679   2.889   3.100   7.228 -0.5894  0.2097  0.7804
 9073SOL     OW38680   3.380   4.330   8.176 -0.5598 -0.2463 -0.4035
 9073SOL    HW138681   3.317   4.382   8.126  2.7705  3.7444 -0.4134
 9073SOL    HW238682   3.375   4.368   8.263 -0.3656 -0.8009 -0.1470
 9074SOL     OW38683   2.251   1.682   5.232  0.2782  0.4382  0.7542
 9074SOL    HW138684   2.227   1.594   5.261  3.6290 -0.1365  1.7784
 9074SOL    HW238685   2.209   1.744   5.292  0.1623  0.6081  0.4990
 9075SOL     OW38686   1.157   2.286  10.987  0.4126  0.7024 -0.1070
 9075SOL    HW138687   1.129   2.378  10.985 -0.9078  0.2920  0.1412
 9075SOL    HW238688   1.253   2.291  10.989  0.3423  0.8798  2.2360
 9076SOL     OW38689   4.014   4.450  11.906  0.3389  0.1053 -0.1866
 9076SOL    HW138690   3.975   4.523  11.954  1.1439  1.1743 -1.1628
 9076SOL    HW238691   3.962   4.463  11.827  2.1312 -1.6916 -1.6641
 9077SOL     OW38692   3.298   3.765   3.857 -0.3576  0.7870  0.8290
 9077SOL    HW138693   3.303   3.670   3.854 -1.2286  0.7998 -1.5163
 9077SOL    HW238694   3.327   3.780   3.767  1.3698 -1.8305  0.9495
 9078SOL     OW38695   1.681   0.714   4.949 -0.2696 -0.1590 -0.3167
 9078SOL    HW138696   1.588   0.699   4.968  0.4312 -1.3525  2.1591
 9078SOL    HW238697   1.672   0.729   4.855  0.6359  0.6557 -0.2750
 9079SOL     OW38698   3.899   1.428   4.326  0.0318 -0.1683  0.6058
 9079SOL    HW138699   3.958   1.393   4.392 -0.3541 -1.4234  0.2791
 9079SOL    HW238700   3.948   1.429   4.244 -0.5031  0.6515  0.2940
 9080SOL     OW38701   1.726   2.024   2.923 -0.0275  0.5234 -0.3004
 9080SOL    HW138702   1.781   2.082   2.871 -1.3562  2.5799  0.5654
 9080SOL    HW238703   1.716   2.085   2.996  1.1794  1.8186 -1.2224
 9081SOL     OW38704   2.633   4.268  17.370 -0.3413 -0.0779  0.2864
 9081SOL    HW138705   2.588   4.187  17.395 -0.8923  0.6878  1.8140
 9081SOL    HW238706   2.578   4.292  17.296 -1.1064  0.3402  0.9907
 9082SOL     OW38707   1.167   0.932   6.279  0.5769  0.3300  0.5735
 9082SOL    HW138708   1.251   0.891   6.297  0.7162 -0.4465 -1.7645
 9082SOL    HW238709   1.108   0.879   6.333  0.2032 -0.7009 -0.8449
 9083SOL     OW38710   0.348   3.216   1.939  0.3565  0.6934  0.1453
 9083SOL    HW138711   0.424   3.162   1.960 -0.3094 -0.6392 -0.8788
 9083SOL    HW238712   0.282   3.151   1.961  0.1920  1.0239  0.6265
 9084SOL     OW38713   4.343   1.702  14.053  0.0902  0.6400  0.2145
 9084SOL    HW138714   4.250   1.699  14.077 -0.1734  1.0702 -0.7600
 9084SOL    HW238715   4.342   1.662  13.966  2.5131 -0.7330  0.8047
 9085SOL     OW38716   0.102   2.895   8.476 -0.1751 -0.1952 -0.4584
 9085SOL    HW138717   0.085   2.989   8.488 -0.2990 -0.3080  0.2219
 9085SOL    HW238718   0.173   2.902   8.412  0.6882 -0.1180  0.5086
 9086SOL     OW38719   2.970   2.949   2.829  0.5028 -0.1415 -0.2145
 9086SOL    HW138720   3.053   2.907   2.806  0.4582 -0.7106  0.6936
 9086SOL    HW238721   2.966   2.933   2.923 -0.0735 -1.1261 -0.4118
 9087SOL     OW38722   3.521   1.522   8.424  0.5095 -0.1911  0.0512
 9087SOL    HW138723   3.434   1.482   8.429  0.2953 -0.0856 -2.7200
 9087SOL    HW238724   3.520   1.564   8.338 -0.7446 -1.2218 -0.4359
 9088SOL     OW38725   4.037   1.868   7.532 -0.3892 -0.0170  0.3809
 9088SOL    HW138726   4.009   1.954   7.500 -0.1623  0.6889  2.1124
 9088SOL    HW238727   3.978   1.857   7.606 -0.3704 -0.8413  0.2691
 9089SOL     OW38728   4.030   3.272  10.164 -1.0837  0.2776 -0.1543
 9089SOL    HW138729   3.942   3.308  10.176 -0.2631  1.9532  0.8509
 9089SOL    HW238730   4.026   3.216  10.241  1.2162  0.0413 -0.2331
 9090SOL     OW38731   2.341   0.337   5.582 -0.1276  0.3176 -0.6967
 9090SOL    HW138732   2.399   0.413   5.582 -1.6363  1.4882  0.5916
 9090SOL    HW238733   2.400   0.270   5.616  1.8428  1.8787 -1.0882
 9091SOL     OW38734   3.522   3.412   5.945  0.1155 -0.2917  0.5520
 9091SOL    HW138735   3.505   3.407   5.850  3.5339  0.6951 -0.1078
 9091SOL    HW238736   3.555   3.324   5.962  2.1592 -0.0140 -1.9002
 9092SOL     OW38737   3.571   3.980   6.795  0.6956  0.7007 -0.0945
 9092SOL    HW138738   3.547   4.072   6.786 -0.0059  0.3901 -1.3744
 9092SOL    HW238739   3.565   3.950   6.885  0.6115 -3.3975 -1.4510
 9093SOL     OW38740   2.679   1.013   7.667  0.1583  0.2487 -0.1466
 9093SOL    HW138741   2.723   1.012   7.582 -0.2474 -1.3227 -0.3440
 9093SOL    HW238742   2.736   1.072   7.715  1.7595 -0.6730 -0.9182
 9094SOL     OW38743   1.417   4.570   1.651  0.0971 -0.4550 -0.1902
 9094SOL    HW138744   1.468   4.492   1.674  1.9748  0.3733 -1.6498
 9094SOL    HW238745   1.333   4.523   1.654  1.6369 -3.1572  0.9583
 9095SOL     OW38746   1.090   3.361   7.336  0.7762  0.5594 -0.2831
 9095SOL    HW138747   1.022   3.317   7.386  0.9100  0.4998 -0.1506
 9095SOL    HW238748   1.033   3.415   7.282 -0.0818 -0.6190 -0.5501
 9096SOL     OW38749   3.468   0.779  12.802 -0.1517 -0.2080 -0.0398
 9096SOL    HW138750   3.474   0.684  12.809  0.8965 -0.1960 -0.7988
 9096SOL    HW238751   3.457   0.779  12.707  1.6004  1.6908 -0.2476
 9097SOL     OW38752   1.601   0.335   5.220 -0.6641  0.2718  0.4501
 9097SOL    HW138753   1.585   0.268   5.287 -0.2637  0.3080  0.5809
 9097SOL    HW238754   1.521   0.387   5.213 -0.8125 -0.0140 -0.0278
 9098SOL     OW38755   4.182   2.296   4.490  0.4612 -0.5568  0.3862
 9098SOL    HW138756   4.215   2.341   4.412 -1.1261  0.6223  0.3813
 9098SOL    HW238757   4.263   2.247   4.504  0.3920 -1.0525 -0.9785
 9099SOL     OW38758   4.600   2.805  14.999 -0.1286 -0.4229  0.5197
 9099SOL    HW138759   4.560   2.892  14.991 -2.1075 -1.3767  0.1761
 9099SOL    HW238760   4.665   2.801  14.929 -0.5876 -1.4299  0.1622
 9100SOL     OW38761   3.841   3.597   4.331  1.0340 -0.5960 -0.0919
 9100SOL    HW138762   3.842   3.610   4.236  1.8997  1.3612  0.1895
 9100SOL    HW238763   3.800   3.675   4.368  0.8502  1.1416 -3.8633
 9101SOL     OW38764   3.482   3.582   9.758  0.3283  0.0936  0.0517
 9101SOL    HW138765   3.448   3.637   9.829 -2.6755 -1.9636  0.1920
 9101SOL    HW238766   3.563   3.629   9.740 -0.4183  1.1342 -0.5762
 9102SOL     OW38767   3.163   1.639  12.837  0.2521  0.5033 -0.0657
 9102SOL    HW138768   3.254   1.616  12.858 -0.1532 -0.2748  0.8379
 9102SOL    HW238769   3.161   1.685  12.754  1.9648 -0.0641 -0.4208
 9103SOL     OW38770   2.943   3.433   1.689  0.2916  0.2027 -0.1774
 9103SOL    HW138771   3.019   3.490   1.696  0.2825  0.0599  1.1968
 9103SOL    HW238772   2.993   3.355   1.664  2.5971  1.3470  0.8953
 9104SOL     OW38773   4.115   0.534  16.289 -0.1863 -0.0362  0.3493
 9104SOL    HW138774   4.163   0.501  16.213  0.8064  0.6380  0.6815
 9104SOL    HW238775   4.082   0.448  16.317  0.3294 -1.1063 -2.3375
 9105SOL     OW38776   4.705   3.021   2.966 -0.3633 -0.1726 -0.5178
 9105SOL    HW138777   4.653   3.017   2.886 -0.8873  2.0906 -0.2716
 9105SOL    HW238778   4.723   3.114   2.972 -1.4505 -0.1866  2.9518
 9106SOL     OW38779   0.378   1.523  16.464 -0.2350  0.1739  0.1676
 9106SOL    HW138780   0.425   1.547  16.544 -0.3403 -0.0429  0.2938
 9106SOL    HW238781   0.297   1.573  16.473 -1.0520 -1.3024  0.9802
 9107SOL     OW38782   4.035   0.633   1.676 -0.3449 -0.6784  0.0329
 9107SOL    HW138783   4.005   0.723   1.662  0.3730 -0.5312 -0.5941
 9107SOL    HW238784   4.019   0.642   1.770  1.4804  1.5881  0.1570
 9108SOL     OW38785   0.990   2.300  10.723  0.2112 -0.1754  0.4783
 9108SOL    HW138786   1.002   2.258  10.808  1.0532  3.3128  2.0905
 9108SOL    HW238787   0.898   2.325  10.724  0.9121  2.1749  3.9360
 9109SOL     OW38788   0.580   1.585  17.493  0.2015 -0.1005  0.8186
 9109SOL    HW138789   0.641   1.519  17.459  1.0221  0.5127  1.1184
 9109SOL    HW238790   0.566   1.633  17.411 -0.1946  2.4614  2.4117
 9110SOL     OW38791   1.210   0.528   2.562 -0.2077 -0.5099  0.0228
 9110SOL    HW138792   1.166   0.609   2.534 -1.5060 -1.1929  0.0836
 9110SOL    HW238793   1.161   0.501   2.640 -1.3061 -0.7003 -0.7270
 9111SOL     OW38794   4.051   2.209  13.294 -0.0371  0.4968 -0.0886
 9111SOL    HW138795   4.099   2.250  13.365 -0.4642  0.7502  0.0543
 9111SOL    HW238796   4.083   2.271  13.228 -1.4482  2.6162  1.2134
 9112SOL     OW38797   3.186   0.310   8.753  0.3832  0.0841 -0.9386
 9112SOL    HW138798   3.265   0.355   8.784 -1.2678  1.8291  0.7659
 9112SOL    HW238799   3.129   0.387   8.750  0.0032 -0.1056  1.8252
 9113SOL     OW38800   0.805   0.112   3.607  0.0295 -0.2623 -0.4922
 9113SOL    HW138801   0.858   0.190   3.625 -0.2081 -0.1482 -0.2835
 9113SOL    HW238802   0.740   0.151   3.548  1.2180  3.8609  0.9231
 9114SOL     OW38803   1.734   3.902   2.368 -0.2995 -0.3221 -0.5626
 9114SOL    HW138804   1.795   3.927   2.437 -1.0670  0.7390 -0.2734
 9114SOL    HW238805   1.702   3.815   2.392 -1.8852  0.1273 -1.0005
 9115SOL     OW38806   4.545   4.652   2.435 -0.6080  0.5021 -0.4499
 9115SOL    HW138807   4.554   4.560   2.409 -3.6386  0.1641 -0.3144
 9115SOL    HW238808   4.540   4.642   2.530 -0.1633 -2.6152 -0.7424
 9116SOL     OW38809   4.329   0.260   8.029  0.1208 -0.2313 -0.4598
 9116SOL    HW138810   4.343   0.350   8.058 -1.7318 -0.3739  0.8899
 9116SOL    HW238811   4.374   0.218   8.102  0.0039  1.2981  0.4975
 9117SOL     OW38812   0.402   4.282   9.359 -0.0058  0.3115 -0.3087
 9117SOL    HW138813   0.352   4.321   9.431  0.5925  2.3583 -1.0285
 9117SOL    HW238814   0.433   4.362   9.317 -1.5810  0.7448 -0.6312
 9118SOL     OW38815   4.307   2.279   9.883 -0.0223 -0.3301 -0.3459
 9118SOL    HW138816   4.351   2.309   9.803  0.6096 -1.9502 -0.5954
 9118SOL    HW238817   4.216   2.297   9.857 -0.5082 -0.3804  1.2804
 9119SOL     OW38818   2.087   1.402   6.382 -0.3346 -0.2892 -0.6841
 9119SOL    HW138819   2.136   1.420   6.302 -0.2204 -0.3894 -0.6362
 9119SOL    HW238820   2.150   1.373   6.447 -0.7749  2.6158  1.0196
 9120SOL     OW38821   4.204   0.759   5.550 -0.2442  0.8854 -0.2337
 9120SOL    HW138822   4.216   0.668   5.523  0.5900  0.4500  1.6041
 9120SOL    HW238823   4.170   0.805   5.473 -0.0669  0.4306 -0.5780
 9121SOL     OW38824   3.619   0.696  13.897  0.4009 -0.4076  0.0613
 9121SOL    HW138825   3.593   0.641  13.970 -1.4946  0.4767  0.0547
 9121SOL    HW238826   3.641   0.637  13.824 -0.3880 -1.0860  0.3770
 9122SOL     OW38827   3.680   0.375   3.771  0.1089  0.3681 -0.2345
 9122SOL    HW138828   3.657   0.433   3.698 -0.8549 -0.8625 -0.8952
 9122SOL    HW238829   3.607   0.366   3.833  0.6559  0.3033  0.3908
 9123SOL     OW38830   1.523   2.898   3.618 -0.4777 -0.2472 -0.0317
 9123SOL    HW138831   1.522   2.962   3.547 -0.1098  0.0498  0.2327
 9123SOL    HW238832   1.431   2.869   3.616 -0.4398 -0.2926 -1.4047
 9124SOL     OW38833   3.260   1.188   7.863 -0.1777 -0.5283 -0.1152
 9124SOL    HW138834   3.260   1.161   7.955  0.2949  1.5009  0.4702
 9124SOL    HW238835   3.335   1.136   7.834 -0.6680 -0.7320 -1.0142
 9125SOL     OW38836   1.301   2.333   7.834  0.7526 -0.8657  0.0931
 9125SOL    HW138837   1.395   2.337   7.817  0.1849  2.8569 -2.0363
 9125SOL    HW238838   1.299   2.378   7.919 -1.1974 -3.6408  1.5425
 9126SOL     OW38839   3.318   2.522  13.045  0.2811 -0.4111 -0.2256
 9126SOL    HW138840   3.367   2.439  13.049 -0.5590 -0.8987  0.0074
 9126SOL    HW238841   3.370   2.567  13.112 -1.2278  0.2180  0.5162
 9127SOL     OW38842   0.778   0.713   0.648  0.6760 -0.0330 -0.3467
 9127SOL    HW138843   0.871   0.736   0.639  0.0243  2.1971 -1.2114
 9127SOL    HW238844   0.746   0.780   0.708 -0.6537 -1.5183  0.5842
 9128SOL     OW38845   2.978   0.259   2.109 -0.6870  0.0496  0.1980
 9128SOL    HW138846   2.959   0.311   2.031  0.8498  1.0515  0.4754
 9128SOL    HW238847   2.946   0.170   2.095 -2.3944  0.8355 -0.8290
 9129SOL     OW38848   4.013   4.555   0.086  0.2711 -0.3180 -0.3565
 9129SOL    HW138849   4.076   4.628   0.087 -0.0151 -0.0775  0.1854
 9129SOL    HW238850   3.994   4.551  17.688 -0.0741 -2.2769 -0.1869
 9130SOL     OW38851   4.549   2.818   7.184  0.3224  0.5142 -0.3839
 9130SOL    HW138852   4.617   2.794   7.121  2.4420  2.3554  1.2057
 9130SOL    HW238853   4.471   2.838   7.132  0.3452 -2.8826 -1.7092
 9131SOL     OW38854   3.236   4.401   9.090 -0.5751 -0.8538  0.1863
 9131SOL    HW138855   3.284   4.332   9.044 -0.1197  0.0353 -0.6716
 9131SOL    HW238856   3.177   4.361   9.155 -0.2043  0.1880  1.1614
 9132SOL     OW38857   3.360   4.437   4.855 -0.2944  0.1323  0.0191
 9132SOL    HW138858   3.373   4.411   4.764 -1.9121 -1.6326  0.3004
 9132SOL    HW238859   3.385   4.530   4.860 -4.1064  1.1358  1.0123
 9133SOL     OW38860   0.821   1.747   8.772  0.2113 -0.2104 -0.5866
 9133SOL    HW138861   0.904   1.771   8.729  2.0771 -2.7862  1.5502
 9133SOL    HW238862   0.835   1.770   8.864  0.4230  0.4199 -0.7743
 9134SOL     OW38863   3.287   4.001   8.815  0.2210  0.9818 -0.1047
 9134SOL    HW138864   3.257   3.930   8.870 -3.3105  2.6761  0.1403
 9134SOL    HW238865   3.264   3.966   8.729  0.4587 -2.9188  1.4541
 9135SOL     OW38866   3.647   0.948  12.941 -0.1494  0.4116 -0.0716
 9135SOL    HW138867   3.565   0.949  12.891  0.0229 -0.8165 -0.3862
 9135SOL    HW238868   3.662   0.857  12.967  0.7028 -0.6134 -4.1025
 9136SOL     OW38869   3.300   0.231  17.304  0.0564 -0.8116  0.2970
 9136SOL    HW138870   3.322   0.308  17.252 -1.5040 -0.2702  0.4408
 9136SOL    HW238871   3.334   0.248  17.392  2.8183  1.1629 -1.1396
 9137SOL     OW38872   3.946   4.520   4.938 -0.1794  0.0964 -0.3762
 9137SOL    HW138873   3.991   4.584   4.994  0.0210 -1.1951  0.9438
 9137SOL    HW238874   3.990   4.440   4.966  0.5308  0.3264 -0.8393
 9138SOL     OW38875   3.508   0.508  12.751 -0.1763  0.4873  0.6905
 9138SOL    HW138876   3.558   0.428  12.732  3.4017  1.7553  4.7786
 9138SOL    HW238877   3.434   0.498  12.691 -0.7692  0.8008  1.3838
 9139SOL     OW38878   0.407   0.167  10.823 -0.0119 -0.3464  0.3109
 9139SOL    HW138879   0.329   0.188  10.771 -0.6535  0.0815  1.4484
 9139SOL    HW238880   0.399   0.219  10.903 -1.7063  0.5744 -0.4490
 9140SOL     OW38881   0.601   1.760   6.558  0.1605 -0.1131  0.4698
 9140SOL    HW138882   0.506   1.747   6.566 -0.2078  0.3324 -3.3259
 9140SOL    HW238883   0.634   1.729   6.642  0.4934  0.4504  0.5414
 9141SOL     OW38884   2.274   0.591  14.029 -0.0965  0.1014 -0.5829
 9141SOL    HW138885   2.337   0.559  13.964 -1.1190 -0.1249 -1.4712
 9141SOL    HW238886   2.331   0.595  14.105 -2.5612  1.6043  1.2100
 9142SOL     OW38887   0.303   0.266  15.633 -0.1613 -0.1495 -0.0056
 9142SOL    HW138888   0.387   0.297  15.602 -1.1220  2.4947  0.0042
 9142SOL    HW238889   0.302   0.309  15.719 -0.3062  0.5301 -0.3505
 9143SOL     OW38890   0.514   1.596  17.227  0.1049  0.2355 -0.1537
 9143SOL    HW138891   0.521   1.609  17.133  2.5242 -0.7258 -0.1262
 9143SOL    HW238892   0.431   1.552  17.244  0.1331 -0.1328 -0.9909
 9144SOL     OW38893   2.089   1.915  10.385 -0.2933 -0.6602  0.4026
 9144SOL    HW138894   2.173   1.961  10.372  0.6145 -2.2242  0.7310
 9144SOL    HW238895   2.059   1.917  10.295 -1.0294 -1.3750  0.6366
 9145SOL     OW38896   2.873   2.407  12.444 -0.4786 -0.5818  0.0428
 9145SOL    HW138897   2.897   2.414  12.352  0.1831 -2.2823  0.0892
 9145SOL    HW238898   2.915   2.324  12.467 -1.2610 -0.5501  1.5838
 9146SOL     OW38899   4.710   3.657   5.980  0.2332  0.6128 -0.4148
 9146SOL    HW138900   0.053   3.591   5.957  1.2344  0.8634  1.7171
 9146SOL    HW238901   4.700   3.636   6.073 -0.9103 -1.5564 -1.0191
 9147SOL     OW38902   0.841   1.982   4.977 -0.7413 -1.1888 -0.1513
 9147SOL    HW138903   0.824   1.914   5.042 -0.9039 -0.7744  0.2459
 9147SOL    HW238904   0.933   1.962   4.959 -0.1686 -1.1509  2.6950
 9148SOL     OW38905   0.848   3.043   3.712  0.4179  0.2116  0.4929
 9148SOL    HW138906   0.795   3.122   3.721  0.5931  0.3935 -0.0592
 9148SOL    HW238907   0.844   3.028   3.618  1.1439  2.6886  0.0832
 9149SOL     OW38908   0.933   2.532  10.435 -0.2822  0.5726 -0.8177
 9149SOL    HW138909   0.889   2.514  10.518 -2.5337 -0.6894 -2.2860
 9149SOL    HW238910   0.867   2.500  10.373  0.3559 -1.1510 -0.6241
 9150SOL     OW38911   3.749   3.625  13.406  0.1648 -0.7593 -0.6698
 9150SOL    HW138912   3.697   3.621  13.326 -0.4678  2.5023 -0.4015
 9150SOL    HW238913   3.695   3.572  13.464 -0.5220  2.1924  1.3205
 9151SOL     OW38914   0.562   2.074   3.803  0.0223 -0.1608 -0.1131
 9151SOL    HW138915   0.584   2.065   3.711  0.9781  3.7901 -0.3000
 9151SOL    HW238916   0.644   2.040   3.841 -0.5581 -1.6155 -0.1710
 9152SOL     OW38917   0.064   1.109   5.363  0.2960  0.3721 -0.8119
 9152SOL    HW138918   0.070   1.038   5.298 -0.4077 -0.6400  0.2275
 9152SOL    HW238919   0.073   1.187   5.308 -0.8694 -1.4160 -3.5752
 9153SOL     OW38920   3.285   1.549  15.572  0.0027 -0.6039 -0.3041
 9153SOL    HW138921   3.214   1.497  15.535 -0.2309 -0.8202  0.4486
 9153SOL    HW238922   3.352   1.550  15.503 -0.0378 -1.2286 -0.3513
 9154SOL     OW38923   1.372   1.243   9.241  0.0913 -0.3797 -0.1463
 9154SOL    HW138924   1.395   1.257   9.333 -0.0622  0.0594 -0.1733
 9154SOL    HW238925   1.329   1.323   9.209  0.1024 -0.9575 -1.5747
 9155SOL     OW38926   4.717   2.130  15.176  0.5295 -0.4041 -0.7731
 9155SOL    HW138927   4.667   2.197  15.223  0.2241 -1.0434 -0.1987
 9155SOL    HW238928   0.046   2.185  15.118  1.4384  1.5583  1.9613
 9156SOL     OW38929   2.910   2.639  13.787 -0.1561 -0.2103 -0.6075
 9156SOL    HW138930   2.919   2.574  13.857  0.6470  0.5553  0.0102
 9156SOL    HW238931   2.923   2.724  13.831 -0.2408  0.8983 -2.7271
 9157SOL     OW38932   0.089   2.796  12.231  0.0763  0.4686 -0.0017
 9157SOL    HW138933   0.070   2.720  12.286  0.3315  2.4090  2.7757
 9157SOL    HW238934   0.159   2.761  12.176 -0.9621  0.1486 -1.1095
 9158SOL     OW38935   2.015   0.129  14.471  0.4320 -0.1989  0.1215
 9158SOL    HW138936   2.023   0.081  14.389 -1.3099 -1.9508  0.9841
 9158SOL    HW238937   1.922   0.114  14.484  0.4715 -0.7931 -0.2938
 9159SOL     OW38938   3.399   2.194   5.780  0.1097 -0.1446  1.1765
 9159SOL    HW138939   3.426   2.181   5.871  1.0349  1.9170  1.2015
 9159SOL    HW238940   3.484   2.195   5.734 -0.0331 -1.3673  0.8862
 9160SOL     OW38941   1.979   1.904   4.460  0.2317 -0.4582 -0.2604
 9160SOL    HW138942   2.029   1.843   4.405  1.0803 -0.3772  0.4161
 9160SOL    HW238943   2.047   1.949   4.511  0.0748  1.5198 -1.8144
 9161SOL     OW38944   0.632   0.315   5.866  0.0732  0.4680 -0.0622
 9161SOL    HW138945   0.706   0.255   5.871 -1.9086 -1.8395  1.7306
 9161SOL    HW238946   0.571   0.262   5.917 -0.2113  1.9162  1.1104
 9162SOL     OW38947   1.285   4.009   6.654 -0.2039  0.3374 -0.2396
 9162SOL    HW138948   1.366   4.021   6.703 -0.7133 -1.9080  1.1495
 9162SOL    HW238949   1.268   4.101   6.633 -2.3234  0.1589  0.6089
 9163SOL     OW38950   1.723   2.209   0.268 -0.2604 -0.0480 -0.7020
 9163SOL    HW138951   1.698   2.117   0.263  2.1014 -0.6953 -0.3248
 9163SOL    HW238952   1.818   2.205   0.277 -0.4767 -0.3473  1.4303
 9164SOL     OW38953   2.970   2.317   8.464 -0.1385  0.2685 -0.1003
 9164SOL    HW138954   2.922   2.399   8.459  1.1456  1.0466  0.3990
 9164SOL    HW238955   2.987   2.304   8.371 -1.7151 -0.1962 -0.3294
 9165SOL     OW38956   1.193   2.147   1.758 -0.1087  0.8445  0.0602
 9165SOL    HW138957   1.149   2.210   1.815 -0.4064 -0.3502  1.1580
 9165SOL    HW238958   1.223   2.080   1.820  0.3074 -0.1459 -1.2138
 9166SOL     OW38959   2.682   2.679   7.743 -0.4377 -0.1034  0.2199
 9166SOL    HW138960   2.738   2.736   7.797  1.4207 -1.5052 -0.1993
 9166SOL    HW238961   2.595   2.717   7.752 -0.2162  0.4650  0.0023
 9167SOL     OW38962   2.750   2.808  13.000 -0.2870 -0.2506 -0.2579
 9167SOL    HW138963   2.790   2.726  12.969  2.0008  0.9087 -0.4083
 9167SOL    HW238964   2.776   2.802  13.092 -1.6728  0.7118  0.1885
 9168SOL     OW38965   1.761   4.619  17.379 -0.1504 -0.0334  0.2033
 9168SOL    HW138966   1.801   4.565  17.447  1.3897  1.9430  0.8634
 9168SOL    HW238967   1.684   4.563  17.370  0.3794 -0.5629 -0.9957
 9169SOL     OW38968   2.671   4.193   9.649  0.2094  0.0442 -0.1940
 9169SOL    HW138969   2.709   4.257   9.708  1.2297  1.1234 -2.0100
 9169SOL    HW238970   2.590   4.171   9.695  0.4271  2.2757  1.2157
 9170SOL     OW38971   2.581   4.142   4.887  0.2416  0.2019  0.3433
 9170SOL    HW138972   2.668   4.141   4.926  0.4952  0.1071 -0.2344
 9170SOL    HW238973   2.590   4.184   4.802 -2.2848  1.8478  0.8809
 9171SOL     OW38974   4.071   2.582   8.680  0.0793  0.2085  0.0333
 9171SOL    HW138975   4.006   2.529   8.634  1.2775 -0.6621 -0.6945
 9171SOL    HW238976   4.034   2.600   8.766 -0.6072 -2.8783  0.3712
 9172SOL     OW38977   2.032   2.613  15.828  0.4643 -0.3452  0.1621
 9172SOL    HW138978   1.999   2.674  15.894 -0.7311 -0.1536 -0.6085
 9172SOL    HW238979   2.120   2.648  15.817 -0.0131  0.6669 -0.5014
 9173SOL     OW38980   0.124   0.279  16.539  0.4545 -0.2671  0.0055
 9173SOL    HW138981   0.180   0.304  16.466  0.9039 -0.6322  0.2293
 9173SOL    HW238982   0.063   0.226  16.487  1.1443 -2.5763  1.5557
 9174SOL     OW38983   2.038   0.539   1.967 -0.1138 -0.8001  0.0751
 9174SOL    HW138984   2.128   0.532   2.000  0.0859  0.3908 -0.2343
 9174SOL    HW238985   1.996   0.581   2.042 -0.1576 -0.5940 -0.0632
 9175SOL     OW38986   4.045   1.968   2.391  0.3338  0.3676  0.0734
 9175SOL    HW138987   4.059   1.978   2.297 -1.7822  1.4612 -0.1494
 9175SOL    HW238988   4.097   1.890   2.408  0.3981  0.2541 -0.6560
 9176SOL     OW38989   0.544   0.720   5.786 -0.1937 -0.7794  0.4272
 9176SOL    HW138990   0.470   0.752   5.838 -0.4001  1.4261 -1.2310
 9176SOL    HW238991   0.610   0.737   5.854  1.7428 -0.2844 -1.5523
 9177SOL     OW38992   0.444   1.186   8.480  0.3450  0.3519 -0.4573
 9177SOL    HW138993   0.438   1.282   8.470  0.3398  0.6634  2.8178
 9177SOL    HW238994   0.524   1.176   8.530  0.1000  1.2811  0.1196
 9178SOL     OW38995   0.288   0.731   8.364  0.0611  0.6075 -0.0303
 9178SOL    HW138996   0.272   0.637   8.371 -0.0650  0.6276 -0.0446
 9178SOL    HW238997   0.364   0.735   8.422  1.2749  2.7559 -1.7391
 9179SOL     OW38998   3.822   0.882  13.934  0.0527 -0.3450  0.3012
 9179SOL    HW138999   3.771   0.801  13.932 -1.8300  0.8551 -0.4681
 9179SOL    HW239000   3.774   0.931  14.001  0.0236  2.3066 -1.6522
 9180SOL     OW39001   3.240   0.571   2.267 -0.4822 -0.0501 -0.1555
 9180SOL    HW139002   3.147   0.590   2.280 -0.8371 -0.7757 -1.6241
 9180SOL    HW239003   3.279   0.657   2.254  1.9493 -0.7181  2.6957
 9181SOL     OW39004   0.106   0.624   6.040  0.0923 -0.0630  0.0707
 9181SOL    HW139005   0.110   0.671   5.957 -0.2188  1.5113  0.9609
 9181SOL    HW239006   0.184   0.572   6.020  1.0842  0.9079  1.5142
 9182SOL     OW39007   1.358   3.989   2.334  0.0956 -0.6474  0.5203
 9182SOL    HW139008   1.272   4.030   2.329  0.3385 -0.4202 -1.8917
 9182SOL    HW239009   1.401   4.042   2.266 -2.3996  1.0388  0.2735
 9183SOL     OW39010   3.270   4.698  12.039 -0.1026 -0.4949  0.4430
 9183SOL    HW139011   3.361   0.003  12.032 -0.3038  0.0929  0.2520
 9183SOL    HW239012   3.222   0.026  11.975  1.7915 -0.3524 -0.8455
 9184SOL     OW39013   3.645   1.921  13.431 -0.5321  0.3169  0.4494
 9184SOL    HW139014   3.710   1.894  13.366 -0.8073 -0.8262  0.6411
 9184SOL    HW239015   3.579   1.864  13.391  1.0235  0.0043 -1.6998
 9185SOL     OW39016   2.641   2.956   4.506 -0.5730 -0.3227 -0.3474
 9185SOL    HW139017   2.689   2.887   4.463  0.6754  1.0190 -1.1003
 9185SOL    HW239018   2.655   3.030   4.447 -0.9510  0.1529  0.1513
 9186SOL     OW39019   2.659   2.441  12.973  0.3553  0.4496  0.1210
 9186SOL    HW139020   2.570   2.407  12.985  0.0918  0.6681 -1.1769
 9186SOL    HW239021   2.705   2.361  12.947  0.3670  0.1003  1.2152
 9187SOL     OW39022   2.632   4.647   7.003 -0.3750 -0.1199  0.1558
 9187SOL    HW139023   2.661   4.605   7.084 -0.6766 -0.3992  0.1211
 9187SOL    HW239024   2.723   4.667   6.980 -0.1553 -0.3287  0.8352
 9188SOL     OW39025   1.450   1.723   3.672 -0.4927  0.0199  0.2428
 9188SOL    HW139026   1.436   1.636   3.635  0.4582  0.3043 -0.7917
 9188SOL    HW239027   1.529   1.739   3.621 -1.3401  1.5502 -0.6214
 9189SOL     OW39028   3.422   1.117   3.348 -0.1462  0.1329 -0.3773
 9189SOL    HW139029   3.350   1.055   3.338 -1.3477  1.4612  0.0044
 9189SOL    HW239030   3.421   1.156   3.260 -0.0140  3.4454  1.0990
 9190SOL     OW39031   1.268   2.205  16.799  0.8188  0.9825 -0.0860
 9190SOL    HW139032   1.317   2.261  16.739  2.3991 -0.4790 -0.1645
 9190SOL    HW239033   1.205   2.174  16.734 -1.6186  0.7341  2.4139
 9191SOL     OW39034   0.687   1.716   6.829  0.0461 -0.3403 -0.5553
 9191SOL    HW139035   0.779   1.687   6.824  0.4288  0.9185 -0.7540
 9191SOL    HW239036   0.689   1.767   6.911 -0.6556 -1.6442  0.2769
 9192SOL     OW39037   2.939   4.624   1.351 -0.2362  0.3265  0.3888
 9192SOL    HW139038   2.982   4.707   1.332 -1.8627  1.0012 -0.4281
 9192SOL    HW239039   2.956   4.583   1.266 -2.7476  1.4452 -0.6804
 9193SOL     OW39040   3.196   2.526   9.324  0.3982 -0.7232 -0.7095
 9193SOL    HW139041   3.277   2.578   9.328  0.4230 -0.9199  1.1336
 9193SOL    HW239042   3.216   2.443   9.281  1.7323 -1.3581  1.1493
 9194SOL     OW39043   2.869   0.193   9.097 -0.1963 -0.0416 -0.3629
 9194SOL    HW139044   2.790   0.159   9.055 -1.0443 -0.1221  1.2972
 9194SOL    HW239045   2.936   0.158   9.038  0.4316  0.8062 -0.1463
 9195SOL     OW39046   1.223   4.721  13.364 -0.0311  0.3552 -0.3196
 9195SOL    HW139047   1.133   0.008  13.331  0.4991 -0.5410 -2.0357
 9195SOL    HW239048   1.212   4.646  13.422 -3.5930 -0.5468 -2.1716
 9196SOL     OW39049   4.350   3.049  12.337 -0.3266  0.3157 -0.1435
 9196SOL    HW139050   4.435   3.006  12.337  0.0844  1.0963  1.9187
 9196SOL    HW239051   4.341   3.076  12.245  0.7361 -2.5528 -1.0634
 9197SOL     OW39052   4.522   1.227   9.630  0.4190 -0.6301  0.3444
 9197SOL    HW139053   4.513   1.141   9.589  2.0766 -0.7037  0.1465
 9197SOL    HW239054   4.575   1.262   9.559 -0.0077  0.5209  0.5825
 9198SOL     OW39055   3.576   3.456  14.830  0.4590 -0.3107 -0.3798
 9198SOL    HW139056   3.502   3.436  14.886  0.3897  0.7814 -0.0884
 9198SOL    HW239057   3.582   3.382  14.769 -2.3867 -2.5234  2.0235
 9199SOL     OW39058   2.171   2.670   3.087 -0.4124  0.0376  0.1044
 9199SOL    HW139059   2.162   2.582   3.125 -1.5855  0.2577  0.3335
 9199SOL    HW239060   2.264   2.675   3.066 -0.0320 -3.3165  0.9325
 9200SOL     OW39061   0.898   0.394   8.614  0.0098 -0.3155 -1.1926
 9200SOL    HW139062   0.991   0.415   8.602  0.7031 -2.2945  0.7889
 9200SOL    HW239063   0.917   0.339   8.690 -2.0058  0.3531 -0.2064
 9201SOL     OW39064   3.170   3.251  15.503 -0.0333  0.2554  0.4665
 9201SOL    HW139065   3.161   3.179  15.565 -2.3297  0.4702  0.3605
 9201SOL    HW239066   3.177   3.329  15.558 -1.6615  0.2832  0.6354
 9202SOL     OW39067   1.517   1.380  11.317  0.0083  0.4552  0.2915
 9202SOL    HW139068   1.585   1.313  11.317 -1.4350 -1.0118  0.6973
 9202SOL    HW239069   1.557   1.466  11.301  0.2838  0.5085  1.2667
 9203SOL     OW39070   0.950   2.122  11.451  0.1912 -0.1368  0.5976
 9203SOL    HW139071   0.960   2.210  11.487  2.2905 -1.1285  2.4519
 9203SOL    HW239072   0.857   2.110  11.465 -0.4628  0.4704 -3.0492
 9204SOL     OW39073   1.554   4.296   5.318 -0.1139  0.3068  0.1744
 9204SOL    HW139074   1.483   4.233   5.305 -0.2444  0.0023  2.2870
 9204SOL    HW239075   1.623   4.234   5.294 -1.4470 -0.1953 -2.3244
 9205SOL     OW39076   4.497   2.174   6.993 -0.6333 -0.2702 -0.0479
 9205SOL    HW139077   4.545   2.152   6.913  2.3218 -0.1393  1.6830
 9205SOL    HW239078   4.569   2.178   7.055  1.9677 -1.2719 -3.0025
 9206SOL     OW39079   4.526   3.734   7.137  0.0531  0.5467  0.2512
 9206SOL    HW139080   4.559   3.776   7.216  4.1444 -0.1354 -1.1380
 9206SOL    HW239081   4.554   3.644   7.151  0.2411  0.4226 -0.8812
 9207SOL     OW39082   3.967   3.426  16.375 -0.1037 -0.6818 -0.3764
 9207SOL    HW139083   4.007   3.499  16.423  1.0837 -2.3299  1.1480
 9207SOL    HW239084   3.919   3.470  16.304 -0.6560 -2.2343 -0.9617
 9208SOL     OW39085   0.717   3.346  10.958  0.1032  0.4782 -0.4463
 9208SOL    HW139086   0.629   3.380  10.974 -0.6020 -1.5359 -0.0638
 9208SOL    HW239087   0.749   3.398  10.885 -1.2316  1.3594 -0.3954
 9209SOL     OW39088   2.048   2.047  14.978 -1.0334 -1.0278  0.3331
 9209SOL    HW139089   1.973   2.085  14.932  0.5999 -0.3763 -1.7607
 9209SOL    HW239090   2.001   2.019  15.056  1.0880 -3.1664  0.8366
 9210SOL     OW39091   0.817   0.081   0.168  0.0669  0.6196 -0.1294
 9210SOL    HW139092   0.859   0.055   0.250  1.6158 -0.5647 -1.3052
 9210SOL    HW239093   0.869   0.032   0.104  1.4502  1.7874  0.0897
 9211SOL     OW39094   3.273   2.740   6.700 -0.3274 -0.0814 -0.4397
 9211SOL    HW139095   3.300   2.677   6.633  0.9892  0.5385 -0.5101
 9211SOL    HW239096   3.212   2.681   6.742 -0.2302  1.1691  1.4480
 9212SOL     OW39097   4.379   0.480  15.177 -0.1181  0.4083  0.6384
 9212SOL    HW139098   4.309   0.536  15.211  0.5325  0.7253  1.4356
 9212SOL    HW239099   4.366   0.397  15.224 -0.4446 -0.6351 -1.3085
 9213SOL     OW39100   1.539   0.182   6.954  0.0486  0.5047 -0.1794
 9213SOL    HW139101   1.481   0.123   6.906 -0.5891 -0.3816  1.7203
 9213SOL    HW239102   1.483   0.257   6.972 -0.4575  0.1117 -0.1162
 9214SOL     OW39103   1.382   4.178   1.260  0.8807  0.5884  0.3081
 9214SOL    HW139104   1.443   4.246   1.290 -1.5706  2.0344  1.9824
 9214SOL    HW239105   1.413   4.110   1.320 -0.8465 -0.6011 -0.1478
 9215SOL     OW39106   2.428   1.469  14.368 -0.2299  0.6224 -0.3100
 9215SOL    HW139107   2.420   1.463  14.464 -1.9562  0.6114 -0.4509
 9215SOL    HW239108   2.365   1.406  14.333  1.2133 -0.5338 -0.7846
 9216SOL     OW39109   3.790   1.791   9.261  0.0311  0.2990 -0.0715
 9216SOL    HW139110   3.719   1.764   9.203  1.4320 -0.9401 -1.2056
 9216SOL    HW239111   3.801   1.877   9.221 -4.4606  0.8895 -0.1170
 9217SOL     OW39112   2.717   1.393   9.668  0.0590 -0.1635  0.2412
 9217SOL    HW139113   2.721   1.347   9.752  0.6863 -0.9765 -0.2374
 9217SOL    HW239114   2.766   1.332   9.613 -0.1561 -0.8547  0.8158
 9218SOL     OW39115   0.113   4.202  12.828  0.4027 -0.5144 -0.1552
 9218SOL    HW139116   0.032   4.150  12.829  1.1070 -1.5895  1.4129
 9218SOL    HW239117   0.166   4.127  12.803  0.3441 -0.6193  0.0335
 9219SOL     OW39118   0.911   0.840  15.498  0.5125  0.3242  0.2809
 9219SOL    HW139119   0.936   0.883  15.579  0.2327  2.5798 -0.8456
 9219SOL    HW239120   0.939   0.749  15.510  1.4537  0.6141  0.2973
 9220SOL     OW39121   3.289   0.853   7.566  0.1872 -0.2554 -0.0091
 9220SOL    HW139122   3.356   0.789   7.541  0.3924 -0.4863  1.1287
 9220SOL    HW239123   3.302   0.858   7.661 -0.0694  0.9980 -0.0376
 9221SOL     OW39124   0.018   1.543  10.967  0.1325 -0.0067 -0.4517
 9221SOL    HW139125   0.038   1.450  10.969 -2.3037 -0.4827  1.3259
 9221SOL    HW239126   0.018   1.554  10.872 -0.6590 -0.9646 -0.5607
 9222SOL     OW39127   0.829   2.025   8.898  0.0396  0.1860  0.0539
 9222SOL    HW139128   0.854   2.041   8.807  1.4044 -1.3299  0.1749
 9222SOL    HW239129   0.772   2.099   8.921  0.1833 -0.0231  1.0560
 9223SOL     OW39130   2.162   4.546   8.951  0.0686  0.0534 -0.1861
 9223SOL    HW139131   2.165   4.477   8.884 -1.8057 -1.1309  0.9825
 9223SOL    HW239132   2.098   4.507   9.009  1.0963 -0.7372  0.4295
 9224SOL     OW39133   3.381   4.549   9.766  0.0624  0.1010  0.3436
 9224SOL    HW139134   3.293   4.552   9.727  0.7584  1.1873 -1.1333
 9224SOL    HW239135   3.359   4.592   9.849 -1.4301  0.6180 -0.3190
 9225SOL     OW39136   0.955   1.344  14.076 -0.1383 -0.1398  0.4896
 9225SOL    HW139137   0.861   1.352  14.060 -0.2375  1.7807  1.9967
 9225SOL    HW239138   0.970   1.316  14.166 -0.9119 -1.6064  0.1673
 9226SOL     OW39139   1.280   0.543   1.879  0.3584  0.2581  0.0991
 9226SOL    HW139140   1.251   0.513   1.965 -0.6207 -1.7761 -0.9445
 9226SOL    HW239141   1.289   0.636   1.899  0.7069  0.2343  0.0504
 9227SOL     OW39142   1.493   4.113   8.974  0.3699 -0.2369 -0.2524
 9227SOL    HW139143   1.454   4.071   9.051  0.9230  0.3551  0.3527
 9227SOL    HW239144   1.434   4.181   8.942  2.3608  2.3245  1.4574
 9228SOL     OW39145   0.829   2.294   5.883  0.2220 -0.3666 -0.3438
 9228SOL    HW139146   0.906   2.315   5.937 -1.0039 -0.5882  1.4795
 9228SOL    HW239147   0.764   2.285   5.953  1.3589 -3.2408  0.3553
 9229SOL     OW39148   2.613   1.201   2.641 -0.2128  0.3211  0.0970
 9229SOL    HW139149   2.546   1.266   2.662 -1.0554 -0.2464 -0.8244
 9229SOL    HW239150   2.686   1.236   2.691  0.9792 -0.4989 -1.0441
 9230SOL     OW39151   2.355   4.394   4.639 -0.0696 -0.6722  0.3155
 9230SOL    HW139152   2.338   4.483   4.608  0.9133 -0.4990  0.2747
 9230SOL    HW239153   2.339   4.397   4.733 -0.9033 -2.2955  0.2157
 9231SOL     OW39154   3.524   1.686   2.392 -0.0384 -0.1406 -0.4457
 9231SOL    HW139155   3.609   1.717   2.424  0.6792  0.1896 -2.6482
 9231SOL    HW239156   3.546   1.681   2.299  1.0776 -0.8469 -0.1394
 9232SOL     OW39157   1.021   4.672   9.854 -0.0065  0.1243 -0.0194
 9232SOL    HW139158   0.945   4.715   9.895  0.3927  2.2442 -1.5345
 9232SOL    HW239159   1.078   0.020   9.831  1.4470 -0.9399  0.2795
 9233SOL     OW39160   3.449   1.628  10.131  0.3983 -0.2373  0.0423
 9233SOL    HW139161   3.435   1.576  10.052 -1.6706  0.8298 -0.2990
 9233SOL    HW239162   3.361   1.648  10.163  0.1457  1.8224 -1.8920
 9234SOL     OW39163   1.614   2.220   9.643  0.3642  0.5945 -0.4886
 9234SOL    HW139164   1.656   2.161   9.581  1.0246 -0.0036  0.5182
 9234SOL    HW239165   1.679   2.192   9.708 -0.1545  1.8312  0.5645
 9235SOL     OW39166   2.284   1.971   4.345  0.1742  0.0733 -0.0171
 9235SOL    HW139167   2.261   1.958   4.437  2.5591  0.0872  0.5838
 9235SOL    HW239168   2.369   1.926   4.342 -1.0580 -2.2489  0.1331
 9236SOL     OW39169   0.447   4.478   4.598  0.1081 -0.5793  0.0837
 9236SOL    HW139170   0.390   4.448   4.528  0.6822 -1.0774 -0.1800
 9236SOL    HW239171   0.408   4.448   4.680  1.0321  2.1178  1.5118
 9237SOL     OW39172   3.227   3.670   6.873 -0.4024 -0.7311  0.1616
 9237SOL    HW139173   3.199   3.582   6.846  0.0727 -0.2604 -1.8263
 9237SOL    HW239174   3.321   3.655   6.863 -1.1117 -3.0289 -3.1721
 9238SOL     OW39175   2.140   1.151   8.689 -0.0039  0.2467  0.2608
 9238SOL    HW139176   2.156   1.060   8.666 -1.4430  0.3844 -1.3627
 9238SOL    HW239177   2.161   1.142   8.781  0.4055 -0.2300  0.1155
 9239SOL     OW39178   0.232   3.825   5.918  0.0963  0.6238 -0.0722
 9239SOL    HW139179   0.153   3.879   5.912  0.7198  1.2594 -2.3034
 9239SOL    HW239180   0.246   3.835   6.012 -0.9615 -1.8399  0.3506
 9240SOL     OW39181   2.310   0.395  14.414  0.5480  0.3790 -0.0503
 9240SOL    HW139182   2.345   0.384  14.502 -0.0407 -1.3441 -0.0291
 9240SOL    HW239183   2.225   0.350  14.413  0.7866 -0.0792  0.5832
 9241SOL     OW39184   0.173   4.221   7.839 -0.9006 -0.1710 -0.1924
 9241SOL    HW139185   0.126   4.188   7.763  0.0747 -1.3641 -0.2732
 9241SOL    HW239186   0.260   4.207   7.803 -0.8859 -0.6069  0.0148
 9242SOL     OW39187   0.600   3.961  11.272  0.1490  0.2039 -0.1468
 9242SOL    HW139188   0.553   4.042  11.294 -1.1881 -0.8408  0.9160
 9242SOL    HW239189   0.522   3.907  11.289 -0.3459  0.2146 -2.4540
 9243SOL     OW39190   2.519   1.467   2.959  0.1755  0.0830  0.3589
 9243SOL    HW139191   2.489   1.438   2.873  2.4081  1.4441 -0.8702
 9243SOL    HW239192   2.433   1.496   2.990 -0.3249 -1.4645  0.4090
 9244SOL     OW39193   0.570   3.235  10.009  0.3627  0.3933 -0.3629
 9244SOL    HW139194   0.597   3.145  10.023  0.0139 -0.0251 -2.4171
 9244SOL    HW239195   0.540   3.263  10.096  1.1584  1.1205 -0.3190
 9245SOL     OW39196   4.008   2.566  13.571  0.1734  0.7625 -0.2399
 9245SOL    HW139197   3.972   2.619  13.499  2.2448  1.6414 -0.6343
 9245SOL    HW239198   4.061   2.506  13.517  1.4564  0.7986  0.9853
 9246SOL     OW39199   2.055   2.298   5.900 -0.2579 -0.1925  0.2316
 9246SOL    HW139200   2.040   2.306   5.806  2.3055 -1.7569 -0.3249
 9246SOL    HW239201   2.146   2.327   5.913 -1.2807  4.1289 -2.5023
 9247SOL     OW39202   0.554   4.665  11.581 -0.1873 -0.7678 -0.3190
 9247SOL    HW139203   0.645   4.636  11.589 -0.1016 -0.2456  0.6352
 9247SOL    HW239204   0.533   4.664  11.675 -0.5557 -0.8182 -0.4008
 9248SOL     OW39205   1.427   3.568   6.420  0.1658 -0.1449 -0.2308
 9248SOL    HW139206   1.509   3.573   6.469 -1.4182  0.1819  2.3911
 9248SOL    HW239207   1.385   3.653   6.437 -0.7188 -0.0047 -3.2164
 9249SOL     OW39208   4.184   3.655   3.716 -0.2014  0.1708  0.4087
 9249SOL    HW139209   4.224   3.619   3.795 -0.5486 -1.0322  0.0290
 9249SOL    HW239210   4.140   3.730   3.755 -0.1277  1.4505 -1.9778
 9250SOL     OW39211   2.817   1.800   7.052  0.3633 -0.6256  0.7504
 9250SOL    HW139212   2.769   1.881   7.033 -0.2899 -0.5845  2.5959
 9250SOL    HW239213   2.796   1.747   6.975  0.6964  0.5480 -0.1552
 9251SOL     OW39214   0.769   3.628  11.085 -0.2283  0.6400  0.5329
 9251SOL    HW139215   0.675   3.612  11.074  0.0470 -1.7209  1.6733
 9251SOL    HW239216   0.767   3.643  11.179  1.9242  1.3794  0.4682
 9252SOL     OW39217   2.427   3.982   5.916 -0.6109  0.0474 -0.2165
 9252SOL    HW139218   2.339   3.959   5.886 -1.1834 -0.5520  1.9128
 9252SOL    HW239219   2.453   3.907   5.969  0.1884 -1.4889 -2.7911
 9253SOL     OW39220   0.245   2.427   2.856  0.0407  0.1699  0.3696
 9253SOL    HW139221   0.306   2.470   2.796 -1.7867  2.0424 -0.1262
 9253SOL    HW239222   0.185   2.502   2.855 -0.8625 -0.5596  0.4195
 9254SOL     OW39223   2.532   2.706   2.486 -0.2805 -0.0576 -0.0931
 9254SOL    HW139224   2.615   2.695   2.440  0.6076 -1.4238  1.8379
 9254SOL    HW239225   2.540   2.790   2.532  1.6920 -0.9591  1.1891
 9255SOL     OW39226   2.605   2.265   3.393 -0.1395 -0.4182 -0.7236
 9255SOL    HW139227   2.659   2.307   3.326  0.6732 -1.7972 -0.9252
 9255SOL    HW239228   2.655   2.280   3.474 -0.2732 -0.3536 -0.6528
 9256SOL     OW39229   1.024   3.827  10.672  0.3023 -0.1183  0.8516
 9256SOL    HW139230   1.009   3.872  10.589 -1.0018 -1.5629  0.2981
 9256SOL    HW239231   1.001   3.738  10.645 -1.1777  0.7647 -0.7899
 9257SOL     OW39232   2.300   1.329   2.327  0.2140  0.1894 -0.0969
 9257SOL    HW139233   2.352   1.248   2.326 -1.9412 -1.1776 -3.4748
 9257SOL    HW239234   2.259   1.328   2.414 -0.0432 -0.8019 -0.2250
 9258SOL     OW39235   4.633   1.782   7.819  0.0861 -0.7004 -0.0217
 9258SOL    HW139236   4.588   1.757   7.900 -0.3857  2.4837  0.6937
 9258SOL    HW239237   4.709   1.723   7.817  0.2266 -0.4350 -1.9971
 9259SOL     OW39238   0.871   0.153   8.377 -0.8373  0.2133 -0.6161
 9259SOL    HW139239   0.910   0.135   8.462 -3.2594  0.8785  0.6383
 9259SOL    HW239240   0.953   0.176   8.332 -0.6843 -0.5984 -0.7479
 9260SOL     OW39241   3.502   4.128   4.051 -0.0860  0.4617 -0.2358
 9260SOL    HW139242   3.447   4.146   4.128  0.2778  1.2035 -0.1516
 9260SOL    HW239243   3.585   4.130   4.098 -0.4400 -1.2722  0.4737
 9261SOL     OW39244   3.051   4.223   5.381 -0.1852 -1.0396  0.3901
 9261SOL    HW139245   3.112   4.256   5.448  0.3718  1.0047 -1.1375
 9261SOL    HW239246   3.008   4.304   5.355  3.0808  0.1731 -1.3059
 9262SOL     OW39247   2.368   4.113   4.139 -0.5744 -0.2475  0.3464
 9262SOL    HW139248   2.426   4.144   4.069 -0.3146  0.7939  1.0269
 9262SOL    HW239249   2.319   4.044   4.094 -1.6341  0.3290  0.6121
 9263SOL     OW39250   2.172   3.454   7.815  0.0801  1.1122 -0.1672
 9263SOL    HW139251   2.198   3.431   7.905 -0.3811  1.4727  0.0549
 9263SOL    HW239252   2.079   3.469   7.831  0.5737  0.7036  3.0880
 9264SOL     OW39253   0.677   3.677  10.628  0.9218 -0.0862  1.0492
 9264SOL    HW139254   0.722   3.661  10.711 -0.8899 -0.6815  1.9232
 9264SOL    HW239255   0.609   3.611  10.639 -0.2650  1.0745  0.5830
 9265SOL     OW39256   3.758   4.070   2.771  0.1356 -0.2577  0.3721
 9265SOL    HW139257   3.779   4.114   2.689 -0.6761 -0.0718  0.2634
 9265SOL    HW239258   3.674   4.113   2.787 -1.6633 -3.2068 -1.2390
 9266SOL     OW39259   4.072   1.469   3.835  0.3336 -0.2057 -0.3755
 9266SOL    HW139260   4.043   1.534   3.771 -0.4400 -1.9847 -1.8245
 9266SOL    HW239261   4.140   1.426   3.783  0.7438  1.1238 -0.9174
 9267SOL     OW39262   1.079   0.741   3.488 -0.1693  0.2367  0.3373
 9267SOL    HW139263   1.169   0.724   3.515 -0.1857 -1.4521 -0.6931
 9267SOL    HW239264   1.036   0.661   3.518 -0.4506 -0.3320 -1.6046
 9268SOL     OW39265   1.902   1.811   2.740 -0.2319 -0.7717 -0.0719
 9268SOL    HW139266   1.931   1.794   2.651 -0.8311  0.5873 -0.5403
 9268SOL    HW239267   1.811   1.785   2.722 -0.7838 -0.1564  1.8076
 9269SOL     OW39268   0.220   1.755   6.718  0.1038  0.2737 -0.2733
 9269SOL    HW139269   0.214   1.802   6.801 -1.1161 -0.3383 -0.0051
 9269SOL    HW239270   0.130   1.756   6.684  0.6711  2.0032 -1.7135
 9270SOL     OW39271   1.092   1.029   2.531 -0.2447  0.2333  0.0748
 9270SOL    HW139272   1.055   1.063   2.612  3.1746  1.3790  1.1202
 9270SOL    HW239273   1.185   1.023   2.551 -0.1681  1.6443  0.1106
 9271SOL     OW39274   2.954   2.620   8.410 -0.1923 -0.1948  0.0196
 9271SOL    HW139275   3.034   2.669   8.427 -0.3295  1.1985 -3.3697
 9271SOL    HW239276   2.909   2.683   8.354 -0.2662  0.1225  0.4335
 9272SOL     OW39277   2.645   2.429   8.730  0.2337  0.0575 -0.0873
 9272SOL    HW139278   2.688   2.479   8.661  2.0919  0.0390  1.0724
 9272SOL    HW239279   2.644   2.340   8.694 -0.9801 -0.0580  0.2279
 9273SOL     OW39280   0.437   1.480   8.531 -0.1321 -0.2502  0.0117
 9273SOL    HW139281   0.360   1.470   8.588 -0.8972  1.2672 -0.7745
 9273SOL    HW239282   0.504   1.483   8.600 -1.0566 -1.9536  0.9862
 9274SOL     OW39283   0.087   3.548   6.516 -0.3629 -0.1992 -0.1577
 9274SOL    HW139284   0.057   3.602   6.589 -0.5958  2.3244 -2.1349
 9274SOL    HW239285   0.180   3.567   6.519 -0.4442 -0.2733  2.3078
 9275SOL     OW39286   3.047   1.685   6.707 -0.0387  0.2476  0.1925
 9275SOL    HW139287   3.054   1.595   6.737 -5.8912 -0.0167  0.8545
 9275SOL    HW239288   3.134   1.719   6.727  0.8156 -0.9916 -1.4804
 9276SOL     OW39289   2.566   0.877  17.232 -0.1655  0.1203 -0.6878
 9276SOL    HW139290   2.638   0.849  17.175  0.4663 -0.6537  0.4805
 9276SOL    HW239291   2.596   0.960  17.269  0.3609 -1.0661  1.5839
 9277SOL     OW39292   1.569   1.053   5.193 -0.3301  0.0321 -0.2730
 9277SOL    HW139293   1.586   1.099   5.275 -0.1461 -0.5648  0.0269
 9277SOL    HW239294   1.647   1.075   5.143  0.2598 -2.1760 -0.3217
 9278SOL     OW39295   0.251   4.294   5.980 -0.3520 -0.3540  0.6062
 9278SOL    HW139296   0.296   4.233   6.038 -0.3763 -0.3104  0.6704
 9278SOL    HW239297   0.190   4.343   6.035 -1.1714 -0.0822 -0.5331
 9279SOL     OW39298   0.229   0.631  14.905 -0.1136  0.0384 -0.6652
 9279SOL    HW139299   0.172   0.556  14.887  0.2493 -0.1608 -0.9592
 9279SOL    HW239300   0.177   0.704  14.870 -1.0902 -1.4111 -2.1948
 9280SOL     OW39301   3.553   1.246  10.405 -0.2369  0.4498 -0.5032
 9280SOL    HW139302   3.590   1.291  10.328 -1.3360 -0.3880 -1.5245
 9280SOL    HW239303   3.461   1.241  10.379  0.0670 -2.4540 -1.0099
 9281SOL     OW39304   0.897   0.576   1.261 -0.0058  0.0256 -0.2324
 9281SOL    HW139305   0.845   0.496   1.264 -0.6472  0.4456 -0.1375
 9281SOL    HW239306   0.985   0.541   1.246 -0.9028 -1.4447 -1.9862
 9282SOL     OW39307   1.935   3.305   5.810 -0.8142  0.6481  0.1013
 9282SOL    HW139308   1.998   3.252   5.858  0.2175  0.2510 -1.6616
 9282SOL    HW239309   1.852   3.275   5.847 -0.9868 -1.1142 -1.6723
 9283SOL     OW39310   3.569   3.959   3.516  0.1789  0.2309  0.0438
 9283SOL    HW139311   3.600   4.007   3.439 -0.9691  0.7584 -0.0985
 9283SOL    HW239312   3.480   3.994   3.513  0.0276 -0.1894 -0.4347
 9284SOL     OW39313   2.973   4.434   3.853  0.5007  0.6437  0.3304
 9284SOL    HW139314   2.997   4.394   3.769  1.4651  2.3992 -0.2190
 9284SOL    HW239315   2.888   4.393   3.862  1.4040 -0.6662  2.7997
 9285SOL     OW39316   0.992   2.435   7.885 -0.2876 -0.0056  0.6004
 9285SOL    HW139317   1.024   2.521   7.915 -1.0463 -0.1910  1.9476
 9285SOL    HW239318   1.033   2.382   7.953  3.9207 -0.9362 -2.6357
 9286SOL     OW39319   1.635   3.960   2.951  0.4502 -0.2180  0.1973
 9286SOL    HW139320   1.684   3.912   3.019  0.6302 -2.3173 -1.4222
 9286SOL    HW239321   1.620   3.895   2.883  2.5831  0.0573 -0.5311
 9287SOL     OW39322   1.691   4.666   1.556  0.3945  0.0616  0.0467
 9287SOL    HW139323   1.628   0.013   1.571  0.0489 -0.4180  0.8738
 9287SOL    HW239324   1.766   0.001   1.563 -0.3537  1.0032  0.2342
 9288SOL     OW39325   2.566   3.635   7.778 -0.3996 -0.4018  0.4142
 9288SOL    HW139326   2.603   3.592   7.700 -0.5104 -2.4480  1.4898
 9288SOL    HW239327   2.628   3.609   7.845  0.3547 -0.8545 -0.4543
 9289SOL     OW39328   0.626   3.030   2.975  0.2664 -0.2161  0.1181
 9289SOL    HW139329   0.580   3.077   2.905  2.0148 -0.9656 -1.5320
 9289SOL    HW239330   0.691   2.992   2.916 -0.0202  0.2717 -0.5266
 9290SOL     OW39331   4.564   2.264  10.544 -0.2228 -0.7547  0.0192
 9290SOL    HW139332   4.577   2.345  10.496  1.1913 -2.2960 -2.1680
 9290SOL    HW239333   4.607   2.278  10.629  1.1086  1.4474 -1.0325
 9291SOL     OW39334   3.729   3.925   1.277  0.0999 -0.2206 -0.1257
 9291SOL    HW139335   3.735   3.880   1.193  0.5604  1.7800 -1.1742
 9291SOL    HW239336   3.778   4.001   1.246 -1.3585  0.1184 -1.6299
 9292SOL     OW39337   3.463   4.693   4.865 -0.1373 -0.2911 -0.3767
 9292SOL    HW139338   3.505   0.053   4.847  2.0511 -1.2053  0.4324
 9292SOL    HW239339   3.454   4.703   4.960  1.3088 -0.9370 -0.1811
 9293SOL     OW39340   4.282   2.646  13.304  0.2323  0.8025  0.4481
 9293SOL    HW139341   4.208   2.605  13.259  0.9004  2.0462 -1.7447
 9293SOL    HW239342   4.253   2.732  13.332 -0.7866  1.1083 -1.5856
 9294SOL     OW39343   3.221   1.605  13.526 -0.0409  0.4678  0.2128
 9294SOL    HW139344   3.177   1.688  13.546  0.7342  1.2700 -1.4452
 9294SOL    HW239345   3.305   1.616  13.571 -1.1370 -0.2484  2.4830
 9295SOL     OW39346   2.868   4.401  10.091  0.0432  0.8301 -0.5833
 9295SOL    HW139347   2.834   4.425  10.177 -0.0390 -1.7277  0.1181
 9295SOL    HW239348   2.939   4.464  10.079  0.5343  0.1652 -1.1721
 9296SOL     OW39349   4.226   1.313  10.311  0.0925 -0.3333 -0.5771
 9296SOL    HW139350   4.303   1.318  10.254  0.5680 -0.5494  0.0519
 9296SOL    HW239351   4.258   1.360  10.388  1.1316 -0.2514 -1.0698
 9297SOL     OW39352   0.209   4.100  12.575  0.3241 -0.6005 -0.1636
 9297SOL    HW139353   0.126   4.110  12.621  1.9579  1.2876  2.3586
 9297SOL    HW239354   0.191   4.021  12.524  0.5920  0.5987 -2.1133
 9298SOL     OW39355   0.142   3.603   4.894  0.1899  0.8886  0.5719
 9298SOL    HW139356   0.084   3.652   4.954  1.2932  0.6595  1.8295
 9298SOL    HW239357   0.133   3.516   4.933 -0.1518  0.4111 -0.5743
 9299SOL     OW39358   2.164   1.489   3.672  0.1508 -0.0800 -0.0428
 9299SOL    HW139359   2.112   1.537   3.736  1.9026  1.3220  0.3081
 9299SOL    HW239360   2.157   1.542   3.592 -0.6505  2.0668  1.4690
 9300SOL     OW39361   1.096   4.010   9.962  0.1382  0.0361  0.3241
 9300SOL    HW139362   1.122   3.925   9.928  2.4146  0.9407 -0.2666
 9300SOL    HW239363   1.151   4.022  10.040  1.1076 -1.3569 -0.1502
 9301SOL     OW39364   1.337   1.289   4.399  0.3225 -0.0969  0.2119
 9301SOL    HW139365   1.314   1.223   4.334 -0.6304 -0.0115  0.4673
 9301SOL    HW239366   1.258   1.298   4.453 -0.9136 -0.2123 -1.5937
 9302SOL     OW39367   4.271   1.122   8.133  0.1830 -0.5301 -0.4349
 9302SOL    HW139368   4.355   1.088   8.164  0.1144 -1.0653 -0.8404
 9302SOL    HW239369   4.217   1.043   8.133 -1.5161  0.6393 -1.4777
 9303SOL     OW39370   2.481   1.079   6.419 -0.0245  0.2167 -0.1360
 9303SOL    HW139371   2.506   1.072   6.327 -0.0531 -0.3926 -0.0973
 9303SOL    HW239372   2.548   1.128   6.468 -0.7878 -1.1361  2.2583
 9304SOL     OW39373   3.467   1.301   3.563 -0.0360 -0.4378  0.1424
 9304SOL    HW139374   3.469   1.228   3.501  0.7583  0.5018 -0.9348
 9304SOL    HW239375   3.404   1.264   3.625 -0.4606  0.0803  0.0149
 9305SOL     OW39376   4.408   3.798  11.091  0.2503 -0.6964 -0.2984
 9305SOL    HW139377   4.476   3.857  11.123  0.2780 -2.0361  2.0656
 9305SOL    HW239378   4.463   3.742  11.035 -0.2006  0.3558 -1.8075
 9306SOL     OW39379   0.829   1.269   8.884 -0.2225  0.0330  0.3200
 9306SOL    HW139380   0.889   1.317   8.826  0.1844 -0.0116  0.7046
 9306SOL    HW239381   0.777   1.341   8.921  0.8030 -0.2061  2.2042
 9307SOL     OW39382   0.965   1.081  16.819 -0.3350 -0.1879  0.4435
 9307SOL    HW139383   0.904   1.149  16.790 -0.0430  0.1581  0.6434
 9307SOL    HW239384   0.910   1.009  16.852 -0.8846 -0.2136 -0.5210
 9308SOL     OW39385   2.249   2.035  13.604  0.5568  0.2394  0.1364
 9308SOL    HW139386   2.312   1.981  13.556  0.9584 -1.0404  2.1197
 9308SOL    HW239387   2.180   2.031  13.538  0.8559 -0.7111 -0.1186
 9309SOL     OW39388   1.787   1.577   2.132 -0.3039  0.0698 -0.2048
 9309SOL    HW139389   1.758   1.625   2.210  1.1397  0.3987  0.1360
 9309SOL    HW239390   1.878   1.564   2.158  0.4372  0.7983 -2.4432
 9310SOL     OW39391   2.734   0.715  15.914 -0.5883  0.5338  0.0029
 9310SOL    HW139392   2.795   0.786  15.935 -0.3392  0.9765 -2.2385
 9310SOL    HW239393   2.654   0.761  15.940  0.4089  2.1638  0.2013
 9311SOL     OW39394   3.843   1.496   9.672  0.4010 -0.1472  0.3201
 9311SOL    HW139395   3.850   1.403   9.650  0.0066 -0.3384  1.0059
 9311SOL    HW239396   3.787   1.521   9.599 -0.0686  0.8589  1.0299
 9312SOL     OW39397   2.950   4.313   6.571 -0.0840 -0.9698 -0.0134
 9312SOL    HW139398   2.904   4.248   6.625  0.3608 -1.2012  0.0884
 9312SOL    HW239399   3.016   4.351   6.628 -0.3149  0.5660 -0.7814
 9313SOL     OW39400   1.478   3.022   9.992 -0.3808 -0.2797  0.0476
 9313SOL    HW139401   1.546   3.085   9.967 -1.3660  0.8744  0.2944
 9313SOL    HW239402   1.398   3.073  10.000 -0.9024 -1.1479  0.3559
 9314SOL     OW39403   4.194   0.065   8.388 -0.1539  0.2283  0.1101
 9314SOL    HW139404   4.289   0.077   8.380 -0.1179 -0.9993 -1.1556
 9314SOL    HW239405   4.161   0.155   8.391  0.0384  0.2824  0.6529
 9315SOL     OW39406   3.577   0.723   1.453 -0.1644 -0.4351 -0.2631
 9315SOL    HW139407   3.637   0.767   1.392  0.6400 -0.5340  0.4510
 9315SOL    HW239408   3.569   0.641   1.404  2.1831 -0.0556 -1.3204
 9316SOL     OW39409   4.673   3.765   4.995 -0.1933  0.1147  0.1102
 9316SOL    HW139410   4.713   3.839   5.042 -0.6766  0.4419  0.0051
 9316SOL    HW239411   4.579   3.777   5.003 -0.0551  0.3475  1.3496
 9317SOL     OW39412   0.438   2.185   2.749  0.3296 -0.4886 -0.1871
 9317SOL    HW139413   0.413   2.182   2.657  0.9841 -0.9858 -0.3524
 9317SOL    HW239414   0.355   2.164   2.793 -0.2244 -2.3385 -2.1409
 9318SOL     OW39415   1.552   1.483   0.433  0.1531  0.0406 -0.5825
 9318SOL    HW139416   1.497   1.537   0.489  0.2673 -1.1837  0.7138
 9318SOL    HW239417   1.535   1.520   0.346 -0.4768  0.4969 -0.2588
 9319SOL     OW39418   0.814   2.954   6.237  0.1491  0.2521 -0.1681
 9319SOL    HW139419   0.887   2.975   6.295  0.8283  0.5232 -1.1180
 9319SOL    HW239420   0.805   3.041   6.197 -1.5261  0.2236  0.1648
 9320SOL     OW39421   1.042   1.079   5.182 -0.1561 -0.0839  0.3498
 9320SOL    HW139422   1.137   1.088   5.188 -0.1031  0.4696 -1.4301
 9320SOL    HW239423   1.026   1.108   5.093  0.6412 -0.0319  0.2297
 9321SOL     OW39424   1.196   3.023  12.292 -0.5935  0.1546 -0.0834
 9321SOL    HW139425   1.150   3.107  12.294 -0.1748  0.3196  1.7792
 9321SOL    HW239426   1.150   2.969  12.356 -1.3331  2.6037  1.4351
 9322SOL     OW39427   4.147   3.371   9.620  0.1829  0.4388 -0.3578
 9322SOL    HW139428   4.136   3.448   9.565 -0.9420  0.9427  0.5651
 9322SOL    HW239429   4.126   3.405   9.707  1.6717 -0.0167  0.1801
 9323SOL     OW39430   1.022   0.379  12.961  0.2486  0.3532 -0.3503
 9323SOL    HW139431   1.096   0.348  13.013 -0.8401 -1.2987  0.2184
 9323SOL    HW239432   0.982   0.435  13.027 -1.2022  1.4378 -2.1403
 9324SOL     OW39433   0.908   0.347   6.823  0.2775 -0.0779 -0.1914
 9324SOL    HW139434   0.897   0.378   6.913  1.2107  0.0745 -0.1295
 9324SOL    HW239435   0.846   0.406   6.781  1.8867  0.1595 -2.2662
 9325SOL     OW39436   2.695   3.919   5.318  0.2892 -0.2504  0.1849
 9325SOL    HW139437   2.711   3.917   5.412 -0.8851 -2.7977  0.3590
 9325SOL    HW239438   2.786   3.907   5.291 -0.0249 -1.6047 -0.3098
 9326SOL     OW39439   3.497   3.732   4.153  0.6765  0.3740 -0.1680
 9326SOL    HW139440   3.415   3.771   4.184 -1.2618 -4.4521  0.7630
 9326SOL    HW239441   3.507   3.772   4.067 -0.7803  0.8617 -0.1042
 9327SOL     OW39442   1.888   3.285  15.223 -0.1122 -0.5905  0.7404
 9327SOL    HW139443   1.974   3.243  15.219 -0.0131 -0.6024  2.8144
 9327SOL    HW239444   1.834   3.219  15.267 -1.2075  0.1740  0.5628
 9328SOL     OW39445   4.544   1.034   4.251  0.0183 -0.0642 -0.1142
 9328SOL    HW139446   4.590   0.955   4.224 -1.0119  0.1273 -2.4059
 9328SOL    HW239447   4.586   1.101   4.197  2.8803 -1.0972  0.7779
 9329SOL     OW39448   2.550   3.235   9.937 -0.2833  0.1496  0.1154
 9329SOL    HW139449   2.484   3.166   9.926 -1.0221  0.6340  1.5596
 9329SOL    HW239450   2.534   3.289   9.859 -2.0349 -0.2265  0.2040
 9330SOL     OW39451   2.939   1.749   2.806  0.1950 -0.1308 -0.2211
 9330SOL    HW139452   2.872   1.691   2.842 -0.0506  0.4849  0.3172
 9330SOL    HW239453   2.900   1.832   2.835  0.2059 -1.2089  2.8908
 9331SOL     OW39454   1.430   2.868   4.228 -0.2363  0.1941 -0.5880
 9331SOL    HW139455   1.498   2.812   4.190  0.3173 -1.1062  2.3525
 9331SOL    HW239456   1.473   2.953   4.219 -1.6887  0.7634 -2.2045
 9332SOL     OW39457   2.410   2.713   6.534  0.1105 -0.4377 -0.1029
 9332SOL    HW139458   2.419   2.629   6.489  1.9759 -0.5040  0.3923
 9332SOL    HW239459   2.432   2.698   6.626  1.2616  0.4696 -0.2251
 9333SOL     OW39460   1.908   2.715   4.008 -0.2906  0.4339 -0.1696
 9333SOL    HW139461   1.867   2.797   3.981  1.9251  0.7405 -2.6532
 9333SOL    HW239462   1.927   2.669   3.927  0.2003 -1.9892  1.3145
 9334SOL     OW39463   2.065   3.637   7.643 -0.8530  0.1314  0.4147
 9334SOL    HW139464   2.100   3.620   7.556 -0.9137 -0.3447  0.4801
 9334SOL    HW239465   2.087   3.550   7.677 -0.6131 -1.2500 -3.2545
 9335SOL     OW39466   0.477   2.975   6.256  0.2061  0.0224  0.5025
 9335SOL    HW139467   0.539   3.035   6.298 -0.5781  0.8689  0.4523
 9335SOL    HW239468   0.503   2.900   6.309  1.0246 -0.6856 -0.9147
 9336SOL     OW39469   0.086   1.767   4.188  0.0797  1.2324  0.4044
 9336SOL    HW139470   0.181   1.771   4.180 -0.0192 -0.0954 -1.3774
 9336SOL    HW239471   0.056   1.756   4.098 -0.9723 -1.6603  1.0861
 9337SOL     OW39472   0.115   1.985   1.644 -0.8333 -0.1770  0.5399
 9337SOL    HW139473   0.096   1.892   1.646  1.6018 -0.6780 -0.8458
 9337SOL    HW239474   0.134   1.998   1.737 -2.1121  2.9809  0.3699
 9338SOL     OW39475   3.140   4.387  10.908 -0.0748 -0.1861  0.2578
 9338SOL    HW139476   3.125   4.293  10.914  0.6501 -0.3260 -0.1843
 9338SOL    HW239477   3.219   4.402  10.960 -0.5614 -0.6680  1.1242
 9339SOL     OW39478   0.107   3.917   4.488 -0.1649  0.5325 -0.2670
 9339SOL    HW139479   0.065   3.849   4.540 -1.0613  0.8961 -0.5099
 9339SOL    HW239480   0.046   3.991   4.489 -0.7989  0.0356 -1.7631
 9340SOL     OW39481   4.471   3.960  13.520 -0.4157  0.3405 -0.4151
 9340SOL    HW139482   4.488   3.983  13.429 -0.3808  1.7096 -0.0706
 9340SOL    HW239483   4.377   3.946  13.507 -0.3335  1.4441 -2.2180
 9341SOL     OW39484   3.598   4.189   4.466 -0.2027 -0.0228 -0.1232
 9341SOL    HW139485   3.531   4.228   4.523  0.0128 -2.4811  1.8298
 9341SOL    HW239486   3.538   4.137   4.413 -1.0490  0.3435  0.4687
 9342SOL     OW39487   0.579   2.011   3.520 -0.1235  0.1758  0.1632
 9342SOL    HW139488   0.525   2.084   3.490 -0.8130 -0.5036 -0.2334
 9342SOL    HW239489   0.526   1.934   3.500  1.3151 -0.7102 -0.1697
 9343SOL     OW39490   2.320   0.891   6.557 -0.4167 -0.5365 -0.2566
 9343SOL    HW139491   2.354   0.839   6.630 -3.5940 -0.6998  1.0710
 9343SOL    HW239492   2.402   0.933   6.529  0.3141 -2.2033 -0.6190
 9344SOL     OW39493   4.199   3.240   5.729  0.5677  0.0073 -0.4991
 9344SOL    HW139494   4.133   3.173   5.747 -0.2911  0.7344 -0.9639
 9344SOL    HW239495   4.250   3.250   5.809 -1.8036 -0.0670  1.0102
 9345SOL     OW39496   3.494   1.395   8.128  0.2924 -0.4648  0.0778
 9345SOL    HW139497   3.494   1.308   8.087  0.0035 -0.8727  0.9376
 9345SOL    HW239498   3.588   1.402   8.141 -0.0254  1.4359  1.2768
 9346SOL     OW39499   3.766   4.609   6.643  0.3443 -0.2521 -0.8661
 9346SOL    HW139500   3.806   4.528   6.611 -0.2856 -0.1805 -1.8409
 9346SOL    HW239501   3.686   4.582   6.689  0.2183 -1.0888 -1.5678
 9347SOL     OW39502   0.055   3.791   2.061  0.1254 -0.0871  0.1709
 9347SOL    HW139503   0.126   3.849   2.087  0.7648 -0.2082 -1.3132
 9347SOL    HW239504   4.707   3.841   2.022  1.0696  0.4867 -0.8115
 9348SOL     OW39505   4.689   3.997   6.633 -0.3386 -0.9018  0.0910
 9348SOL    HW139506   4.615   4.054   6.612 -0.2076 -0.5513  0.6087
 9348SOL    HW239507   4.651   3.943   6.702 -1.2979 -0.6881 -0.2651
 9349SOL     OW39508   2.035   4.602   1.551  0.2980  0.1944 -0.2786
 9349SOL    HW139509   2.004   4.618   1.462  2.1007 -4.1674 -1.6837
 9349SOL    HW239510   2.006   4.512   1.562 -1.1778  0.4720 -1.7968
 9350SOL     OW39511   1.304   1.551  14.694 -0.0245  0.3853  0.4910
 9350SOL    HW139512   1.229   1.610  14.698  0.7365  1.3661  0.1389
 9350SOL    HW239513   1.365   1.603  14.746  2.0657 -0.7492 -0.8009
 9351SOL     OW39514   3.917   0.314   8.490 -0.0899 -0.2305  0.0970
 9351SOL    HW139515   3.988   0.379   8.490  1.2282 -1.6617 -3.0186
 9351SOL    HW239516   3.949   0.264   8.565  0.3542  0.4622  0.3755
 9352SOL     OW39517   2.035   2.861  13.284 -0.3675  0.0831  0.4012
 9352SOL    HW139518   2.073   2.941  13.319  0.4506 -0.0740 -0.1336
 9352SOL    HW239519   2.013   2.898  13.198  0.2059  1.1618  0.7183
 9353SOL     OW39520   4.691   0.793   5.476  0.0182 -0.0648 -0.4719
 9353SOL    HW139521   4.697   0.861   5.543  3.9637 -0.7662 -0.0943
 9353SOL    HW239522   0.052   0.748   5.474  1.0608  1.8229  1.1452
 9354SOL     OW39523   4.105   4.544  11.213 -0.1654  0.1162 -0.2713
 9354SOL    HW139524   4.176   4.590  11.257  0.3910 -2.3235  1.3919
 9354SOL    HW239525   4.160   4.498  11.150  1.7545 -2.4952  3.3048
 9355SOL     OW39526   0.128   0.530   3.693  0.2049 -0.5536  0.6060
 9355SOL    HW139527   0.076   0.610   3.688 -0.2117 -0.8587  0.0524
 9355SOL    HW239528   0.183   0.561   3.621 -0.7193  0.1518  0.1970
 9356SOL     OW39529   1.058   1.920   5.705 -0.4614  0.3855  0.2040
 9356SOL    HW139530   1.052   1.830   5.671 -1.4288  0.9703 -1.1483
 9356SOL    HW239531   1.054   1.971   5.624  1.3182  0.7949  0.3705
 9357SOL     OW39532   3.638   4.217   7.361  0.2869  0.1606  0.1586
 9357SOL    HW139533   3.674   4.301   7.389 -1.3882 -0.4915  4.2096
 9357SOL    HW239534   3.619   4.230   7.268  0.5393  2.4041  0.4206
 9358SOL     OW39535   0.309   4.337  12.510 -0.2273  0.5681 -0.1818
 9358SOL    HW139536   0.250   4.350  12.436 -1.6981  0.3106  0.9496
 9358SOL    HW239537   0.274   4.261  12.555  0.6549  0.1227 -0.2368
 9359SOL     OW39538   2.584   0.599   8.054  0.0041  0.4649 -0.2735
 9359SOL    HW139539   2.636   0.524   8.027  3.8389  2.7316  0.8062
 9359SOL    HW239540   2.632   0.663   8.001 -0.2468  1.2050  0.3887
 9360SOL     OW39541   3.504   0.190  10.856  0.2655 -0.0022  0.8420
 9360SOL    HW139542   3.576   0.132  10.882 -0.2434 -1.1951 -0.3440
 9360SOL    HW239543   3.463   0.130  10.794  0.0932 -0.0919  1.0436
 9361SOL     OW39544   1.321   2.981   2.966 -0.9882  0.1006 -0.1619
 9361SOL    HW139545   1.368   2.913   3.015  1.0845  0.2331 -1.9856
 9361SOL    HW239546   1.390   3.045   2.951  0.9471 -1.7224  0.9539
 9362SOL     OW39547   3.142   1.614   4.804 -0.1700  0.4239  0.0392
 9362SOL    HW139548   3.215   1.665   4.769  1.1273 -0.0824  2.0027
 9362SOL    HW239549   3.083   1.681   4.838 -0.9452 -0.3724  0.2702
 9363SOL     OW39550   3.561   0.761  10.921  0.5336 -0.1335  0.2685
 9363SOL    HW139551   3.499   0.703  10.966 -0.7501 -0.3933 -1.8428
 9363SOL    HW239552   3.561   0.725  10.833 -1.1898 -0.2762  0.3227
 9364SOL     OW39553   1.432   4.351   4.013 -0.5032  0.2322  0.5685
 9364SOL    HW139554   1.427   4.279   3.950  0.5336  0.8186 -0.1817
 9364SOL    HW239555   1.388   4.420   3.964  2.8324  1.1647 -1.0844
 9365SOL     OW39556   2.096   3.892   5.479 -0.6727 -0.2192 -0.4104
 9365SOL    HW139557   2.152   3.962   5.445 -1.3908 -0.2539 -1.6701
 9365SOL    HW239558   2.024   3.894   5.415  1.0960 -0.5664 -2.4101
 9366SOL     OW39559   0.568   2.457  10.974 -0.1399  0.0432  0.5237
 9366SOL    HW139560   0.520   2.511  10.912  1.1758 -1.0056 -1.4098
 9366SOL    HW239561   0.569   2.518  11.048  2.6753  0.2439  0.3215
 9367SOL     OW39562   2.818   4.262  17.606  0.2064  0.6419 -0.4820
 9367SOL    HW139563   2.748   4.208  17.645 -0.6158 -0.3727 -3.3844
 9367SOL    HW239564   2.790   4.255  17.515  1.0890  1.2362 -0.7902
 9368SOL     OW39565   0.880   0.227  14.632  0.0480 -0.0644  0.3195
 9368SOL    HW139566   0.915   0.169  14.699 -0.5394  0.3101  0.9573
 9368SOL    HW239567   0.886   0.174  14.552  0.2352 -1.0228  0.9834
 9369SOL     OW39568   1.045   2.192   4.815  0.3818  0.1971 -0.1498
 9369SOL    HW139569   1.023   2.200   4.723  1.3846  0.5898 -0.3541
 9369SOL    HW239570   1.009   2.271   4.855 -3.4040 -1.8819  0.5628
 9370SOL     OW39571   4.314   0.020  16.422 -0.3358  0.0587 -0.0079
 9370SOL    HW139572   4.246   0.052  16.482 -0.9421  0.8240 -1.0891
 9370SOL    HW239573   4.386   0.079  16.443 -0.6783 -0.1286  1.6780
 9371SOL     OW39574   0.307   0.474   4.781  0.0968 -0.3058 -0.2865
 9371SOL    HW139575   0.211   0.469   4.783  0.2379 -1.9801  1.4549
 9371SOL    HW239576   0.319   0.523   4.699 -1.2683  0.4973 -0.0154
 9372SOL     OW39577   0.228   1.395   2.653  0.2113 -0.2750  0.1987
 9372SOL    HW139578   0.211   1.478   2.698  1.3233  0.7142 -1.2137
 9372SOL    HW239579   0.182   1.423   2.574 -1.5333  0.0086  1.3104
 9373SOL     OW39580   4.300   0.568   8.399 -0.1525  0.5898  0.6138
 9373SOL    HW139581   4.296   0.661   8.379  1.6721  0.5247 -0.0806
 9373SOL    HW239582   4.338   0.570   8.486  0.7300 -1.9745  0.2857
 9374SOL     OW39583   4.714   2.416  15.888  0.7027  0.0777  0.2083
 9374SOL    HW139584   4.638   2.473  15.894  1.1212  0.7933 -1.3443
 9374SOL    HW239585   4.670   2.331  15.897  0.9025  0.2106  2.3909
 9375SOL     OW39586   2.885   1.078   1.540  0.0146  0.0330  0.3798
 9375SOL    HW139587   2.920   1.165   1.561  2.1746 -0.8906  0.6413
 9375SOL    HW239588   2.948   1.059   1.471  0.2150 -0.8387  0.7987
 9376SOL     OW39589   1.066   0.683  16.953 -0.0356  0.1389 -0.5272
 9376SOL    HW139590   1.072   0.589  16.932  1.0519 -0.0014  0.3834
 9376SOL    HW239591   1.140   0.701  17.012 -0.7093  2.1281 -0.2964
 9377SOL     OW39592   2.586   2.950   3.279  0.6005  0.2816  0.5870
 9377SOL    HW139593   2.558   3.040   3.263 -0.9391 -0.4536 -0.7207
 9377SOL    HW239594   2.615   2.936   3.189  1.0400 -0.1058  0.7852
 9378SOL     OW39595   1.152   4.460  17.568 -0.4303  0.1454 -0.3594
 9378SOL    HW139596   1.097   4.383  17.578 -1.1643  0.9898  1.9657
 9378SOL    HW239597   1.242   4.428  17.556 -0.0244  1.1362  0.0374
 9379SOL     OW39598   0.508   0.262   3.093  0.6254  0.0380 -0.7422
 9379SOL    HW139599   0.427   0.246   3.045 -0.2464 -0.7910  1.0116
 9379SOL    HW239600   0.567   0.273   3.019 -0.3443 -1.0976 -1.6765
 9380SOL     OW39601   4.340   4.156  11.063  0.0110  0.3068 -0.0160
 9380SOL    HW139602   4.417   4.103  11.041  0.0165  1.4297 -2.8015
 9380SOL    HW239603   4.296   4.097  11.123  0.4275  0.0126  0.0021
 9381SOL     OW39604   3.958   0.943  10.356 -0.2352 -0.1646  0.1027
 9381SOL    HW139605   3.921   0.967  10.272  0.9818  2.1574  0.2277
 9381SOL    HW239606   3.885   0.959  10.415 -1.4147 -0.7925 -1.2086
 9382SOL     OW39607   2.575   3.675   6.540  0.0804 -0.9761  0.0576
 9382SOL    HW139608   2.632   3.616   6.490  3.1544 -0.0456  2.4413
 9382SOL    HW239609   2.616   3.653   6.624 -1.5503 -1.8968  0.6008
 9383SOL     OW39610   1.935   0.530   6.081 -0.2670  1.3104  0.0317
 9383SOL    HW139611   1.979   0.481   6.150  0.1223 -1.3679 -2.1134
 9383SOL    HW239612   1.851   0.486   6.093  0.1257  0.6383  0.3524
 9384SOL     OW39613   1.620   2.852   5.811  0.1838 -0.3883  0.1199
 9384SOL    HW139614   1.687   2.884   5.751  2.7282  0.1889  3.2899
 9384SOL    HW239615   1.615   2.764   5.772  1.8776  1.2383 -3.7578
 9385SOL     OW39616   2.083   3.289   3.426 -0.1486 -0.8247  0.1826
 9385SOL    HW139617   2.099   3.264   3.335  0.5969  0.4007 -0.0171
 9385SOL    HW239618   2.140   3.366   3.435 -1.1146 -0.4324  2.9388
 9386SOL     OW39619   2.492   0.677   2.876 -0.2569 -0.5130  0.0599
 9386SOL    HW139620   2.513   0.594   2.919 -1.9395 -2.3310 -2.6048
 9386SOL    HW239621   2.406   0.693   2.915 -0.3487  2.8172 -1.5056
 9387SOL     OW39622   3.187   3.308   5.317  0.3343  0.6346  0.4856
 9387SOL    HW139623   3.230   3.345   5.395 -1.9057 -1.1844  2.6036
 9387SOL    HW239624   3.235   3.355   5.249  1.0719  1.0379  1.2826
 9388SOL     OW39625   0.552   1.800  14.714  0.3319  0.1909 -0.2266
 9388SOL    HW139626   0.619   1.851  14.760 -0.7303  1.2469  0.1480
 9388SOL    HW239627   0.596   1.744  14.649 -0.5524  1.3472 -1.8129
 9389SOL     OW39628   3.190   3.737   7.253 -0.2527 -0.1532  0.2664
 9389SOL    HW139629   3.169   3.751   7.346 -0.7752  1.2087 -0.0598
 9389SOL    HW239630   3.285   3.726   7.260 -0.8425 -3.4524  3.4724
 9390SOL     OW39631   4.689   3.551   2.213  0.1707 -0.0994  0.3004
 9390SOL    HW139632   4.700   3.635   2.168 -0.2031  0.1478  0.6674
 9390SOL    HW239633   4.622   3.514   2.157 -0.0143  2.2021 -1.0068
 9391SOL     OW39634   2.073   1.907   3.374  0.9731 -0.2799 -0.0773
 9391SOL    HW139635   2.100   1.986   3.419 -1.5905 -0.7383  2.2750
 9391SOL    HW239636   2.153   1.872   3.336  0.8536  0.0856 -0.6732
 9392SOL     OW39637   4.260   4.003   5.555  0.1865 -0.1167  0.2146
 9392SOL    HW139638   4.202   3.930   5.576 -0.8195  0.1057 -1.8048
 9392SOL    HW239639   4.340   3.973   5.599  1.4171  4.8305  1.3370
 9393SOL     OW39640   3.032   1.943  16.926  0.5768 -0.3233 -0.0621
 9393SOL    HW139641   3.068   1.957  16.838  1.4400 -1.4763  0.1078
 9393SOL    HW239642   3.043   1.848  16.927  1.5348 -0.2121  0.2232
 9394SOL     OW39643   3.673   4.028  16.118 -0.0046  0.2277  0.5330
 9394SOL    HW139644   3.676   4.005  16.025  0.8147  0.1970  0.5675
 9394SOL    HW239645   3.661   3.943  16.159 -2.2327  1.9672  3.5629
 9395SOL     OW39646   0.774   3.582  12.905  0.1124  0.2676 -0.1817
 9395SOL    HW139647   0.711   3.625  12.848 -1.2823  1.9724  2.6299
 9395SOL    HW239648   0.850   3.577  12.847  0.6823  0.5759  0.5432
 9396SOL     OW39649   2.040   4.323  11.450 -0.3415 -0.4920 -0.6414
 9396SOL    HW139650   2.122   4.280  11.427  0.6735  0.0998  1.8116
 9396SOL    HW239651   1.982   4.280  11.387  0.1228  1.1932 -2.2009
 9397SOL     OW39652   3.947   0.984  16.797  0.2282  0.2632 -0.1498
 9397SOL    HW139653   3.896   1.002  16.876  0.5559  0.7654 -0.0531
 9397SOL    HW239654   4.020   0.932  16.828 -2.0870 -1.6656  2.0585
 9398SOL     OW39655   3.426   1.721   8.590 -0.4422 -0.3892 -0.2874
 9398SOL    HW139656   3.492   1.749   8.654 -0.8761  0.5667 -0.2649
 9398SOL    HW239657   3.483   1.675   8.529  0.4018 -2.3028  1.9340
 9399SOL     OW39658   4.539   3.081   3.434 -0.2329 -0.2566  0.5944
 9399SOL    HW139659   4.480   3.074   3.360  1.8860  0.8581 -1.2045
 9399SOL    HW239660   4.584   3.162   3.409  1.2013 -1.5439 -1.0011
 9400SOL     OW39661   1.066   1.135   8.971  0.6251  0.6509 -0.0675
 9400SOL    HW139662   1.113   1.215   8.993  1.9227  0.0750 -0.7547
 9400SOL    HW239663   0.975   1.167   8.972 -0.1776 -1.6931  1.6888
 9401SOL     OW39664   3.907   2.195   3.369 -0.2625 -0.4065  0.7300
 9401SOL    HW139665   3.877   2.168   3.282  1.1013  1.6428 -0.3757
 9401SOL    HW239666   3.903   2.107   3.408 -3.4727 -0.4749  0.2219
 9402SOL     OW39667   1.099   0.860   3.089 -0.1453 -0.8438 -0.5931
 9402SOL    HW139668   1.069   0.941   3.047  2.8637  0.3836 -0.4081
 9402SOL    HW239669   1.193   0.868   3.072  0.0597 -1.8764  0.0732
 9403SOL     OW39670   1.733   2.451  12.101 -0.6172  0.3424  0.1647
 9403SOL    HW139671   1.667   2.479  12.164  0.3902  0.9982  0.9323
 9403SOL    HW239672   1.695   2.364  12.086 -2.6887  1.2274  0.2514
 9404SOL     OW39673   3.712   2.284   9.291 -0.0896 -0.0987 -0.2015
 9404SOL    HW139674   3.723   2.379   9.286 -1.4131  0.0761  0.2484
 9404SOL    HW239675   3.695   2.266   9.384  1.6947  1.5613  0.4692
 9405SOL     OW39676   4.110   3.109  12.956 -0.3284 -0.2287  0.0854
 9405SOL    HW139677   4.065   3.136  13.036  2.4883  2.5499  0.7233
 9405SOL    HW239678   4.042   3.083  12.893 -1.3849  0.5669  0.8971
 9406SOL     OW39679   3.349   0.955  16.652 -0.1549  0.0151  0.4085
 9406SOL    HW139680   3.283   0.887  16.639  0.1644 -0.2508  0.1787
 9406SOL    HW239681   3.338   1.015  16.579  1.3151 -0.5961 -0.3166
 9407SOL     OW39682   2.646   4.092   3.077 -0.3256 -0.1933 -0.0942
 9407SOL    HW139683   2.558   4.126   3.095 -0.0178 -0.3365  1.6967
 9407SOL    HW239684   2.617   4.019   3.023 -1.1943  0.0952 -0.0068
 9408SOL     OW39685   1.107   1.212   4.543 -0.2515 -0.1213  0.2508
 9408SOL    HW139686   1.140   1.129   4.509  4.3113  1.4719  0.8183
 9408SOL    HW239687   1.027   1.187   4.590 -1.3731 -1.5218 -2.4326
 9409SOL     OW39688   1.977   1.657   3.477 -0.7918  0.3921 -0.0750
 9409SOL    HW139689   2.048   1.722   3.472 -0.1621 -0.1504  1.8233
 9409SOL    HW239690   1.976   1.623   3.387 -1.6369  0.9477 -0.2796
 9410SOL     OW39691   0.541   4.028   1.787 -0.0220  0.2615  0.0704
 9410SOL    HW139692   0.489   3.973   1.846  0.6628 -0.7200 -0.2423
 9410SOL    HW239693   0.601   3.967   1.744 -0.0862 -1.1309  1.9431
 9411SOL     OW39694   0.589   1.501   5.197 -0.2230  0.1334  0.6951
 9411SOL    HW139695   0.550   1.449   5.267 -1.0737 -1.1959 -0.7798
 9411SOL    HW239696   0.666   1.451   5.170 -1.0407 -0.8600  0.2069
 9412SOL     OW39697   1.944   4.718   0.063  0.8574  0.2385  0.5882
 9412SOL    HW139698   1.911   4.666  17.686 -0.1181 -1.8961  2.5636
 9412SOL    HW239699   1.978   4.659   0.130 -0.2514 -0.4343  0.5643
 9413SOL     OW39700   2.977   4.473  17.685  0.3345 -0.0559  0.1049
 9413SOL    HW139701   2.943   4.384  17.692  5.4765 -2.0591 -0.0756
 9413SOL    HW239702   2.951   4.504  17.598  0.1493 -1.4004 -0.3121
 9414SOL     OW39703   4.419   2.407   1.679  0.4931  0.3370  0.2892
 9414SOL    HW139704   4.466   2.355   1.614 -1.1987 -0.0576 -0.6417
 9414SOL    HW239705   4.409   2.492   1.635 -0.7818 -0.1663 -0.4139
 9415SOL     OW39706   3.189   2.613  15.822 -0.0861 -0.0357  0.8140
 9415SOL    HW139707   3.271   2.642  15.862 -0.6230  1.4693  0.7917
 9415SOL    HW239708   3.177   2.529  15.868 -1.3831  0.3217  1.1221
 9416SOL     OW39709   3.059   0.635  16.366 -0.3323 -0.0276  0.2567
 9416SOL    HW139710   2.998   0.664  16.297  0.7148 -0.1928 -0.7381
 9416SOL    HW239711   3.116   0.575  16.318 -0.0873 -0.4617  1.0947
 9417SOL     OW39712   2.631   4.505  17.513 -0.6626 -0.1846  1.0113
 9417SOL    HW139713   2.606   4.415  17.534 -3.0516 -0.4740 -2.9855
 9417SOL    HW239714   2.726   4.503  17.501 -0.6158  0.0855  1.3721
 9418SOL     OW39715   0.464   2.483   7.230 -0.6548 -0.0365  0.5314
 9418SOL    HW139716   0.468   2.480   7.325 -0.2886  0.8152  0.5424
 9418SOL    HW239717   0.549   2.451   7.200 -0.9677 -0.0421 -0.3666
 9419SOL     OW39718   3.819   0.303   8.216  0.0690  0.3704  0.5845
 9419SOL    HW139719   3.850   0.219   8.183 -0.7683  0.1670  0.2994
 9419SOL    HW239720   3.842   0.303   8.308  0.7903  0.5748  0.4010
 9420SOL     OW39721   2.332   4.382   8.721 -0.3057 -0.3987  0.4229
 9420SOL    HW139722   2.346   4.307   8.663 -2.0443  0.5611 -1.2584
 9420SOL    HW239723   2.299   4.338   8.799  1.3973 -1.1210  0.7291
 9421SOL     OW39724   4.617   3.036   8.983 -0.3978  0.0200 -0.1963
 9421SOL    HW139725   4.542   3.095   8.989 -1.2135 -0.9231 -1.3356
 9421SOL    HW239726   4.579   2.967   8.930  1.9542 -3.0481  2.1098
 9422SOL     OW39727   4.437   0.870   3.887 -0.9879  0.2909 -0.2378
 9422SOL    HW139728   4.420   0.828   3.803  1.4399 -0.3429 -0.4221
 9422SOL    HW239729   4.532   0.883   3.878 -1.3085  1.2254 -2.2901
 9423SOL     OW39730   0.713   2.106  12.010  0.1170  0.1793 -0.0826
 9423SOL    HW139731   0.747   2.027  11.967 -0.3612  1.2487 -2.4701
 9423SOL    HW239732   0.662   2.141  11.937  1.3452  1.2584 -0.4355
 9424SOL     OW39733   2.666   2.033   7.054  0.6921 -0.3822 -0.4131
 9424SOL    HW139734   2.630   2.027   6.965  1.2204 -0.4138 -0.6226
 9424SOL    HW239735   2.585   2.006   7.097  0.3123 -0.2705 -1.0640
 9425SOL     OW39736   4.712   4.040   8.603 -0.7254  0.3663  0.2744
 9425SOL    HW139737   4.630   4.033   8.555  0.0595 -1.9065 -0.7306
 9425SOL    HW239738   4.716   4.135   8.614  0.2843  0.4352 -0.6250
 9426SOL     OW39739   4.065   0.471   7.934 -0.1979  0.2622 -0.6712
 9426SOL    HW139740   3.998   0.529   7.899 -0.9193  0.5990  1.2479
 9426SOL    HW239741   4.068   0.496   8.027 -0.5854  0.4138 -0.7003
 9427SOL     OW39742   1.578   1.301  16.092 -0.4913  0.1874  0.3702
 9427SOL    HW139743   1.627   1.263  16.165  1.8671  1.6214 -0.4966
 9427SOL    HW239744   1.567   1.232  16.027 -1.2176 -0.8592  1.5953
 9428SOL     OW39745   2.540   3.536   2.213 -0.0848  0.4620 -0.1337
 9428SOL    HW139746   2.483   3.508   2.142  1.5952  0.1782 -1.3943
 9428SOL    HW239747   2.476   3.527   2.283  1.6865 -1.5030  1.2467
 9429SOL     OW39748   0.037   2.522   3.708 -0.2198  0.6101  0.3134
 9429SOL    HW139749   0.058   2.596   3.652  0.9395  1.5717  2.0201
 9429SOL    HW239750   4.710   2.566   3.776 -1.4458 -1.7168  0.9151
 9430SOL     OW39751   4.519   2.840   3.567 -0.1436 -0.0140 -0.3610
 9430SOL    HW139752   4.494   2.878   3.652 -2.4840  2.3035 -2.0664
 9430SOL    HW239753   4.505   2.916   3.510  0.5765 -0.5467 -1.2501
 9431SOL     OW39754   2.074   3.618   9.953 -0.2885 -0.4103  0.4260
 9431SOL    HW139755   2.076   3.523   9.938 -1.5559 -0.3342 -0.3324
 9431SOL    HW239756   1.980   3.633   9.941  0.0609  0.1413 -1.5802
 9432SOL     OW39757   0.864   3.869  15.067  0.3515 -0.2473 -0.2932
 9432SOL    HW139758   0.804   3.930  15.023  1.9466  0.9551 -0.7800
 9432SOL    HW239759   0.829   3.881  15.155  1.7763  0.6240  0.1530
 9433SOL     OW39760   1.655   2.911   4.501 -0.4020 -0.0965 -0.5314
 9433SOL    HW139761   1.690   2.887   4.415  0.2487  0.0926 -0.3237
 9433SOL    HW239762   1.662   2.824   4.542 -2.3678  0.2179  0.4363
 9434SOL     OW39763   1.788   2.806   5.609 -0.6276  0.5837  0.1193
 9434SOL    HW139764   1.858   2.865   5.579 -0.0564 -0.9837 -1.6337
 9434SOL    HW239765   1.765   2.758   5.529 -0.1398 -1.0988  1.0044
 9435SOL     OW39766   0.632   4.568   6.644 -0.2195  0.9985 -0.0357
 9435SOL    HW139767   0.626   4.514   6.723 -0.5901 -0.3506 -0.9827
 9435SOL    HW239768   0.676   4.650   6.668 -0.0724  0.6545  0.8513
 9436SOL     OW39769   1.098   0.180   6.960  0.4753  0.1801 -0.0946
 9436SOL    HW139770   1.056   0.154   6.878 -0.2604  0.2019  0.2711
 9436SOL    HW239771   1.066   0.271   6.958 -0.8827 -0.2678  0.8562
 9437SOL     OW39772   2.126   4.026  17.354  0.0857  0.1742  0.0361
 9437SOL    HW139773   2.063   3.967  17.396  0.9005 -2.3710 -2.3169
 9437SOL    HW239774   2.174   3.969  17.293  0.8911  0.3903  0.4595
 9438SOL     OW39775   0.573   3.284   5.719 -0.6802  0.5052  0.4259
 9438SOL    HW139776   0.579   3.374   5.688  0.8548  0.3458  0.2855
 9438SOL    HW239777   0.667   3.266   5.727 -0.5176  0.5370 -1.5027
 9439SOL     OW39778   2.852   0.984  11.722  0.3614 -0.1128  0.0764
 9439SOL    HW139779   2.769   1.032  11.717  0.9014  0.6337 -1.5885
 9439SOL    HW239780   2.820   0.894  11.722  1.0075 -0.3475  0.5834
 9440SOL     OW39781   4.234   3.029   6.072 -0.7927  0.2745 -0.6253
 9440SOL    HW139782   4.286   2.969   6.019  3.0998  3.5005 -0.4693
 9440SOL    HW239783   4.149   2.984   6.075  0.4278 -1.9422  0.9799
 9441SOL     OW39784   0.460   2.319   8.404 -0.5738  0.7297  0.0874
 9441SOL    HW139785   0.479   2.411   8.424  1.0960  0.3740  0.1608
 9441SOL    HW239786   0.416   2.300   8.487  0.6738  1.9969  1.0411
 9442SOL     OW39787   1.882   1.955   9.014  0.7328 -0.0968 -0.1151
 9442SOL    HW139788   1.823   1.911   8.953 -0.5443  1.1403  0.2072
 9442SOL    HW239789   1.846   1.927   9.098  0.5443  1.3354  0.2837
 9443SOL     OW39790   1.414   0.624   2.718 -0.2085  0.1719  0.2243
 9443SOL    HW139791   1.468   0.597   2.792  1.5593 -0.1903 -1.1872
 9443SOL    HW239792   1.364   0.549   2.686  2.0470 -0.0669 -2.7811
 9444SOL     OW39793   0.296   1.794   9.043  0.1411 -0.0488  0.1199
 9444SOL    HW139794   0.219   1.833   9.084 -0.7296 -0.7850 -0.8403
 9444SOL    HW239795   0.354   1.867   9.021 -0.4545 -0.1878 -1.8677
 9445SOL     OW39796   2.196   2.043   4.615  0.2577 -0.4923 -0.1402
 9445SOL    HW139797   2.275   2.026   4.667  0.7407  0.7824 -0.4483
 9445SOL    HW239798   2.211   2.132   4.582  0.4029 -0.1335  0.8981
 9446SOL     OW39799   2.697   0.944  12.034  0.1462 -0.8367 -0.0336
 9446SOL    HW139800   2.703   0.852  12.007  0.4600 -0.7636 -0.2134
 9446SOL    HW239801   2.609   0.964  12.003  0.5207 -1.6062 -1.6318
 9447SOL     OW39802   0.444   1.241  12.882 -0.2507 -0.6623 -0.1880
 9447SOL    HW139803   0.367   1.201  12.842 -0.4840  1.5355 -1.9678
 9447SOL    HW239804   0.509   1.205  12.821  1.0114 -0.9264  1.3123
 9448SOL     OW39805   2.063   1.123   4.036  0.7199 -0.7528 -0.3681
 9448SOL    HW139806   2.140   1.071   4.014  1.5273 -0.0503  0.7692
 9448SOL    HW239807   1.990   1.064   4.020 -0.7734  0.9440  0.2317
 9449SOL     OW39808   3.904   1.555   8.715  0.5060  0.3672 -0.7904
 9449SOL    HW139809   3.910   1.539   8.620 -0.0282  0.7668 -0.8914
 9449SOL    HW239810   3.862   1.641   8.714 -0.3655 -0.0394  2.7278
 9450SOL     OW39811   1.379   2.414   6.403 -0.8304  0.0754  0.1323
 9450SOL    HW139812   1.355   2.480   6.339 -3.2850  0.2685  1.2709
 9450SOL    HW239813   1.427   2.467   6.466 -0.3291  0.0950 -0.2638
 9451SOL     OW39814   2.577   1.507   6.589  0.3857 -0.0641 -0.3023
 9451SOL    HW139815   2.614   1.419   6.598  0.1828 -0.0711  0.4621
 9451SOL    HW239816   2.525   1.498   6.509  1.6331  0.0086 -1.1242
 9452SOL     OW39817   0.724   2.802   8.484 -0.3468 -0.0946  0.1530
 9452SOL    HW139818   0.681   2.883   8.511  2.0312  1.6977 -1.4774
 9452SOL    HW239819   0.795   2.804   8.548 -1.6836  0.3167  1.6186
 9453SOL     OW39820   1.638   2.140   5.163 -0.4927  0.0501  0.2264
 9453SOL    HW139821   1.562   2.088   5.191 -1.1650 -1.1215 -3.7683
 9453SOL    HW239822   1.608   2.230   5.179 -1.1626  0.4519 -3.2061
 9454SOL     OW39823   3.964   0.865   3.106 -0.1475 -0.4849 -0.4087
 9454SOL    HW139824   4.002   0.834   3.189 -0.7880 -1.0563 -0.3298
 9454SOL    HW239825   3.970   0.784   3.056  0.7957  0.2162 -1.4232
 9455SOL     OW39826   3.060   0.008  12.503 -0.0423 -0.2105 -0.6463
 9455SOL    HW139827   3.086   4.660  12.445  0.5692 -0.3099 -0.2541
 9455SOL    HW239828   3.112   0.079  12.464 -0.9953 -0.4325 -2.3214
 9456SOL     OW39829   0.698   4.006  10.577  0.0195  0.6009 -0.1168
 9456SOL    HW139830   0.660   3.919  10.594 -0.2116 -0.0336 -3.8973
 9456SOL    HW239831   0.627   4.048  10.528  0.3278  0.3182 -0.8098
 9457SOL     OW39832   0.361   1.971   3.935 -0.8510  0.2080  0.2102
 9457SOL    HW139833   0.427   2.026   3.894  0.3727 -2.0621 -0.8773
 9457SOL    HW239834   0.333   1.927   3.854  1.4725  0.2234 -0.5964
 9458SOL     OW39835   3.728   0.898   1.796  0.2243 -0.0699 -0.0401
 9458SOL    HW139836   3.688   0.820   1.758  0.2845 -0.0393 -0.1658
 9458SOL    HW239837   3.806   0.863   1.840 -0.6073  0.5253  1.9360
 9459SOL     OW39838   3.112   2.080   4.402  0.1289 -0.0427  0.4061
 9459SOL    HW139839   3.052   2.068   4.328 -0.1505  0.0001  0.6232
 9459SOL    HW239840   3.194   2.061   4.358 -0.0722  1.5149 -0.6479
 9460SOL     OW39841   2.684   3.516   7.546 -0.0372 -0.1347 -0.0940
 9460SOL    HW139842   2.640   3.569   7.479 -2.5469 -1.8535  0.1934
 9460SOL    HW239843   2.771   3.545   7.521 -0.0626  1.3882  1.6094
 9461SOL     OW39844   1.221   2.438   1.537  0.6232  0.6722 -0.1829
 9461SOL    HW139845   1.128   2.445   1.558  0.8571  1.1506  0.6947
 9461SOL    HW239846   1.252   2.523   1.566  1.6959 -0.0123  0.6670
 9462SOL     OW39847   3.841   2.898   3.947  0.2111  0.2929 -0.4967
 9462SOL    HW139848   3.888   2.978   3.922  0.7564 -0.5504 -2.1607
 9462SOL    HW239849   3.831   2.902   4.042 -1.1615 -3.5884 -0.4776
 9463SOL     OW39850   0.393   3.797   4.636  0.4497 -0.2716  0.1861
 9463SOL    HW139851   0.334   3.722   4.627 -0.2568  0.0895  1.8222
 9463SOL    HW239852   0.456   3.767   4.570 -1.5269 -1.0176 -1.3401
 9464SOL     OW39853   2.797   0.244   5.529  0.2852 -0.2733 -0.2356
 9464SOL    HW139854   2.783   0.158   5.491  1.6258  0.0708 -1.4851
 9464SOL    HW239855   2.892   0.250   5.538  0.1703  1.0045  0.1825
 9465SOL     OW39856   0.610   3.707  12.733 -0.1540  0.0871 -0.0467
 9465SOL    HW139857   0.612   3.802  12.745 -0.7301  0.1814 -0.6909
 9465SOL    HW239858   0.624   3.704  12.639 -2.4609 -0.4604 -0.3843
 9466SOL     OW39859   1.685   0.241   6.706  0.0717 -0.8723 -0.1184
 9466SOL    HW139860   1.622   0.297   6.661 -1.5094 -1.7025  1.1016
 9466SOL    HW239861   1.638   0.226   6.788  0.9186  0.6133  0.6301
 9467SOL     OW39862   4.483   0.732   8.035  0.2888  0.1709  0.2350
 9467SOL    HW139863   4.418   0.778   7.981  1.0842  0.9920 -0.0223
 9467SOL    HW239864   4.558   0.780   8.000 -0.5251  0.5991 -0.9224
 9468SOL     OW39865   3.243   2.694  12.837 -0.1435 -0.3660  0.3332
 9468SOL    HW139866   3.266   2.659  12.923  0.0124  0.0785  0.4731
 9468SOL    HW239867   3.264   2.616  12.786  2.1604 -0.2318  1.0648
 9469SOL     OW39868   4.417   1.330   6.649 -0.0454  0.1356  0.7125
 9469SOL    HW139869   4.440   1.407   6.597 -0.4247 -0.2026  0.0456
 9469SOL    HW239870   4.343   1.295   6.599  0.4652  0.2486 -0.1198
 9470SOL     OW39871   0.021   2.366   8.518  0.0173 -0.8999 -0.0457
 9470SOL    HW139872   0.056   2.455   8.508  0.0828 -0.9779 -0.5016
 9470SOL    HW239873   4.655   2.372   8.486  0.2954 -0.1597 -0.6913
 9471SOL     OW39874   1.460   3.572   8.154  0.1411 -0.6824  0.7545
 9471SOL    HW139875   1.473   3.498   8.213 -1.5752 -1.7578 -0.2156
 9471SOL    HW239876   1.533   3.555   8.094  0.5285 -0.8197  1.2725
 9472SOL     OW39877   0.137   2.730   3.538  0.3042  0.2880  0.0365
 9472SOL    HW139878   0.136   2.822   3.563  0.0026 -0.3222  2.2892
 9472SOL    HW239879   0.168   2.743   3.449  0.7893  0.3583  0.2135
 9473SOL     OW39880   0.190   4.387   2.723 -0.2120  0.0558 -0.0659
 9473SOL    HW139881   0.139   4.351   2.796 -1.9133  1.3743 -0.6210
 9473SOL    HW239882   0.251   4.443   2.770 -0.6229  0.1827  0.3149
 9474SOL     OW39883   2.140   2.894   1.681  0.4981 -0.4767 -0.3869
 9474SOL    HW139884   2.131   2.893   1.776 -1.3087  0.2283 -0.5526
 9474SOL    HW239885   2.234   2.894   1.662  0.2074 -0.3457 -1.8131
 9475SOL     OW39886   1.824   3.831  12.905 -0.7469 -0.0365  0.3146
 9475SOL    HW139887   1.844   3.762  12.842  0.1261 -1.0988  1.7220
 9475SOL    HW239888   1.903   3.884  12.915 -1.0499  0.3662  0.5793
 9476SOL     OW39889   4.439   4.289   4.794 -0.0790 -0.6493 -0.6601
 9476SOL    HW139890   4.407   4.366   4.842 -0.8358 -0.3782 -1.5895
 9476SOL    HW239891   4.438   4.331   4.708  0.8010 -1.6975 -1.1681
 9477SOL     OW39892   0.041   2.127   8.927  0.0270 -0.0330  0.5554
 9477SOL    HW139893   4.723   2.213   8.920  0.1977 -0.1223 -1.7655
 9477SOL    HW239894   0.092   2.127   8.846 -1.1407  0.1575 -0.1753
 9478SOL     OW39895   0.741   1.024  13.578 -0.1195  0.4082  0.1182
 9478SOL    HW139896   0.834   1.042  13.567 -0.4552  1.7226 -0.5253
 9478SOL    HW239897   0.697   1.085  13.519 -0.6518  2.1293  2.3110
 9479SOL     OW39898   1.302   1.031  17.165 -0.8476  0.1188 -0.3102
 9479SOL    HW139899   1.243   1.070  17.230 -1.1422 -1.0111  0.0912
 9479SOL    HW239900   1.262   1.060  17.083  0.8481  1.8598 -0.5352
 9480SOL     OW39901   2.424   0.253   6.241 -0.4170  0.2259 -0.1577
 9480SOL    HW139902   2.430   0.163   6.274  0.7735 -0.0723 -1.1727
 9480SOL    HW239903   2.334   0.257   6.208 -0.5299 -0.6696  0.0410
 9481SOL     OW39904   2.195   0.688   9.235 -0.2620 -0.0427 -0.0596
 9481SOL    HW139905   2.123   0.656   9.289  0.2571 -1.9327 -0.4827
 9481SOL    HW239906   2.154   0.756   9.181 -1.2502  1.6357  2.7954
 9482SOL     OW39907   4.682   1.887   3.637 -0.0784 -0.3868  0.5547
 9482SOL    HW139908   4.623   1.910   3.566 -0.6366  1.9516  1.7844
 9482SOL    HW239909   4.646   1.949   3.701  0.2046  0.3383 -0.0007
 9483SOL     OW39910   1.509   3.139  11.610 -0.3066 -0.1484  0.2603
 9483SOL    HW139911   1.441   3.137  11.543 -0.4319 -1.9610  0.4374
 9483SOL    HW239912   1.547   3.051  11.603  0.4794  0.1466  0.7992
 9484SOL     OW39913   3.303   4.459  12.134  0.0344 -0.3786 -0.2236
 9484SOL    HW139914   3.302   4.533  12.073 -3.7495 -0.4633 -0.2768
 9484SOL    HW239915   3.211   4.435  12.144  0.9023 -3.1847  0.9502
 9485SOL     OW39916   2.682   0.399   1.562 -0.4413  0.9960 -0.1819
 9485SOL    HW139917   2.729   0.471   1.605 -0.8318  1.4995 -0.6018
 9485SOL    HW239918   2.599   0.388   1.607 -0.5712  2.5884 -0.0161
 9486SOL     OW39919   3.285   4.160  11.058 -0.2416 -0.0059 -0.4887
 9486SOL    HW139920   3.330   4.106  11.124 -1.7773 -0.5193  0.1643
 9486SOL    HW239921   3.324   4.246  11.073 -2.7959  1.4047 -1.8090
 9487SOL     OW39922   0.975   1.359   4.954 -0.6047 -0.1732 -0.1516
 9487SOL    HW139923   0.984   1.402   4.869 -2.0012  0.4242 -0.0006
 9487SOL    HW239924   1.046   1.401   5.003 -2.7633  1.0884  1.9372
 9488SOL     OW39925   2.555   2.714   4.962 -0.0387  0.1199  0.0353
 9488SOL    HW139926   2.616   2.642   4.949  0.1403  0.1356  0.8114
 9488SOL    HW239927   2.581   2.773   4.891 -0.2890 -0.8839 -0.8869
 9489SOL     OW39928   4.224   1.439  17.343 -0.2316  0.4578  0.2988
 9489SOL    HW139929   4.225   1.345  17.322  0.2813  0.3848  0.6563
 9489SOL    HW239930   4.301   1.445  17.399 -1.1690 -1.0803  1.7588
 9490SOL     OW39931   0.626   1.471   2.615 -0.3648 -0.1210  0.7422
 9490SOL    HW139932   0.700   1.528   2.595 -0.5411 -0.6333 -1.4033
 9490SOL    HW239933   0.591   1.513   2.693  0.4160 -0.0199  1.0379
 9491SOL     OW39934   2.622   0.210   8.033 -0.2933  0.0702 -0.3557
 9491SOL    HW139935   2.562   0.167   8.095  1.7422 -1.0441  0.8157
 9491SOL    HW239936   2.560   0.235   7.964  0.7804 -0.9694 -1.6900
 9492SOL     OW39937   3.496   2.449   8.774  0.8456 -0.0606  0.7452
 9492SOL    HW139938   3.443   2.528   8.783  2.0528  0.5373  2.7466
 9492SOL    HW239939   3.438   2.381   8.741  0.3705  0.4869  0.4417
 9493SOL     OW39940   3.314   0.989   0.788  0.0557  0.0392  0.0586
 9493SOL    HW139941   3.365   0.976   0.867  1.0350  1.8737 -0.2908
 9493SOL    HW239942   3.337   1.073   0.750  0.3265 -0.2407 -0.3990
 9494SOL     OW39943   3.291   1.471  15.830 -0.1292  0.1849  0.3465
 9494SOL    HW139944   3.345   1.535  15.876  1.8426  0.0266 -1.7237
 9494SOL    HW239945   3.274   1.515  15.747  0.7502  1.3966  0.8153
 9495SOL     OW39946   1.162   1.501   5.825  0.1136 -0.2976  0.2285
 9495SOL    HW139947   1.067   1.507   5.829 -0.0124 -1.1677 -1.2836
 9495SOL    HW239948   1.197   1.590   5.823 -1.5517  0.3625  0.6351
 9496SOL     OW39949   1.080   1.908   4.855 -0.0721  0.0365 -0.2983
 9496SOL    HW139950   1.078   1.897   4.760 -3.4314  0.7185 -0.3137
 9496SOL    HW239951   1.114   1.997   4.862  1.1491 -0.5027  0.5768
 9497SOL     OW39952   1.555   0.968   3.315 -0.4497  0.2202 -0.2112
 9497SOL    HW139953   1.534   0.965   3.222 -2.8893 -1.1081  0.4009
 9497SOL    HW239954   1.616   1.040   3.333 -0.5963  0.0151  1.1455
 9498SOL     OW39955   1.888   3.678  16.103  0.3264 -0.1202 -0.1356
 9498SOL    HW139956   1.835   3.755  16.124  0.7362 -0.2401  1.3678
 9498SOL    HW239957   1.875   3.689  16.009  0.2955 -1.1570 -0.2499
 9499SOL     OW39958   4.477   4.683   3.187  0.2642 -0.4828 -0.2518
 9499SOL    HW139959   4.553   4.633   3.156 -0.3908 -1.1710 -0.7334
 9499SOL    HW239960   4.518   0.030   3.237  1.4902 -0.8701 -0.7006
 9500SOL     OW39961   0.900   1.504   5.245  0.4835 -0.0919  0.3251
 9500SOL    HW139962   0.859   1.447   5.310  0.5005 -0.3329  0.1241
 9500SOL    HW239963   0.974   1.537   5.296  1.0448  1.2445 -1.3645
 9501SOL     OW39964   2.189   1.963  12.926  0.4593  0.1771 -0.0039
 9501SOL    HW139965   2.141   1.894  12.973  0.9997 -1.1674 -1.4074
 9501SOL    HW239966   2.131   1.982  12.853  1.0627 -2.4368 -1.1992
 9502SOL     OW39967   3.954   3.334   3.787  0.2950  0.2631 -0.3073
 9502SOL    HW139968   4.028   3.320   3.728  0.2591 -1.6560  0.0941
 9502SOL    HW239969   3.940   3.429   3.787  1.3002  0.4181 -1.5159
 9503SOL     OW39970   3.999   2.894  16.425  0.2404  0.3599 -0.5681
 9503SOL    HW139971   4.066   2.960  16.439 -0.0873  1.1521 -2.6533
 9503SOL    HW239972   3.973   2.865  16.512 -2.1246 -1.3404 -1.8170
 9504SOL     OW39973   3.454   3.641   7.235 -0.2922 -0.0602  0.7494
 9504SOL    HW139974   3.529   3.694   7.262  1.0309 -0.6930 -1.7668
 9504SOL    HW239975   3.478   3.561   7.282 -1.3948 -0.4422  0.6657
 9505SOL     OW39976   0.708   1.558   6.375  0.1136  0.4802  0.3471
 9505SOL    HW139977   0.702   1.558   6.470 -0.1626 -3.6171  0.3232
 9505SOL    HW239978   0.613   1.561   6.358  0.2997 -0.3280 -0.8607
 9506SOL     OW39979   2.930   3.361   4.955  0.0311  0.0119 -0.2401
 9506SOL    HW139980   2.892   3.408   5.030  1.2019 -0.9654  0.9605
 9506SOL    HW239981   2.892   3.275   4.976  0.6254 -0.1381  0.2094
 9507SOL     OW39982   2.733   0.018   4.213 -0.0993 -0.1688 -0.0835
 9507SOL    HW139983   2.761   0.109   4.224  0.1944 -0.1849 -0.6971
 9507SOL    HW239984   2.770   4.710   4.295 -2.2486  0.4037  1.0980
 9508SOL     OW39985   4.361   0.763   0.673 -0.3175 -0.2506 -0.1904
 9508SOL    HW139986   4.395   0.776   0.584  1.4176  1.3588  0.6903
 9508SOL    HW239987   4.414   0.686   0.695 -2.8219 -2.0161 -0.4581
 9509SOL     OW39988   2.947   1.415  17.685 -0.3484  0.5269  0.0721
 9509SOL    HW139989   2.994   1.423  17.602  0.8710  0.9175  0.8008
 9509SOL    HW239990   2.967   1.322   0.004  1.9386  0.6485 -2.1936
 9510SOL     OW39991   1.102   3.540   9.385  0.2358 -0.0940 -0.1777
 9510SOL    HW139992   1.070   3.536   9.475  2.1918 -0.8968  0.4865
 9510SOL    HW239993   1.051   3.467   9.349  0.5584  0.2203 -1.2878
 9511SOL     OW39994   1.499   2.966   3.873 -0.1437  0.1850 -0.2048
 9511SOL    HW139995   1.473   2.878   3.902 -0.0639 -0.4412 -2.0895
 9511SOL    HW239996   1.499   2.955   3.778 -0.4191  2.5045 -0.4635
 9512SOL     OW39997   2.094   3.678  13.919  0.0977  0.4054 -0.1220
 9512SOL    HW139998   2.119   3.767  13.895 -2.4461  1.0104 -0.4929
 9512SOL    HW239999   2.178   3.643  13.949  0.6823  2.4495  0.5994
 9513SOL     OW40000   2.807   1.831   5.319 -0.6343 -0.0153  0.1816
 9513SOL    HW140001   2.823   1.772   5.393 -0.0470  0.0957  0.1386
 9513SOL    HW240002   2.891   1.875   5.310 -0.7405 -0.0140 -0.7624
 9514SOL     OW40003   4.399   2.445   6.802  0.2089  0.6201 -0.2751
 9514SOL    HW140004   4.479   2.447   6.854 -0.1858 -0.9632  0.3876
 9514SOL    HW240005   4.387   2.532   6.764 -0.3980  1.1934  1.2493
 9515SOL     OW40006   2.013   3.683  16.353  0.2136  0.5139  0.1087
 9515SOL    HW140007   2.006   3.682  16.258  2.0733 -2.1518  0.0021
 9515SOL    HW240008   1.930   3.723  16.378 -0.9193 -2.9845  1.9374
 9516SOL     OW40009   0.253   0.915   9.038 -0.4484  0.1278  0.2028
 9516SOL    HW140010   0.319   0.966   9.085 -0.0020  0.1455 -0.4302
 9516SOL    HW240011   0.283   0.930   8.948  0.3057 -0.5889  0.3307
 9517SOL     OW40012   3.886   3.580  16.167 -0.0990 -0.5172 -0.1348
 9517SOL    HW140013   3.796   3.566  16.136 -0.7875  1.4314  0.9915
 9517SOL    HW240014   3.916   3.653  16.112 -0.1182 -0.1847  0.2960
 9518SOL     OW40015   0.258   1.364   6.354 -0.0609  0.4435  0.6123
 9518SOL    HW140016   0.316   1.288   6.347 -0.7490  0.0595 -0.8561
 9518SOL    HW240017   0.312   1.433   6.316 -2.8204  2.0995 -0.3126
 9519SOL     OW40018   2.910   0.492   3.265  0.6471  0.0547 -0.1978
 9519SOL    HW140019   2.932   0.401   3.243 -2.0191 -0.3413 -1.2107
 9519SOL    HW240020   2.815   0.493   3.273  0.6360  0.4467 -0.3942
 9520SOL     OW40021   2.903   1.023  12.762 -0.0348 -0.0833  0.0738
 9520SOL    HW140022   2.964   0.992  12.695 -3.2577  0.4789 -3.1130
 9520SOL    HW240023   2.961   1.022  12.839  1.3516  1.9631 -0.9312
 9521SOL     OW40024   2.954   3.274  12.757 -0.1919 -0.2471  0.9580
 9521SOL    HW140025   2.958   3.367  12.778 -2.5937 -0.2857  1.6071
 9521SOL    HW240026   2.885   3.262  12.692  0.7981  0.1815 -0.1686
 9522SOL     OW40027   0.319   1.114   4.161  0.4010 -0.0648 -0.0120
 9522SOL    HW140028   0.382   1.156   4.103  0.9514  0.0805  0.6973
 9522SOL    HW240029   0.304   1.028   4.121  1.4513 -0.4570  0.4600
 9523SOL     OW40030   2.544   3.454   1.816  0.2407  0.0833 -0.3612
 9523SOL    HW140031   2.481   3.445   1.888  0.6440 -0.8904 -0.1295
 9523SOL    HW240032   2.625   3.471   1.864  0.8731  0.3497 -1.5186
 9524SOL     OW40033   1.742   0.183   2.446 -0.5257  0.4397  0.2529
 9524SOL    HW140034   1.649   0.161   2.434 -0.1734 -1.5055  1.1007
 9524SOL    HW240035   1.779   0.174   2.358  1.1009 -0.3403  1.0179
 9525SOL     OW40036   2.465   0.449   3.974  0.0742  0.2891  0.0030
 9525SOL    HW140037   2.466   0.440   3.879  1.5631 -0.4197  0.0847
 9525SOL    HW240038   2.554   0.419   3.994 -0.4727 -0.2988  1.5135
 9526SOL     OW40039   3.866   2.806   8.132  0.2277 -0.0808  0.3664
 9526SOL    HW140040   3.771   2.795   8.134  0.1418  0.8388  1.3936
 9526SOL    HW240041   3.877   2.896   8.100 -0.0423 -0.3776 -0.5721
 9527SOL     OW40042   4.500   2.888   5.153  0.0108  0.9461 -0.0949
 9527SOL    HW140043   4.552   2.828   5.208 -1.5596  0.2535  0.6448
 9527SOL    HW240044   4.524   2.861   5.064  1.9029 -4.4357  2.0292
 9528SOL     OW40045   3.956   2.807   5.146  0.8155  0.1794  0.7593
 9528SOL    HW140046   4.050   2.821   5.144  0.7281  0.6442  0.1389
 9528SOL    HW240047   3.927   2.796   5.056 -0.4624 -0.0975  1.2017
 9529SOL     OW40048   1.873   2.250   2.174  0.1019 -0.3793 -0.0077
 9529SOL    HW140049   1.945   2.288   2.123 -0.7749 -1.3252 -1.9423
 9529SOL    HW240050   1.852   2.329   2.225 -1.4802 -1.4003  0.9069
 9530SOL     OW40051   4.414   4.051   7.938  0.0591  0.1100  0.5110
 9530SOL    HW140052   4.351   3.980   7.934  0.4093 -0.2013  0.4719
 9530SOL    HW240053   4.447   4.059   8.027 -1.0117  0.1171  0.9061
 9531SOL     OW40054   3.091   2.574   6.774 -0.2789 -0.0736 -0.3044
 9531SOL    HW140055   3.009   2.603   6.736  0.1380  0.0972 -1.0736
 9531SOL    HW240056   3.062   2.512   6.842 -0.2827 -1.9868 -2.0561
 9532SOL     OW40057   4.395   0.488   1.259 -0.0648  0.1959  0.2732
 9532SOL    HW140058   4.367   0.495   1.168  0.5588  1.7600  0.2017
 9532SOL    HW240059   4.433   0.574   1.281  0.1787  0.4237 -1.0308
 9533SOL     OW40060   0.433   3.925   8.676  0.2138  0.0462 -0.3436
 9533SOL    HW140061   0.396   3.961   8.757  1.5057  0.7270 -0.0535
 9533SOL    HW240062   0.372   3.949   8.606 -1.0642 -1.6094  0.2050
 9534SOL     OW40063   3.520   1.872   6.030 -0.2825  0.4149 -0.3776
 9534SOL    HW140064   3.451   1.855   6.094  0.2530 -0.2698  0.0078
 9534SOL    HW240065   3.534   1.790   5.982  0.9730  1.2796 -1.4911
 9535SOL     OW40066   2.900   2.368  11.857 -0.2236 -0.0663 -0.1939
 9535SOL    HW140067   2.831   2.396  11.917 -0.4350  0.9548 -0.9129
 9535SOL    HW240068   2.938   2.299  11.912  0.1964  0.6476  0.3981
 9536SOL     OW40069   3.810   2.412  10.515 -0.0249 -0.8809 -0.0597
 9536SOL    HW140070   3.791   2.328  10.556 -2.1309 -1.9255 -3.1160
 9536SOL    HW240071   3.865   2.384  10.441 -1.3845 -4.0984  0.1245
 9537SOL     OW40072   3.134   2.417   2.763  0.4478  0.1303  0.0290
 9537SOL    HW140073   3.118   2.501   2.720  1.1978  0.3222  0.1258
 9537SOL    HW240074   3.185   2.375   2.694  0.8261  1.0845 -0.2782
 9538SOL     OW40075   1.852   4.481  17.021 -0.4963 -0.1426 -0.7475
 9538SOL    HW140076   1.909   4.417  17.063  0.2333 -0.0072 -1.5451
 9538SOL    HW240077   1.810   4.420  16.960 -0.8190 -1.4763  0.8234
 9539SOL     OW40078   0.323   1.504   6.730 -0.8994 -0.3610 -0.1137
 9539SOL    HW140079   0.291   1.591   6.705 -1.1079 -0.2784  0.4300
 9539SOL    HW240080   0.265   1.440   6.688 -1.4250 -0.2352  0.4162
 9540SOL     OW40081   4.683   3.894   8.066  0.5220 -0.3652 -0.5349
 9540SOL    HW140082   0.044   3.927   8.033  1.3214 -3.7765 -1.9225
 9540SOL    HW240083   4.631   3.972   8.083 -0.6513 -0.9935 -1.2401
 9541SOL     OW40084   0.990   3.328   9.287 -0.5282  0.0200 -0.2961
 9541SOL    HW140085   0.900   3.298   9.298 -0.2291 -0.7977 -0.1007
 9541SOL    HW240086   1.031   3.259   9.339  0.7142  0.8383 -0.1877
 9542SOL     OW40087   1.922   1.736   5.568 -0.4915 -0.3276 -0.7959
 9542SOL    HW140088   1.885   1.684   5.640  1.6474 -0.9330 -0.1212
 9542SOL    HW240089   1.908   1.674   5.496 -1.4298 -0.5863 -0.3884
 9543SOL     OW40090   0.986   4.188   7.218  0.7223 -0.1986  0.2375
 9543SOL    HW140091   0.940   4.258   7.172  0.3940  0.1230  1.0656
 9543SOL    HW240092   1.043   4.173   7.142 -1.1190 -0.4745 -1.0892
 9544SOL     OW40093   1.322   3.732   8.939 -0.1558  0.5371 -0.4193
 9544SOL    HW140094   1.414   3.744   8.964  0.0811  0.1313 -1.0956
 9544SOL    HW240095   1.284   3.810   8.980  0.7510 -0.0279  1.5261
 9545SOL     OW40096   3.826   2.863   4.558  0.1003  0.0094 -0.0239
 9545SOL    HW140097   3.762   2.934   4.566  0.4852  0.1967  1.3255
 9545SOL    HW240098   3.907   2.895   4.597  0.1868 -0.7757  0.4389
 9546SOL     OW40099   2.169   3.891  16.349  0.0663  0.1207 -0.3061
 9546SOL    HW140100   2.142   3.801  16.332  2.8502 -0.6234 -0.8213
 9546SOL    HW240101   2.199   3.910  16.260  2.0771  2.4088  0.8521
 9547SOL     OW40102   1.855   1.335   2.601 -0.3324  0.4061 -0.6954
 9547SOL    HW140103   1.816   1.262   2.553  0.5385 -1.1960  1.0820
 9547SOL    HW240104   1.810   1.414   2.569 -0.5969 -0.1966 -1.8381
 9548SOL     OW40105   4.436   1.603   7.633 -0.4591 -0.4758 -0.3624
 9548SOL    HW140106   4.361   1.562   7.590 -0.6760  0.9038 -1.2999
 9548SOL    HW240107   4.387   1.669   7.682 -2.6263 -0.9943 -1.8290
 9549SOL     OW40108   1.483   3.994  10.657 -0.3449 -0.8447 -0.2219
 9549SOL    HW140109   1.405   3.944  10.681 -1.0311  0.1905 -0.2829
 9549SOL    HW240110   1.551   3.942  10.699 -0.2734  1.5021  2.5625
 9550SOL     OW40111   1.212   2.298   6.037 -0.4109 -0.4586 -0.1502
 9550SOL    HW140112   1.175   2.249   6.110  1.3079 -1.1566  0.2599
 9550SOL    HW240113   1.215   2.237   5.963  0.6933 -2.5121  1.5849
 9551SOL     OW40114   2.867   0.446   5.351  0.1228  0.7567 -0.2359
 9551SOL    HW140115   2.920   0.378   5.310  1.3491  1.1693  0.6592
 9551SOL    HW240116   2.814   0.403   5.418  1.3305  1.8047  1.4085
 9552SOL     OW40117   2.173   1.929  14.347  0.3189 -0.4847 -0.0234
 9552SOL    HW140118   2.257   1.891  14.374  0.3893  0.6039  1.3245
 9552SOL    HW240119   2.127   1.947  14.429  0.8041  1.3000 -0.1384
 9553SOL     OW40120   4.594   0.555   4.396 -0.6240  0.2934 -0.0071
 9553SOL    HW140121   4.626   0.617   4.331  2.6694 -2.2825 -0.7962
 9553SOL    HW240122   4.511   0.573   4.441 -0.5389  1.3742 -0.2868
 9554SOL     OW40123   2.210   0.147   9.055  0.3171 -0.0044  0.0200
 9554SOL    HW140124   2.190   0.091   9.130 -2.6308 -1.1891 -1.6466
 9554SOL    HW240125   2.302   0.172   9.058  0.2552  0.0146  1.6687
 9555SOL     OW40126   2.372   4.563   3.314 -0.4059 -0.2093  0.1075
 9555SOL    HW140127   2.435   4.606   3.256  0.9143  0.9754  2.4161
 9555SOL    HW240128   2.292   4.614   3.303 -2.1484 -2.7685  0.8327
 9556SOL     OW40129   3.593   4.065   1.494 -0.2329 -0.1247 -0.3444
 9556SOL    HW140130   3.622   4.070   1.584 -0.8663  0.1955 -0.1553
 9556SOL    HW240131   3.673   4.035   1.451  0.9502  0.7102  1.3188
 9557SOL     OW40132   2.334   3.489   3.851 -0.1858  0.2908 -0.3146
 9557SOL    HW140133   2.395   3.551   3.892 -0.8460  0.7580 -0.0161
 9557SOL    HW240134   2.378   3.480   3.767 -0.5466 -1.3461 -0.3218
 9558SOL     OW40135   4.498   1.382  13.286 -0.3808 -0.2764 -0.0533
 9558SOL    HW140136   4.415   1.340  13.263 -0.0041  0.3000 -2.4881
 9558SOL    HW240137   4.522   1.420  13.201  0.3208 -0.7470 -0.0638
 9559SOL     OW40138   3.378   1.534   8.990  0.3739 -0.0596 -0.0456
 9559SOL    HW140139   3.373   1.491   8.905  2.8322 -0.0998 -0.1501
 9559SOL    HW240140   3.332   1.617   8.980 -1.4526 -1.2200 -1.3321
 9560SOL     OW40141   2.602   0.412  11.613 -0.1462  0.6521 -0.5160
 9560SOL    HW140142   2.678   0.450  11.657  1.5201 -0.3383 -2.5135
 9560SOL    HW240143   2.625   0.320  11.623  2.3424  1.2511 -0.7136
 9561SOL     OW40144   0.954   2.796   2.571  0.1199  0.2166  0.0391
 9561SOL    HW140145   0.919   2.755   2.650 -0.3028  1.9663  0.7701
 9561SOL    HW240146   1.027   2.849   2.601 -0.6127  1.1555  0.1718
 9562SOL     OW40147   4.245   2.035   9.997 -0.3554  0.0658 -0.5173
 9562SOL    HW140148   4.257   2.125   9.967 -0.4983 -0.3272 -1.7509
 9562SOL    HW240149   4.312   1.988   9.947 -0.0070 -0.0969  0.1081
 9563SOL     OW40150   2.298   1.277   7.038 -0.3682  0.0804 -0.2064
 9563SOL    HW140151   2.243   1.225   7.097  1.0665 -0.3398  0.7545
 9563SOL    HW240152   2.265   1.365   7.058 -1.8334 -0.6850  0.7866
 9564SOL     OW40153   1.726   2.635   0.556 -0.1895  0.0322  0.1269
 9564SOL    HW140154   1.699   2.658   0.467 -0.0410 -0.9964 -0.1918
 9564SOL    HW240155   1.648   2.598   0.597  0.6969 -1.6767  0.3121
 9565SOL     OW40156   2.435   1.014  16.367  0.2487  0.4910 -0.0528
 9565SOL    HW140157   2.523   1.012  16.329 -1.0093 -0.9213 -2.8875
 9565SOL    HW240158   2.414   0.923  16.390  0.2545  1.2536  2.9891
 9566SOL     OW40159   4.018   4.122  14.835  0.0539 -0.6523 -0.0467
 9566SOL    HW140160   3.991   4.199  14.785  0.9837 -1.6453 -2.0857
 9566SOL    HW240161   3.938   4.072  14.853 -1.1134  0.2052 -2.8510
 9567SOL     OW40162   1.953   4.719   8.574  1.2430  0.0729 -0.0095
 9567SOL    HW140163   1.942   4.631   8.538  1.4046 -0.2032  0.6041
 9567SOL    HW240164   1.995   4.694   8.656  0.8583 -0.6150 -0.0205
 9568SOL     OW40165   0.503   0.725   0.092  0.3895  0.1064  0.1591
 9568SOL    HW140166   0.509   0.819   0.112 -1.5964  0.3117 -0.2482
 9568SOL    HW240167   0.543   0.687   0.170 -4.5961 -4.5046  0.4027
   4.72351   4.72351  17.69585
